 Entering Gaussian System, Link 0=g16
 Initial command:
 /nopt/nrel/apps/gaussian/g16C_1/g16/l1.exe "/lustre/eaglefs/scratch/user/qc/nah-dissc/nah-3-ccsd-1.3-631g/Gau-14652.inp" -scrdir="/lustre/eaglefs/scratch/user/qc/nah-dissc/nah-3-ccsd-1.3-631g/"
 Default is to use a total of  36 processors:
                               36 via shared-memory
                                1 via Linda
 Entering Link 1 = /nopt/nrel/apps/gaussian/g16C_1/g16/l1.exe PID=     14653.
  
 Copyright (c) 1988-2019, Gaussian, Inc.  All Rights Reserved.
  
 This is part of the Gaussian(R) 16 program.  It is based on
 the Gaussian(R) 09 system (copyright 2009, Gaussian, Inc.),
 the Gaussian(R) 03 system (copyright 2003, Gaussian, Inc.),
 the Gaussian(R) 98 system (copyright 1998, Gaussian, Inc.),
 the Gaussian(R) 94 system (copyright 1995, Gaussian, Inc.),
 the Gaussian 92(TM) system (copyright 1992, Gaussian, Inc.),
 the Gaussian 90(TM) system (copyright 1990, Gaussian, Inc.),
 the Gaussian 88(TM) system (copyright 1988, Gaussian, Inc.),
 the Gaussian 86(TM) system (copyright 1986, Carnegie Mellon
 University), and the Gaussian 82(TM) system (copyright 1983,
 Carnegie Mellon University). Gaussian is a federally registered
 trademark of Gaussian, Inc.
  
 This software contains proprietary and confidential information,
 including trade secrets, belonging to Gaussian, Inc.
  
 This software is provided under written license and may be
 used, copied, transmitted, or stored only in accord with that
 written license.
  
 The following legend is applicable only to US Government
 contracts under FAR:
  
                    RESTRICTED RIGHTS LEGEND
  
 Use, reproduction and disclosure by the US Government is
 subject to restrictions as set forth in subparagraphs (a)
 and (c) of the Commercial Computer Software - Restricted
 Rights clause in FAR 52.227-19.
  
 Gaussian, Inc.
 340 Quinnipiac St., Bldg. 40, Wallingford CT 06492
  
  
 ---------------------------------------------------------------
 Warning -- This program may not be used in any manner that
 competes with the business of Gaussian, Inc. or will provide
 assistance to any competitor of Gaussian, Inc.  The licensee
 of this program is prohibited from giving any competitor of
 Gaussian, Inc. access to this program.  By using this program,
 the user acknowledges that Gaussian, Inc. is engaged in the
 business of creating and licensing software in the field of
 computational chemistry and represents and warrants to the
 licensee that it is not a competitor of Gaussian, Inc. and that
 it will not use this program in any manner prohibited above.
 ---------------------------------------------------------------
  

 Cite this work as:
 Gaussian 16, Revision C.01,
 M. J. Frisch, G. W. Trucks, H. B. Schlegel, G. E. Scuseria, 
 M. A. Robb, J. R. Cheeseman, G. Scalmani, V. Barone, 
 G. A. Petersson, H. Nakatsuji, X. Li, M. Caricato, A. V. Marenich, 
 J. Bloino, B. G. Janesko, R. Gomperts, B. Mennucci, H. P. Hratchian, 
 J. V. Ortiz, A. F. Izmaylov, J. L. Sonnenberg, D. Williams-Young, 
 F. Ding, F. Lipparini, F. Egidi, J. Goings, B. Peng, A. Petrone, 
 T. Henderson, D. Ranasinghe, V. G. Zakrzewski, J. Gao, N. Rega, 
 G. Zheng, W. Liang, M. Hada, M. Ehara, K. Toyota, R. Fukuda, 
 J. Hasegawa, M. Ishida, T. Nakajima, Y. Honda, O. Kitao, H. Nakai, 
 T. Vreven, K. Throssell, J. A. Montgomery, Jr., J. E. Peralta, 
 F. Ogliaro, M. J. Bearpark, J. J. Heyd, E. N. Brothers, K. N. Kudin, 
 V. N. Staroverov, T. A. Keith, R. Kobayashi, J. Normand, 
 K. Raghavachari, A. P. Rendell, J. C. Burant, S. S. Iyengar, 
 J. Tomasi, M. Cossi, J. M. Millam, M. Klene, C. Adamo, R. Cammi, 
 J. W. Ochterski, R. L. Martin, K. Morokuma, O. Farkas, 
 J. B. Foresman, and D. J. Fox, Gaussian, Inc., Wallingford CT, 2019.
 
 ******************************************
 Gaussian 16:  ES64L-G16RevC.01  3-Jul-2019
                28-Mar-2022 
 ******************************************
 %chk=molecule
 Default route: CacheSize=180224 MaxDisk=256GB
 ----------------------------------------------------------------------
 #P CCSD(MaxCyc=200,SaveAmplitudes,ReadAmplitudes)/GEN sp pop=AllOrbita
 ls iop(3/33=1,3/36=-1)
 ----------------------------------------------------------------------
 1/4=180224,38=1,172=1/1;
 2/4=180224,12=2,17=6,18=5,40=1/2;
 3/4=180224,5=7,11=9,25=1,30=1,33=1,36=-1/1,2,3;
 4/4=180224/1;
 5/4=180224,5=2,38=5/2;
 8/4=180224,6=4,9=120000,10=1,24=1/1,4;
 9/4=180224,5=7,6=200,77=1/13;
 6/4=180224,7=2,8=2,9=2,10=2,96=-1/1;
 99/4=180224,5=1,9=1/99;
 Leave Link    1 at Mon Mar 28 14:25:17 2022, MaxMem=           0 cpu:               2.9 elap:               0.1
 (Enter /nopt/nrel/apps/gaussian/g16C_1/g16/l101.exe)
 ----
 test
 ----
 Symbolic Z-matrix:
 Charge =  0 Multiplicity = 3
 H                     0.        0.        0. 
 Na                    0.        0.        1.3 
 
 ITRead=  0  0
 MicOpt= -1 -1
 NAtoms=      2 NQM=        2 NQMF=       0 NMMI=      0 NMMIF=      0
                NMic=       0 NMicF=      0.
                    Isotopes and Nuclear Properties:
 (Nuclear quadrupole moments (NQMom) in fm**2, nuclear magnetic moments (NMagM)
  in nuclear magnetons)

  Atom         1           2
 IAtWgt=           1          23
 AtmWgt=   1.0078250  22.9897697
 NucSpn=           1           3
 AtZEff=  -0.0000000  -0.0000000
 NQMom=    0.0000000  10.4000000
 NMagM=    2.7928460   2.2175200
 AtZNuc=   1.0000000  11.0000000
 Leave Link  101 at Mon Mar 28 14:25:18 2022, MaxMem=  9663676416 cpu:               3.4 elap:               0.1
 (Enter /nopt/nrel/apps/gaussian/g16C_1/g16/l202.exe)
                          Input orientation:                          
 ---------------------------------------------------------------------
 Center     Atomic      Atomic             Coordinates (Angstroms)
 Number     Number       Type             X           Y           Z
 ---------------------------------------------------------------------
      1          1           0        0.000000    0.000000    0.000000
      2         11           0        0.000000    0.000000    1.300000
 ---------------------------------------------------------------------
 Stoichiometry    HNa(3)
 Framework group  C*V[C*(HNa)]
 Deg. of freedom     1
 Full point group                 C*V     NOp   4
 Largest Abelian subgroup         C2V     NOp   4
 Largest concise Abelian subgroup C1      NOp   1
                         Standard orientation:                         
 ---------------------------------------------------------------------
 Center     Atomic      Atomic             Coordinates (Angstroms)
 Number     Number       Type             X           Y           Z
 ---------------------------------------------------------------------
      1          1           0        0.000000    0.000000   -1.191667
      2         11           0        0.000000    0.000000    0.108333
 ---------------------------------------------------------------------
 Rotational constants (GHZ):           0.0000000         309.7265578         309.7265578
 Leave Link  202 at Mon Mar 28 14:25:18 2022, MaxMem=  9663676416 cpu:               1.2 elap:               0.1
 (Enter /nopt/nrel/apps/gaussian/g16C_1/g16/l301.exe)
 General basis read from cards:  (5D, 7F)
                         Coordinates in L301:                         
 ---------------------------------------------------------------------
 Center     Atomic      Atomic             Coordinates (Angstroms)
 Number     Number       Type             X           Y           Z
 ---------------------------------------------------------------------
      1          1           0        0.000000    0.000000   -1.191667
      2         11           0        0.000000    0.000000    0.108333
 ---------------------------------------------------------------------
 Centers:       1
 STO-3G
 ****
 Centers:       2
 6-31G
 ****
 FixB: optimizing general contractions.
 Ernie: Thresh=  0.10000D-02 Tol=  0.10000D-05 Strict=F.
 IA=     1 ShT= 0 ShC= 0 NL=   1 NS=   0.
 IA=     1 L=0 SC=0 ISt=    0 NBk=    0 NP=    0 IndPr=    0.
 IA=     2 ShT= 0 ShC= 0 NL=   1 NS=   0.
 IA=     2 L=0 SC=0 ISt=    0 NBk=    0 NP=    0 IndPr=    0.
 IA=     2 ShT= 1 ShC= 0 NL=   3 NS=   1.
 IA=     2 L=1 SC=0 ISt=    1 NBk=    2 NP=    9 IndPr=    0.
 DoElim1:  L=1 select primitive    1 from    2 using    1 C=-3.54D-03
 DoElim2:  L=1 select primitive    9 from    1 using    2 C= 1.23D+00
 DoElim1:  L=1 select primitive    1 from    2 using    1 C= 5.00D-03
 DoElim2:  L=1 select primitive    8 from    1 using    2 C= 9.50D-01
 Delete L=1 primitive    7 from    2 C=  0.00D+00.
 Delete L=1 primitive    5 from    2 C=  0.00D+00.
 Delete L=1 primitive    4 from    2 C=  0.00D+00.
 Delete L=1 primitive    3 from    2 C=  0.00D+00.
 Delete L=1 primitive    2 from    2 C=  0.00D+00.
 Delete L=1 primitive    1 from    2 C=  0.00D+00.
 Delete L=1 primitive    9 from    1 C=  0.00D+00.
 Delete L=1 primitive    8 from    1 C=  0.00D+00.
 Delete L=1 primitive    6 from    1 C=  0.00D+00.
 IA=     2 L=1 SC=0 ISt=    0 NBk=    0 NP=    0 IndPr=    9.
 LdAtmC:  AtmChg=     1.000000    11.000000
 AtZEff=     -1.0000000    -10.0400000
 NEqShl: 
              1            2            3            4
     1            1            1            1            1
     2            2            2            2            2
     3            3            3            3            3
     4            4            4            4            4
     5            5            5            5            5
 NEqBas: 
              1            2            3            4
     1            1            1            1            1
     2            2            2            2            2
     3            3            3            3            3
     4            4           -4           -4            4
     5            5           -5            5           -5
     6            6            6            6            6
     7            7            7            7            7
     8            8           -8           -8            8
     9            9           -9            9           -9
    10           10           10           10           10
    11           11           11           11           11
    12           12          -12          -12           12
    13           13          -13           13          -13
    14           14           14           14           14
 There are     8 symmetry adapted cartesian basis functions of A1  symmetry.
   1         1   1   1   1
   2         2   2   2   2
   3         3   3   3   3
   4         6   6   6   6
   5         7   7   7   7
   6        10  10  10  10
   7        11  11  11  11
   8        14  14  14  14
 There are     0 symmetry adapted cartesian basis functions of A2  symmetry.
 There are     3 symmetry adapted cartesian basis functions of B1  symmetry.
   9         4   4   4   4
  10         8   8   8   8
  11        12  12  12  12
 There are     3 symmetry adapted cartesian basis functions of B2  symmetry.
  12         5   5   5   5
  13         9   9   9   9
  14        13  13  13  13
 Order= 1 2 4 3
 Reordered character table:
              1            2            3            4            5
     1            1            1            1            1            1
     2            2            1            1           -1           -1
     3            4            1           -1           -1            1
     4            3            1           -1            1           -1
 NEqShl: 
              1            2            3            4
     1            1            1            1            1
     2            2            2            2            2
     3            3            3            3            3
     4            4            4            4            4
     5            5            5            5            5
 NEqBas: 
              1            2            3            4
     1            1            1            1            1
     2            2            2            2            2
     3            3            3            3            3
     4            4           -4           -4            4
     5            5           -5            5           -5
     6            6            6            6            6
     7            7            7            7            7
     8            8           -8           -8            8
     9            9           -9            9           -9
    10           10           10           10           10
    11           11           11           11           11
    12           12          -12          -12           12
    13           13          -13           13          -13
    14           14           14           14           14
 There are     8 symmetry adapted basis functions of A1  symmetry.
   1         1   1   1   1
   2         2   2   2   2
   3         3   3   3   3
   4         6   6   6   6
   5         7   7   7   7
   6        10  10  10  10
   7        11  11  11  11
   8        14  14  14  14
 There are     0 symmetry adapted basis functions of A2  symmetry.
 There are     3 symmetry adapted basis functions of B1  symmetry.
   9         4   4   4   4
  10         8   8   8   8
  11        12  12  12  12
 There are     3 symmetry adapted basis functions of B2  symmetry.
  12         5   5   5   5
  13         9   9   9   9
  14        13  13  13  13
 Order= 1 2 4 3
 Reordered character table:
              1            2            3            4            5
     1            1            1            1            1            1
     2            2            1            1           -1           -1
     3            4            1           -1           -1            1
     4            3            1           -1            1           -1
    14 basis functions,    49 primitive gaussians,    14 cartesian basis functions
     7 alpha electrons        5 beta electrons
       nuclear repulsion energy         4.4776533232 Hartrees.
 IS=     1 IAt=     1 ISR=     1 T=0 IP=      1 IndIP=      1 IndIPD=      0 C=  2.769344D-01  0.000000D+00                             NZ=T
 IS=     1 IAt=     1 ISR=     1 T=0 IP=      2 IndIP=      2 IndIPD=      1 C=  2.678389D-01  0.000000D+00                             NZ=T
 IS=     1 IAt=     1 ISR=     1 T=0 IP=      3 IndIP=      3 IndIPD=      2 C=  8.347367D-02  0.000000D+00                             NZ=T
 IS=     2 IAt=     2 ISR=     1 T=0 IP=      1 IndIP=      4 IndIPD=      0 C=  1.380276D+00  0.000000D+00                             NZ=T
 IS=     2 IAt=     2 ISR=     1 T=0 IP=      2 IndIP=      5 IndIPD=      1 C=  2.543440D+00  0.000000D+00                             NZ=T
 IS=     2 IAt=     2 ISR=     1 T=0 IP=      3 IndIP=      6 IndIPD=      2 C=  4.120502D+00  0.000000D+00                             NZ=T
 IS=     2 IAt=     2 ISR=     1 T=0 IP=      4 IndIP=      7 IndIPD=      3 C=  5.464941D+00  0.000000D+00                             NZ=T
 IS=     2 IAt=     2 ISR=     1 T=0 IP=      5 IndIP=      8 IndIPD=      4 C=  4.476262D+00  0.000000D+00                             NZ=T
 IS=     2 IAt=     2 ISR=     1 T=0 IP=      6 IndIP=      9 IndIPD=      5 C=  1.255723D+00  0.000000D+00                             NZ=T
 IS=     3 IAt=     2 ISR=     2 T=1 IP=      1 IndIP=     10 IndIPD=      0 C= -1.087231D-01  3.772614D+00                             NZ=T
 IS=     3 IAt=     2 ISR=     2 T=1 IP=      2 IndIP=     11 IndIPD=      1 C= -4.564910D-01  4.399752D+00                             NZ=T
 IS=     3 IAt=     2 ISR=     2 T=1 IP=      3 IndIP=     12 IndIPD=      2 C= -4.778739D-01  4.156503D+00                             NZ=T
 IS=     3 IAt=     2 ISR=     2 T=1 IP=      4 IndIP=     13 IndIPD=      3 C=  3.708017D-01  2.647056D+00                             NZ=T
 IS=     3 IAt=     2 ISR=     2 T=1 IP=      5 IndIP=     14 IndIPD=      4 C=  5.874076D-01  9.643141D-01                             NZ=T
 IS=     3 IAt=     2 ISR=     2 T=1 IP=      6 IndIP=     15 IndIPD=      5 C=  1.231036D-01  1.501277D-01                             NZ=T
 IS=     4 IAt=     2 ISR=     3 T=1 IP=      1 IndIP=     16 IndIPD=      0 C= -1.049885D-01 -1.372752D-02                             NZ=T
 IS=     4 IAt=     2 ISR=     3 T=1 IP=      2 IndIP=     17 IndIPD=      1 C= -1.469212D-02  6.158186D-02                             NZ=T
 IS=     4 IAt=     2 ISR=     3 T=1 IP=      3 IndIP=     18 IndIPD=      2 C=  1.153011D-01  2.888614D-03                             NZ=T
 IS=     5 IAt=     2 ISR=     4 T=1 IP=      1 IndIP=     19 IndIPD=      0 C=  4.608593D-02  1.484923D-02                             NZ=T
 IExCor=    0 DFT=F Ex=HF Corr=None ExCW=0 ScaHFX=  1.000000
 ScaDFX=  1.000000  1.000000  1.000000  1.000000 ScalE2=  1.000000  1.000000
 IRadAn=      5 IRanWt=     -1 IRanGd=            0 ICorTp=0 IEmpDi=  4
 NAtoms=    2 NActive=    2 NUniq=    2 SFac= 1.00D+00 NAtFMM=   60 NAOKFM=F Big=F
 Integral buffers will be    131072 words long.
 Raffenetti 2 integral format.
 Two-electron integral symmetry is turned on.
 Leave Link  301 at Mon Mar 28 14:25:18 2022, MaxMem=  9663676416 cpu:               2.1 elap:               0.1
 (Enter /nopt/nrel/apps/gaussian/g16C_1/g16/l302.exe)
 NPDir=0 NMtPBC=     1 NCelOv=     1 NCel=       1 NClECP=     1 NCelD=      1
         NCelK=      1 NCelE2=     1 NClLst=     1 CellRange=     0.0.
 One-electron integrals computed using PRISM.
 One-electron integral symmetry used in STVInt
 Entering OneElI...
 Calculate overlap and kinetic energy integrals
    NBasis =  14  MinDer = 0  MaxDer = 0
 Requested accuracy = 0.1000D-12
 Symmetry will be used
 PrmmSu-InSpLW:  IPartL=    0 NPrtUS=   36 NPrtUL=    1 DoSpLW=F IThBeg=    0 IThEnd=   35 NThAct=   36.
 PrSmSu:  IncTry=   512 NBBP=             15 NTPThr=   100 NPartT=   36 Incr=           1 LDynOK=F GPUOK=F.
 PrsmSu:  NPrtUS=  36 ThrOK=T IAlg=1 LenDen=           0 ISkipM=0 DoSpLW=F IThBeg=    0 IThEnd=   35.
 Prism:   IPart=     0 DynPar=F LinDyn=F Incr=           1.
 PRISM was handed   268432468 working-precision words and    15 shell-pairs
 PRISM was handed   268432468 working-precision words and    15 shell-pairs
 PRISM was handed   268432468 working-precision words and    15 shell-pairs
 PRISM was handed   268432468 working-precision words and    15 shell-pairs
 PRISM was handed   268432468 working-precision words and    15 shell-pairs
 PRISM was handed   268432468 working-precision words and    15 shell-pairs
 PRISM was handed   268432468 working-precision words and    15 shell-pairs
 PRISM was handed   268432468 working-precision words and    15 shell-pairs
 PRISM was handed   268432468 working-precision words and    15 shell-pairs
 IPart= 13 NShTot=           0 NBatch=           0 AvBLen=         0.0
 PRISM was handed   268432468 working-precision words and    15 shell-pairs
 IPart= 21 NShTot=           0 NBatch=           0 AvBLen=         0.0
 PRISM was handed   268432468 working-precision words and    15 shell-pairs
 IPart= 28 NShTot=           0 NBatch=           0 AvBLen=         0.0
 IPart= 19 NShTot=           0 NBatch=           0 AvBLen=         0.0
 PRISM was handed   268432468 working-precision words and    15 shell-pairs
 IPart=  3 NShTot=           0 NBatch=           0 AvBLen=         0.0
 IPart= 16 NShTot=           0 NBatch=           0 AvBLen=         0.0
 PRISM was handed   268432468 working-precision words and    15 shell-pairs
 PRISM was handed   268432468 working-precision words and    15 shell-pairs
 IPart= 32 NShTot=           0 NBatch=           0 AvBLen=         0.0
 PRISM was handed   268432468 working-precision words and    15 shell-pairs
 IPart= 24 NShTot=           0 NBatch=           0 AvBLen=         0.0
 PRISM was handed   268432468 working-precision words and    15 shell-pairs
 PRISM was handed   268432468 working-precision words and    15 shell-pairs
 IPart=  5 NShTot=           0 NBatch=           0 AvBLen=         0.0
 IPart= 35 NShTot=           0 NBatch=           0 AvBLen=         0.0
 IPart= 31 NShTot=           0 NBatch=           0 AvBLen=         0.0
 IPart=  6 NShTot=           0 NBatch=           0 AvBLen=         0.0
 IPart= 29 NShTot=           0 NBatch=           0 AvBLen=         0.0
 IPart= 26 NShTot=           0 NBatch=           0 AvBLen=         0.0
 PRISM was handed   268432468 working-precision words and    15 shell-pairs
 IPart= 12 NShTot=           0 NBatch=           0 AvBLen=         0.0
 PRISM was handed   268432468 working-precision words and    15 shell-pairs
 PRISM was handed   268432468 working-precision words and    15 shell-pairs
 PRISM was handed   268432468 working-precision words and    15 shell-pairs
 IPart= 25 NShTot=           0 NBatch=           0 AvBLen=         0.0
 PRISM was handed   268432468 working-precision words and    15 shell-pairs
 IPart=  7 NShTot=           0 NBatch=           0 AvBLen=         0.0
 PRISM was handed   268432468 working-precision words and    15 shell-pairs
 PRISM was handed   268432468 working-precision words and    15 shell-pairs
 IPart=  8 NShTot=           0 NBatch=           0 AvBLen=         0.0
 PRISM was handed   268432468 working-precision words and    15 shell-pairs
 IPart= 18 NShTot=           0 NBatch=           0 AvBLen=         0.0
 IPart= 17 NShTot=           0 NBatch=           0 AvBLen=         0.0
 IPart=  2 NShTot=           0 NBatch=           0 AvBLen=         0.0
 IPart= 27 NShTot=           0 NBatch=           0 AvBLen=         0.0
 IPart=  4 NShTot=           0 NBatch=           0 AvBLen=         0.0
 PRISM was handed   268432468 working-precision words and    15 shell-pairs
 PRISM was handed   268432468 working-precision words and    15 shell-pairs
 IPart=  1 NShTot=           1 NBatch=           1 AvBLen=         1.0
 PRISM was handed   268432468 working-precision words and    15 shell-pairs
 IPart= 10 NShTot=           0 NBatch=           0 AvBLen=         0.0
 IPart= 34 NShTot=           0 NBatch=           0 AvBLen=         0.0
 PRISM was handed   268432468 working-precision words and    15 shell-pairs
 PRISM was handed   268432468 working-precision words and    15 shell-pairs
 PRISM was handed   268432468 working-precision words and    15 shell-pairs
 PRISM was handed   268432468 working-precision words and    15 shell-pairs
 IPart= 33 NShTot=           0 NBatch=           0 AvBLen=         0.0
 PRISM was handed   268432468 working-precision words and    15 shell-pairs
 PRISM was handed   268432468 working-precision words and    15 shell-pairs
 PRISM was handed   268432468 working-precision words and    15 shell-pairs
 PRISM was handed   268432468 working-precision words and    15 shell-pairs
 IPart= 30 NShTot=           0 NBatch=           0 AvBLen=         0.0
 IPart= 14 NShTot=           0 NBatch=           0 AvBLen=         0.0
 IPart= 15 NShTot=           0 NBatch=           0 AvBLen=         0.0
 IPart=  9 NShTot=           0 NBatch=           0 AvBLen=         0.0
 IPart=  0 NShTot=          14 NBatch=          14 AvBLen=         1.0
 IPart= 20 NShTot=           0 NBatch=           0 AvBLen=         0.0
 IPart= 11 NShTot=           0 NBatch=           0 AvBLen=         0.0
 IPart= 23 NShTot=           0 NBatch=           0 AvBLen=         0.0
 IPart= 22 NShTot=           0 NBatch=           0 AvBLen=         0.0
 PrSmSu:  NxtVal=             37.
 *** Overlap *** 
                1             2             3             4             5 
      1  0.100000D+01
      2  0.151231D-01  0.100000D+01
      3  0.175126D+00  0.230835D+00  0.100000D+01
      4  0.000000D+00  0.000000D+00  0.000000D+00  0.100000D+01
      5  0.000000D+00  0.000000D+00  0.000000D+00  0.000000D+00  0.100000D+01
      6 -0.170366D+00  0.000000D+00  0.000000D+00  0.000000D+00  0.000000D+00
      7  0.446338D+00 -0.127644D-04  0.161245D+00  0.000000D+00  0.000000D+00
      8  0.000000D+00  0.000000D+00  0.000000D+00  0.186871D+00  0.000000D+00
      9  0.000000D+00  0.000000D+00  0.000000D+00  0.000000D+00  0.186871D+00
     10 -0.516059D+00  0.000000D+00  0.000000D+00  0.000000D+00  0.000000D+00
     11  0.339871D+00  0.189170D-01  0.190082D+00  0.000000D+00  0.000000D+00
     12  0.000000D+00  0.000000D+00  0.000000D+00  0.574619D-01  0.000000D+00
     13  0.000000D+00  0.000000D+00  0.000000D+00  0.000000D+00  0.574619D-01
     14 -0.242462D+00  0.000000D+00  0.000000D+00  0.000000D+00  0.000000D+00
                6             7             8             9            10 
      6  0.100000D+01
      7  0.000000D+00  0.100000D+01
      8  0.000000D+00  0.000000D+00  0.100000D+01
      9  0.000000D+00  0.000000D+00  0.000000D+00  0.100000D+01
     10  0.186871D+00  0.000000D+00  0.000000D+00  0.000000D+00  0.100000D+01
     11  0.000000D+00  0.876272D+00  0.000000D+00  0.000000D+00  0.000000D+00
     12  0.000000D+00  0.000000D+00  0.672925D+00  0.000000D+00  0.000000D+00
     13  0.000000D+00  0.000000D+00  0.000000D+00  0.672925D+00  0.000000D+00
     14  0.574619D-01  0.000000D+00  0.000000D+00  0.000000D+00  0.672925D+00
               11            12            13            14 
     11  0.100000D+01
     12  0.000000D+00  0.100000D+01
     13  0.000000D+00  0.000000D+00  0.100000D+01
     14  0.000000D+00  0.000000D+00  0.000000D+00  0.100000D+01
 *** Kinetic Energy *** 
                1             2             3             4             5 
      1  0.760032D+00
      2 -0.503780D-02  0.565455D+02
      3 -0.895061D-02 -0.266647D+01  0.196759D+01
      4  0.000000D+00  0.000000D+00  0.000000D+00  0.588848D+01
      5  0.000000D+00  0.000000D+00  0.000000D+00  0.000000D+00  0.588848D+01
      6 -0.480559D-01  0.000000D+00  0.000000D+00  0.000000D+00  0.000000D+00
      7  0.588964D-01 -0.516638D-01 -0.152029D+00  0.000000D+00  0.000000D+00
      8  0.000000D+00  0.000000D+00  0.000000D+00  0.478086D-01  0.000000D+00
      9  0.000000D+00  0.000000D+00  0.000000D+00  0.000000D+00  0.478086D-01
     10 -0.138665D+00  0.000000D+00  0.000000D+00  0.000000D+00  0.000000D+00
     11  0.216000D-01  0.147038D-02  0.142898D-01  0.000000D+00  0.000000D+00
     12  0.000000D+00  0.000000D+00  0.000000D+00  0.716353D-02  0.000000D+00
     13  0.000000D+00  0.000000D+00  0.000000D+00  0.000000D+00  0.716353D-02
     14 -0.268187D-01  0.000000D+00  0.000000D+00  0.000000D+00  0.000000D+00
                6             7             8             9            10 
      6  0.588848D+01
      7  0.000000D+00  0.116833D+00
      8  0.000000D+00  0.000000D+00  0.205703D+00
      9  0.000000D+00  0.000000D+00  0.000000D+00  0.205703D+00
     10  0.478086D-01  0.000000D+00  0.000000D+00  0.000000D+00  0.205703D+00
     11  0.000000D+00  0.474660D-01  0.000000D+00  0.000000D+00  0.000000D+00
     12  0.000000D+00  0.000000D+00  0.664432D-01  0.000000D+00  0.000000D+00
     13  0.000000D+00  0.000000D+00  0.000000D+00  0.664432D-01  0.000000D+00
     14  0.716353D-02  0.000000D+00  0.000000D+00  0.000000D+00  0.664432D-01
               11            12            13            14 
     11  0.389316D-01
     12  0.000000D+00  0.648860D-01
     13  0.000000D+00  0.000000D+00  0.648860D-01
     14  0.000000D+00  0.000000D+00  0.000000D+00  0.648860D-01
 Entering OneElI...
 Calculate potential energy integrals
    NBasis =  14  MinDer = 0  MaxDer = 0
 Requested accuracy = 0.1000D-12
 Symmetry will be used
 PrmmSu-InSpLW:  IPartL=    0 NPrtUS=   36 NPrtUL=    1 DoSpLW=F IThBeg=    0 IThEnd=   35 NThAct=   36.
 PrSmSu:  IncTry=   512 NBBP=             30 NTPThr=   100 NPartT=   36 Incr=           1 LDynOK=F GPUOK=F.
 PrsmSu:  NPrtUS=  36 ThrOK=T IAlg=1 LenDen=           0 ISkipM=0 DoSpLW=F IThBeg=    0 IThEnd=   35.
 Prism:   IPart=     0 DynPar=F LinDyn=F Incr=           1.
 PRISM was handed   268432558 working-precision words and    15 shell-pairs
 PRISM was handed   268432558 working-precision words and    15 shell-pairs
 PRISM was handed   268432558 working-precision words and    15 shell-pairs
 PRISM was handed   268432558 working-precision words and    15 shell-pairs
 PRISM was handed   268432558 working-precision words and    15 shell-pairs
 PRISM was handed   268432558 working-precision words and    15 shell-pairs
 PRISM was handed   268432558 working-precision words and    15 shell-pairs
 PRISM was handed   268432558 working-precision words and    15 shell-pairs
 PRISM was handed   268432558 working-precision words and    15 shell-pairs
 PRISM was handed   268432558 working-precision words and    15 shell-pairs
 PRISM was handed   268432558 working-precision words and    15 shell-pairs
 PRISM was handed   268432558 working-precision words and    15 shell-pairs
 PRISM was handed   268432558 working-precision words and    15 shell-pairs
 PRISM was handed   268432558 working-precision words and    15 shell-pairs
 PRISM was handed   268432558 working-precision words and    15 shell-pairs
 PRISM was handed   268432558 working-precision words and    15 shell-pairs
 PRISM was handed   268432558 working-precision words and    15 shell-pairs
 PRISM was handed   268432558 working-precision words and    15 shell-pairs
 PRISM was handed   268432558 working-precision words and    15 shell-pairs
 PRISM was handed   268432558 working-precision words and    15 shell-pairs
 PRISM was handed   268432558 working-precision words and    15 shell-pairs
 PRISM was handed   268432558 working-precision words and    15 shell-pairs
 PRISM was handed   268432558 working-precision words and    15 shell-pairs
 PRISM was handed   268432558 working-precision words and    15 shell-pairs
 PRISM was handed   268432558 working-precision words and    15 shell-pairs
 PRISM was handed   268432558 working-precision words and    15 shell-pairs
 PRISM was handed   268432558 working-precision words and    15 shell-pairs
 PRISM was handed   268432558 working-precision words and    15 shell-pairs
 PRISM was handed   268432558 working-precision words and    15 shell-pairs
 PRISM was handed   268432558 working-precision words and    15 shell-pairs
 PRISM was handed   268432558 working-precision words and    15 shell-pairs
 PRISM was handed   268432558 working-precision words and    15 shell-pairs
 PRISM was handed   268432558 working-precision words and    15 shell-pairs
 PRISM was handed   268432558 working-precision words and    15 shell-pairs
 PRISM was handed   268432558 working-precision words and    15 shell-pairs
 PRISM was handed   268432558 working-precision words and    15 shell-pairs
 IPart= 10 NShTot=           0 NBatch=           0 AvBLen=         0.0
 IPart= 12 NShTot=           0 NBatch=           0 AvBLen=         0.0
 IPart= 27 NShTot=           0 NBatch=           0 AvBLen=         0.0
 IPart= 16 NShTot=           0 NBatch=           0 AvBLen=         0.0
 IPart= 23 NShTot=           0 NBatch=           0 AvBLen=         0.0
 IPart=  3 NShTot=           0 NBatch=           0 AvBLen=         0.0
 IPart=  9 NShTot=           0 NBatch=           0 AvBLen=         0.0
 IPart= 21 NShTot=           0 NBatch=           0 AvBLen=         0.0
 IPart= 35 NShTot=           0 NBatch=           0 AvBLen=         0.0
 IPart= 13 NShTot=           0 NBatch=           0 AvBLen=         0.0
 IPart= 31 NShTot=           0 NBatch=           0 AvBLen=         0.0
 IPart=  7 NShTot=           0 NBatch=           0 AvBLen=         0.0
 IPart= 28 NShTot=           0 NBatch=           0 AvBLen=         0.0
 IPart= 33 NShTot=           0 NBatch=           0 AvBLen=         0.0
 IPart=  2 NShTot=           0 NBatch=           0 AvBLen=         0.0
 IPart= 22 NShTot=           0 NBatch=           0 AvBLen=         0.0
 IPart= 19 NShTot=           0 NBatch=           0 AvBLen=         0.0
 IPart= 34 NShTot=           0 NBatch=           0 AvBLen=         0.0
 IPart= 20 NShTot=           0 NBatch=           0 AvBLen=         0.0
 IPart= 26 NShTot=           0 NBatch=           0 AvBLen=         0.0
 IPart= 25 NShTot=           0 NBatch=           0 AvBLen=         0.0
 IPart=  4 NShTot=           0 NBatch=           0 AvBLen=         0.0
 IPart= 18 NShTot=           0 NBatch=           0 AvBLen=         0.0
 IPart= 32 NShTot=           0 NBatch=           0 AvBLen=         0.0
 IPart= 24 NShTot=           0 NBatch=           0 AvBLen=         0.0
 IPart= 17 NShTot=           0 NBatch=           0 AvBLen=         0.0
 IPart= 11 NShTot=           0 NBatch=           0 AvBLen=         0.0
 IPart= 14 NShTot=           0 NBatch=           0 AvBLen=         0.0
 IPart=  5 NShTot=           0 NBatch=           0 AvBLen=         0.0
 IPart= 15 NShTot=           0 NBatch=           0 AvBLen=         0.0
 IPart=  8 NShTot=           0 NBatch=           0 AvBLen=         0.0
 IPart=  6 NShTot=           0 NBatch=           0 AvBLen=         0.0
 IPart= 29 NShTot=           0 NBatch=           0 AvBLen=         0.0
 IPart= 30 NShTot=           0 NBatch=           0 AvBLen=         0.0
 IPart=  1 NShTot=           2 NBatch=           1 AvBLen=         2.0
 IPart=  0 NShTot=          28 NBatch=          14 AvBLen=         2.0
 PrSmSu:  NxtVal=             37.
 ***** Potential Energy ***** 
                1             2             3             4             5 
      1  0.566251D+01
      2  0.884438D+00  0.117368D+03
      3  0.208454D+01  0.107007D+02  0.182332D+02
      4  0.000000D+00  0.000000D+00  0.000000D+00  0.190534D+02
      5  0.000000D+00  0.000000D+00  0.000000D+00  0.000000D+00  0.190534D+02
      6 -0.153041D+01 -0.761904D-02 -0.738556D-01  0.000000D+00  0.000000D+00
      7  0.221798D+01 -0.498368D-01  0.135250D+01  0.000000D+00  0.000000D+00
      8  0.000000D+00  0.000000D+00  0.000000D+00  0.158227D+01  0.000000D+00
      9  0.000000D+00  0.000000D+00  0.000000D+00  0.000000D+00  0.158227D+01
     10 -0.246505D+01 -0.116549D-03 -0.203156D-01  0.000000D+00  0.000000D+00
     11  0.171249D+01  0.111350D+01  0.232396D+01  0.000000D+00  0.000000D+00
     12  0.000000D+00  0.000000D+00  0.000000D+00  0.470154D+00  0.000000D+00
     13  0.000000D+00  0.000000D+00  0.000000D+00  0.000000D+00  0.470154D+00
     14 -0.101480D+01 -0.337729D-04 -0.617592D-02  0.000000D+00  0.000000D+00
                6             7             8             9            10 
      6  0.190861D+02
      7 -0.318532D-01  0.390290D+01
      8  0.000000D+00  0.000000D+00  0.357855D+01
      9  0.000000D+00  0.000000D+00  0.000000D+00  0.357855D+01
     10  0.160275D+01 -0.122855D+00  0.000000D+00  0.000000D+00  0.367022D+01
     11 -0.273964D-01  0.314730D+01  0.000000D+00  0.000000D+00 -0.941912D-01
     12  0.000000D+00  0.000000D+00  0.197712D+01  0.000000D+00  0.000000D+00
     13  0.000000D+00  0.000000D+00  0.000000D+00  0.197712D+01  0.000000D+00
     14  0.476624D+00 -0.585834D-01  0.000000D+00  0.000000D+00  0.201859D+01
               11            12            13            14 
     11  0.306051D+01
     12  0.000000D+00  0.204662D+01
     13  0.000000D+00  0.000000D+00  0.204662D+01
     14 -0.563993D-01  0.000000D+00  0.000000D+00  0.207243D+01
 ****** Core Hamiltonian ****** 
                1             2             3             4             5 
      1 -0.490248D+01
      2 -0.889476D+00 -0.608223D+02
      3 -0.209349D+01 -0.133671D+02 -0.162656D+02
      4  0.000000D+00  0.000000D+00  0.000000D+00 -0.131649D+02
      5  0.000000D+00  0.000000D+00  0.000000D+00  0.000000D+00 -0.131649D+02
      6  0.148235D+01  0.761904D-02  0.738556D-01  0.000000D+00  0.000000D+00
      7 -0.215909D+01 -0.182698D-02 -0.150453D+01  0.000000D+00  0.000000D+00
      8  0.000000D+00  0.000000D+00  0.000000D+00 -0.153446D+01  0.000000D+00
      9  0.000000D+00  0.000000D+00  0.000000D+00  0.000000D+00 -0.153446D+01
     10  0.232638D+01  0.116549D-03  0.203156D-01  0.000000D+00  0.000000D+00
     11 -0.169089D+01 -0.111203D+01 -0.230967D+01  0.000000D+00  0.000000D+00
     12  0.000000D+00  0.000000D+00  0.000000D+00 -0.462991D+00  0.000000D+00
     13  0.000000D+00  0.000000D+00  0.000000D+00  0.000000D+00 -0.462991D+00
     14  0.987979D+00  0.337729D-04  0.617592D-02  0.000000D+00  0.000000D+00
                6             7             8             9            10 
      6 -0.131976D+02
      7  0.318532D-01 -0.378607D+01
      8  0.000000D+00  0.000000D+00 -0.337285D+01
      9  0.000000D+00  0.000000D+00  0.000000D+00 -0.337285D+01
     10 -0.155494D+01  0.122855D+00  0.000000D+00  0.000000D+00 -0.346452D+01
     11  0.273964D-01 -0.309983D+01  0.000000D+00  0.000000D+00  0.941912D-01
     12  0.000000D+00  0.000000D+00 -0.191068D+01  0.000000D+00  0.000000D+00
     13  0.000000D+00  0.000000D+00  0.000000D+00 -0.191068D+01  0.000000D+00
     14 -0.469460D+00  0.585834D-01  0.000000D+00  0.000000D+00 -0.195214D+01
               11            12            13            14 
     11 -0.302158D+01
     12  0.000000D+00 -0.198173D+01
     13  0.000000D+00  0.000000D+00 -0.198173D+01
     14  0.563993D-01  0.000000D+00  0.000000D+00 -0.200755D+01
 SVDSVc IOpt=   1 NormSV=T IR=1
 SVDSVc V= 2.35D+00 1.81D+00 1.19D+00 9.76D-01 7.47D-01 5.83D-01 2.35D-01 1.06D-01
 SVDSVc IOpt=   1 NormSV=T IR=3
 SVDSVc V= 1.72D+00 9.71D-01 3.14D-01
 SVDSVc IOpt=   1 NormSV=T IR=4
 SVDSVc V= 1.72D+00 9.71D-01 3.14D-01
 TstOVc:  Largest diagonal error= 3.77D-15 IB=1 I=    8.
 TstOVc:  Largest same sym error= 1.12D-15 IB=1 I=    8 J=    7.
 TstOVc:  Largest diff sym error= 0.00D+00 IB=0 JB=0 I=    0 J=    0.
 Orthogonalized basis functions: 
                 1             2             3             4             5 
      1   0.332480D+00 -0.101798D+00 -0.107816D-01 -0.913002D-01  0.128287D+00
      2   0.306141D-01  0.384951D-01  0.689807D+00  0.825239D-02 -0.752617D+00
      3   0.131880D+00  0.117452D+00  0.568104D+00  0.142075D-02  0.830696D+00
      4   0.000000D+00  0.000000D+00  0.000000D+00  0.000000D+00  0.000000D+00
      5   0.000000D+00  0.000000D+00  0.000000D+00  0.000000D+00  0.000000D+00
      6  -0.802636D-01  0.145784D+00  0.262640D-04  0.945536D+00  0.599175D-01
      7   0.329831D+00  0.292165D+00 -0.162320D+00  0.336987D-01 -0.164396D+00
      8   0.000000D+00  0.000000D+00  0.000000D+00  0.000000D+00  0.000000D+00
      9   0.000000D+00  0.000000D+00  0.000000D+00  0.000000D+00  0.000000D+00
     10  -0.224629D+00  0.420989D+00 -0.668924D-02 -0.102045D+00  0.120725D-01
     11   0.315923D+00  0.301022D+00 -0.133531D+00  0.453316D-01 -0.170735D+00
     12   0.000000D+00  0.000000D+00  0.000000D+00  0.000000D+00  0.000000D+00
     13   0.000000D+00  0.000000D+00  0.000000D+00  0.000000D+00  0.000000D+00
     14  -0.174619D+00  0.389531D+00 -0.101266D-01 -0.328997D+00  0.772024D-01
                 6             7             8             9            10 
      1   0.933952D+00  0.792903D+00 -0.642018D+00  0.000000D+00  0.000000D+00
      2   0.112072D+00  0.261611D-01  0.164608D-01  0.000000D+00  0.000000D+00
      3  -0.233445D+00 -0.920029D-01  0.137803D+00  0.000000D+00  0.000000D+00
      4   0.000000D+00  0.000000D+00  0.000000D+00  0.180764D+00  0.976429D+00
      5   0.000000D+00  0.000000D+00  0.000000D+00  0.000000D+00  0.000000D+00
      6   0.341768D+00 -0.105124D+00 -0.238338D-01  0.000000D+00  0.000000D+00
      7  -0.139897D+00  0.208412D+00  0.220218D+01  0.000000D+00  0.000000D+00
      8   0.000000D+00  0.000000D+00  0.000000D+00  0.532957D+00 -0.716361D-01
      9   0.000000D+00  0.000000D+00  0.000000D+00  0.000000D+00  0.000000D+00
     10  -0.125398D+00  0.147152D+01 -0.544227D+00  0.000000D+00  0.000000D+00
     11  -0.366248D+00 -0.568864D+00 -0.194454D+01  0.000000D+00  0.000000D+00
     12   0.000000D+00  0.000000D+00  0.000000D+00  0.516103D+00 -0.268016D+00
     13   0.000000D+00  0.000000D+00  0.000000D+00  0.000000D+00  0.000000D+00
     14   0.698963D+00 -0.103536D+01  0.237112D+00  0.000000D+00  0.000000D+00
                11            12            13            14 
      1   0.000000D+00  0.000000D+00  0.000000D+00  0.000000D+00
      2   0.000000D+00  0.000000D+00  0.000000D+00  0.000000D+00
      3   0.000000D+00  0.000000D+00  0.000000D+00  0.000000D+00
      4  -0.243572D+00  0.000000D+00  0.000000D+00  0.000000D+00
      5   0.000000D+00  0.180764D+00  0.976429D+00 -0.243572D+00
      6   0.000000D+00  0.000000D+00  0.000000D+00  0.000000D+00
      7   0.000000D+00  0.000000D+00  0.000000D+00  0.000000D+00
      8   0.127086D+01  0.000000D+00  0.000000D+00  0.000000D+00
      9   0.000000D+00  0.532957D+00 -0.716361D-01  0.127086D+01
     10   0.000000D+00  0.000000D+00  0.000000D+00  0.000000D+00
     11   0.000000D+00  0.000000D+00  0.000000D+00  0.000000D+00
     12  -0.122706D+01  0.000000D+00  0.000000D+00  0.000000D+00
     13   0.000000D+00  0.516103D+00 -0.268016D+00 -0.122706D+01
     14   0.000000D+00  0.000000D+00  0.000000D+00  0.000000D+00
 NBasis=    14 RedAO= T EigKep=  1.06D-01  NBF=     8     0     3     3
 NBsUse=    14 1.00D-06 EigRej= -1.00D+00 NBFU=     8     0     3     3
 Leave Link  302 at Mon Mar 28 14:25:18 2022, MaxMem=  9663676416 cpu:               3.3 elap:               0.1
 (Enter /nopt/nrel/apps/gaussian/g16C_1/g16/l303.exe)
 DipDrv will not compute anything.
 Fermi contact integrals: 
                 1             2 
      1   0.628247D+00  0.363313D-01
      2   0.000000D+00  0.192411D+02
      3   0.751736D-02  0.382249D-01
      4   0.000000D+00  0.000000D+00
      5   0.000000D+00  0.000000D+00
      6  -0.226671D-01  0.000000D+00
      7   0.630925D-01 -0.437955D-02
      8   0.000000D+00  0.000000D+00
      9   0.000000D+00  0.000000D+00
     10  -0.940060D-01  0.000000D+00
     11   0.394041D-01  0.460859D-01
     12   0.000000D+00  0.000000D+00
     13   0.000000D+00  0.000000D+00
     14  -0.311903D-01  0.000000D+00
 Leave Link  303 at Mon Mar 28 14:25:18 2022, MaxMem=  9663676416 cpu:               1.1 elap:               0.1
 (Enter /nopt/nrel/apps/gaussian/g16C_1/g16/l401.exe)
 ExpMin= 2.60D-02 ExpMax= 9.99D+03 ExpMxC= 1.50D+03 IAcc=3 IRadAn=         5 AccDes= 0.00D+00
 Harris functional with IExCor=  205 and IRadAn=       5 diagonalized for initial guess.
 HarFok:  IExCor=  205 AccDes= 0.00D+00 IRadAn=         5 IDoV= 1 UseB2=F ITyADJ=14
 ICtDFT=  3500011 ScaDFX=  1.000000  1.000000  1.000000  1.000000
 FoFCou: FMM=F IPFlag=           0 FMFlag=      100000 FMFlg1=           0
         NFxFlg=           0 DoJE=T BraDBF=F KetDBF=T FulRan=T
         wScrn=  0.000000 ICntrl=       500 IOpCl=  0 I1Cent=   200000004 NGrid=           0
         NMat0=    1 NMatS0=      1 NMatT0=    0 NMatD0=    1 NMtDS0=    0 NMtDT0=    0
 Petite list used in FoFCou.
 Harris En= -161.961893267760    
 JPrj=0 DoOrth=F DoCkMO=F.
 Initial guess orbital symmetries:
 Alpha Orbitals:
       Occupied  (SG) (SG) (SG) (PI) (PI) (SG) (SG)
       Virtual   (PI) (PI) (SG) (SG) (PI) (PI) (SG)
 Beta  Orbitals:
       Occupied  (SG) (SG) (SG) (PI) (PI)
       Virtual   (SG) (SG) (PI) (PI) (SG) (SG) (PI) (PI) (SG)
 The electronic state of the initial guess is 3-SG.
 Initial guess <Sx>= 0.0000 <Sy>= 0.0000 <Sz>= 1.0000 <S**2>= 2.0000 S= 1.0000
 Leave Link  401 at Mon Mar 28 14:25:18 2022, MaxMem=  9663676416 cpu:               3.5 elap:               0.1
 (Enter /nopt/nrel/apps/gaussian/g16C_1/g16/l502.exe)
 Keep R1 and R2 ints in memory in symmetry-blocked form, NReq=7223415.
 FoFCou: FMM=F IPFlag=           0 FMFlag=           0 FMFlg1=           0
         NFxFlg=           0 DoJE=F BraDBF=F KetDBF=F FulRan=T
         wScrn=  0.000000 ICntrl=       600 IOpCl=  0 I1Cent=           0 NGrid=           0
         NMat0=    1 NMatS0=    105 NMatT0=    0 NMatD0=    1 NMtDS0=    0 NMtDT0=    0
 Petite list used in FoFCou.
 UHF open shell SCF:
 Using DIIS extrapolation, IDIIS=  1040.
 NGot=  9663676416 LenX=  9663669932 LenY=  9663669050
 Requested convergence on RMS density matrix=1.00D-08 within 128 cycles.
 Requested convergence on MAX density matrix=1.00D-06.
 Requested convergence on             energy=1.00D-06.
 No special actions if energy rises.

 Cycle   1  Pass 1  IDiag  1:
 E= -162.190894217981    
 DIIS: error= 2.50D-02 at cycle   1 NSaved=   1.
 NSaved= 1 IEnMin= 1 EnMin= -162.190894217981     IErMin= 1 ErrMin= 2.50D-02
 ErrMax= 2.50D-02  0.00D+00 EMaxC= 1.00D-01 BMatC= 4.11D-02 BMatP= 4.11D-02
 IDIUse=3 WtCom= 7.50D-01 WtEn= 2.50D-01
 Coeff-Com:  0.100D+01
 Coeff-En:   0.100D+01
 Coeff:      0.100D+01
 Gap=     0.187 Goal=   None    Shift=    0.000
 Gap=     1.573 Goal=   None    Shift=    0.000
 GapD=    0.187 DampG=1.000 DampE=0.500 DampFc=0.5000 IDamp=-1.
 Damping current iteration by 5.00D-01
 RMSDP=1.23D-02 MaxDP=1.55D-01              OVMax= 3.94D-02

 Cycle   2  Pass 1  IDiag  1:
 E= -162.198945649775     Delta-E=       -0.008051431794 Rises=F Damp=T
 DIIS: error= 1.70D-02 at cycle   2 NSaved=   2.
 NSaved= 2 IEnMin= 2 EnMin= -162.198945649775     IErMin= 2 ErrMin= 1.70D-02
 ErrMax= 1.70D-02  0.00D+00 EMaxC= 1.00D-01 BMatC= 1.46D-02 BMatP= 4.11D-02
 IDIUse=3 WtCom= 8.30D-01 WtEn= 1.70D-01
 Coeff-Com: -0.136D+01 0.236D+01
 Coeff-En:   0.000D+00 0.100D+01
 Coeff:     -0.113D+01 0.213D+01
 Gap=     0.180 Goal=   None    Shift=    0.000
 Gap=     1.523 Goal=   None    Shift=    0.000
 RMSDP=1.01D-02 MaxDP=1.41D-01 DE=-8.05D-03 OVMax= 7.54D-03

 Cycle   3  Pass 1  IDiag  1:
 E= -162.210300827082     Delta-E=       -0.011355177308 Rises=F Damp=F
 DIIS: error= 2.76D-03 at cycle   3 NSaved=   3.
 NSaved= 3 IEnMin= 3 EnMin= -162.210300827082     IErMin= 3 ErrMin= 2.76D-03
 ErrMax= 2.76D-03  0.00D+00 EMaxC= 1.00D-01 BMatC= 2.21D-04 BMatP= 1.46D-02
 IDIUse=3 WtCom= 9.72D-01 WtEn= 2.76D-02
 Coeff-Com:  0.581D+00-0.110D+01 0.152D+01
 Coeff-En:   0.000D+00 0.000D+00 0.100D+01
 Coeff:      0.565D+00-0.107D+01 0.151D+01
 Gap=     0.180 Goal=   None    Shift=    0.000
 Gap=     1.522 Goal=   None    Shift=    0.000
 RMSDP=2.21D-03 MaxDP=3.02D-02 DE=-1.14D-02 OVMax= 2.66D-03

 Cycle   4  Pass 1  IDiag  1:
 E= -162.210495515648     Delta-E=       -0.000194688566 Rises=F Damp=F
 DIIS: error= 2.71D-04 at cycle   4 NSaved=   4.
 NSaved= 4 IEnMin= 4 EnMin= -162.210495515648     IErMin= 4 ErrMin= 2.71D-04
 ErrMax= 2.71D-04  0.00D+00 EMaxC= 1.00D-01 BMatC= 1.39D-06 BMatP= 2.21D-04
 IDIUse=3 WtCom= 9.97D-01 WtEn= 2.71D-03
 Coeff-Com: -0.108D+00 0.207D+00-0.333D+00 0.123D+01
 Coeff-En:   0.000D+00 0.000D+00 0.000D+00 0.100D+01
 Coeff:     -0.107D+00 0.206D+00-0.332D+00 0.123D+01
 Gap=     0.179 Goal=   None    Shift=    0.000
 Gap=     1.522 Goal=   None    Shift=    0.000
 RMSDP=4.32D-04 MaxDP=6.13D-03 DE=-1.95D-04 OVMax= 7.07D-05

 Cycle   5  Pass 1  IDiag  1:
 E= -162.210500335131     Delta-E=       -0.000004819484 Rises=F Damp=F
 DIIS: error= 1.15D-04 at cycle   5 NSaved=   5.
 NSaved= 5 IEnMin= 5 EnMin= -162.210500335131     IErMin= 5 ErrMin= 1.15D-04
 ErrMax= 1.15D-04  0.00D+00 EMaxC= 1.00D-01 BMatC= 2.40D-07 BMatP= 1.39D-06
 IDIUse=3 WtCom= 9.99D-01 WtEn= 1.15D-03
 Coeff-Com:  0.579D-01-0.112D+00 0.195D+00-0.110D+01 0.196D+01
 Coeff-En:   0.000D+00 0.000D+00 0.000D+00 0.000D+00 0.100D+01
 Coeff:      0.578D-01-0.112D+00 0.195D+00-0.110D+01 0.195D+01
 Gap=     0.179 Goal=   None    Shift=    0.000
 Gap=     1.522 Goal=   None    Shift=    0.000
 RMSDP=3.42D-04 MaxDP=4.89D-03 DE=-4.82D-06 OVMax= 2.08D-05

 Cycle   6  Pass 1  IDiag  1:
 E= -162.210501668792     Delta-E=       -0.000001333661 Rises=F Damp=F
 DIIS: error= 1.38D-05 at cycle   6 NSaved=   6.
 NSaved= 6 IEnMin= 6 EnMin= -162.210501668792     IErMin= 6 ErrMin= 1.38D-05
 ErrMax= 1.38D-05  0.00D+00 EMaxC= 1.00D-01 BMatC= 4.45D-09 BMatP= 2.40D-07
 IDIUse=1 WtCom= 1.00D+00 WtEn= 0.00D+00
 Coeff-Com: -0.779D-02 0.154D-01-0.292D-01 0.207D+00-0.499D+00 0.131D+01
 Coeff:     -0.779D-02 0.154D-01-0.292D-01 0.207D+00-0.499D+00 0.131D+01
 Gap=     0.179 Goal=   None    Shift=    0.000
 Gap=     1.522 Goal=   None    Shift=    0.000
 RMSDP=4.38D-05 MaxDP=5.73D-04 DE=-1.33D-06 OVMax= 6.80D-06

 Cycle   7  Pass 1  IDiag  1:
 E= -162.210501689735     Delta-E=       -0.000000020943 Rises=F Damp=F
 DIIS: error= 2.26D-06 at cycle   7 NSaved=   7.
 NSaved= 7 IEnMin= 7 EnMin= -162.210501689735     IErMin= 7 ErrMin= 2.26D-06
 ErrMax= 2.26D-06  0.00D+00 EMaxC= 1.00D-01 BMatC= 9.19D-11 BMatP= 4.45D-09
 IDIUse=1 WtCom= 1.00D+00 WtEn= 0.00D+00
 Coeff-Com:  0.198D-02-0.393D-02 0.759D-02-0.559D-01 0.145D+00-0.450D+00
 Coeff-Com:  0.135D+01
 Coeff:      0.198D-02-0.393D-02 0.759D-02-0.559D-01 0.145D+00-0.450D+00
 Coeff:      0.135D+01
 Gap=     0.179 Goal=   None    Shift=    0.000
 Gap=     1.522 Goal=   None    Shift=    0.000
 RMSDP=3.59D-06 MaxDP=2.99D-05 DE=-2.09D-08 OVMax= 6.44D-07

 Cycle   8  Pass 1  IDiag  1:
 E= -162.210501689995     Delta-E=       -0.000000000260 Rises=F Damp=F
 DIIS: error= 5.98D-07 at cycle   8 NSaved=   8.
 NSaved= 8 IEnMin= 8 EnMin= -162.210501689995     IErMin= 8 ErrMin= 5.98D-07
 ErrMax= 5.98D-07  0.00D+00 EMaxC= 1.00D-01 BMatC= 8.86D-12 BMatP= 9.19D-11
 IDIUse=1 WtCom= 1.00D+00 WtEn= 0.00D+00
 Coeff-Com: -0.516D-03 0.103D-02-0.202D-02 0.149D-01-0.422D-01 0.146D+00
 Coeff-Com: -0.719D+00 0.160D+01
 Coeff:     -0.516D-03 0.103D-02-0.202D-02 0.149D-01-0.422D-01 0.146D+00
 Coeff:     -0.719D+00 0.160D+01
 Gap=     0.179 Goal=   None    Shift=    0.000
 Gap=     1.522 Goal=   None    Shift=    0.000
 RMSDP=1.62D-06 MaxDP=1.41D-05 DE=-2.60D-10 OVMax= 1.92D-07

 Cycle   9  Pass 1  IDiag  1:
 E= -162.210501690025     Delta-E=       -0.000000000030 Rises=F Damp=F
 DIIS: error= 9.61D-08 at cycle   9 NSaved=   9.
 NSaved= 9 IEnMin= 9 EnMin= -162.210501690025     IErMin= 9 ErrMin= 9.61D-08
 ErrMax= 9.61D-08  0.00D+00 EMaxC= 1.00D-01 BMatC= 1.15D-13 BMatP= 8.86D-12
 IDIUse=1 WtCom= 1.00D+00 WtEn= 0.00D+00
 Coeff-Com:  0.650D-04-0.129D-03 0.242D-03-0.163D-02 0.483D-02-0.159D-01
 Coeff-Com:  0.972D-01-0.310D+00 0.123D+01
 Coeff:      0.650D-04-0.129D-03 0.242D-03-0.163D-02 0.483D-02-0.159D-01
 Coeff:      0.972D-01-0.310D+00 0.123D+01
 Gap=     0.179 Goal=   None    Shift=    0.000
 Gap=     1.522 Goal=   None    Shift=    0.000
 RMSDP=2.32D-07 MaxDP=3.35D-06 DE=-3.01D-11 OVMax= 5.79D-08

 Cycle  10  Pass 1  IDiag  1:
 E= -162.210501690025     Delta-E=       -0.000000000000 Rises=F Damp=F
 DIIS: error= 1.02D-08 at cycle  10 NSaved=  10.
 NSaved=10 IEnMin=10 EnMin= -162.210501690025     IErMin=10 ErrMin= 1.02D-08
 ErrMax= 1.02D-08  0.00D+00 EMaxC= 1.00D-01 BMatC= 1.72D-15 BMatP= 1.15D-13
 IDIUse=1 WtCom= 1.00D+00 WtEn= 0.00D+00
 Coeff-Com:  0.280D-06-0.482D-06 0.236D-05-0.415D-04-0.762D-05 0.912D-04
 Coeff-Com: -0.759D-02 0.420D-01-0.294D+00 0.126D+01
 Coeff:      0.280D-06-0.482D-06 0.236D-05-0.415D-04-0.762D-05 0.912D-04
 Coeff:     -0.759D-02 0.420D-01-0.294D+00 0.126D+01
 Gap=     0.179 Goal=   None    Shift=    0.000
 Gap=     1.522 Goal=   None    Shift=    0.000
 RMSDP=1.71D-08 MaxDP=2.09D-07 DE=-2.56D-13 OVMax= 2.98D-09

 Cycle  11  Pass 1  IDiag  1:
 E= -162.210501690025     Delta-E=       -0.000000000000 Rises=F Damp=F
 DIIS: error= 7.34D-10 at cycle  11 NSaved=  11.
 NSaved=11 IEnMin=11 EnMin= -162.210501690025     IErMin=11 ErrMin= 7.34D-10
 ErrMax= 7.34D-10  0.00D+00 EMaxC= 1.00D-01 BMatC= 2.05D-17 BMatP= 1.72D-15
 IDIUse=1 WtCom= 1.00D+00 WtEn= 0.00D+00
 Coeff-Com:  0.267D-06-0.532D-06 0.566D-06 0.342D-05 0.142D-04-0.380D-04
 Coeff-Com:  0.157D-02-0.871D-02 0.650D-01-0.333D+00 0.128D+01
 Coeff:      0.267D-06-0.532D-06 0.566D-06 0.342D-05 0.142D-04-0.380D-04
 Coeff:      0.157D-02-0.871D-02 0.650D-01-0.333D+00 0.128D+01
 Gap=     0.179 Goal=   None    Shift=    0.000
 Gap=     1.522 Goal=   None    Shift=    0.000
 RMSDP=1.82D-09 MaxDP=2.28D-08 DE=-5.68D-14 OVMax= 1.02D-09

 SCF Done:  E(UHF) =  -162.210501690     A.U. after   11 cycles
            NFock= 11  Conv=0.18D-08     -V/T= 1.9974
 <Sx>= 0.0000 <Sy>= 0.0000 <Sz>= 1.0000 <S**2>= 2.0001 S= 1.0000
 <L.S>= 0.000000000000E+00
 KE= 1.626361851674D+02 PE=-3.991126379307D+02 EE= 6.978829775014D+01
 Annihilation of the first spin contaminant:
 S**2 before annihilation     2.0001,   after     2.0000
 Leave Link  502 at Mon Mar 28 14:25:18 2022, MaxMem=  9663676416 cpu:               5.6 elap:               0.2
 (Enter /nopt/nrel/apps/gaussian/g16C_1/g16/l801.exe)
 Windowed orbitals will be sorted by symmetry type.
 ExpMin= 2.60D-02 ExpMax= 9.99D+03 ExpMxC= 1.50D+03 IAcc=3 IRadAn=         5 AccDes= 0.00D+00
 HarFok:  IExCor=  205 AccDes= 0.00D+00 IRadAn=         5 IDoV=-2 UseB2=F ITyADJ=14
 ICtDFT= 12500011 ScaDFX=  1.000000  1.000000  1.000000  1.000000
 Largest valence mixing into a core orbital is  3.84D-03
 Largest core mixing into a valence orbital is  3.13D-03
 Range of M.O.s used for correlation:     6    14
 NBasis=    14 NAE=     7 NBE=     5 NFC=     5 NFV=     0
 NROrb=      9 NOA=     2 NOB=     0 NVA=     7 NVB=     9
 Leave Link  801 at Mon Mar 28 14:25:18 2022, MaxMem=  9663676416 cpu:               2.7 elap:               0.1
 (Enter /nopt/nrel/apps/gaussian/g16C_1/g16/l804.exe)
 Open-shell transformation, MDV=  9663676416 ITran=4 ISComp=2.
 Unit  1 TFree=         14304 TCopy=        117557.
 Semi-Direct transformation.
 ModeAB=           2 MOrb=             2 LenV=    9663552238
 LASXX=          158 LTotXX=         158 LenRXX=         158
 LTotAB=         269 MaxLAS=        1890 LenRXY=        1890
 NonZer=        2214 LenScr=      785920 LnRSAI=           0
 LnScr1=           0 LExtra=      220944 Total=      1008912
 MaxDsk= 34359738368 SrtSym=           F ITran=            4
 DoSDTr:  NPSUse= 36
 JobTyp=1 Pass  1:  I=   1 to   2.
 (rs|ai) integrals will be sorted in core.
 Complete sort for first half transformation.
 First half transformation complete.
 Complete sort for second half transformation.
 Second half transformation complete.
 Spin components of T(2) and E(2):
     alpha-alpha T2 =       0.2801710749D-04 E2=     -0.2770676693D-04
     alpha-beta  T2 =       0.0000000000D+00 E2=      0.0000000000D+00
     beta-beta   T2 =       0.0000000000D+00 E2=      0.0000000000D+00
 ANorm=    0.1000014008D+01
 E2 =    -0.2770676693D-04 EUMP2 =    -0.16221052939679D+03
 Leave Link  804 at Mon Mar 28 14:25:18 2022, MaxMem=  9663676416 cpu:               2.3 elap:               0.1
 (Enter /nopt/nrel/apps/gaussian/g16C_1/g16/l913.exe)
 CIDS:  MDV=  9663676416.
 Frozen-core window:  NFC=   5 NFV=   0.
 IFCWin=0 IBDFC=1 NFBD=     0     0 NFCmp=     0     0 NFFFC=     0     0
 Using original routines for 1st iteration.
 Using DD4UQ or CC4UQ for 2nd and later iterations.
 Keep R2 and R3 ints in memory in symmetry-blocked form, NReq=7225821.
 FoFCou: FMM=F IPFlag=           0 FMFlag=           0 FMFlg1=           0
         NFxFlg=           0 DoJE=F BraDBF=F KetDBF=F FulRan=T
         wScrn=  0.000000 ICntrl=       600 IOpCl=  0 I1Cent=           0 NGrid=           0
         NMat0=    1 NMatS0=    105 NMatT0=    0 NMatD0=    1 NMtDS0=    0 NMtDT0=    0
 Petite list used in FoFCou.
 CIDS: In Core Option IDoMem=           1.
 Coupled Cluster theory with single and double substitutions
 ===========================================================
 Iterations= 200 Convergence= 0.100D-06
 Produce multiple copies of IABC intergrals
 Iteration Nr.   1
 **********************
 DD1Dir will call FoFMem   1 times, MxPair=         2
 NAB=     0 NAA=     1 NBB=     0.
 MP4(R+Q)=  0.77626347D-09
 Maximum subspace dimension=  5
 A-vector RMS=  4.5172662D-04 Max=  1.1324708D-03 conv= 1.00D-05.
 RLE energy=       -0.0000426860
 E3=       -0.97235604D-05        EUMP3=      -0.16221053912D+03
 E4(DQ)=   -0.34206345D-05        UMP4(DQ)=   -0.16221054254D+03
 E4(SDQ)=  -0.34377581D-05        UMP4(SDQ)=  -0.16221054256D+03
 VARIATIONAL ENERGIES WITH THE FIRST-ORDER WAVEFUNCTION:
 DE(Corr)= -0.37429519E-04 E(Corr)=     -162.21053912    
 NORM(A)=   0.10000333D+01
 Iteration Nr.   2
 **********************
 DD1Dir will call FoFMem   1 times, MxPair=         2
 NAB=     0 NAA=     1 NBB=     0.
 A-vector RMS=  3.5322340D-05 Max=  6.1215613D-05 conv= 1.00D-05.
 RLE energy=       -0.0000427708
 DE(Corr)= -0.42725524E-04 E(CORR)=     -162.21054442     Delta=-5.30D-06
 NORM(A)=   0.10000335D+01
 Iteration Nr.   3
 **********************
 DD1Dir will call FoFMem   1 times, MxPair=         2
 NAB=     0 NAA=     1 NBB=     0.
 A-vector RMS=  9.2705970D-06 Max=  2.3835600D-05 conv= 1.00D-05.
 RLE energy=       -0.0000427740
 DE(Corr)= -0.42771093E-04 E(CORR)=     -162.21054446     Delta=-4.56D-08
 NORM(A)=   0.10000335D+01
 Iteration Nr.   4
 **********************
 DD1Dir will call FoFMem   1 times, MxPair=         2
 NAB=     0 NAA=     1 NBB=     0.
 A-vector RMS=  2.1705983D-06 Max=  6.6273045D-06 conv= 1.00D-05.
 RLE energy=       -0.0000427738
 DE(Corr)= -0.42773881E-04 E(CORR)=     -162.21054446     Delta=-2.79D-09
 NORM(A)=   0.10000335D+01
 CI/CC converged in    4 iterations to DelEn=-2.79D-09 Conv= 1.00D-07 ErrA1= 2.17D-06 Conv= 1.00D-05
 Wavefunction amplitudes converged. E(Corr)=     -162.21054446    
 Largest amplitude= 4.93D-03
 Discarding MO integrals.
 Leave Link  913 at Mon Mar 28 14:25:19 2022, MaxMem=  9663676416 cpu:               3.4 elap:               0.1
 (Enter /nopt/nrel/apps/gaussian/g16C_1/g16/l601.exe)
 Copying SCF densities to generalized density rwf, IOpCl= 1 IROHF=0.

 **********************************************************************

            Population analysis using the SCF Density.

 **********************************************************************

 Orbital symmetries:
 Alpha Orbitals:
       Occupied  (SG) (SG) (SG) (PI) (PI) (SG) (SG)
       Virtual   (PI) (PI) (SG) (SG) (PI) (PI) (SG)
 Beta  Orbitals:
       Occupied  (SG) (SG) (SG) (PI) (PI)
       Virtual   (SG) (PI) (PI) (SG) (SG) (PI) (PI) (SG) (SG)
 The electronic state is 3-SG.
 Alpha  occ. eigenvalues --  -40.51831  -2.85452  -1.59610  -1.56373  -1.56373
 Alpha  occ. eigenvalues --   -0.61596  -0.15605
 Alpha virt. eigenvalues --    0.02328   0.02328   0.04430   0.15477   0.18190
 Alpha virt. eigenvalues --    0.18190   0.36352
  Beta  occ. eigenvalues --  -40.51195  -2.83872  -1.56370  -1.55855  -1.55855
  Beta virt. eigenvalues --   -0.03639   0.04958   0.04958   0.06565   0.09608
  Beta virt. eigenvalues --    0.21237   0.21237   0.21801   0.53398
          Condensed to atoms (all electrons):
               1          2
     1  H    0.852218   0.035891
     2  Na   0.035891  11.076001
          Atomic-Atomic Spin Densities.
               1          2
     1  H    0.849772   0.022450
     2  Na   0.022450   1.105328
 Mulliken charges and spin densities:
               1          2
     1  H    0.111892   0.872222
     2  Na  -0.111892   1.127778
 Sum of Mulliken charges =  -0.00000   2.00000
 Mulliken charges and spin densities with hydrogens summed into heavy atoms:
               1          2
     2  Na  -0.000000   2.000000
 N-N= 4.477653323169D+00 E-N=-3.991126379361D+02  KE= 1.626361851674D+02
 Symmetry A1   KE= 1.391651048062D+02
 Symmetry A2   KE= 0.000000000000D+00
 Symmetry B1   KE= 1.173554018057D+01
 Symmetry B2   KE= 1.173554018057D+01
 Symmetry A1   SP= 2.000000000000D+00
 Symmetry A2   SP= 0.000000000000D+00
 Symmetry B1   SP= 4.927385162822D-16
 Symmetry B2   SP= 4.723013053308D-16

 Atomic contributions to Alpha molecular orbitals:
 Alpha occ 1 OE=-40.518 is Na2-s=1.0000
 Alpha occ 2 OE=-2.855 is Na2-s=0.9969
 Alpha occ 3 OE=-1.596 is Na2-p=0.9807
 Alpha occ 4 OE=-1.564 is Na2-p=1.0000
 Alpha occ 5 OE=-1.564 is Na2-p=1.0000
 Alpha occ 6 OE=-0.616 is H1-s=0.8502
 Alpha occ 7 OE=-0.156 is Na2-s=0.7421 Na2-p=0.2484
 Alpha vir 8 OE=0.023 is Na2-p=1.0000
 Alpha vir 9 OE=0.023 is Na2-p=1.0000
 Alpha vir 10 OE=0.044 is Na2-p=0.7298 Na2-s=0.2596
 Alpha vir 11 OE=0.155 is Na2-s=0.7099 Na2-p=0.2877
 Alpha vir 12 OE=0.182 is Na2-p=1.0000
 Alpha vir 13 OE=0.182 is Na2-p=1.0000
 Alpha vir 14 OE=0.364 is Na2-p=0.6765 Na2-s=0.2167 H1-s=0.1068

 Atomic contributions to Beta  molecular orbitals:
 Beta  occ 1 OE=-40.512 is Na2-s=1.0000
 Beta  occ 2 OE=-2.839 is Na2-s=0.9983
 Beta  occ 3 OE=-1.564 is Na2-p=0.9927
 Beta  occ 4 OE=-1.559 is Na2-p=1.0000
 Beta  occ 5 OE=-1.559 is Na2-p=1.0000
 Beta  vir 6 OE=-0.036 is Na2-s=0.6023 Na2-p=0.2050 H1-s=0.1926
 Beta  vir 7 OE=0.050 is Na2-p=1.0000
 Beta  vir 8 OE=0.050 is Na2-p=1.0000
 Beta  vir 9 OE=0.066 is Na2-p=0.7879 Na2-s=0.2110
 Beta  vir 10 OE=0.096 is Na2-s=0.6268 Na2-p=0.2171 H1-s=0.1561
 Beta  vir 11 OE=0.212 is Na2-p=1.0000
 Beta  vir 12 OE=0.212 is Na2-p=1.0000
 Beta  vir 13 OE=0.218 is Na2-p=0.5049 Na2-s=0.4610
 Beta  vir 14 OE=0.534 is H1-s=0.6082 Na2-p=0.2919
 
 Leave Link  601 at Mon Mar 28 14:25:19 2022, MaxMem=  9663676416 cpu:               2.4 elap:               0.1
 (Enter /nopt/nrel/apps/gaussian/g16C_1/g16/l9999.exe)

 Test job not archived.
 1\1\GINC-R102U34\SP\UCCSD-FC\Gen\H1Na1(3)\USER\28-Mar-2022\0\\#P C
 CSD(MaxCyc=200,SaveAmplitudes,ReadAmplitudes)/GEN sp pop=AllOrbitals i
 op(3/33=1,3/36=-1)\\test\\0,3\H,0,0.,0.,0.\Na,0,0.,0.,1.3\\Version=ES6
 4L-G16RevC.01\State=3-SG\HF=-162.2105017\MP2=-162.2105294\MP3=-162.210
 5391\MP4D=-162.2105425\MP4DQ=-162.2105425\MP4SDQ=-162.2105426\CCSD=-16
 2.2105445\S2=2.000122\S2-1=0.\S2A=2.\RMSD=1.819e-09\PG=C*V [C*(H1Na1)]
 \\@


 THE REASON MAN'S BEST FRIEND IS A DOG IS BECAUSE
 HE WAGS HIS TAIL INSTEAD OF HIS TONGUE.
 Job cpu time:       0 days  0 hours  0 minutes 35.4 seconds.
 Elapsed time:       0 days  0 hours  0 minutes  1.4 seconds.
 File lengths (MBytes):  RWF=     13 Int=      0 D2E=      0 Chk=      1 Scr=      1
 Normal termination of Gaussian 16 at Mon Mar 28 14:25:19 2022.
