 Entering Gaussian System, Link 0=g16
 Initial command:
 /nopt/nrel/apps/gaussian/g16C_1/g16/l1.exe "/lustre/eaglefs/scratch/user/qc/tih-dissc-sto3g/tih-2-ccsd-2.3-sto3g/Gau-260111.inp" -scrdir="/lustre/eaglefs/scratch/user/qc/tih-dissc-sto3g/tih-2-ccsd-2.3-sto3g/"
 Default is to use a total of  36 processors:
                               36 via shared-memory
                                1 via Linda
 Entering Link 1 = /nopt/nrel/apps/gaussian/g16C_1/g16/l1.exe PID=    260112.
  
 Copyright (c) 1988-2019, Gaussian, Inc.  All Rights Reserved.
  
 This is part of the Gaussian(R) 16 program.  It is based on
 the Gaussian(R) 09 system (copyright 2009, Gaussian, Inc.),
 the Gaussian(R) 03 system (copyright 2003, Gaussian, Inc.),
 the Gaussian(R) 98 system (copyright 1998, Gaussian, Inc.),
 the Gaussian(R) 94 system (copyright 1995, Gaussian, Inc.),
 the Gaussian 92(TM) system (copyright 1992, Gaussian, Inc.),
 the Gaussian 90(TM) system (copyright 1990, Gaussian, Inc.),
 the Gaussian 88(TM) system (copyright 1988, Gaussian, Inc.),
 the Gaussian 86(TM) system (copyright 1986, Carnegie Mellon
 University), and the Gaussian 82(TM) system (copyright 1983,
 Carnegie Mellon University). Gaussian is a federally registered
 trademark of Gaussian, Inc.
  
 This software contains proprietary and confidential information,
 including trade secrets, belonging to Gaussian, Inc.
  
 This software is provided under written license and may be
 used, copied, transmitted, or stored only in accord with that
 written license.
  
 The following legend is applicable only to US Government
 contracts under FAR:
  
                    RESTRICTED RIGHTS LEGEND
  
 Use, reproduction and disclosure by the US Government is
 subject to restrictions as set forth in subparagraphs (a)
 and (c) of the Commercial Computer Software - Restricted
 Rights clause in FAR 52.227-19.
  
 Gaussian, Inc.
 340 Quinnipiac St., Bldg. 40, Wallingford CT 06492
  
  
 ---------------------------------------------------------------
 Warning -- This program may not be used in any manner that
 competes with the business of Gaussian, Inc. or will provide
 assistance to any competitor of Gaussian, Inc.  The licensee
 of this program is prohibited from giving any competitor of
 Gaussian, Inc. access to this program.  By using this program,
 the user acknowledges that Gaussian, Inc. is engaged in the
 business of creating and licensing software in the field of
 computational chemistry and represents and warrants to the
 licensee that it is not a competitor of Gaussian, Inc. and that
 it will not use this program in any manner prohibited above.
 ---------------------------------------------------------------
  

 Cite this work as:
 Gaussian 16, Revision C.01,
 M. J. Frisch, G. W. Trucks, H. B. Schlegel, G. E. Scuseria, 
 M. A. Robb, J. R. Cheeseman, G. Scalmani, V. Barone, 
 G. A. Petersson, H. Nakatsuji, X. Li, M. Caricato, A. V. Marenich, 
 J. Bloino, B. G. Janesko, R. Gomperts, B. Mennucci, H. P. Hratchian, 
 J. V. Ortiz, A. F. Izmaylov, J. L. Sonnenberg, D. Williams-Young, 
 F. Ding, F. Lipparini, F. Egidi, J. Goings, B. Peng, A. Petrone, 
 T. Henderson, D. Ranasinghe, V. G. Zakrzewski, J. Gao, N. Rega, 
 G. Zheng, W. Liang, M. Hada, M. Ehara, K. Toyota, R. Fukuda, 
 J. Hasegawa, M. Ishida, T. Nakajima, Y. Honda, O. Kitao, H. Nakai, 
 T. Vreven, K. Throssell, J. A. Montgomery, Jr., J. E. Peralta, 
 F. Ogliaro, M. J. Bearpark, J. J. Heyd, E. N. Brothers, K. N. Kudin, 
 V. N. Staroverov, T. A. Keith, R. Kobayashi, J. Normand, 
 K. Raghavachari, A. P. Rendell, J. C. Burant, S. S. Iyengar, 
 J. Tomasi, M. Cossi, J. M. Millam, M. Klene, C. Adamo, R. Cammi, 
 J. W. Ochterski, R. L. Martin, K. Morokuma, O. Farkas, 
 J. B. Foresman, and D. J. Fox, Gaussian, Inc., Wallingford CT, 2019.
 
 ******************************************
 Gaussian 16:  ES64L-G16RevC.01  3-Jul-2019
                25-Mar-2022 
 ******************************************
 %chk=molecule
 Default route: CacheSize=180224 MaxDisk=256GB
 --------------------------------------------------
 #P CCSD/GEN sp pop=AllOrbitals iop(3/33=1,3/36=-1)
 --------------------------------------------------
 1/4=180224,38=1,172=1/1;
 2/4=180224,12=2,17=6,18=5,40=1/2;
 3/4=180224,5=7,11=9,25=1,30=1,33=1,36=-1/1,2,3;
 4/4=180224/1;
 5/4=180224,5=2,38=5/2;
 8/4=180224,6=4,9=120000,10=1/1,4;
 9/4=180224,5=7/13;
 6/4=180224,7=2,8=2,9=2,10=2,96=-1/1;
 99/4=180224,5=1,9=1/99;
 Leave Link    1 at Fri Mar 25 14:38:00 2022, MaxMem=           0 cpu:               1.9 elap:               0.1
 (Enter /nopt/nrel/apps/gaussian/g16C_1/g16/l101.exe)
 ----
 test
 ----
 Symbolic Z-matrix:
 Charge =  0 Multiplicity = 2
 H                     0.        0.        0. 
 Ti                    0.        0.        2.3 
 
 ITRead=  0  0
 MicOpt= -1 -1
 NAtoms=      2 NQM=        2 NQMF=       0 NMMI=      0 NMMIF=      0
                NMic=       0 NMicF=      0.
                    Isotopes and Nuclear Properties:
 (Nuclear quadrupole moments (NQMom) in fm**2, nuclear magnetic moments (NMagM)
  in nuclear magnetons)

  Atom         1           2
 IAtWgt=           1          48
 AtmWgt=   1.0078250  47.9479467
 NucSpn=           1           0
 AtZEff=  -0.0000000  -0.0000000
 NQMom=    0.0000000   0.0000000
 NMagM=    2.7928460   0.0000000
 AtZNuc=   1.0000000  22.0000000
 Leave Link  101 at Fri Mar 25 14:38:00 2022, MaxMem=  9663676416 cpu:               3.2 elap:               0.1
 (Enter /nopt/nrel/apps/gaussian/g16C_1/g16/l202.exe)
                          Input orientation:                          
 ---------------------------------------------------------------------
 Center     Atomic      Atomic             Coordinates (Angstroms)
 Number     Number       Type             X           Y           Z
 ---------------------------------------------------------------------
      1          1           0        0.000000    0.000000    0.000000
      2         22           0        0.000000    0.000000    2.300000
 ---------------------------------------------------------------------
 Stoichiometry    HTi(2)
 Framework group  C*V[C*(HTi)]
 Deg. of freedom     1
 Full point group                 C*V     NOp   4
 Largest Abelian subgroup         C2V     NOp   4
 Largest concise Abelian subgroup C1      NOp   1
                         Standard orientation:                         
 ---------------------------------------------------------------------
 Center     Atomic      Atomic             Coordinates (Angstroms)
 Number     Number       Type             X           Y           Z
 ---------------------------------------------------------------------
      1          1           0        0.000000    0.000000   -2.200000
      2         22           0        0.000000    0.000000    0.100000
 ---------------------------------------------------------------------
 Rotational constants (GHZ):           0.0000000          96.7854941          96.7854941
 Leave Link  202 at Fri Mar 25 14:38:00 2022, MaxMem=  9663676416 cpu:               0.9 elap:               0.0
 (Enter /nopt/nrel/apps/gaussian/g16C_1/g16/l301.exe)
 General basis read from cards:  (5D, 7F)
                         Coordinates in L301:                         
 ---------------------------------------------------------------------
 Center     Atomic      Atomic             Coordinates (Angstroms)
 Number     Number       Type             X           Y           Z
 ---------------------------------------------------------------------
      1          1           0        0.000000    0.000000   -2.200000
      2         22           0        0.000000    0.000000    0.100000
 ---------------------------------------------------------------------
 Centers:       1
 STO-3G
 ****
 Centers:       2
 STO-3G
 ****
 FixB: optimizing general contractions.
 Ernie: Thresh=  0.10000D-02 Tol=  0.10000D-05 Strict=F.
 IA=     1 ShT= 0 ShC= 0 NL=   1 NS=   0.
 IA=     1 L=0 SC=0 ISt=    0 NBk=    0 NP=    0 IndPr=    0.
 IA=     2 ShT= 0 ShC= 0 NL=   1 NS=   0.
 IA=     2 L=0 SC=0 ISt=    0 NBk=    0 NP=    0 IndPr=    0.
 IA=     2 ShT= 1 ShC= 0 NL=   3 NS=   0.
 IA=     2 L=1 SC=0 ISt=    1 NBk=    3 NP=    9 IndPr=    0.
 DoElim1:  L=1 select primitive    1 from    2 using    1 C=-1.00D-01
 DoElim1:  L=1 select primitive    1 from    3 using    1 C=-1.00D-01
 DoElim1:  L=1 select primitive    4 from    3 using    2 C=-2.28D-01
 DoElim2:  L=1 select primitive    9 from    2 using    3 C= 1.13D+00
 DoElim2:  L=1 select primitive    9 from    1 using    3 C= 1.13D+00
 DoElim2:  L=1 select primitive    7 from    1 using    2 C= 9.17D-01
 DoElim1:  L=1 select primitive    1 from    2 using    1 C= 1.56D-01
 DoElim1:  L=1 select primitive    1 from    3 using    1 C= 1.56D-01
 DoElim1:  L=1 select primitive    4 from    3 using    2 C= 4.95D-03
 DoElim2:  L=1 select primitive    8 from    2 using    3 C= 5.72D-01
 DoElim2:  L=1 select primitive    8 from    1 using    3 C= 5.72D-01
 DoElim2:  L=1 select primitive    5 from    1 using    2 C= 5.78D-01
 Delete L=1 primitive    7 from    3 C=  0.00D+00.
 Delete L=1 primitive    5 from    3 C=  0.00D+00.
 Delete L=1 primitive    4 from    3 C=  0.00D+00.
 Delete L=1 primitive    3 from    3 C=  0.00D+00.
 Delete L=1 primitive    2 from    3 C=  0.00D+00.
 Delete L=1 primitive    1 from    3 C=  0.00D+00.
 Delete L=1 primitive    9 from    2 C=  0.00D+00.
 Delete L=1 primitive    8 from    2 C=  0.00D+00.
 Delete L=1 primitive    6 from    2 C=  0.00D+00.
 Delete L=1 primitive    3 from    2 C=  0.00D+00.
 Delete L=1 primitive    2 from    2 C=  0.00D+00.
 Delete L=1 primitive    1 from    2 C=  0.00D+00.
 Delete L=1 primitive    9 from    1 C=  0.00D+00.
 Delete L=1 primitive    8 from    1 C=  0.00D+00.
 Delete L=1 primitive    7 from    1 C=  0.00D+00.
 Delete L=1 primitive    6 from    1 C=  0.00D+00.
 Delete L=1 primitive    5 from    1 C=  0.00D+00.
 Delete L=1 primitive    4 from    1 C=  0.00D+00.
 IA=     2 L=1 SC=0 ISt=    0 NBk=    0 NP=    0 IndPr=    9.
 IA=     2 ShT= 2 ShC= 2 NL=   1 NS=   0.
 IA=     2 L=2 SC=2 ISt=    0 NBk=    0 NP=    0 IndPr=    0.
 LdAtmC:  AtmChg=     1.000000    22.000000
 AtZEff=     -1.0000000    -23.9800000
 NEqShl: 
              1            2            3            4
     1            1            1            1            1
     2            2            2            2            2
     3            3            3            3            3
     4            4            4            4            4
     5            5            5            5            5
     6            6            6            6            6
 NEqBas: 
              1            2            3            4
     1            1            1            1            1
     2            2            2            2            2
     3            3            3            3            3
     4            4           -4           -4            4
     5            5           -5            5           -5
     6            6            6            6            6
     7            7            7            7            7
     8            8           -8           -8            8
     9            9           -9            9           -9
    10           10           10           10           10
    11           11           11           11           11
    12           12          -12          -12           12
    13           13          -13           13          -13
    14           14           14           14           14
    15           15           15           15           15
    16           16           16           16           16
    17           17           17           17           17
    18           18           18          -18          -18
    19           19          -19          -19           19
    20           20          -20           20          -20
 There are    11 symmetry adapted cartesian basis functions of A1  symmetry.
   1         1   1   1   1
   2         2   2   2   2
   3         3   3   3   3
   4         6   6   6   6
   5         7   7   7   7
   6        10  10  10  10
   7        11  11  11  11
   8        14  14  14  14
   9        15  15  15  15
  10        16  16  16  16
  11        17  17  17  17
 There are     1 symmetry adapted cartesian basis functions of A2  symmetry.
  12        18  18  18  18
 There are     4 symmetry adapted cartesian basis functions of B1  symmetry.
  13         4   4   4   4
  14         8   8   8   8
  15        12  12  12  12
  16        19  19  19  19
 There are     4 symmetry adapted cartesian basis functions of B2  symmetry.
  17         5   5   5   5
  18         9   9   9   9
  19        13  13  13  13
  20        20  20  20  20
 Order= 1 2 4 3
 Reordered character table:
              1            2            3            4            5
     1            1            1            1            1            1
     2            2            1            1           -1           -1
     3            4            1           -1           -1            1
     4            3            1           -1            1           -1
 NEqShl: 
              1            2            3            4
     1            1            1            1            1
     2            2            2            2            2
     3            3            3            3            3
     4            4            4            4            4
     5            5            5            5            5
     6            6            6            6            6
 NEqBas: 
              1            2            3            4
     1            1            1            1            1
     2            2            2            2            2
     3            3            3            3            3
     4            4           -4           -4            4
     5            5           -5            5           -5
     6            6            6            6            6
     7            7            7            7            7
     8            8           -8           -8            8
     9            9           -9            9           -9
    10           10           10           10           10
    11           11           11           11           11
    12           12          -12          -12           12
    13           13          -13           13          -13
    14           14           14           14           14
    15           15           15           15           15
    16           16          -16          -16           16
    17           17          -17           17          -17
    18           18           18           18           18
    19           19           19          -19          -19
 There are    10 symmetry adapted basis functions of A1  symmetry.
   1         1   1   1   1
   2         2   2   2   2
   3         3   3   3   3
   4         6   6   6   6
   5         7   7   7   7
   6        10  10  10  10
   7        11  11  11  11
   8        14  14  14  14
   9        15  15  15  15
  10        18  18  18  18
 There are     1 symmetry adapted basis functions of A2  symmetry.
  11        19  19  19  19
 There are     4 symmetry adapted basis functions of B1  symmetry.
  12         4   4   4   4
  13         8   8   8   8
  14        12  12  12  12
  15        16  16  16  16
 There are     4 symmetry adapted basis functions of B2  symmetry.
  16         5   5   5   5
  17         9   9   9   9
  18        13  13  13  13
  19        17  17  17  17
 Order= 1 2 4 3
 Reordered character table:
              1            2            3            4            5
     1            1            1            1            1            1
     2            2            1            1           -1           -1
     3            4            1           -1           -1            1
     4            3            1           -1            1           -1
    19 basis functions,    60 primitive gaussians,    20 cartesian basis functions
    12 alpha electrons       11 beta electrons
       nuclear repulsion energy         5.0616950610 Hartrees.
 IS=     1 IAt=     1 ISR=     1 T=0 IP=      1 IndIP=      1 IndIPD=      0 C=  2.769344D-01  0.000000D+00                             NZ=T
 IS=     1 IAt=     1 ISR=     1 T=0 IP=      2 IndIP=      2 IndIPD=      1 C=  2.678389D-01  0.000000D+00                             NZ=T
 IS=     1 IAt=     1 ISR=     1 T=0 IP=      3 IndIP=      3 IndIPD=      2 C=  8.347367D-02  0.000000D+00                             NZ=T
 IS=     2 IAt=     2 ISR=     1 T=0 IP=      1 IndIP=      4 IndIPD=      0 C=  2.004993D+01  0.000000D+00                             NZ=T
 IS=     2 IAt=     2 ISR=     1 T=0 IP=      2 IndIP=      5 IndIPD=      1 C=  1.939142D+01  0.000000D+00                             NZ=T
 IS=     2 IAt=     2 ISR=     1 T=0 IP=      3 IndIP=      6 IndIPD=      2 C=  6.043458D+00  0.000000D+00                             NZ=T
 IS=     3 IAt=     2 ISR=     2 T=1 IP=      1 IndIP=      7 IndIPD=      0 C= -1.820341D+00  4.925761D+01                             NZ=T
 IS=     3 IAt=     2 ISR=     2 T=1 IP=      2 IndIP=      8 IndIPD=      1 C=  2.434854D+00  3.097451D+01                             NZ=T
 IS=     3 IAt=     2 ISR=     2 T=1 IP=      3 IndIP=      9 IndIPD=      2 C=  1.837620D+00  4.906883D+00                             NZ=T
 IS=     4 IAt=     2 ISR=     3 T=1 IP=      1 IndIP=     10 IndIPD=      0 C= -5.746721D-01  5.803915D-02                             NZ=T
 IS=     4 IAt=     2 ISR=     3 T=1 IP=      2 IndIP=     11 IndIPD=      1 C=  2.252897D-01  1.535208D+00                             NZ=T
 IS=     4 IAt=     2 ISR=     3 T=1 IP=      3 IndIP=     12 IndIPD=      2 C=  4.647390D-01  3.915940D-01                             NZ=T
 IS=     5 IAt=     2 ISR=     4 T=1 IP=      1 IndIP=     13 IndIPD=      0 C= -1.706594D-01 -1.133666D-01                             NZ=T
 IS=     5 IAt=     2 ISR=     4 T=1 IP=      2 IndIP=     14 IndIPD=      1 C=  5.129963D-03  1.533382D-01                             NZ=T
 IS=     5 IAt=     2 ISR=     4 T=1 IP=      3 IndIP=     15 IndIPD=      2 C=  1.603140D-01  5.311239D-02                             NZ=T
 IS=     6 IAt=     2 ISR=     5 T=2 IP=      1 IndIP=     16 IndIPD=      1 C=  0.000000D+00  0.000000D+00  8.652016D-01  0.000000D+00 NZ=T
 IS=     6 IAt=     2 ISR=     5 T=2 IP=      2 IndIP=     17 IndIPD=      2 C=  0.000000D+00  0.000000D+00  3.231180D-01  0.000000D+00 NZ=T
 IS=     6 IAt=     2 ISR=     5 T=2 IP=      3 IndIP=     18 IndIPD=      3 C=  0.000000D+00  0.000000D+00  2.668013D-02  0.000000D+00 NZ=T
 IExCor=    0 DFT=F Ex=HF Corr=None ExCW=0 ScaHFX=  1.000000
 ScaDFX=  1.000000  1.000000  1.000000  1.000000 ScalE2=  1.000000  1.000000
 IRadAn=      5 IRanWt=     -1 IRanGd=            0 ICorTp=0 IEmpDi=  4
 NAtoms=    2 NActive=    2 NUniq=    2 SFac= 1.00D+00 NAtFMM=   60 NAOKFM=F Big=F
 Integral buffers will be    131072 words long.
 Raffenetti 2 integral format.
 Two-electron integral symmetry is turned on.
 Leave Link  301 at Fri Mar 25 14:38:00 2022, MaxMem=  9663676416 cpu:               2.2 elap:               0.1
 (Enter /nopt/nrel/apps/gaussian/g16C_1/g16/l302.exe)
 NPDir=0 NMtPBC=     1 NCelOv=     1 NCel=       1 NClECP=     1 NCelD=      1
         NCelK=      1 NCelE2=     1 NClLst=     1 CellRange=     0.0.
 One-electron integrals computed using PRISM.
 One-electron integral symmetry used in STVInt
 Entering OneElI...
 Calculate overlap and kinetic energy integrals
    NBasis =  19  MinDer = 0  MaxDer = 0
 Requested accuracy = 0.1000D-12
 Symmetry will be used
 PrmmSu-InSpLW:  IPartL=    0 NPrtUS=   36 NPrtUL=    1 DoSpLW=F IThBeg=    0 IThEnd=   35 NThAct=   36.
 PrSmSu:  IncTry=   512 NBBP=             21 NTPThr=   100 NPartT=   36 Incr=           1 LDynOK=F GPUOK=F.
 PrsmSu:  NPrtUS=  36 ThrOK=T IAlg=1 LenDen=           0 ISkipM=0 DoSpLW=F IThBeg=    0 IThEnd=   35.
 Prism:   IPart=     0 DynPar=F LinDyn=F Incr=           1.
 PRISM was handed   268432668 working-precision words and    21 shell-pairs
 PRISM was handed   268432668 working-precision words and    21 shell-pairs
 PRISM was handed   268432668 working-precision words and    21 shell-pairs
 PRISM was handed   268432668 working-precision words and    21 shell-pairs
 PRISM was handed   268432668 working-precision words and    21 shell-pairs
 PRISM was handed   268432668 working-precision words and    21 shell-pairs
 PRISM was handed   268432668 working-precision words and    21 shell-pairs
 PRISM was handed   268432668 working-precision words and    21 shell-pairs
 PRISM was handed   268432668 working-precision words and    21 shell-pairs
 PRISM was handed   268432668 working-precision words and    21 shell-pairs
 PRISM was handed   268432668 working-precision words and    21 shell-pairs
 PRISM was handed   268432668 working-precision words and    21 shell-pairs
 PRISM was handed   268432668 working-precision words and    21 shell-pairs
 IPart= 19 NShTot=           0 NBatch=           0 AvBLen=         0.0
 IPart= 18 NShTot=           0 NBatch=           0 AvBLen=         0.0
 IPart= 22 NShTot=           0 NBatch=           0 AvBLen=         0.0
 IPart= 10 NShTot=           0 NBatch=           0 AvBLen=         0.0
 IPart= 13 NShTot=           0 NBatch=           0 AvBLen=         0.0
 IPart= 31 NShTot=           0 NBatch=           0 AvBLen=         0.0
 IPart=  7 NShTot=           0 NBatch=           0 AvBLen=         0.0
 IPart= 26 NShTot=           0 NBatch=           0 AvBLen=         0.0
 IPart= 29 NShTot=           0 NBatch=           0 AvBLen=         0.0
 PRISM was handed   268432668 working-precision words and    21 shell-pairs
 PRISM was handed   268432668 working-precision words and    21 shell-pairs
 PRISM was handed   268432668 working-precision words and    21 shell-pairs
 PRISM was handed   268432668 working-precision words and    21 shell-pairs
 PRISM was handed   268432668 working-precision words and    21 shell-pairs
 IPart=  3 NShTot=           2 NBatch=           2 AvBLen=         1.0
 IPart=  4 NShTot=           2 NBatch=           2 AvBLen=         1.0
 IPart=  2 NShTot=           3 NBatch=           3 AvBLen=         1.0
 IPart= 35 NShTot=           0 NBatch=           0 AvBLen=         0.0
 IPart=  6 NShTot=           0 NBatch=           0 AvBLen=         0.0
 IPart= 25 NShTot=           0 NBatch=           0 AvBLen=         0.0
 IPart= 24 NShTot=           0 NBatch=           0 AvBLen=         0.0
 PRISM was handed   268432668 working-precision words and    21 shell-pairs
 PRISM was handed   268432668 working-precision words and    21 shell-pairs
 PRISM was handed   268432668 working-precision words and    21 shell-pairs
 PRISM was handed   268432668 working-precision words and    21 shell-pairs
 PRISM was handed   268432668 working-precision words and    21 shell-pairs
 PRISM was handed   268432668 working-precision words and    21 shell-pairs
 PRISM was handed   268432668 working-precision words and    21 shell-pairs
 PRISM was handed   268432668 working-precision words and    21 shell-pairs
 IPart=  8 NShTot=           0 NBatch=           0 AvBLen=         0.0
 PRISM was handed   268432668 working-precision words and    21 shell-pairs
 IPart= 34 NShTot=           0 NBatch=           0 AvBLen=         0.0
 PRISM was handed   268432668 working-precision words and    21 shell-pairs
 PRISM was handed   268432668 working-precision words and    21 shell-pairs
 PRISM was handed   268432668 working-precision words and    21 shell-pairs
 PRISM was handed   268432668 working-precision words and    21 shell-pairs
 PRISM was handed   268432668 working-precision words and    21 shell-pairs
 PRISM was handed   268432668 working-precision words and    21 shell-pairs
 PRISM was handed   268432668 working-precision words and    21 shell-pairs
 PRISM was handed   268432668 working-precision words and    21 shell-pairs
 PRISM was handed   268432668 working-precision words and    21 shell-pairs
 IPart= 14 NShTot=           0 NBatch=           0 AvBLen=         0.0
 IPart= 20 NShTot=           0 NBatch=           0 AvBLen=         0.0
 IPart= 28 NShTot=           0 NBatch=           0 AvBLen=         0.0
 IPart=  9 NShTot=           0 NBatch=           0 AvBLen=         0.0
 IPart=  5 NShTot=           1 NBatch=           1 AvBLen=         1.0
 IPart= 33 NShTot=           0 NBatch=           0 AvBLen=         0.0
 IPart= 15 NShTot=           0 NBatch=           0 AvBLen=         0.0
 IPart=  0 NShTot=           8 NBatch=           8 AvBLen=         1.0
 IPart= 21 NShTot=           0 NBatch=           0 AvBLen=         0.0
 IPart= 12 NShTot=           0 NBatch=           0 AvBLen=         0.0
 IPart= 30 NShTot=           0 NBatch=           0 AvBLen=         0.0
 IPart= 17 NShTot=           0 NBatch=           0 AvBLen=         0.0
 IPart= 23 NShTot=           0 NBatch=           0 AvBLen=         0.0
 IPart= 11 NShTot=           0 NBatch=           0 AvBLen=         0.0
 IPart=  1 NShTot=           5 NBatch=           5 AvBLen=         1.0
 IPart= 16 NShTot=           0 NBatch=           0 AvBLen=         0.0
 IPart= 32 NShTot=           0 NBatch=           0 AvBLen=         0.0
 IPart= 27 NShTot=           0 NBatch=           0 AvBLen=         0.0
 PrSmSu:  NxtVal=             37.
 *** Overlap *** 
                1             2             3             4             5 
      1  0.100000D+01
      2  0.475580D-03  0.100000D+01
      3  0.331984D-02  0.371775D+00  0.100000D+01
      4  0.000000D+00  0.000000D+00  0.000000D+00  0.100000D+01
      5  0.000000D+00  0.000000D+00  0.000000D+00  0.000000D+00  0.100000D+01
      6 -0.127306D-02  0.000000D+00  0.000000D+00  0.000000D+00  0.000000D+00
      7  0.268767D-01  0.223608D-01  0.300384D+00  0.000000D+00  0.000000D+00
      8  0.000000D+00  0.000000D+00  0.000000D+00  0.313309D+00  0.000000D+00
      9  0.000000D+00  0.000000D+00  0.000000D+00  0.000000D+00  0.313309D+00
     10 -0.276076D-01  0.000000D+00  0.000000D+00  0.000000D+00  0.000000D+00
     11  0.191050D+00 -0.412730D-03  0.136941D-01  0.000000D+00  0.000000D+00
     12  0.000000D+00  0.000000D+00  0.000000D+00  0.250808D-01  0.000000D+00
     13  0.000000D+00  0.000000D+00  0.000000D+00  0.000000D+00  0.250808D-01
     14 -0.275533D+00  0.000000D+00  0.000000D+00  0.000000D+00  0.000000D+00
     15  0.125866D+00  0.000000D+00  0.000000D+00  0.000000D+00  0.000000D+00
     16  0.000000D+00  0.000000D+00  0.000000D+00  0.000000D+00  0.000000D+00
     17  0.000000D+00  0.000000D+00  0.000000D+00  0.000000D+00  0.000000D+00
     18  0.000000D+00  0.000000D+00  0.000000D+00  0.000000D+00  0.000000D+00
     19  0.000000D+00  0.000000D+00  0.000000D+00  0.000000D+00  0.000000D+00
                6             7             8             9            10 
      6  0.100000D+01
      7  0.000000D+00  0.100000D+01
      8  0.000000D+00  0.000000D+00  0.100000D+01
      9  0.000000D+00  0.000000D+00  0.000000D+00  0.100000D+01
     10  0.313309D+00  0.000000D+00  0.000000D+00  0.000000D+00  0.100000D+01
     11  0.000000D+00  0.395149D+00  0.000000D+00  0.000000D+00  0.000000D+00
     12  0.000000D+00  0.000000D+00  0.407435D+00  0.000000D+00  0.000000D+00
     13  0.000000D+00  0.000000D+00  0.000000D+00  0.407435D+00  0.000000D+00
     14  0.250808D-01  0.000000D+00  0.000000D+00  0.000000D+00  0.407435D+00
     15  0.000000D+00  0.000000D+00  0.000000D+00  0.000000D+00  0.000000D+00
     16  0.000000D+00  0.000000D+00  0.000000D+00  0.000000D+00  0.000000D+00
     17  0.000000D+00  0.000000D+00  0.000000D+00  0.000000D+00  0.000000D+00
     18  0.000000D+00  0.000000D+00  0.000000D+00  0.000000D+00  0.000000D+00
     19  0.000000D+00  0.000000D+00  0.000000D+00  0.000000D+00  0.000000D+00
               11            12            13            14            15 
     11  0.100000D+01
     12  0.000000D+00  0.100000D+01
     13  0.000000D+00  0.000000D+00  0.100000D+01
     14  0.000000D+00  0.000000D+00  0.000000D+00  0.100000D+01
     15  0.000000D+00  0.000000D+00  0.000000D+00  0.000000D+00  0.100000D+01
     16  0.000000D+00  0.000000D+00  0.000000D+00  0.000000D+00  0.000000D+00
     17  0.000000D+00  0.000000D+00  0.000000D+00  0.000000D+00  0.000000D+00
     18  0.000000D+00  0.000000D+00  0.000000D+00  0.000000D+00  0.000000D+00
     19  0.000000D+00  0.000000D+00  0.000000D+00  0.000000D+00  0.000000D+00
               16            17            18            19 
     16  0.100000D+01
     17  0.000000D+00  0.100000D+01
     18  0.000000D+00  0.000000D+00  0.100000D+01
     19  0.000000D+00  0.000000D+00  0.000000D+00  0.100000D+01
 *** Kinetic Energy *** 
                1             2             3             4             5 
      1  0.760032D+00
      2 -0.273155D-03  0.229340D+03
      3 -0.180428D-02  0.137973D+01  0.120824D+02
      4  0.000000D+00  0.000000D+00  0.000000D+00  0.378073D+02
      5  0.000000D+00  0.000000D+00  0.000000D+00  0.000000D+00  0.378073D+02
      6  0.312847D-03  0.000000D+00  0.000000D+00  0.000000D+00  0.000000D+00
      7 -0.108273D-01 -0.798994D+00 -0.840664D+00  0.000000D+00  0.000000D+00
      8  0.000000D+00  0.000000D+00  0.000000D+00  0.187471D+01  0.000000D+00
      9  0.000000D+00  0.000000D+00  0.000000D+00  0.000000D+00  0.187471D+01
     10  0.688474D-02  0.000000D+00  0.000000D+00  0.000000D+00  0.000000D+00
     11  0.182074D-02 -0.407071D-01 -0.207745D+00  0.000000D+00  0.000000D+00
     12  0.000000D+00  0.000000D+00  0.000000D+00 -0.209473D-01  0.000000D+00
     13  0.000000D+00  0.000000D+00  0.000000D+00  0.000000D+00 -0.209473D-01
     14 -0.259312D-01  0.000000D+00  0.000000D+00  0.000000D+00  0.000000D+00
     15  0.166915D-01  0.000000D+00  0.000000D+00  0.000000D+00  0.000000D+00
     16  0.000000D+00  0.000000D+00  0.000000D+00  0.000000D+00  0.000000D+00
     17  0.000000D+00  0.000000D+00  0.000000D+00  0.000000D+00  0.000000D+00
     18  0.000000D+00  0.000000D+00  0.000000D+00  0.000000D+00  0.000000D+00
     19  0.000000D+00  0.000000D+00  0.000000D+00  0.000000D+00  0.000000D+00
                6             7             8             9            10 
      6  0.378073D+02
      7  0.000000D+00  0.116813D+01
      8  0.000000D+00  0.000000D+00  0.275070D+01
      9  0.000000D+00  0.000000D+00  0.000000D+00  0.275070D+01
     10  0.187471D+01  0.000000D+00  0.000000D+00  0.000000D+00  0.275070D+01
     11  0.000000D+00 -0.927537D-01  0.000000D+00  0.000000D+00  0.000000D+00
     12  0.000000D+00  0.000000D+00  0.199329D+00  0.000000D+00  0.000000D+00
     13  0.000000D+00  0.000000D+00  0.000000D+00  0.199329D+00  0.000000D+00
     14 -0.209473D-01  0.000000D+00  0.000000D+00  0.000000D+00  0.199329D+00
     15  0.000000D+00  0.000000D+00  0.000000D+00  0.000000D+00  0.000000D+00
     16  0.000000D+00  0.000000D+00  0.000000D+00  0.000000D+00  0.000000D+00
     17  0.000000D+00  0.000000D+00  0.000000D+00  0.000000D+00  0.000000D+00
     18  0.000000D+00  0.000000D+00  0.000000D+00  0.000000D+00  0.000000D+00
     19  0.000000D+00  0.000000D+00  0.000000D+00  0.000000D+00  0.000000D+00
               11            12            13            14            15 
     11  0.207443D+00
     12  0.000000D+00  0.409500D+00
     13  0.000000D+00  0.000000D+00  0.409500D+00
     14  0.000000D+00  0.000000D+00  0.000000D+00  0.409500D+00
     15  0.000000D+00  0.000000D+00  0.000000D+00  0.000000D+00  0.180044D+01
     16  0.000000D+00  0.000000D+00  0.000000D+00  0.000000D+00  0.000000D+00
     17  0.000000D+00  0.000000D+00  0.000000D+00  0.000000D+00  0.000000D+00
     18  0.000000D+00  0.000000D+00  0.000000D+00  0.000000D+00  0.000000D+00
     19  0.000000D+00  0.000000D+00  0.000000D+00  0.000000D+00  0.000000D+00
               16            17            18            19 
     16  0.180044D+01
     17  0.000000D+00  0.180044D+01
     18  0.000000D+00  0.000000D+00  0.180044D+01
     19  0.000000D+00  0.000000D+00  0.000000D+00  0.180044D+01
 Entering OneElI...
 Calculate potential energy integrals
    NBasis =  19  MinDer = 0  MaxDer = 0
 Requested accuracy = 0.1000D-12
 Symmetry will be used
 PrmmSu-InSpLW:  IPartL=    0 NPrtUS=   36 NPrtUL=    1 DoSpLW=F IThBeg=    0 IThEnd=   35 NThAct=   36.
 PrSmSu:  IncTry=   512 NBBP=             42 NTPThr=   100 NPartT=   36 Incr=           1 LDynOK=F GPUOK=F.
 PrsmSu:  NPrtUS=  36 ThrOK=T IAlg=1 LenDen=           0 ISkipM=0 DoSpLW=F IThBeg=    0 IThEnd=   35.
 Prism:   IPart=     0 DynPar=F LinDyn=F Incr=           1.
 PRISM was handed   268432888 working-precision words and    21 shell-pairs
 PRISM was handed   268432888 working-precision words and    21 shell-pairs
 PRISM was handed   268432888 working-precision words and    21 shell-pairs
 PRISM was handed   268432888 working-precision words and    21 shell-pairs
 PRISM was handed   268432888 working-precision words and    21 shell-pairs
 PRISM was handed   268432888 working-precision words and    21 shell-pairs
 PRISM was handed   268432888 working-precision words and    21 shell-pairs
 PRISM was handed   268432888 working-precision words and    21 shell-pairs
 PRISM was handed   268432888 working-precision words and    21 shell-pairs
 PRISM was handed   268432888 working-precision words and    21 shell-pairs
 PRISM was handed   268432888 working-precision words and    21 shell-pairs
 PRISM was handed   268432888 working-precision words and    21 shell-pairs
 PRISM was handed   268432888 working-precision words and    21 shell-pairs
 PRISM was handed   268432888 working-precision words and    21 shell-pairs
 PRISM was handed   268432888 working-precision words and    21 shell-pairs
 PRISM was handed   268432888 working-precision words and    21 shell-pairs
 PRISM was handed   268432888 working-precision words and    21 shell-pairs
 PRISM was handed   268432888 working-precision words and    21 shell-pairs
 PRISM was handed   268432888 working-precision words and    21 shell-pairs
 PRISM was handed   268432888 working-precision words and    21 shell-pairs
 PRISM was handed   268432888 working-precision words and    21 shell-pairs
 PRISM was handed   268432888 working-precision words and    21 shell-pairs
 PRISM was handed   268432888 working-precision words and    21 shell-pairs
 PRISM was handed   268432888 working-precision words and    21 shell-pairs
 PRISM was handed   268432888 working-precision words and    21 shell-pairs
 PRISM was handed   268432888 working-precision words and    21 shell-pairs
 PRISM was handed   268432888 working-precision words and    21 shell-pairs
 PRISM was handed   268432888 working-precision words and    21 shell-pairs
 PRISM was handed   268432888 working-precision words and    21 shell-pairs
 PRISM was handed   268432888 working-precision words and    21 shell-pairs
 PRISM was handed   268432888 working-precision words and    21 shell-pairs
 PRISM was handed   268432888 working-precision words and    21 shell-pairs
 PRISM was handed   268432888 working-precision words and    21 shell-pairs
 PRISM was handed   268432888 working-precision words and    21 shell-pairs
 PRISM was handed   268432888 working-precision words and    21 shell-pairs
 PRISM was handed   268432888 working-precision words and    21 shell-pairs
 IPart= 34 NShTot=           0 NBatch=           0 AvBLen=         0.0
 IPart= 33 NShTot=           0 NBatch=           0 AvBLen=         0.0
 IPart=  8 NShTot=           0 NBatch=           0 AvBLen=         0.0
 IPart= 17 NShTot=           0 NBatch=           0 AvBLen=         0.0
 IPart= 21 NShTot=           0 NBatch=           0 AvBLen=         0.0
 IPart= 14 NShTot=           0 NBatch=           0 AvBLen=         0.0
 IPart= 20 NShTot=           0 NBatch=           0 AvBLen=         0.0
 IPart= 31 NShTot=           0 NBatch=           0 AvBLen=         0.0
 IPart= 32 NShTot=           0 NBatch=           0 AvBLen=         0.0
 IPart= 35 NShTot=           0 NBatch=           0 AvBLen=         0.0
 IPart= 11 NShTot=           0 NBatch=           0 AvBLen=         0.0
 IPart= 25 NShTot=           0 NBatch=           0 AvBLen=         0.0
 IPart= 18 NShTot=           0 NBatch=           0 AvBLen=         0.0
 IPart= 12 NShTot=           0 NBatch=           0 AvBLen=         0.0
 IPart= 19 NShTot=           0 NBatch=           0 AvBLen=         0.0
 IPart= 23 NShTot=           0 NBatch=           0 AvBLen=         0.0
 IPart= 16 NShTot=           0 NBatch=           0 AvBLen=         0.0
 IPart= 22 NShTot=           0 NBatch=           0 AvBLen=         0.0
 IPart= 13 NShTot=           0 NBatch=           0 AvBLen=         0.0
 IPart= 15 NShTot=           0 NBatch=           0 AvBLen=         0.0
 IPart= 24 NShTot=           0 NBatch=           0 AvBLen=         0.0
 IPart= 26 NShTot=           0 NBatch=           0 AvBLen=         0.0
 IPart= 10 NShTot=           0 NBatch=           0 AvBLen=         0.0
 IPart=  6 NShTot=           0 NBatch=           0 AvBLen=         0.0
 IPart= 28 NShTot=           0 NBatch=           0 AvBLen=         0.0
 IPart=  9 NShTot=           0 NBatch=           0 AvBLen=         0.0
 IPart= 29 NShTot=           0 NBatch=           0 AvBLen=         0.0
 IPart=  7 NShTot=           0 NBatch=           0 AvBLen=         0.0
 IPart= 30 NShTot=           0 NBatch=           0 AvBLen=         0.0
 IPart= 27 NShTot=           0 NBatch=           0 AvBLen=         0.0
 IPart=  5 NShTot=           2 NBatch=           1 AvBLen=         2.0
 IPart=  4 NShTot=           2 NBatch=           1 AvBLen=         2.0
 IPart=  2 NShTot=           6 NBatch=           3 AvBLen=         2.0
 IPart=  1 NShTot=          10 NBatch=           5 AvBLen=         2.0
 IPart=  3 NShTot=           4 NBatch=           2 AvBLen=         2.0
 IPart=  0 NShTot=          18 NBatch=           9 AvBLen=         2.0
 PrSmSu:  NxtVal=             37.
 ***** Potential Energy ***** 
                1             2             3             4             5 
      1  0.628795D+01
      2  0.114956D+00  0.468994D+03
      3  0.214953D+00  0.902314D+02  0.964821D+02
      4  0.000000D+00  0.000000D+00  0.000000D+00  0.957114D+02
      5  0.000000D+00  0.000000D+00  0.000000D+00  0.000000D+00  0.957114D+02
      6 -0.620892D-01 -0.144217D-02 -0.877779D-02  0.000000D+00  0.000000D+00
      7  0.478883D+00  0.472523D+01  0.170307D+02  0.000000D+00  0.000000D+00
      8  0.000000D+00  0.000000D+00  0.000000D+00  0.174581D+02  0.000000D+00
      9  0.000000D+00  0.000000D+00  0.000000D+00  0.000000D+00  0.174581D+02
     10 -0.415226D+00 -0.100165D-03 -0.439160D-02  0.000000D+00  0.000000D+00
     11  0.145284D+01 -0.133763D+00  0.484559D+00  0.000000D+00  0.000000D+00
     12  0.000000D+00  0.000000D+00  0.000000D+00  0.120410D+01  0.000000D+00
     13  0.000000D+00  0.000000D+00  0.000000D+00  0.000000D+00  0.120410D+01
     14 -0.202575D+01 -0.510882D-05 -0.388627D-03  0.000000D+00  0.000000D+00
     15  0.102109D+01  0.000000D+00  0.137215D-03  0.000000D+00  0.000000D+00
     16  0.000000D+00  0.000000D+00  0.000000D+00 -0.104318D-02  0.000000D+00
     17  0.000000D+00  0.000000D+00  0.000000D+00  0.000000D+00 -0.104318D-02
     18  0.000000D+00  0.000000D+00  0.000000D+00  0.000000D+00  0.000000D+00
     19  0.000000D+00  0.000000D+00  0.000000D+00  0.000000D+00  0.000000D+00
                6             7             8             9            10 
      6  0.957121D+02
      7 -0.458647D-02  0.254640D+02
      8  0.000000D+00  0.000000D+00  0.255050D+02
      9  0.000000D+00  0.000000D+00  0.000000D+00  0.255050D+02
     10  0.174587D+02 -0.310750D-01  0.000000D+00  0.000000D+00  0.255136D+02
     11 -0.309579D-03  0.653267D+01  0.000000D+00  0.000000D+00 -0.191522D-01
     12  0.000000D+00  0.000000D+00  0.684965D+01  0.000000D+00  0.000000D+00
     13  0.000000D+00  0.000000D+00  0.000000D+00  0.684965D+01  0.000000D+00
     14  0.120417D+01 -0.183731D-01  0.000000D+00  0.000000D+00  0.685757D+01
     15 -0.123651D-02  0.762647D-02  0.000000D+00  0.000000D+00 -0.286948D-01
     16  0.000000D+00  0.000000D+00 -0.215975D-01  0.000000D+00  0.000000D+00
     17  0.000000D+00  0.000000D+00  0.000000D+00 -0.215975D-01  0.000000D+00
     18  0.000000D+00  0.000000D+00  0.000000D+00  0.000000D+00  0.000000D+00
     19  0.000000D+00  0.000000D+00  0.000000D+00  0.000000D+00  0.000000D+00
               11            12            13            14            15 
     11  0.958447D+01
     12  0.000000D+00  0.956661D+01
     13  0.000000D+00  0.000000D+00  0.956661D+01
     14 -0.792066D-01  0.000000D+00  0.000000D+00  0.962038D+01
     15  0.260108D-01  0.000000D+00  0.000000D+00 -0.648301D-01  0.141454D+02
     16  0.000000D+00 -0.387552D-01  0.000000D+00  0.000000D+00  0.000000D+00
     17  0.000000D+00  0.000000D+00 -0.387552D-01  0.000000D+00  0.000000D+00
     18  0.000000D+00  0.000000D+00  0.000000D+00  0.000000D+00  0.000000D+00
     19  0.000000D+00  0.000000D+00  0.000000D+00  0.000000D+00  0.000000D+00
               16            17            18            19 
     16  0.141315D+02
     17  0.000000D+00  0.141315D+02
     18  0.000000D+00  0.000000D+00  0.141149D+02
     19  0.000000D+00  0.000000D+00  0.000000D+00  0.141149D+02
 ****** Core Hamiltonian ****** 
                1             2             3             4             5 
      1 -0.552792D+01
      2 -0.115229D+00 -0.239654D+03
      3 -0.216757D+00 -0.888517D+02 -0.843997D+02
      4  0.000000D+00  0.000000D+00  0.000000D+00 -0.579040D+02
      5  0.000000D+00  0.000000D+00  0.000000D+00  0.000000D+00 -0.579040D+02
      6  0.624020D-01  0.144217D-02  0.877779D-02  0.000000D+00  0.000000D+00
      7 -0.489710D+00 -0.552423D+01 -0.178714D+02  0.000000D+00  0.000000D+00
      8  0.000000D+00  0.000000D+00  0.000000D+00 -0.155833D+02  0.000000D+00
      9  0.000000D+00  0.000000D+00  0.000000D+00  0.000000D+00 -0.155833D+02
     10  0.422111D+00  0.100165D-03  0.439160D-02  0.000000D+00  0.000000D+00
     11 -0.145102D+01  0.930558D-01 -0.692304D+00  0.000000D+00  0.000000D+00
     12  0.000000D+00  0.000000D+00  0.000000D+00 -0.122505D+01  0.000000D+00
     13  0.000000D+00  0.000000D+00  0.000000D+00  0.000000D+00 -0.122505D+01
     14  0.199982D+01  0.510882D-05  0.388627D-03  0.000000D+00  0.000000D+00
     15 -0.100440D+01  0.000000D+00 -0.137215D-03  0.000000D+00  0.000000D+00
     16  0.000000D+00  0.000000D+00  0.000000D+00  0.104318D-02  0.000000D+00
     17  0.000000D+00  0.000000D+00  0.000000D+00  0.000000D+00  0.104318D-02
     18  0.000000D+00  0.000000D+00  0.000000D+00  0.000000D+00  0.000000D+00
     19  0.000000D+00  0.000000D+00  0.000000D+00  0.000000D+00  0.000000D+00
                6             7             8             9            10 
      6 -0.579048D+02
      7  0.458647D-02 -0.242959D+02
      8  0.000000D+00  0.000000D+00 -0.227543D+02
      9  0.000000D+00  0.000000D+00  0.000000D+00 -0.227543D+02
     10 -0.155840D+02  0.310750D-01  0.000000D+00  0.000000D+00 -0.227629D+02
     11  0.309579D-03 -0.662542D+01  0.000000D+00  0.000000D+00  0.191522D-01
     12  0.000000D+00  0.000000D+00 -0.665032D+01  0.000000D+00  0.000000D+00
     13  0.000000D+00  0.000000D+00  0.000000D+00 -0.665032D+01  0.000000D+00
     14 -0.122511D+01  0.183731D-01  0.000000D+00  0.000000D+00 -0.665824D+01
     15  0.123651D-02 -0.762647D-02  0.000000D+00  0.000000D+00  0.286948D-01
     16  0.000000D+00  0.000000D+00  0.215975D-01  0.000000D+00  0.000000D+00
     17  0.000000D+00  0.000000D+00  0.000000D+00  0.215975D-01  0.000000D+00
     18  0.000000D+00  0.000000D+00  0.000000D+00  0.000000D+00  0.000000D+00
     19  0.000000D+00  0.000000D+00  0.000000D+00  0.000000D+00  0.000000D+00
               11            12            13            14            15 
     11 -0.937703D+01
     12  0.000000D+00 -0.915711D+01
     13  0.000000D+00  0.000000D+00 -0.915711D+01
     14  0.792066D-01  0.000000D+00  0.000000D+00 -0.921088D+01
     15 -0.260108D-01  0.000000D+00  0.000000D+00  0.648301D-01 -0.123450D+02
     16  0.000000D+00  0.387552D-01  0.000000D+00  0.000000D+00  0.000000D+00
     17  0.000000D+00  0.000000D+00  0.387552D-01  0.000000D+00  0.000000D+00
     18  0.000000D+00  0.000000D+00  0.000000D+00  0.000000D+00  0.000000D+00
     19  0.000000D+00  0.000000D+00  0.000000D+00  0.000000D+00  0.000000D+00
               16            17            18            19 
     16 -0.123310D+02
     17  0.000000D+00 -0.123310D+02
     18  0.000000D+00  0.000000D+00 -0.123145D+02
     19  0.000000D+00  0.000000D+00  0.000000D+00 -0.123145D+02
 SVDSVc IOpt=   1 NormSV=T IR=1
 SVDSVc V= 1.63D+00 1.56D+00 1.30D+00 1.13D+00 1.00D+00 9.91D-01 8.16D-01 6.81D-01 4.70D-01 4.26D-01
 SVDSVc IOpt=   1 NormSV=T IR=2
 SVDSVc V= 1.00D+00
 SVDSVc IOpt=   1 NormSV=T IR=3
 SVDSVc V= 1.53D+00 1.00D+00 9.76D-01 4.98D-01
 SVDSVc IOpt=   1 NormSV=T IR=4
 SVDSVc V= 1.53D+00 1.00D+00 9.76D-01 4.98D-01
 TstOVc:  Largest diagonal error= 1.11D-15 IB=1 I=    1.
 TstOVc:  Largest same sym error= 6.94D-16 IB=1 I=    7 J=    4.
 TstOVc:  Largest diff sym error= 0.00D+00 IB=0 JB=0 I=    0 J=    0.
 Orthogonalized basis functions: 
                 1             2             3             4             5 
      1   0.275339D+00 -0.108431D+00 -0.317446D+00  0.442145D+00  0.000000D+00
      2   0.172334D+00  0.233683D+00  0.460727D+00  0.285991D+00  0.000000D+00
      3   0.271025D+00  0.332824D+00  0.377231D+00  0.118469D+00  0.000000D+00
      4   0.000000D+00  0.000000D+00  0.000000D+00  0.000000D+00  0.000000D+00
      5   0.000000D+00  0.000000D+00  0.000000D+00  0.000000D+00  0.000000D+00
      6  -0.166284D+00  0.230855D+00 -0.215555D+00  0.422638D+00  0.000000D+00
      7   0.336943D+00  0.323223D+00 -0.175815D+00 -0.296096D+00  0.000000D+00
      8   0.000000D+00  0.000000D+00  0.000000D+00  0.000000D+00  0.000000D+00
      9   0.000000D+00  0.000000D+00  0.000000D+00  0.000000D+00  0.000000D+00
     10  -0.306323D+00  0.384576D+00 -0.204535D+00  0.198240D+00  0.000000D+00
     11   0.301361D+00  0.199098D+00 -0.422907D+00 -0.235172D+00  0.000000D+00
     12   0.000000D+00  0.000000D+00  0.000000D+00  0.000000D+00  0.000000D+00
     13   0.000000D+00  0.000000D+00  0.000000D+00  0.000000D+00  0.000000D+00
     14  -0.325955D+00  0.343579D+00 -0.430548D-02 -0.230850D+00  0.000000D+00
     15   0.551459D-01 -0.243770D-01 -0.135023D+00  0.421828D+00  0.000000D+00
     16   0.000000D+00  0.000000D+00  0.000000D+00  0.000000D+00  0.000000D+00
     17   0.000000D+00  0.000000D+00  0.000000D+00  0.000000D+00  0.000000D+00
     18   0.000000D+00  0.000000D+00  0.000000D+00  0.000000D+00  0.100000D+01
     19   0.000000D+00  0.000000D+00  0.000000D+00  0.000000D+00  0.000000D+00
                 6             7             8             9            10 
      1  -0.561166D-01  0.556953D+00 -0.438714D+00 -0.223735D+00  0.473388D+00
      2  -0.215038D-01  0.367320D+00  0.627140D+00  0.388619D+00  0.340681D+00
      3  -0.103332D-02 -0.159805D+00 -0.522143D+00 -0.589344D+00 -0.568400D+00
      4   0.000000D+00  0.000000D+00  0.000000D+00  0.000000D+00  0.000000D+00
      5   0.000000D+00  0.000000D+00  0.000000D+00  0.000000D+00  0.000000D+00
      6  -0.486707D+00 -0.500290D+00  0.292530D+00 -0.401968D+00  0.291805D+00
      7   0.270278D-01 -0.373665D+00 -0.243745D+00  0.577524D+00  0.686974D+00
      8   0.000000D+00  0.000000D+00  0.000000D+00  0.000000D+00  0.000000D+00
      9   0.000000D+00  0.000000D+00  0.000000D+00  0.000000D+00  0.000000D+00
     10  -0.160882D-01  0.272152D+00 -0.297850D+00  0.732513D+00 -0.582778D+00
     11   0.521055D-02  0.236841D+00  0.588011D+00 -0.334093D+00 -0.616916D+00
     12   0.000000D+00  0.000000D+00  0.000000D+00  0.000000D+00  0.000000D+00
     13   0.000000D+00  0.000000D+00  0.000000D+00  0.000000D+00  0.000000D+00
     14   0.370817D+00  0.299522D+00 -0.215182D-01 -0.659801D+00  0.628395D+00
     15   0.793701D+00 -0.380913D+00  0.173132D+00  0.530844D-01 -0.103844D+00
     16   0.000000D+00  0.000000D+00  0.000000D+00  0.000000D+00  0.000000D+00
     17   0.000000D+00  0.000000D+00  0.000000D+00  0.000000D+00  0.000000D+00
     18   0.000000D+00  0.000000D+00  0.000000D+00  0.000000D+00  0.000000D+00
     19   0.000000D+00  0.000000D+00  0.000000D+00  0.000000D+00  0.000000D+00
                11            12            13            14            15 
      1   0.000000D+00  0.000000D+00  0.000000D+00  0.000000D+00  0.000000D+00
      2   0.000000D+00  0.000000D+00  0.000000D+00  0.000000D+00  0.000000D+00
      3   0.000000D+00  0.000000D+00  0.000000D+00  0.000000D+00  0.000000D+00
      4   0.000000D+00  0.358362D+00  0.000000D+00  0.802807D+00 -0.593005D+00
      5   0.000000D+00  0.000000D+00  0.000000D+00  0.000000D+00  0.000000D+00
      6   0.000000D+00  0.000000D+00  0.000000D+00  0.000000D+00  0.000000D+00
      7   0.000000D+00  0.000000D+00  0.000000D+00  0.000000D+00  0.000000D+00
      8   0.000000D+00  0.565532D+00  0.000000D+00 -0.127423D-01  0.101370D+01
      9   0.000000D+00  0.000000D+00  0.000000D+00  0.000000D+00  0.000000D+00
     10   0.000000D+00  0.000000D+00  0.000000D+00  0.000000D+00  0.000000D+00
     11   0.000000D+00  0.000000D+00  0.000000D+00  0.000000D+00  0.000000D+00
     12   0.000000D+00  0.454909D+00  0.000000D+00 -0.616584D+00 -0.793056D+00
     13   0.000000D+00  0.000000D+00  0.000000D+00  0.000000D+00  0.000000D+00
     14   0.000000D+00  0.000000D+00  0.000000D+00  0.000000D+00  0.000000D+00
     15   0.000000D+00  0.000000D+00  0.000000D+00  0.000000D+00  0.000000D+00
     16   0.000000D+00  0.000000D+00  0.100000D+01  0.000000D+00  0.000000D+00
     17   0.000000D+00  0.000000D+00  0.000000D+00  0.000000D+00  0.000000D+00
     18   0.000000D+00  0.000000D+00  0.000000D+00  0.000000D+00  0.000000D+00
     19   0.100000D+01  0.000000D+00  0.000000D+00  0.000000D+00  0.000000D+00
                16            17            18            19 
      1   0.000000D+00  0.000000D+00  0.000000D+00  0.000000D+00
      2   0.000000D+00  0.000000D+00  0.000000D+00  0.000000D+00
      3   0.000000D+00  0.000000D+00  0.000000D+00  0.000000D+00
      4   0.000000D+00  0.000000D+00  0.000000D+00  0.000000D+00
      5   0.358362D+00  0.000000D+00  0.802807D+00 -0.593005D+00
      6   0.000000D+00  0.000000D+00  0.000000D+00  0.000000D+00
      7   0.000000D+00  0.000000D+00  0.000000D+00  0.000000D+00
      8   0.000000D+00  0.000000D+00  0.000000D+00  0.000000D+00
      9   0.565532D+00  0.000000D+00 -0.127423D-01  0.101370D+01
     10   0.000000D+00  0.000000D+00  0.000000D+00  0.000000D+00
     11   0.000000D+00  0.000000D+00  0.000000D+00  0.000000D+00
     12   0.000000D+00  0.000000D+00  0.000000D+00  0.000000D+00
     13   0.454909D+00  0.000000D+00 -0.616584D+00 -0.793056D+00
     14   0.000000D+00  0.000000D+00  0.000000D+00  0.000000D+00
     15   0.000000D+00  0.000000D+00  0.000000D+00  0.000000D+00
     16   0.000000D+00  0.000000D+00  0.000000D+00  0.000000D+00
     17   0.000000D+00  0.100000D+01  0.000000D+00  0.000000D+00
     18   0.000000D+00  0.000000D+00  0.000000D+00  0.000000D+00
     19   0.000000D+00  0.000000D+00  0.000000D+00  0.000000D+00
 NBasis=    19 RedAO= T EigKep=  4.26D-01  NBF=    10     1     4     4
 NBsUse=    19 1.00D-06 EigRej= -1.00D+00 NBFU=    10     1     4     4
 Leave Link  302 at Fri Mar 25 14:38:00 2022, MaxMem=  9663676416 cpu:               4.4 elap:               0.2
 (Enter /nopt/nrel/apps/gaussian/g16C_1/g16/l303.exe)
 DipDrv will not compute anything.
 Fermi contact integrals: 
                 1             2 
      1   0.628247D+00  0.343937D-02
      2   0.000000D+00  0.454848D+02
      3   0.000000D+00  0.245213D+01
      4   0.000000D+00  0.000000D+00
      5   0.000000D+00  0.000000D+00
      6   0.000000D+00  0.000000D+00
      7   0.286738D-05  0.115357D+00
      8   0.000000D+00  0.000000D+00
      9   0.000000D+00  0.000000D+00
     10  -0.105012D-04  0.000000D+00
     11   0.179240D-01 -0.521539D-02
     12   0.000000D+00  0.000000D+00
     13   0.000000D+00  0.000000D+00
     14  -0.304046D-01  0.000000D+00
     15   0.134400D-01  0.000000D+00
     16   0.000000D+00  0.000000D+00
     17   0.000000D+00  0.000000D+00
     18   0.000000D+00  0.000000D+00
     19   0.000000D+00  0.000000D+00
 Leave Link  303 at Fri Mar 25 14:38:00 2022, MaxMem=  9663676416 cpu:               0.8 elap:               0.0
 (Enter /nopt/nrel/apps/gaussian/g16C_1/g16/l401.exe)
 ExpMin= 1.16D-01 ExpMax= 1.03D+03 ExpMxC= 1.03D+03 IAcc=3 IRadAn=         5 AccDes= 0.00D+00
 Harris functional with IExCor=  205 and IRadAn=       5 diagonalized for initial guess.
 HarFok:  IExCor=  205 AccDes= 0.00D+00 IRadAn=         5 IDoV= 1 UseB2=F ITyADJ=14
 ICtDFT=  3500011 ScaDFX=  1.000000  1.000000  1.000000  1.000000
 FoFCou: FMM=F IPFlag=           0 FMFlag=      100000 FMFlg1=           0
         NFxFlg=           0 DoJE=T BraDBF=F KetDBF=T FulRan=T
         wScrn=  0.000000 ICntrl=       500 IOpCl=  0 I1Cent=   200000004 NGrid=           0
         NMat0=    1 NMatS0=      1 NMatT0=    0 NMatD0=    1 NMtDS0=    0 NMtDT0=    0
 Petite list used in FoFCou.
 Harris En= -839.514116949346    
 JPrj=0 DoOrth=F DoCkMO=F.
 Initial guess orbital symmetries:
 Alpha Orbitals:
       Occupied  (SG) (SG) (SG) (PI) (PI) (SG) (SG) (PI) (PI) (SG)
                 (SG) (PI)
       Virtual   (PI) (DLTA) (DLTA) (SG) (PI) (PI) (SG)
 Beta  Orbitals:
       Occupied  (SG) (SG) (SG) (PI) (PI) (SG) (SG) (PI) (PI) (SG)
                 (SG)
       Virtual   (PI) (PI) (DLTA) (DLTA) (SG) (PI) (PI) (SG)
 Initial guess <Sx>= 0.0000 <Sy>= 0.0000 <Sz>= 0.5000 <S**2>= 0.7500 S= 0.5000
 Leave Link  401 at Fri Mar 25 14:38:00 2022, MaxMem=  9663676416 cpu:               4.2 elap:               0.2
 (Enter /nopt/nrel/apps/gaussian/g16C_1/g16/l502.exe)
 Keep R1 and R2 ints in memory in symmetry-blocked form, NReq=7413039.
 FoFCou: FMM=F IPFlag=           0 FMFlag=           0 FMFlg1=           0
         NFxFlg=           0 DoJE=F BraDBF=F KetDBF=F FulRan=T
         wScrn=  0.000000 ICntrl=       600 IOpCl=  0 I1Cent=           0 NGrid=           0
         NMat0=    1 NMatS0=    190 NMatT0=    0 NMatD0=    1 NMtDS0=    0 NMtDT0=    0
 Petite list used in FoFCou.
 UHF open shell SCF:
 Using DIIS extrapolation, IDIIS=  1040.
 NGot=  9663676416 LenX=  9663662661 LenY=  9663661779
 Requested convergence on RMS density matrix=1.00D-08 within 128 cycles.
 Requested convergence on MAX density matrix=1.00D-06.
 Requested convergence on             energy=1.00D-06.
 No special actions if energy rises.

 Cycle   1  Pass 1  IDiag  1:
 E= -839.952129410293    
 DIIS: error= 7.53D-02 at cycle   1 NSaved=   1.
 NSaved= 1 IEnMin= 1 EnMin= -839.952129410293     IErMin= 1 ErrMin= 7.53D-02
 ErrMax= 7.53D-02  0.00D+00 EMaxC= 1.00D-01 BMatC= 4.25D-01 BMatP= 4.25D-01
 IDIUse=3 WtCom= 2.47D-01 WtEn= 7.53D-01
 Coeff-Com:  0.100D+01
 Coeff-En:   0.100D+01
 Coeff:      0.100D+01
 Gap=     0.359 Goal=   None    Shift=    0.000
 Gap=     0.367 Goal=   None    Shift=    0.000
 GapD=    0.359 DampG=1.000 DampE=0.250 DampFc=0.2500 IDamp=-1.
 Damping current iteration by 2.50D-01
 RMSDP=2.89D-02 MaxDP=2.78D-01              OVMax= 0.00D+00

 Cycle   2  Pass 1  IDiag  1:
 E= -839.983098844102     Delta-E=       -0.030969433809 Rises=F Damp=T
 DIIS: error= 5.59D-02 at cycle   2 NSaved=   2.
 NSaved= 2 IEnMin= 2 EnMin= -839.983098844102     IErMin= 2 ErrMin= 5.59D-02
 ErrMax= 5.59D-02  0.00D+00 EMaxC= 1.00D-01 BMatC= 2.35D-01 BMatP= 4.25D-01
 IDIUse=3 WtCom= 4.41D-01 WtEn= 5.59D-01
 Coeff-Com: -0.289D+01 0.389D+01
 Coeff-En:   0.000D+00 0.100D+01
 Coeff:     -0.127D+01 0.227D+01
 Gap=     0.344 Goal=   None    Shift=    0.000
 Gap=     0.353 Goal=   None    Shift=    0.000
 RMSDP=2.21D-02 MaxDP=2.06D-01 DE=-3.10D-02 OVMax= 0.00D+00

 Cycle   3  Pass 1  IDiag  1:
 E= -840.078355600086     Delta-E=       -0.095256755984 Rises=F Damp=F
 DIIS: error= 4.82D-03 at cycle   3 NSaved=   3.
 NSaved= 3 IEnMin= 3 EnMin= -840.078355600086     IErMin= 3 ErrMin= 4.82D-03
 ErrMax= 4.82D-03  0.00D+00 EMaxC= 1.00D-01 BMatC= 1.46D-03 BMatP= 2.35D-01
 IDIUse=3 WtCom= 9.52D-01 WtEn= 4.82D-02
 Coeff-Com: -0.435D-01 0.622D-01 0.981D+00
 Coeff-En:   0.000D+00 0.000D+00 0.100D+01
 Coeff:     -0.414D-01 0.592D-01 0.982D+00
 Gap=     0.388 Goal=   None    Shift=    0.000
 Gap=     0.389 Goal=   None    Shift=    0.000
 RMSDP=3.13D-03 MaxDP=3.24D-02 DE=-9.53D-02 OVMax= 0.00D+00

 Cycle   4  Pass 1  IDiag  1:
 E= -840.080357497800     Delta-E=       -0.002001897714 Rises=F Damp=F
 DIIS: error= 4.12D-03 at cycle   4 NSaved=   4.
 NSaved= 4 IEnMin= 4 EnMin= -840.080357497800     IErMin= 4 ErrMin= 4.12D-03
 ErrMax= 4.12D-03  0.00D+00 EMaxC= 1.00D-01 BMatC= 7.03D-04 BMatP= 1.46D-03
 IDIUse=3 WtCom= 9.59D-01 WtEn= 4.12D-02
 Coeff-Com:  0.421D+00-0.572D+00-0.521D+00 0.167D+01
 Coeff-En:   0.000D+00 0.000D+00 0.000D+00 0.100D+01
 Coeff:      0.404D+00-0.548D+00-0.500D+00 0.164D+01
 Gap=     0.382 Goal=   None    Shift=    0.000
 Gap=     0.382 Goal=   None    Shift=    0.000
 RMSDP=4.33D-03 MaxDP=4.82D-02 DE=-2.00D-03 OVMax= 0.00D+00

 Cycle   5  Pass 1  IDiag  1:
 E= -840.082433308196     Delta-E=       -0.002075810396 Rises=F Damp=F
 DIIS: error= 3.25D-03 at cycle   5 NSaved=   5.
 NSaved= 5 IEnMin= 5 EnMin= -840.082433308196     IErMin= 5 ErrMin= 3.25D-03
 ErrMax= 3.25D-03  0.00D+00 EMaxC= 1.00D-01 BMatC= 4.27D-04 BMatP= 7.03D-04
 IDIUse=3 WtCom= 9.68D-01 WtEn= 3.25D-02
 Coeff-Com: -0.369D+00 0.508D+00 0.700D+00-0.250D+01 0.266D+01
 Coeff-En:   0.000D+00 0.000D+00 0.000D+00 0.000D+00 0.100D+01
 Coeff:     -0.357D+00 0.491D+00 0.677D+00-0.241D+01 0.260D+01
 Gap=     0.382 Goal=   None    Shift=    0.000
 Gap=     0.386 Goal=   None    Shift=    0.000
 RMSDP=5.98D-03 MaxDP=6.39D-02 DE=-2.08D-03 OVMax= 0.00D+00

 Cycle   6  Pass 1  IDiag  1:
 E= -840.084686202658     Delta-E=       -0.002252894462 Rises=F Damp=F
 DIIS: error= 2.20D-03 at cycle   6 NSaved=   6.
 NSaved= 6 IEnMin= 6 EnMin= -840.084686202658     IErMin= 6 ErrMin= 2.20D-03
 ErrMax= 2.20D-03  0.00D+00 EMaxC= 1.00D-01 BMatC= 2.55D-04 BMatP= 4.27D-04
 IDIUse=3 WtCom= 9.78D-01 WtEn= 2.20D-02
 Coeff-Com:  0.139D+00-0.193D+00-0.190D+00 0.591D+00-0.178D+01 0.243D+01
 Coeff-En:   0.000D+00 0.000D+00 0.000D+00 0.000D+00 0.000D+00 0.100D+01
 Coeff:      0.136D+00-0.189D+00-0.186D+00 0.578D+00-0.174D+01 0.240D+01
 Gap=     0.383 Goal=   None    Shift=    0.000
 Gap=     0.390 Goal=   None    Shift=    0.000
 RMSDP=8.48D-03 MaxDP=8.36D-02 DE=-2.25D-03 OVMax= 0.00D+00

 Cycle   7  Pass 1  IDiag  1:
 E= -840.086876837950     Delta-E=       -0.002190635292 Rises=F Damp=F
 DIIS: error= 1.50D-03 at cycle   7 NSaved=   7.
 NSaved= 7 IEnMin= 7 EnMin= -840.086876837950     IErMin= 7 ErrMin= 1.50D-03
 ErrMax= 1.50D-03  0.00D+00 EMaxC= 1.00D-01 BMatC= 1.14D-04 BMatP= 2.55D-04
 IDIUse=3 WtCom= 9.85D-01 WtEn= 1.50D-02
 Coeff-Com: -0.242D+00 0.327D+00-0.459D-01 0.204D+00 0.603D+00-0.204D+01
 Coeff-Com:  0.219D+01
 Coeff-En:   0.000D+00 0.000D+00 0.000D+00 0.000D+00 0.000D+00 0.000D+00
 Coeff-En:   0.100D+01
 Coeff:     -0.238D+00 0.322D+00-0.452D-01 0.201D+00 0.594D+00-0.201D+01
 Coeff:      0.217D+01
 Gap=     0.382 Goal=   None    Shift=    0.000
 Gap=     0.390 Goal=   None    Shift=    0.000
 RMSDP=4.71D-03 MaxDP=3.63D-02 DE=-2.19D-03 OVMax= 0.00D+00

 Cycle   8  Pass 1  IDiag  1:
 E= -840.087708290220     Delta-E=       -0.000831452270 Rises=F Damp=F
 DIIS: error= 1.04D-03 at cycle   8 NSaved=   8.
 NSaved= 8 IEnMin= 8 EnMin= -840.087708290220     IErMin= 8 ErrMin= 1.04D-03
 ErrMax= 1.04D-03  0.00D+00 EMaxC= 1.00D-01 BMatC= 5.90D-05 BMatP= 1.14D-04
 IDIUse=3 WtCom= 9.90D-01 WtEn= 1.04D-02
 Coeff-Com:  0.147D-01-0.142D-01 0.188D+00-0.111D+01 0.123D+01 0.312D+00
 Coeff-Com: -0.220D+01 0.258D+01
 Coeff-En:   0.000D+00 0.000D+00 0.000D+00 0.000D+00 0.000D+00 0.000D+00
 Coeff-En:   0.000D+00 0.100D+01
 Coeff:      0.146D-01-0.140D-01 0.186D+00-0.110D+01 0.122D+01 0.308D+00
 Coeff:     -0.218D+01 0.256D+01
 Gap=     0.386 Goal=   None    Shift=    0.000
 Gap=     0.392 Goal=   None    Shift=    0.000
 RMSDP=3.85D-03 MaxDP=3.14D-02 DE=-8.31D-04 OVMax= 0.00D+00

 Cycle   9  Pass 1  IDiag  1:
 E= -840.088173023354     Delta-E=       -0.000464733134 Rises=F Damp=F
 DIIS: error= 5.13D-04 at cycle   9 NSaved=   9.
 NSaved= 9 IEnMin= 9 EnMin= -840.088173023354     IErMin= 9 ErrMin= 5.13D-04
 ErrMax= 5.13D-04  0.00D+00 EMaxC= 1.00D-01 BMatC= 2.48D-05 BMatP= 5.90D-05
 IDIUse=3 WtCom= 9.95D-01 WtEn= 5.13D-03
 Coeff-Com:  0.595D-01-0.841D-01-0.149D+00 0.693D+00-0.129D+01 0.105D+01
 Coeff-Com:  0.331D+00-0.167D+01 0.205D+01
 Coeff-En:   0.000D+00 0.000D+00 0.000D+00 0.000D+00 0.000D+00 0.000D+00
 Coeff-En:   0.000D+00 0.000D+00 0.100D+01
 Coeff:      0.592D-01-0.837D-01-0.149D+00 0.689D+00-0.128D+01 0.105D+01
 Coeff:      0.330D+00-0.166D+01 0.205D+01
 Gap=     0.388 Goal=   None    Shift=    0.000
 Gap=     0.393 Goal=   None    Shift=    0.000
 RMSDP=1.94D-03 MaxDP=1.54D-02 DE=-4.65D-04 OVMax= 0.00D+00

 Cycle  10  Pass 1  IDiag  1:
 E= -840.088332286288     Delta-E=       -0.000159262934 Rises=F Damp=F
 DIIS: error= 4.21D-04 at cycle  10 NSaved=  10.
 NSaved=10 IEnMin=10 EnMin= -840.088332286288     IErMin=10 ErrMin= 4.21D-04
 ErrMax= 4.21D-04  0.00D+00 EMaxC= 1.00D-01 BMatC= 1.50D-05 BMatP= 2.48D-05
 IDIUse=3 WtCom= 9.96D-01 WtEn= 4.21D-03
 Coeff-Com:  0.636D-01-0.830D-01 0.126D+00-0.515D+00 0.777D+00-0.357D+00
 Coeff-Com: -0.573D+00 0.168D+01-0.293D+01 0.282D+01
 Coeff-En:   0.000D+00 0.000D+00 0.000D+00 0.000D+00 0.000D+00 0.000D+00
 Coeff-En:   0.000D+00 0.000D+00 0.000D+00 0.100D+01
 Coeff:      0.633D-01-0.826D-01 0.126D+00-0.513D+00 0.773D+00-0.355D+00
 Coeff:     -0.571D+00 0.167D+01-0.292D+01 0.281D+01
 Gap=     0.388 Goal=   None    Shift=    0.000
 Gap=     0.392 Goal=   None    Shift=    0.000
 RMSDP=1.42D-03 MaxDP=1.04D-02 DE=-1.59D-04 OVMax= 0.00D+00

 Cycle  11  Pass 1  IDiag  1:
 E= -840.088430203592     Delta-E=       -0.000097917304 Rises=F Damp=F
 DIIS: error= 3.22D-04 at cycle  11 NSaved=  11.
 NSaved=11 IEnMin=11 EnMin= -840.088430203592     IErMin=11 ErrMin= 3.22D-04
 ErrMax= 3.22D-04  0.00D+00 EMaxC= 1.00D-01 BMatC= 9.61D-06 BMatP= 1.50D-05
 IDIUse=3 WtCom= 9.97D-01 WtEn= 3.22D-03
 Coeff-Com:  0.719D-01-0.996D-01-0.909D-01 0.517D+00-0.892D+00 0.620D+00
 Coeff-Com:  0.331D+00-0.162D+01 0.305D+01-0.386D+01 0.297D+01
 Coeff-En:   0.000D+00 0.000D+00 0.000D+00 0.000D+00 0.000D+00 0.000D+00
 Coeff-En:   0.000D+00 0.000D+00 0.000D+00 0.000D+00 0.100D+01
 Coeff:      0.716D-01-0.993D-01-0.906D-01 0.515D+00-0.890D+00 0.618D+00
 Coeff:      0.330D+00-0.161D+01 0.304D+01-0.385D+01 0.296D+01
 Gap=     0.391 Goal=   None    Shift=    0.000
 Gap=     0.392 Goal=   None    Shift=    0.000
 RMSDP=1.82D-03 MaxDP=1.31D-02 DE=-9.79D-05 OVMax= 0.00D+00

 Cycle  12  Pass 1  IDiag  1:
 E= -840.088517898237     Delta-E=       -0.000087694646 Rises=F Damp=F
 DIIS: error= 3.03D-04 at cycle  12 NSaved=  12.
 NSaved=12 IEnMin=12 EnMin= -840.088517898237     IErMin=12 ErrMin= 3.03D-04
 ErrMax= 3.03D-04  0.00D+00 EMaxC= 1.00D-01 BMatC= 5.83D-06 BMatP= 9.61D-06
 IDIUse=3 WtCom= 9.97D-01 WtEn= 3.03D-03
 Coeff-Com: -0.854D-01 0.116D+00-0.193D-01-0.815D-01 0.490D-01 0.128D+00
 Coeff-Com: -0.189D+00 0.576D+00-0.987D+00 0.207D+01-0.342D+01 0.285D+01
 Coeff-En:   0.000D+00 0.000D+00 0.000D+00 0.000D+00 0.000D+00 0.000D+00
 Coeff-En:   0.000D+00 0.000D+00 0.000D+00 0.000D+00 0.000D+00 0.100D+01
 Coeff:     -0.851D-01 0.116D+00-0.192D-01-0.812D-01 0.489D-01 0.128D+00
 Coeff:     -0.189D+00 0.574D+00-0.984D+00 0.206D+01-0.341D+01 0.284D+01
 Gap=     0.392 Goal=   None    Shift=    0.000
 Gap=     0.390 Goal=   None    Shift=    0.000
 RMSDP=1.22D-03 MaxDP=1.38D-02 DE=-8.77D-05 OVMax= 0.00D+00

 Cycle  13  Pass 1  IDiag  1:
 E= -840.088559681779     Delta-E=       -0.000041783542 Rises=F Damp=F
 DIIS: error= 2.65D-04 at cycle  13 NSaved=  13.
 NSaved=13 IEnMin=13 EnMin= -840.088559681779     IErMin=13 ErrMin= 2.65D-04
 ErrMax= 2.65D-04  0.00D+00 EMaxC= 1.00D-01 BMatC= 4.15D-06 BMatP= 5.83D-06
 IDIUse=3 WtCom= 9.97D-01 WtEn= 2.65D-03
 Coeff-Com: -0.327D-01 0.457D-01 0.169D+00-0.668D+00 0.116D+01-0.917D+00
 Coeff-Com: -0.182D+00 0.116D+01-0.240D+01 0.237D+01-0.817D+00-0.877D+00
 Coeff-Com:  0.199D+01
 Coeff-En:   0.000D+00 0.000D+00 0.000D+00 0.000D+00 0.000D+00 0.000D+00
 Coeff-En:   0.000D+00 0.000D+00 0.000D+00 0.000D+00 0.000D+00 0.000D+00
 Coeff-En:   0.100D+01
 Coeff:     -0.326D-01 0.456D-01 0.169D+00-0.666D+00 0.116D+01-0.915D+00
 Coeff:     -0.182D+00 0.115D+01-0.240D+01 0.236D+01-0.815D+00-0.875D+00
 Coeff:      0.199D+01
 Gap=     0.395 Goal=   None    Shift=    0.000
 Gap=     0.389 Goal=   None    Shift=    0.000
 RMSDP=1.85D-03 MaxDP=1.60D-02 DE=-4.18D-05 OVMax= 0.00D+00

 Cycle  14  Pass 1  IDiag  1:
 E= -840.088608539522     Delta-E=       -0.000048857743 Rises=F Damp=F
 DIIS: error= 1.98D-04 at cycle  14 NSaved=  14.
 NSaved=14 IEnMin=14 EnMin= -840.088608539522     IErMin=14 ErrMin= 1.98D-04
 ErrMax= 1.98D-04  0.00D+00 EMaxC= 1.00D-01 BMatC= 1.82D-06 BMatP= 4.15D-06
 IDIUse=3 WtCom= 9.98D-01 WtEn= 1.98D-03
 Coeff-Com:  0.155D-01-0.194D-01 0.416D-01-0.175D+00 0.329D+00-0.320D+00
 Coeff-Com: -0.121D-02 0.395D+00-0.733D+00 0.280D+00 0.142D+01-0.216D+01
 Coeff-Com: -0.285D+00 0.221D+01
 Coeff-En:   0.000D+00 0.000D+00 0.000D+00 0.000D+00 0.000D+00 0.000D+00
 Coeff-En:   0.000D+00 0.000D+00 0.000D+00 0.000D+00 0.000D+00 0.000D+00
 Coeff-En:   0.000D+00 0.100D+01
 Coeff:      0.155D-01-0.194D-01 0.416D-01-0.175D+00 0.328D+00-0.320D+00
 Coeff:     -0.121D-02 0.395D+00-0.731D+00 0.279D+00 0.142D+01-0.215D+01
 Coeff:     -0.284D+00 0.221D+01
 Gap=     0.399 Goal=   None    Shift=    0.000
 Gap=     0.389 Goal=   None    Shift=    0.000
 RMSDP=1.77D-03 MaxDP=1.73D-02 DE=-4.89D-05 OVMax= 0.00D+00

 Cycle  15  Pass 1  IDiag  1:
 E= -840.088634584958     Delta-E=       -0.000026045436 Rises=F Damp=F
 DIIS: error= 5.42D-05 at cycle  15 NSaved=  15.
 NSaved=15 IEnMin=15 EnMin= -840.088634584958     IErMin=15 ErrMin= 5.42D-05
 ErrMax= 5.42D-05  0.00D+00 EMaxC= 1.00D-01 BMatC= 3.88D-07 BMatP= 1.82D-06
 IDIUse=1 WtCom= 1.00D+00 WtEn= 0.00D+00
 Coeff-Com:  0.239D-02-0.330D-02 0.242D-02-0.179D-01-0.107D-01 0.124D+00
 Coeff-Com: -0.170D+00 0.541D-01 0.339D+00-0.537D+00-0.118D+00 0.751D+00
 Coeff-Com:  0.189D+00-0.157D+01 0.197D+01
 Coeff:      0.239D-02-0.330D-02 0.242D-02-0.179D-01-0.107D-01 0.124D+00
 Coeff:     -0.170D+00 0.541D-01 0.339D+00-0.537D+00-0.118D+00 0.751D+00
 Coeff:      0.189D+00-0.157D+01 0.197D+01
 Gap=     0.400 Goal=   None    Shift=    0.000
 Gap=     0.388 Goal=   None    Shift=    0.000
 RMSDP=7.14D-04 MaxDP=7.99D-03 DE=-2.60D-05 OVMax= 0.00D+00

 Cycle  16  Pass 1  IDiag  1:
 E= -840.088638395990     Delta-E=       -0.000003811032 Rises=F Damp=F
 DIIS: error= 3.38D-05 at cycle  16 NSaved=  16.
 NSaved=16 IEnMin=16 EnMin= -840.088638395990     IErMin=16 ErrMin= 3.38D-05
 ErrMax= 3.38D-05  0.00D+00 EMaxC= 1.00D-01 BMatC= 1.04D-07 BMatP= 3.88D-07
 IDIUse=1 WtCom= 1.00D+00 WtEn= 0.00D+00
 Coeff-Com: -0.740D-02 0.102D-01 0.299D-02-0.216D-01 0.462D-01-0.321D-01
 Coeff-Com: -0.263D-01 0.109D+00-0.250D+00 0.431D+00-0.586D+00 0.456D+00
 Coeff-Com: -0.281D-01-0.216D+00 0.180D-01 0.110D+01
 Coeff:     -0.740D-02 0.102D-01 0.299D-02-0.216D-01 0.462D-01-0.321D-01
 Coeff:     -0.263D-01 0.109D+00-0.250D+00 0.431D+00-0.586D+00 0.456D+00
 Coeff:     -0.281D-01-0.216D+00 0.180D-01 0.110D+01
 Gap=     0.401 Goal=   None    Shift=    0.000
 Gap=     0.388 Goal=   None    Shift=    0.000
 RMSDP=2.64D-04 MaxDP=2.15D-03 DE=-3.81D-06 OVMax= 0.00D+00

 Cycle  17  Pass 1  IDiag  1:
 E= -840.088639102072     Delta-E=       -0.000000706082 Rises=F Damp=F
 DIIS: error= 1.80D-05 at cycle  17 NSaved=  17.
 NSaved=17 IEnMin=17 EnMin= -840.088639102072     IErMin=17 ErrMin= 1.80D-05
 ErrMax= 1.80D-05  0.00D+00 EMaxC= 1.00D-01 BMatC= 3.01D-08 BMatP= 1.04D-07
 IDIUse=1 WtCom= 1.00D+00 WtEn= 0.00D+00
 Coeff-Com:  0.455D-02-0.620D-02 0.579D-02-0.260D-01 0.233D-01 0.285D-01
 Coeff-Com: -0.545D-01-0.105D-02 0.278D+00-0.554D+00 0.446D+00-0.109D+00
 Coeff-Com:  0.256D+00-0.646D+00 0.898D+00-0.238D+01 0.284D+01
 Coeff:      0.455D-02-0.620D-02 0.579D-02-0.260D-01 0.233D-01 0.285D-01
 Coeff:     -0.545D-01-0.105D-02 0.278D+00-0.554D+00 0.446D+00-0.109D+00
 Coeff:      0.256D+00-0.646D+00 0.898D+00-0.238D+01 0.284D+01
 Gap=     0.401 Goal=   None    Shift=    0.000
 Gap=     0.388 Goal=   None    Shift=    0.000
 RMSDP=9.46D-05 MaxDP=8.53D-04 DE=-7.06D-07 OVMax= 0.00D+00

 Cycle  18  Pass 1  IDiag  1:
 E= -840.088639139214     Delta-E=       -0.000000037142 Rises=F Damp=F
 DIIS: error= 1.99D-05 at cycle  18 NSaved=  18.
 NSaved=18 IEnMin=18 EnMin= -840.088639139214     IErMin=17 ErrMin= 1.80D-05
 ErrMax= 1.99D-05  0.00D+00 EMaxC= 1.00D-01 BMatC= 3.85D-08 BMatP= 3.01D-08
 IDIUse=1 WtCom= 1.00D+00 WtEn= 0.00D+00
 Coeff-Com:  0.265D-02-0.356D-02 0.149D-02-0.176D-02-0.159D-01 0.374D-01
 Coeff-Com: -0.374D-01 0.330D-01-0.885D-01 0.140D+00-0.111D+00 0.140D+00
 Coeff-Com: -0.201D+00 0.139D+00 0.432D-01-0.182D+00-0.155D+01 0.265D+01
 Coeff:      0.265D-02-0.356D-02 0.149D-02-0.176D-02-0.159D-01 0.374D-01
 Coeff:     -0.374D-01 0.330D-01-0.885D-01 0.140D+00-0.111D+00 0.140D+00
 Coeff:     -0.201D+00 0.139D+00 0.432D-01-0.182D+00-0.155D+01 0.265D+01
 Gap=     0.401 Goal=   None    Shift=    0.000
 Gap=     0.388 Goal=   None    Shift=    0.000
 RMSDP=1.66D-04 MaxDP=1.05D-03 DE=-3.71D-08 OVMax= 0.00D+00

 Cycle  19  Pass 1  IDiag  1:
 E= -840.088639349781     Delta-E=       -0.000000210567 Rises=F Damp=F
 DIIS: error= 9.62D-06 at cycle  19 NSaved=  19.
 NSaved=19 IEnMin=19 EnMin= -840.088639349781     IErMin=19 ErrMin= 9.62D-06
 ErrMax= 9.62D-06  0.00D+00 EMaxC= 1.00D-01 BMatC= 2.76D-09 BMatP= 3.01D-08
 IDIUse=1 WtCom= 1.00D+00 WtEn= 0.00D+00
 Coeff-Com:  0.650D-03-0.866D-03 0.644D-03-0.109D-02 0.486D-02-0.886D-02
 Coeff-Com:  0.245D-02 0.533D-02-0.159D-01 0.276D-01-0.248D-01-0.162D-01
 Coeff-Com:  0.199D-01 0.290D-01-0.599D-01 0.362D+00-0.315D+00-0.166D+00
 Coeff-Com:  0.116D+01
 Coeff:      0.650D-03-0.866D-03 0.644D-03-0.109D-02 0.486D-02-0.886D-02
 Coeff:      0.245D-02 0.533D-02-0.159D-01 0.276D-01-0.248D-01-0.162D-01
 Coeff:      0.199D-01 0.290D-01-0.599D-01 0.362D+00-0.315D+00-0.166D+00
 Coeff:      0.116D+01
 Gap=     0.401 Goal=   None    Shift=    0.000
 Gap=     0.388 Goal=   None    Shift=    0.000
 RMSDP=2.59D-05 MaxDP=2.16D-04 DE=-2.11D-07 OVMax= 0.00D+00

 Cycle  20  Pass 1  IDiag  1:
 E= -840.088639359603     Delta-E=       -0.000000009821 Rises=F Damp=F
 DIIS: error= 2.54D-06 at cycle  20 NSaved=  20.
 NSaved=20 IEnMin=20 EnMin= -840.088639359603     IErMin=20 ErrMin= 2.54D-06
 ErrMax= 2.54D-06  0.00D+00 EMaxC= 1.00D-01 BMatC= 4.17D-10 BMatP= 2.76D-09
 IDIUse=1 WtCom= 1.00D+00 WtEn= 0.00D+00
 Coeff-Com:  0.949D-05-0.159D-04 0.301D-04 0.174D-04-0.522D-03 0.137D-02
 Coeff-Com:  0.615D-03-0.477D-02 0.908D-02-0.234D-01 0.350D-01-0.155D-01
 Coeff-Com:  0.715D-03-0.707D-02 0.442D-02-0.161D+00 0.144D+00 0.125D+00
 Coeff-Com: -0.669D+00 0.156D+01
 Coeff:      0.949D-05-0.159D-04 0.301D-04 0.174D-04-0.522D-03 0.137D-02
 Coeff:      0.615D-03-0.477D-02 0.908D-02-0.234D-01 0.350D-01-0.155D-01
 Coeff:      0.715D-03-0.707D-02 0.442D-02-0.161D+00 0.144D+00 0.125D+00
 Coeff:     -0.669D+00 0.156D+01
 Gap=     0.401 Goal=   None    Shift=    0.000
 Gap=     0.388 Goal=   None    Shift=    0.000
 RMSDP=1.20D-05 MaxDP=9.91D-05 DE=-9.82D-09 OVMax= 0.00D+00

 Cycle  21  Pass 1  IDiag  1:
 E= -840.088639361072     Delta-E=       -0.000000001470 Rises=F Damp=F
 DIIS: error= 4.77D-07 at cycle  21 NSaved=  20.
 NSaved=20 IEnMin=20 EnMin= -840.088639361072     IErMin=20 ErrMin= 4.77D-07
 ErrMax= 4.77D-07  0.00D+00 EMaxC= 1.00D-01 BMatC= 2.54D-11 BMatP= 4.17D-10
 IDIUse=1 WtCom= 1.00D+00 WtEn= 0.00D+00
 Coeff-Com: -0.194D-05 0.717D-05 0.709D-05 0.444D-05 0.124D-03-0.452D-03
 Coeff-Com:  0.226D-03 0.213D-02 0.283D-03-0.737D-02 0.763D-02 0.269D-02
 Coeff-Com: -0.133D-01 0.227D-01 0.115D-02-0.161D-02-0.499D-01 0.120D+00
 Coeff-Com: -0.532D+00 0.145D+01
 Coeff:     -0.194D-05 0.717D-05 0.709D-05 0.444D-05 0.124D-03-0.452D-03
 Coeff:      0.226D-03 0.213D-02 0.283D-03-0.737D-02 0.763D-02 0.269D-02
 Coeff:     -0.133D-01 0.227D-01 0.115D-02-0.161D-02-0.499D-01 0.120D+00
 Coeff:     -0.532D+00 0.145D+01
 Gap=     0.401 Goal=   None    Shift=    0.000
 Gap=     0.388 Goal=   None    Shift=    0.000
 RMSDP=1.79D-06 MaxDP=1.65D-05 DE=-1.47D-09 OVMax= 0.00D+00

 Cycle  22  Pass 1  IDiag  1:
 E= -840.088639361159     Delta-E=       -0.000000000086 Rises=F Damp=F
 DIIS: error= 2.35D-07 at cycle  22 NSaved=  20.
 NSaved=20 IEnMin=20 EnMin= -840.088639361159     IErMin=20 ErrMin= 2.35D-07
 ErrMax= 2.35D-07  0.00D+00 EMaxC= 1.00D-01 BMatC= 3.97D-12 BMatP= 2.54D-11
 IDIUse=1 WtCom= 1.00D+00 WtEn= 0.00D+00
 Coeff-Com: -0.181D-04 0.769D-04-0.129D-03-0.996D-04 0.532D-03-0.520D-03
 Coeff-Com:  0.560D-04-0.979D-03 0.348D-02-0.349D-02-0.164D-02 0.727D-02
 Coeff-Com: -0.113D-01 0.787D-04 0.102D-01 0.178D-02-0.148D-01 0.152D+00
 Coeff-Com: -0.721D+00 0.158D+01
 Coeff:     -0.181D-04 0.769D-04-0.129D-03-0.996D-04 0.532D-03-0.520D-03
 Coeff:      0.560D-04-0.979D-03 0.348D-02-0.349D-02-0.164D-02 0.727D-02
 Coeff:     -0.113D-01 0.787D-04 0.102D-01 0.178D-02-0.148D-01 0.152D+00
 Coeff:     -0.721D+00 0.158D+01
 Gap=     0.401 Goal=   None    Shift=    0.000
 Gap=     0.388 Goal=   None    Shift=    0.000
 RMSDP=9.85D-07 MaxDP=9.74D-06 DE=-8.62D-11 OVMax= 0.00D+00

 Cycle  23  Pass 1  IDiag  1:
 E= -840.088639361172     Delta-E=       -0.000000000013 Rises=F Damp=F
 DIIS: error= 4.11D-08 at cycle  23 NSaved=  20.
 NSaved=20 IEnMin=20 EnMin= -840.088639361172     IErMin=20 ErrMin= 4.11D-08
 ErrMax= 4.11D-08  0.00D+00 EMaxC= 1.00D-01 BMatC= 1.80D-13 BMatP= 3.97D-12
 IDIUse=1 WtCom= 1.00D+00 WtEn= 0.00D+00
 Coeff-Com: -0.150D-05-0.303D-04 0.447D-04 0.308D-04-0.147D-03 0.333D-03
 Coeff-Com: -0.791D-03 0.131D-02-0.103D-02-0.464D-04 0.661D-03-0.681D-03
 Coeff-Com: -0.245D-02 0.380D-02 0.251D-02-0.145D-01 0.316D-01-0.357D-01
 Coeff-Com: -0.145D+00 0.116D+01
 Coeff:     -0.150D-05-0.303D-04 0.447D-04 0.308D-04-0.147D-03 0.333D-03
 Coeff:     -0.791D-03 0.131D-02-0.103D-02-0.464D-04 0.661D-03-0.681D-03
 Coeff:     -0.245D-02 0.380D-02 0.251D-02-0.145D-01 0.316D-01-0.357D-01
 Coeff:     -0.145D+00 0.116D+01
 Gap=     0.401 Goal=   None    Shift=    0.000
 Gap=     0.388 Goal=   None    Shift=    0.000
 RMSDP=4.19D-07 MaxDP=3.39D-06 DE=-1.32D-11 OVMax= 0.00D+00

 Cycle  24  Pass 1  IDiag  1:
 E= -840.088639361172     Delta-E=       -0.000000000001 Rises=F Damp=F
 DIIS: error= 9.86D-09 at cycle  24 NSaved=  20.
 NSaved=20 IEnMin=20 EnMin= -840.088639361172     IErMin=20 ErrMin= 9.86D-09
 ErrMax= 9.86D-09  0.00D+00 EMaxC= 1.00D-01 BMatC= 6.87D-15 BMatP= 1.80D-13
 IDIUse=1 WtCom= 1.00D+00 WtEn= 0.00D+00
 Large coefficients: NSaved= 20 BigCof=    0.00 CofMax=   10.00 Det=-5.27D-15
 Inversion failed.  Reducing to 19 matrices.
 Large coefficients: NSaved= 19 BigCof=    0.00 CofMax=   10.00 Det=-5.78D-15
 Inversion failed.  Reducing to 18 matrices.
 Large coefficients: NSaved= 18 BigCof=    0.00 CofMax=   10.00 Det=-5.82D-15
 Inversion failed.  Reducing to 17 matrices.
 Large coefficients: NSaved= 17 BigCof=    0.00 CofMax=   10.00 Det=-5.86D-15
 Inversion failed.  Reducing to 16 matrices.
 Large coefficients: NSaved= 16 BigCof=    0.00 CofMax=   10.00 Det=-7.25D-15
 Inversion failed.  Reducing to 15 matrices.
 Coeff-Com: -0.104D-04-0.118D-05 0.356D-04 0.184D-04-0.533D-04 0.167D-04
 Coeff-Com: -0.528D-03 0.287D-03-0.490D-03 0.225D-02 0.362D-03-0.146D-01
 Coeff-Com:  0.822D-01-0.665D+00 0.160D+01
 Coeff:     -0.104D-04-0.118D-05 0.356D-04 0.184D-04-0.533D-04 0.167D-04
 Coeff:     -0.528D-03 0.287D-03-0.490D-03 0.225D-02 0.362D-03-0.146D-01
 Coeff:      0.822D-01-0.665D+00 0.160D+01
 Gap=     0.401 Goal=   None    Shift=    0.000
 Gap=     0.388 Goal=   None    Shift=    0.000
 RMSDP=2.40D-08 MaxDP=1.56D-07 DE=-6.82D-13 OVMax= 0.00D+00

 Cycle  25  Pass 1  IDiag  1:
 E= -840.088639361173     Delta-E=       -0.000000000000 Rises=F Damp=F
 DIIS: error= 1.63D-09 at cycle  25 NSaved=  16.
 NSaved=16 IEnMin=16 EnMin= -840.088639361173     IErMin=16 ErrMin= 1.63D-09
 ErrMax= 1.63D-09  0.00D+00 EMaxC= 1.00D-01 BMatC= 1.56D-16 BMatP= 6.87D-15
 IDIUse=1 WtCom= 1.00D+00 WtEn= 0.00D+00
 Large coefficients: NSaved= 16 BigCof=    0.00 CofMax=   10.00 Det=-1.09D-16
 Inversion failed.  Reducing to 15 matrices.
 Coeff-Com:  0.103D-04-0.139D-04-0.446D-05-0.104D-06 0.269D-04 0.916D-04
 Coeff-Com: -0.657D-04 0.261D-03-0.123D-02 0.403D-03 0.721D-02-0.365D-01
 Coeff-Com:  0.221D+00-0.550D+00 0.136D+01
 Coeff:      0.103D-04-0.139D-04-0.446D-05-0.104D-06 0.269D-04 0.916D-04
 Coeff:     -0.657D-04 0.261D-03-0.123D-02 0.403D-03 0.721D-02-0.365D-01
 Coeff:      0.221D+00-0.550D+00 0.136D+01
 Gap=     0.401 Goal=   None    Shift=    0.000
 Gap=     0.388 Goal=   None    Shift=    0.000
 RMSDP=1.88D-08 MaxDP=2.02D-07 DE=-1.14D-13 OVMax= 0.00D+00

 Cycle  26  Pass 1  IDiag  1:
 E= -840.088639361173     Delta-E=       -0.000000000000 Rises=F Damp=F
 DIIS: error= 3.98D-10 at cycle  26 NSaved=  16.
 NSaved=16 IEnMin=16 EnMin= -840.088639361173     IErMin=16 ErrMin= 3.98D-10
 ErrMax= 3.98D-10  0.00D+00 EMaxC= 1.00D-01 BMatC= 1.56D-17 BMatP= 1.56D-16
 IDIUse=1 WtCom= 1.00D+00 WtEn= 0.00D+00
 Large coefficients: NSaved= 16 BigCof=    0.00 CofMax=   10.00 Det=-1.04D-17
 Inversion failed.  Reducing to 15 matrices.
 Coeff-Com: -0.106D-07-0.107D-06 0.138D-05 0.178D-05-0.462D-04 0.324D-04
 Coeff-Com: -0.567D-04 0.268D-03-0.282D-03-0.522D-03 0.661D-02-0.416D-01
 Coeff-Com:  0.116D+00-0.627D+00 0.155D+01
 Coeff:     -0.106D-07-0.107D-06 0.138D-05 0.178D-05-0.462D-04 0.324D-04
 Coeff:     -0.567D-04 0.268D-03-0.282D-03-0.522D-03 0.661D-02-0.416D-01
 Coeff:      0.116D+00-0.627D+00 0.155D+01
 Gap=     0.401 Goal=   None    Shift=    0.000
 Gap=     0.388 Goal=   None    Shift=    0.000
 RMSDP=1.25D-09 MaxDP=1.48D-08 DE=-2.27D-13 OVMax= 0.00D+00

 SCF Done:  E(UHF) =  -840.088639361     A.U. after   26 cycles
            NFock= 26  Conv=0.13D-08     -V/T= 2.0046
 <Sx>= 0.0000 <Sy>= 0.0000 <Sz>= 0.5000 <S**2>= 1.0812 S= 0.6538
 <L.S>= 0.000000000000E+00
 KE= 8.362314793428D+02 PE=-1.992872865719D+03 EE= 3.114910519540D+02
 Annihilation of the first spin contaminant:
 S**2 before annihilation     1.0812,   after     0.7541
 Leave Link  502 at Fri Mar 25 14:38:01 2022, MaxMem=  9663676416 cpu:               6.0 elap:               0.2
 (Enter /nopt/nrel/apps/gaussian/g16C_1/g16/l801.exe)
 Windowed orbitals will be sorted by symmetry type.
 ExpMin= 1.16D-01 ExpMax= 1.03D+03 ExpMxC= 1.03D+03 IAcc=3 IRadAn=         5 AccDes= 0.00D+00
 HarFok:  IExCor=  205 AccDes= 0.00D+00 IRadAn=         5 IDoV=-2 UseB2=F ITyADJ=14
 ICtDFT= 12500011 ScaDFX=  1.000000  1.000000  1.000000  1.000000
 Largest valence mixing into a core orbital is  1.28D-03
 Largest core mixing into a valence orbital is  4.75D-04
 Largest valence mixing into a core orbital is  1.54D-03
 Largest core mixing into a valence orbital is  5.11D-04
 Range of M.O.s used for correlation:    10    19
 NBasis=    19 NAE=    12 NBE=    11 NFC=     9 NFV=     0
 NROrb=     10 NOA=     3 NOB=     2 NVA=     7 NVB=     8
 Leave Link  801 at Fri Mar 25 14:38:01 2022, MaxMem=  9663676416 cpu:               1.6 elap:               0.1
 (Enter /nopt/nrel/apps/gaussian/g16C_1/g16/l804.exe)
 Open-shell transformation, MDV=  9663676416 ITran=4 ISComp=2.
 Unit  1 TFree=         25012 TCopy=        222819.
 Semi-Direct transformation.
 ModeAB=           2 MOrb=             3 LenV=    9663501654
 LASXX=          258 LTotXX=         258 LenRXX=         258
 LTotAB=         422 MaxLAS=        6300 LenRXY=        6300
 NonZer=        7290 LenScr=      785920 LnRSAI=           0
 LnScr1=           0 LExtra=      224198 Total=      1016676
 MaxDsk= 34359738368 SrtSym=           F ITran=            4
 DoSDTr:  NPSUse= 36
 JobTyp=1 Pass  1:  I=   1 to   3.
 (rs|ai) integrals will be sorted in core.
 Complete sort for first half transformation.
 First half transformation complete.
 Complete sort for second half transformation.
 Second half transformation complete.
 ModeAB=           2 MOrb=             2 LenV=    9663501654
 LASXX=          192 LTotXX=         192 LenRXX=        4200
 LTotAB=         157 MaxLAS=        4200 LenRXY=         157
 NonZer=        4860 LenScr=      785920 LnRSAI=           0
 LnScr1=           0 LExtra=      230756 Total=      1021033
 MaxDsk= 34359738368 SrtSym=           F ITran=            4
 DoSDTr:  NPSUse= 36
 JobTyp=2 Pass  1:  I=   1 to   2.
 (rs|ai) integrals will be sorted in core.
 Complete sort for first half transformation.
 First half transformation complete.
 Complete sort for second half transformation.
 Second half transformation complete.
 Spin components of T(2) and E(2):
     alpha-alpha T2 =       0.3576178583D-03 E2=     -0.3350304087D-03
     alpha-beta  T2 =       0.3123630282D-01 E2=     -0.3456776389D-01
     beta-beta   T2 =       0.1552690088D-03 E2=     -0.1597667633D-03
 ANorm=    0.1015750555D+01
 E2 =    -0.3506256106D-01 EUMP2 =    -0.84012370192224D+03
 (S**2,0)=  0.10812D+01           (S**2,1)=  0.10622D+01
 E(PUHF)=      -0.84009215557D+03        E(PMP2)=      -0.84012711819D+03
 Leave Link  804 at Fri Mar 25 14:38:01 2022, MaxMem=  9663676416 cpu:              13.6 elap:               0.5
 (Enter /nopt/nrel/apps/gaussian/g16C_1/g16/l913.exe)
 CIDS:  MDV=  9663676416.
 Frozen-core window:  NFC=   9 NFV=   0.
 IFCWin=0 IBDFC=1 NFBD=     0     0 NFCmp=     0     0 NFFFC=     0     0
 Using original routines for 1st iteration.
 Using DD4UQ or CC4UQ for 2nd and later iterations.
 Keep R2 and R3 ints in memory in symmetry-blocked form, NReq=7415505.
 FoFCou: FMM=F IPFlag=           0 FMFlag=           0 FMFlg1=           0
         NFxFlg=           0 DoJE=F BraDBF=F KetDBF=F FulRan=T
         wScrn=  0.000000 ICntrl=       600 IOpCl=  0 I1Cent=           0 NGrid=           0
         NMat0=    1 NMatS0=    190 NMatT0=    0 NMatD0=    1 NMtDS0=    0 NMtDT0=    0
 Petite list used in FoFCou.
 CIDS: In Core Option IDoMem=           1.
 Coupled Cluster theory with single and double substitutions
 ===========================================================
 Iterations=  50 Convergence= 0.100D-06
 Produce multiple copies of IABC intergrals
 Iteration Nr.   1
 **********************
 DD1Dir will call FoFMem   1 times, MxPair=        16
 NAB=     6 NAA=     3 NBB=     1.
 E(PMP3)=      -0.84014346082D+03
 MP4(R+Q)=  0.61925240D-03
 Maximum subspace dimension=  5
 A-vector RMS=  1.7432556D-02 Max=  2.9256020D-02 conv= 1.00D-05.
 RLE energy=       -0.0641490056
 E3=       -0.16544827D-01        EUMP3=      -0.84014024675D+03
 E4(DQ)=   -0.78839744D-02        UMP4(DQ)=   -0.84014813072D+03
 E4(SDQ)=  -0.84872900D-02        UMP4(SDQ)=  -0.84014873404D+03
 VARIATIONAL ENERGIES WITH THE FIRST-ORDER WAVEFUNCTION:
 DE(Corr)= -0.50960668E-01 E(Corr)=     -840.13960003    
 NORM(A)=   0.10559482D+01
 Iteration Nr.   2
 **********************
 DD1Dir will call FoFMem   1 times, MxPair=        16
 NAB=     6 NAA=     3 NBB=     1.
 A-vector RMS=  1.3256076D-02 Max=  1.5920260D-02 conv= 1.00D-05.
 RLE energy=       -0.0691857091
 DE(Corr)= -0.65586023E-01 E(CORR)=     -840.15422538     Delta=-1.46D-02
 NORM(A)=   0.10744409D+01
 Iteration Nr.   3
 **********************
 DD1Dir will call FoFMem   1 times, MxPair=        16
 NAB=     6 NAA=     3 NBB=     1.
 A-vector RMS=  8.0128350D-03 Max=  1.1781874D-02 conv= 1.00D-05.
 RLE energy=       -0.0746432867
 DE(Corr)= -0.69796926E-01 E(CORR)=     -840.15843629     Delta=-4.21D-03
 NORM(A)=   0.11057881D+01
 Iteration Nr.   4
 **********************
 DD1Dir will call FoFMem   1 times, MxPair=        16
 NAB=     6 NAA=     3 NBB=     1.
 A-vector RMS=  4.0939150D-03 Max=  6.1240131D-03 conv= 1.00D-05.
 RLE energy=       -0.0748309190
 DE(Corr)= -0.74290552E-01 E(CORR)=     -840.16292991     Delta=-4.49D-03
 NORM(A)=   0.11162455D+01
 Iteration Nr.   5
 **********************
 DD1Dir will call FoFMem   1 times, MxPair=        16
 NAB=     6 NAA=     3 NBB=     1.
 A-vector RMS=  2.8587295D-03 Max=  4.1731845D-03 conv= 1.00D-05.
 RLE energy=       -0.0756398457
 DE(Corr)= -0.74912293E-01 E(CORR)=     -840.16355165     Delta=-6.22D-04
 NORM(A)=   0.11290208D+01
 Iteration Nr.   6
 **********************
 DD1Dir will call FoFMem   1 times, MxPair=        16
 NAB=     6 NAA=     3 NBB=     1.
 A-vector RMS=  1.5651871D-03 Max=  3.1318078D-03 conv= 1.00D-05.
 RLE energy=       -0.0759779987
 DE(Corr)= -0.75742754E-01 E(CORR)=     -840.16438212     Delta=-8.30D-04
 NORM(A)=   0.11329963D+01
 Iteration Nr.   7
 **********************
 DD1Dir will call FoFMem   1 times, MxPair=        16
 NAB=     6 NAA=     3 NBB=     1.
 A-vector RMS=  1.2391681D-03 Max=  2.1087349D-03 conv= 1.00D-05.
 RLE energy=       -0.0760538614
 DE(Corr)= -0.75955480E-01 E(CORR)=     -840.16459484     Delta=-2.13D-04
 NORM(A)=   0.11370953D+01
 Iteration Nr.   8
 **********************
 DD1Dir will call FoFMem   1 times, MxPair=        16
 NAB=     6 NAA=     3 NBB=     1.
 A-vector RMS=  7.6737566D-04 Max=  8.7998433D-04 conv= 1.00D-05.
 RLE energy=       -0.0762579012
 DE(Corr)= -0.76083233E-01 E(CORR)=     -840.16472259     Delta=-1.28D-04
 NORM(A)=   0.11401407D+01
 Iteration Nr.   9
 **********************
 DD1Dir will call FoFMem   1 times, MxPair=        16
 NAB=     6 NAA=     3 NBB=     1.
 A-vector RMS=  3.8053031D-04 Max=  4.1335036D-04 conv= 1.00D-05.
 RLE energy=       -0.0761568899
 DE(Corr)= -0.76250273E-01 E(CORR)=     -840.16488963     Delta=-1.67D-04
 NORM(A)=   0.11399969D+01
 Iteration Nr.  10
 **********************
 DD1Dir will call FoFMem   1 times, MxPair=        16
 NAB=     6 NAA=     3 NBB=     1.
 A-vector RMS=  2.4143283D-04 Max=  2.6678170D-04 conv= 1.00D-05.
 RLE energy=       -0.0762079266
 DE(Corr)= -0.76188723E-01 E(CORR)=     -840.16482808     Delta= 6.15D-05
 NORM(A)=   0.11403161D+01
 Iteration Nr.  11
 **********************
 DD1Dir will call FoFMem   1 times, MxPair=        16
 NAB=     6 NAA=     3 NBB=     1.
 A-vector RMS=  1.4660148D-04 Max=  1.8626833D-04 conv= 1.00D-05.
 RLE energy=       -0.0761834934
 DE(Corr)= -0.76200456E-01 E(CORR)=     -840.16483982     Delta=-1.17D-05
 NORM(A)=   0.11402146D+01
 Iteration Nr.  12
 **********************
 DD1Dir will call FoFMem   1 times, MxPair=        16
 NAB=     6 NAA=     3 NBB=     1.
 A-vector RMS=  9.6028686D-05 Max=  1.0858698D-04 conv= 1.00D-05.
 RLE energy=       -0.0762173112
 DE(Corr)= -0.76187933E-01 E(CORR)=     -840.16482729     Delta= 1.25D-05
 NORM(A)=   0.11404671D+01
 Iteration Nr.  13
 **********************
 DD1Dir will call FoFMem   1 times, MxPair=        16
 NAB=     6 NAA=     3 NBB=     1.
 A-vector RMS=  4.1883723D-05 Max=  6.3236538D-05 conv= 1.00D-05.
 RLE energy=       -0.0762106742
 DE(Corr)= -0.76214519E-01 E(CORR)=     -840.16485388     Delta=-2.66D-05
 NORM(A)=   0.11404415D+01
 Iteration Nr.  14
 **********************
 DD1Dir will call FoFMem   1 times, MxPair=        16
 NAB=     6 NAA=     3 NBB=     1.
 A-vector RMS=  3.6321965D-05 Max=  4.8856178D-05 conv= 1.00D-05.
 RLE energy=       -0.0762117115
 DE(Corr)= -0.76212634E-01 E(CORR)=     -840.16485199     Delta= 1.89D-06
 NORM(A)=   0.11403434D+01
 Iteration Nr.  15
 **********************
 DD1Dir will call FoFMem   1 times, MxPair=        16
 NAB=     6 NAA=     3 NBB=     1.
 A-vector RMS=  2.3152656D-05 Max=  3.5098704D-05 conv= 1.00D-05.
 RLE energy=       -0.0761954418
 DE(Corr)= -0.76210185E-01 E(CORR)=     -840.16484955     Delta= 2.45D-06
 NORM(A)=   0.11401782D+01
 Iteration Nr.  16
 **********************
 DD1Dir will call FoFMem   1 times, MxPair=        16
 NAB=     6 NAA=     3 NBB=     1.
 A-vector RMS=  1.3186657D-05 Max=  2.0080198D-05 conv= 1.00D-05.
 RLE energy=       -0.0762039637
 DE(Corr)= -0.76197528E-01 E(CORR)=     -840.16483689     Delta= 1.27D-05
 NORM(A)=   0.11402121D+01
 Iteration Nr.  17
 **********************
 DD1Dir will call FoFMem   1 times, MxPair=        16
 NAB=     6 NAA=     3 NBB=     1.
 A-vector RMS=  8.7345410D-06 Max=  1.7521959D-05 conv= 1.00D-05.
 RLE energy=       -0.0761980393
 DE(Corr)= -0.76201959E-01 E(CORR)=     -840.16484132     Delta=-4.43D-06
 NORM(A)=   0.11401883D+01
 Iteration Nr.  18
 **********************
 DD1Dir will call FoFMem   1 times, MxPair=        16
 NAB=     6 NAA=     3 NBB=     1.
 A-vector RMS=  7.5344668D-06 Max=  1.5014507D-05 conv= 1.00D-05.
 RLE energy=       -0.0762029926
 DE(Corr)= -0.76198650E-01 E(CORR)=     -840.16483801     Delta= 3.31D-06
 NORM(A)=   0.11402393D+01
 Iteration Nr.  19
 **********************
 DD1Dir will call FoFMem   1 times, MxPair=        16
 NAB=     6 NAA=     3 NBB=     1.
 A-vector RMS=  3.0117853D-06 Max=  4.0372271D-06 conv= 1.00D-05.
 RLE energy=       -0.0762006775
 DE(Corr)= -0.76202221E-01 E(CORR)=     -840.16484158     Delta=-3.57D-06
 NORM(A)=   0.11402310D+01
 Iteration Nr.  20
 **********************
 DD1Dir will call FoFMem   1 times, MxPair=        16
 NAB=     6 NAA=     3 NBB=     1.
 A-vector RMS=  1.7915900D-06 Max=  2.3953334D-06 conv= 1.00D-05.
 RLE energy=       -0.0762013446
 DE(Corr)= -0.76200939E-01 E(CORR)=     -840.16484030     Delta= 1.28D-06
 NORM(A)=   0.11402388D+01
 Iteration Nr.  21
 **********************
 DD1Dir will call FoFMem   1 times, MxPair=        16
 NAB=     6 NAA=     3 NBB=     1.
 A-vector RMS=  1.0368647D-06 Max=  1.4828869D-06 conv= 1.00D-05.
 RLE energy=       -0.0762016460
 DE(Corr)= -0.76201437E-01 E(CORR)=     -840.16484080     Delta=-4.98D-07
 NORM(A)=   0.11402429D+01
 Iteration Nr.  22
 **********************
 DD1Dir will call FoFMem   1 times, MxPair=        16
 NAB=     6 NAA=     3 NBB=     1.
 A-vector RMS=  6.2999181D-07 Max=  8.2791570D-07 conv= 1.00D-05.
 RLE energy=       -0.0762017336
 DE(Corr)= -0.76201668E-01 E(CORR)=     -840.16484103     Delta=-2.31D-07
 NORM(A)=   0.11402438D+01
 Iteration Nr.  23
 **********************
 DD1Dir will call FoFMem   1 times, MxPair=        16
 NAB=     6 NAA=     3 NBB=     1.
 A-vector RMS=  3.4716973D-07 Max=  3.6370078D-07 conv= 1.00D-05.
 RLE energy=       -0.0762016130
 DE(Corr)= -0.76201699E-01 E(CORR)=     -840.16484106     Delta=-3.11D-08
 NORM(A)=   0.11402431D+01
 CI/CC converged in   23 iterations to DelEn=-3.11D-08 Conv= 1.00D-07 ErrA1= 3.47D-07 Conv= 1.00D-05
 Wavefunction amplitudes converged. E(Corr)=     -840.16484106    
 Dominant configurations:
 ***********************
 Spin Case        I    J    A    B          Value
    AA           12        16            0.169920D+00
    AA           12        17           -0.145574D+00
    BB           11        13           -0.112475D+00
   ABAB          10   11   14   12      -0.107317D+00
   ABAB          12   10   19   19       0.111686D+00
   ABAB          12   11   19   19      -0.113957D+00
   ABAB          12   11   14   12      -0.145634D+00
   ABAB          11   11   14   14      -0.136211D+00
 Largest amplitude= 1.70D-01

 S**2, projected HF & approx projected MPn energies after annihilation of
 unwanted spin states (see manual for definitions):

 spins       (S**2,0) (S**2,1)    PUHF        PMP2        PMP3        PMP4
 annihilated
 s+1         0.74769  0.74850 -840.092156 -840.127118 -840.143461
 s+1,s+2     0.74998  0.74998 -840.092092 -840.127057 -840.143403

 Discarding MO integrals.
 Leave Link  913 at Fri Mar 25 14:38:02 2022, MaxMem=  9663676416 cpu:               9.8 elap:               0.3
 (Enter /nopt/nrel/apps/gaussian/g16C_1/g16/l601.exe)
 Copying SCF densities to generalized density rwf, IOpCl= 1 IROHF=0.

 **********************************************************************

            Population analysis using the SCF Density.

 **********************************************************************

 Orbital symmetries:
 Alpha Orbitals:
       Occupied  (SG) (SG) (PI) (PI) (SG) (SG) (PI) (SG) (PI) (?A)
                 (?B) (?A)
       Virtual   (?B) (?B) (?A) (?A) (SG) (?B) (SG)
 Beta  Orbitals:
       Occupied  (SG) (SG) (PI) (PI) (SG) (SG) (PI) (PI) (SG) (?A)
                 (?A)
       Virtual   (?B) (?A) (?A) (?B) (?B) (?A) (?B) (?A)
 Unable to determine electronic state:  an orbital has unidentified symmetry.
 Alpha  occ. eigenvalues -- -181.69370 -21.47112 -18.05731 -18.05305 -18.05015
 Alpha  occ. eigenvalues --   -3.06113  -2.00604  -1.99474  -1.97420  -0.28733
 Alpha  occ. eigenvalues --   -0.20122  -0.17049
 Alpha virt. eigenvalues --    0.23055   0.25000   0.25836   0.26047   0.26497
 Alpha virt. eigenvalues --    0.27694   0.43488
  Beta  occ. eigenvalues -- -181.69270 -21.46881 -18.05622 -18.05066 -18.04648
  Beta  occ. eigenvalues --   -3.02909  -1.98041  -1.93748  -1.93602  -0.27603
  Beta  occ. eigenvalues --   -0.16493
  Beta virt. eigenvalues --    0.22320   0.25962   0.27353   0.28067   0.29115
  Beta virt. eigenvalues --    0.30893   0.33958   0.44663
          Condensed to atoms (all electrons):
               1          2
     1  H    1.058843   0.230416
     2  Ti   0.230416  21.480324
          Atomic-Atomic Spin Densities.
               1          2
     1  H   -0.084086   0.014102
     2  Ti   0.014102   1.055882
 Mulliken charges and spin densities:
               1          2
     1  H   -0.289260  -0.069984
     2  Ti   0.289260   1.069984
 Sum of Mulliken charges =   0.00000   1.00000
 Mulliken charges and spin densities with hydrogens summed into heavy atoms:
               1          2
     2  Ti   0.000000   1.000000
 N-N= 5.061695060974D+00 E-N=-1.992872865725D+03  KE= 8.362314793428D+02
 Symmetry A1   KE= 6.609905712452D+02
 Symmetry A2   KE= 6.948938936764D-33
 Symmetry B1   KE= 8.673155421457D+01
 Symmetry B2   KE= 8.850935388307D+01
 Symmetry A1   SP=-9.773876219871D-15
 Symmetry A2   SP=-2.279514622612D-33
 Symmetry B1   SP= 2.763752913906D-15
 Symmetry B2   SP= 1.000000000000D+00

 Atomic contributions to Alpha molecular orbitals:
 Alpha occ 1 OE=-181.694 is Ti2-s=1.0000
 Alpha occ 2 OE=-21.471 is Ti2-s=1.0000
 Alpha occ 3 OE=-18.057 is Ti2-p=1.0000
 Alpha occ 4 OE=-18.053 is Ti2-p=1.0000
 Alpha occ 5 OE=-18.050 is Ti2-p=1.0000
 Alpha occ 6 OE=-3.061 is Ti2-s=0.9998
 Alpha occ 7 OE=-2.006 is Ti2-p=1.0000
 Alpha occ 8 OE=-1.995 is Ti2-p=0.9999
 Alpha occ 9 OE=-1.974 is Ti2-p=1.0000
 Alpha occ 10 OE=-0.287 is Ti2-s=0.6933 H1-s=0.2717
 Alpha occ 11 OE=-0.201 is Ti2-d=0.9132
 Alpha occ 12 OE=-0.170 is Ti2-p=0.3671 H1-s=0.3377 Ti2-s=0.2144
 Alpha vir 13 OE=0.231 is Ti2-p=0.9132
 Alpha vir 14 OE=0.250 is Ti2-p=0.8023 Ti2-d=0.1977
 Alpha vir 15 OE=0.258 is Ti2-d=1.0000
 Alpha vir 16 OE=0.260 is Ti2-d=0.9738
 Alpha vir 17 OE=0.265 is Ti2-d=0.7443 Ti2-p=0.2418
 Alpha vir 18 OE=0.277 is Ti2-d=0.8023 Ti2-p=0.1977
 Alpha vir 19 OE=0.435 is H1-s=0.3862 Ti2-p=0.3802 Ti2-d=0.1747

 Atomic contributions to Beta  molecular orbitals:
 Beta  occ 1 OE=-181.693 is Ti2-s=1.0000
 Beta  occ 2 OE=-21.469 is Ti2-s=1.0000
 Beta  occ 3 OE=-18.056 is Ti2-p=1.0000
 Beta  occ 4 OE=-18.051 is Ti2-p=1.0000
 Beta  occ 5 OE=-18.046 is Ti2-p=1.0000
 Beta  occ 6 OE=-3.029 is Ti2-s=0.9997
 Beta  occ 7 OE=-1.980 is Ti2-p=1.0000
 Beta  occ 8 OE=-1.937 is Ti2-p=1.0000
 Beta  occ 9 OE=-1.936 is Ti2-p=0.9998
 Beta  occ 10 OE=-0.276 is Ti2-s=0.4886 H1-s=0.4310
 Beta  occ 11 OE=-0.165 is Ti2-s=0.3405 Ti2-d=0.2978 H1-s=0.2482 Ti2-p=0.1135
 Beta  vir 12 OE=0.223 is Ti2-p=1.0000
 Beta  vir 13 OE=0.260 is Ti2-d=0.7840 Ti2-s=0.1264
 Beta  vir 14 OE=0.274 is Ti2-d=1.0000
 Beta  vir 15 OE=0.281 is Ti2-p=0.9616
 Beta  vir 16 OE=0.291 is Ti2-d=1.0000
 Beta  vir 17 OE=0.309 is Ti2-d=0.7745 Ti2-p=0.2179
 Beta  vir 18 OE=0.340 is Ti2-d=0.9615
 Beta  vir 19 OE=0.447 is Ti2-p=0.5405 H1-s=0.2919 Ti2-d=0.1291
 
 Leave Link  601 at Fri Mar 25 14:38:02 2022, MaxMem=  9663676416 cpu:               3.3 elap:               0.1
 (Enter /nopt/nrel/apps/gaussian/g16C_1/g16/l9999.exe)

 Test job not archived.
 1\1\GINC-R3I7N35\SP\UCCSD-FC\Gen\H1Ti1(2)\USER\25-Mar-2022\0\\#P C
 CSD/GEN sp pop=AllOrbitals iop(3/33=1,3/36=-1)\\test\\0,2\H,0,0.,0.,0.
 \Ti,0,0.,0.,2.3\\Version=ES64L-G16RevC.01\HF=-840.0886394\MP2=-840.123
 7019\MP3=-840.1402467\MP4D=-840.14875\MP4DQ=-840.1481307\PUHF=-840.092
 1556\PMP2-0=-840.1271182\PMP3-0=-840.1434608\MP4SDQ=-840.148734\CCSD=-
 840.1648411\S2=1.081204\S2-1=1.06224\S2A=0.754051\RMSD=1.255e-09\PG=C*
 V [C*(H1Ti1)]\\@


 MISERY NO LONGER LOVES COMPANY.  NOWADAYS IT INSISTS ON IT.

                                              -- BAKER'S LAW
 Job cpu time:       0 days  0 hours  0 minutes 53.4 seconds.
 Elapsed time:       0 days  0 hours  0 minutes  2.0 seconds.
 File lengths (MBytes):  RWF=     13 Int=      0 D2E=      0 Chk=      1 Scr=      1
 Normal termination of Gaussian 16 at Fri Mar 25 14:38:02 2022.
