 Entering Gaussian System, Link 0=g16
 Initial command:
 /nopt/nrel/apps/gaussian/g16C_1/g16/l1.exe "/lustre/eaglefs/scratch/user/qc/lih-dissc/lih-3-ccsd-0.5-631g/Gau-5980.inp" -scrdir="/lustre/eaglefs/scratch/user/qc/lih-dissc/lih-3-ccsd-0.5-631g/"
 Default is to use a total of  36 processors:
                               36 via shared-memory
                                1 via Linda
 Entering Link 1 = /nopt/nrel/apps/gaussian/g16C_1/g16/l1.exe PID=      5981.
  
 Copyright (c) 1988-2019, Gaussian, Inc.  All Rights Reserved.
  
 This is part of the Gaussian(R) 16 program.  It is based on
 the Gaussian(R) 09 system (copyright 2009, Gaussian, Inc.),
 the Gaussian(R) 03 system (copyright 2003, Gaussian, Inc.),
 the Gaussian(R) 98 system (copyright 1998, Gaussian, Inc.),
 the Gaussian(R) 94 system (copyright 1995, Gaussian, Inc.),
 the Gaussian 92(TM) system (copyright 1992, Gaussian, Inc.),
 the Gaussian 90(TM) system (copyright 1990, Gaussian, Inc.),
 the Gaussian 88(TM) system (copyright 1988, Gaussian, Inc.),
 the Gaussian 86(TM) system (copyright 1986, Carnegie Mellon
 University), and the Gaussian 82(TM) system (copyright 1983,
 Carnegie Mellon University). Gaussian is a federally registered
 trademark of Gaussian, Inc.
  
 This software contains proprietary and confidential information,
 including trade secrets, belonging to Gaussian, Inc.
  
 This software is provided under written license and may be
 used, copied, transmitted, or stored only in accord with that
 written license.
  
 The following legend is applicable only to US Government
 contracts under FAR:
  
                    RESTRICTED RIGHTS LEGEND
  
 Use, reproduction and disclosure by the US Government is
 subject to restrictions as set forth in subparagraphs (a)
 and (c) of the Commercial Computer Software - Restricted
 Rights clause in FAR 52.227-19.
  
 Gaussian, Inc.
 340 Quinnipiac St., Bldg. 40, Wallingford CT 06492
  
  
 ---------------------------------------------------------------
 Warning -- This program may not be used in any manner that
 competes with the business of Gaussian, Inc. or will provide
 assistance to any competitor of Gaussian, Inc.  The licensee
 of this program is prohibited from giving any competitor of
 Gaussian, Inc. access to this program.  By using this program,
 the user acknowledges that Gaussian, Inc. is engaged in the
 business of creating and licensing software in the field of
 computational chemistry and represents and warrants to the
 licensee that it is not a competitor of Gaussian, Inc. and that
 it will not use this program in any manner prohibited above.
 ---------------------------------------------------------------
  

 Cite this work as:
 Gaussian 16, Revision C.01,
 M. J. Frisch, G. W. Trucks, H. B. Schlegel, G. E. Scuseria, 
 M. A. Robb, J. R. Cheeseman, G. Scalmani, V. Barone, 
 G. A. Petersson, H. Nakatsuji, X. Li, M. Caricato, A. V. Marenich, 
 J. Bloino, B. G. Janesko, R. Gomperts, B. Mennucci, H. P. Hratchian, 
 J. V. Ortiz, A. F. Izmaylov, J. L. Sonnenberg, D. Williams-Young, 
 F. Ding, F. Lipparini, F. Egidi, J. Goings, B. Peng, A. Petrone, 
 T. Henderson, D. Ranasinghe, V. G. Zakrzewski, J. Gao, N. Rega, 
 G. Zheng, W. Liang, M. Hada, M. Ehara, K. Toyota, R. Fukuda, 
 J. Hasegawa, M. Ishida, T. Nakajima, Y. Honda, O. Kitao, H. Nakai, 
 T. Vreven, K. Throssell, J. A. Montgomery, Jr., J. E. Peralta, 
 F. Ogliaro, M. J. Bearpark, J. J. Heyd, E. N. Brothers, K. N. Kudin, 
 V. N. Staroverov, T. A. Keith, R. Kobayashi, J. Normand, 
 K. Raghavachari, A. P. Rendell, J. C. Burant, S. S. Iyengar, 
 J. Tomasi, M. Cossi, J. M. Millam, M. Klene, C. Adamo, R. Cammi, 
 J. W. Ochterski, R. L. Martin, K. Morokuma, O. Farkas, 
 J. B. Foresman, and D. J. Fox, Gaussian, Inc., Wallingford CT, 2019.
 
 ******************************************
 Gaussian 16:  ES64L-G16RevC.01  3-Jul-2019
                28-Mar-2022 
 ******************************************
 %chk=molecule
 Default route: CacheSize=180224 MaxDisk=256GB
 ----------------------------------------------------------------------
 #P CCSD(MaxCyc=200,SaveAmplitudes,ReadAmplitudes)/GEN sp pop=AllOrbita
 ls iop(3/33=1,3/36=-1)
 ----------------------------------------------------------------------
 1/4=180224,38=1,172=1/1;
 2/4=180224,12=2,17=6,18=5,40=1/2;
 3/4=180224,5=7,11=9,25=1,30=1,33=1,36=-1/1,2,3;
 4/4=180224/1;
 5/4=180224,5=2,38=5/2;
 8/4=180224,6=4,9=120000,10=1,24=1/1,4;
 9/4=180224,5=7,6=200,77=1/13;
 6/4=180224,7=2,8=2,9=2,10=2,96=-1/1;
 99/4=180224,5=1,9=1/99;
 Leave Link    1 at Mon Mar 28 14:05:25 2022, MaxMem=           0 cpu:               2.2 elap:               0.1
 (Enter /nopt/nrel/apps/gaussian/g16C_1/g16/l101.exe)
 ----
 test
 ----
 Symbolic Z-matrix:
 Charge =  0 Multiplicity = 3
 H                     0.        0.        0. 
 Li                    0.        0.        0.5 
 
 ITRead=  0  0
 MicOpt= -1 -1
 NAtoms=      2 NQM=        2 NQMF=       0 NMMI=      0 NMMIF=      0
                NMic=       0 NMicF=      0.
                    Isotopes and Nuclear Properties:
 (Nuclear quadrupole moments (NQMom) in fm**2, nuclear magnetic moments (NMagM)
  in nuclear magnetons)

  Atom         1           2
 IAtWgt=           1           7
 AtmWgt=   1.0078250   7.0160045
 NucSpn=           1           3
 AtZEff=  -0.0000000  -0.0000000
 NQMom=    0.0000000  -4.0100000
 NMagM=    2.7928460   3.2564240
 AtZNuc=   1.0000000   3.0000000
 Leave Link  101 at Mon Mar 28 14:05:25 2022, MaxMem=  9663676416 cpu:               3.2 elap:               0.1
 (Enter /nopt/nrel/apps/gaussian/g16C_1/g16/l202.exe)
                          Input orientation:                          
 ---------------------------------------------------------------------
 Center     Atomic      Atomic             Coordinates (Angstroms)
 Number     Number       Type             X           Y           Z
 ---------------------------------------------------------------------
      1          1           0        0.000000    0.000000    0.000000
      2          3           0        0.000000    0.000000    0.500000
 ---------------------------------------------------------------------
 Stoichiometry    HLi(3)
 Framework group  C*V[C*(HLi)]
 Deg. of freedom     1
 Full point group                 C*V     NOp   4
 Largest Abelian subgroup         C2V     NOp   4
 Largest concise Abelian subgroup C1      NOp   1
                         Standard orientation:                         
 ---------------------------------------------------------------------
 Center     Atomic      Atomic             Coordinates (Angstroms)
 Number     Number       Type             X           Y           Z
 ---------------------------------------------------------------------
      1          1           0        0.000000    0.000000   -0.375000
      2          3           0        0.000000    0.000000    0.125000
 ---------------------------------------------------------------------
 Rotational constants (GHZ):           0.0000000        2293.9496568        2293.9496568
 Leave Link  202 at Mon Mar 28 14:05:25 2022, MaxMem=  9663676416 cpu:               1.3 elap:               0.1
 (Enter /nopt/nrel/apps/gaussian/g16C_1/g16/l301.exe)
 General basis read from cards:  (5D, 7F)
                         Coordinates in L301:                         
 ---------------------------------------------------------------------
 Center     Atomic      Atomic             Coordinates (Angstroms)
 Number     Number       Type             X           Y           Z
 ---------------------------------------------------------------------
      1          1           0        0.000000    0.000000   -0.375000
      2          3           0        0.000000    0.000000    0.125000
 ---------------------------------------------------------------------
 Centers:       1
 STO-3G
 ****
 Centers:       2
 6-31G
 ****
 FixB: optimizing general contractions.
 Ernie: Thresh=  0.10000D-02 Tol=  0.10000D-05 Strict=F.
 IA=     1 ShT= 0 ShC= 0 NL=   1 NS=   0.
 IA=     1 L=0 SC=0 ISt=    0 NBk=    0 NP=    0 IndPr=    0.
 IA=     2 ShT= 0 ShC= 0 NL=   1 NS=   0.
 IA=     2 L=0 SC=0 ISt=    0 NBk=    0 NP=    0 IndPr=    0.
 IA=     2 ShT= 1 ShC= 0 NL=   2 NS=   1.
 IA=     2 L=1 SC=0 ISt=    0 NBk=    0 NP=    0 IndPr=    0.
 LdAtmC:  AtmChg=     1.000000     3.000000
 AtZEff=     -1.0000000     -1.3500000
 NEqShl: 
              1            2            3            4
     1            1            1            1            1
     2            2            2            2            2
     3            3            3            3            3
     4            4            4            4            4
 NEqBas: 
              1            2            3            4
     1            1            1            1            1
     2            2            2            2            2
     3            3            3            3            3
     4            4           -4           -4            4
     5            5           -5            5           -5
     6            6            6            6            6
     7            7            7            7            7
     8            8           -8           -8            8
     9            9           -9            9           -9
    10           10           10           10           10
 There are     6 symmetry adapted cartesian basis functions of A1  symmetry.
   1         1   1   1   1
   2         2   2   2   2
   3         3   3   3   3
   4         6   6   6   6
   5         7   7   7   7
   6        10  10  10  10
 There are     0 symmetry adapted cartesian basis functions of A2  symmetry.
 There are     2 symmetry adapted cartesian basis functions of B1  symmetry.
   7         4   4   4   4
   8         8   8   8   8
 There are     2 symmetry adapted cartesian basis functions of B2  symmetry.
   9         5   5   5   5
  10         9   9   9   9
 Order= 1 2 4 3
 Reordered character table:
              1            2            3            4            5
     1            1            1            1            1            1
     2            2            1            1           -1           -1
     3            4            1           -1           -1            1
     4            3            1           -1            1           -1
 NEqShl: 
              1            2            3            4
     1            1            1            1            1
     2            2            2            2            2
     3            3            3            3            3
     4            4            4            4            4
 NEqBas: 
              1            2            3            4
     1            1            1            1            1
     2            2            2            2            2
     3            3            3            3            3
     4            4           -4           -4            4
     5            5           -5            5           -5
     6            6            6            6            6
     7            7            7            7            7
     8            8           -8           -8            8
     9            9           -9            9           -9
    10           10           10           10           10
 There are     6 symmetry adapted basis functions of A1  symmetry.
   1         1   1   1   1
   2         2   2   2   2
   3         3   3   3   3
   4         6   6   6   6
   5         7   7   7   7
   6        10  10  10  10
 There are     0 symmetry adapted basis functions of A2  symmetry.
 There are     2 symmetry adapted basis functions of B1  symmetry.
   7         4   4   4   4
   8         8   8   8   8
 There are     2 symmetry adapted basis functions of B2  symmetry.
   9         5   5   5   5
  10         9   9   9   9
 Order= 1 2 4 3
 Reordered character table:
              1            2            3            4            5
     1            1            1            1            1            1
     2            2            1            1           -1           -1
     3            4            1           -1           -1            1
     4            3            1           -1            1           -1
    10 basis functions,    25 primitive gaussians,    10 cartesian basis functions
     3 alpha electrons        1 beta electrons
       nuclear repulsion energy         3.1750632655 Hartrees.
 IS=     1 IAt=     1 ISR=     1 T=0 IP=      1 IndIP=      1 IndIPD=      0 C=  2.769344D-01  0.000000D+00                             NZ=T
 IS=     1 IAt=     1 ISR=     1 T=0 IP=      2 IndIP=      2 IndIPD=      1 C=  2.678389D-01  0.000000D+00                             NZ=T
 IS=     1 IAt=     1 ISR=     1 T=0 IP=      3 IndIP=      3 IndIPD=      2 C=  8.347367D-02  0.000000D+00                             NZ=T
 IS=     2 IAt=     2 ISR=     1 T=0 IP=      1 IndIP=      4 IndIPD=      0 C=  1.948572D-01  0.000000D+00                             NZ=T
 IS=     2 IAt=     2 ISR=     1 T=0 IP=      2 IndIP=      5 IndIPD=      1 C=  3.565040D-01  0.000000D+00                             NZ=T
 IS=     2 IAt=     2 ISR=     1 T=0 IP=      3 IndIP=      6 IndIPD=      2 C=  5.614879D-01  0.000000D+00                             NZ=T
 IS=     2 IAt=     2 ISR=     1 T=0 IP=      4 IndIP=      7 IndIPD=      3 C=  6.883627D-01  0.000000D+00                             NZ=T
 IS=     2 IAt=     2 ISR=     1 T=0 IP=      5 IndIP=      8 IndIPD=      4 C=  5.498106D-01  0.000000D+00                             NZ=T
 IS=     2 IAt=     2 ISR=     1 T=0 IP=      6 IndIP=      9 IndIPD=      5 C=  1.755056D-01  0.000000D+00                             NZ=T
 IS=     3 IAt=     2 ISR=     2 T=1 IP=      1 IndIP=     10 IndIPD=      0 C= -4.708915D-02  3.658984D-02                             NZ=T
 IS=     3 IAt=     2 ISR=     2 T=1 IP=      2 IndIP=     11 IndIPD=      1 C= -9.665673D-02  1.133585D-01                             NZ=T
 IS=     3 IAt=     2 ISR=     2 T=1 IP=      3 IndIP=     12 IndIPD=      2 C=  1.151795D-01  5.648589D-02                             NZ=T
 IS=     4 IAt=     2 ISR=     3 T=1 IP=      1 IndIP=     13 IndIPD=      0 C=  5.885627D-02  2.232258D-02                             NZ=T
 IExCor=    0 DFT=F Ex=HF Corr=None ExCW=0 ScaHFX=  1.000000
 ScaDFX=  1.000000  1.000000  1.000000  1.000000 ScalE2=  1.000000  1.000000
 IRadAn=      5 IRanWt=     -1 IRanGd=            0 ICorTp=0 IEmpDi=  4
 NAtoms=    2 NActive=    2 NUniq=    2 SFac= 1.00D+00 NAtFMM=   60 NAOKFM=F Big=F
 Integral buffers will be    131072 words long.
 Raffenetti 2 integral format.
 Two-electron integral symmetry is turned on.
 Leave Link  301 at Mon Mar 28 14:05:25 2022, MaxMem=  9663676416 cpu:               2.0 elap:               0.1
 (Enter /nopt/nrel/apps/gaussian/g16C_1/g16/l302.exe)
 NPDir=0 NMtPBC=     1 NCelOv=     1 NCel=       1 NClECP=     1 NCelD=      1
         NCelK=      1 NCelE2=     1 NClLst=     1 CellRange=     0.0.
 One-electron integrals computed using PRISM.
 One-electron integral symmetry used in STVInt
 Entering OneElI...
 Calculate overlap and kinetic energy integrals
    NBasis =  10  MinDer = 0  MaxDer = 0
 Requested accuracy = 0.1000D-12
 Symmetry will be used
 PrmmSu-InSpLW:  IPartL=    0 NPrtUS=   36 NPrtUL=    1 DoSpLW=F IThBeg=    0 IThEnd=   35 NThAct=   36.
 PrSmSu:  IncTry=   512 NBBP=             10 NTPThr=   100 NPartT=   36 Incr=           1 LDynOK=F GPUOK=F.
 PrsmSu:  NPrtUS=  36 ThrOK=T IAlg=1 LenDen=           0 ISkipM=0 DoSpLW=F IThBeg=    0 IThEnd=   35.
 Prism:   IPart=     0 DynPar=F LinDyn=F Incr=           1.
 PRISM was handed   268433743 working-precision words and    10 shell-pairs
 PRISM was handed   268433743 working-precision words and    10 shell-pairs
 PRISM was handed   268433743 working-precision words and    10 shell-pairs
 PRISM was handed   268433743 working-precision words and    10 shell-pairs
 PRISM was handed   268433743 working-precision words and    10 shell-pairs
 PRISM was handed   268433743 working-precision words and    10 shell-pairs
 PRISM was handed   268433743 working-precision words and    10 shell-pairs
 IPart= 21 NShTot=           0 NBatch=           0 AvBLen=         0.0
 IPart=  8 NShTot=           0 NBatch=           0 AvBLen=         0.0
 IPart= 32 NShTot=           0 NBatch=           0 AvBLen=         0.0
 IPart=  4 NShTot=           0 NBatch=           0 AvBLen=         0.0
 IPart= 16 NShTot=           0 NBatch=           0 AvBLen=         0.0
 IPart=  1 NShTot=           0 NBatch=           0 AvBLen=         0.0
 PRISM was handed   268433743 working-precision words and    10 shell-pairs
 PRISM was handed   268433743 working-precision words and    10 shell-pairs
 IPart= 12 NShTot=           0 NBatch=           0 AvBLen=         0.0
 PRISM was handed   268433743 working-precision words and    10 shell-pairs
 IPart= 23 NShTot=           0 NBatch=           0 AvBLen=         0.0
 PRISM was handed   268433743 working-precision words and    10 shell-pairs
 PRISM was handed   268433743 working-precision words and    10 shell-pairs
 PRISM was handed   268433743 working-precision words and    10 shell-pairs
 IPart=  2 NShTot=           0 NBatch=           0 AvBLen=         0.0
 IPart=  7 NShTot=           0 NBatch=           0 AvBLen=         0.0
 IPart=  0 NShTot=          10 NBatch=          10 AvBLen=         1.0
 IPart= 20 NShTot=           0 NBatch=           0 AvBLen=         0.0
 IPart= 13 NShTot=           0 NBatch=           0 AvBLen=         0.0
 PRISM was handed   268433743 working-precision words and    10 shell-pairs
 PRISM was handed   268433743 working-precision words and    10 shell-pairs
 PRISM was handed   268433743 working-precision words and    10 shell-pairs
 PRISM was handed   268433743 working-precision words and    10 shell-pairs
 PRISM was handed   268433743 working-precision words and    10 shell-pairs
 PRISM was handed   268433743 working-precision words and    10 shell-pairs
 PRISM was handed   268433743 working-precision words and    10 shell-pairs
 PRISM was handed   268433743 working-precision words and    10 shell-pairs
 PRISM was handed   268433743 working-precision words and    10 shell-pairs
 PRISM was handed   268433743 working-precision words and    10 shell-pairs
 PRISM was handed   268433743 working-precision words and    10 shell-pairs
 PRISM was handed   268433743 working-precision words and    10 shell-pairs
 IPart= 17 NShTot=           0 NBatch=           0 AvBLen=         0.0
 IPart= 29 NShTot=           0 NBatch=           0 AvBLen=         0.0
 PRISM was handed   268433743 working-precision words and    10 shell-pairs
 PRISM was handed   268433743 working-precision words and    10 shell-pairs
 IPart= 18 NShTot=           0 NBatch=           0 AvBLen=         0.0
 IPart=  6 NShTot=           0 NBatch=           0 AvBLen=         0.0
 IPart= 34 NShTot=           0 NBatch=           0 AvBLen=         0.0
 IPart= 22 NShTot=           0 NBatch=           0 AvBLen=         0.0
 IPart= 10 NShTot=           0 NBatch=           0 AvBLen=         0.0
 IPart= 31 NShTot=           0 NBatch=           0 AvBLen=         0.0
 IPart= 33 NShTot=           0 NBatch=           0 AvBLen=         0.0
 IPart= 27 NShTot=           0 NBatch=           0 AvBLen=         0.0
 IPart= 24 NShTot=           0 NBatch=           0 AvBLen=         0.0
 PRISM was handed   268433743 working-precision words and    10 shell-pairs
 IPart= 26 NShTot=           0 NBatch=           0 AvBLen=         0.0
 PRISM was handed   268433743 working-precision words and    10 shell-pairs
 PRISM was handed   268433743 working-precision words and    10 shell-pairs
 PRISM was handed   268433743 working-precision words and    10 shell-pairs
 PRISM was handed   268433743 working-precision words and    10 shell-pairs
 PRISM was handed   268433743 working-precision words and    10 shell-pairs
 PRISM was handed   268433743 working-precision words and    10 shell-pairs
 IPart=  5 NShTot=           0 NBatch=           0 AvBLen=         0.0
 PRISM was handed   268433743 working-precision words and    10 shell-pairs
 IPart= 15 NShTot=           0 NBatch=           0 AvBLen=         0.0
 IPart=  9 NShTot=           0 NBatch=           0 AvBLen=         0.0
 PRISM was handed   268433743 working-precision words and    10 shell-pairs
 IPart= 35 NShTot=           0 NBatch=           0 AvBLen=         0.0
 IPart= 11 NShTot=           0 NBatch=           0 AvBLen=         0.0
 IPart= 30 NShTot=           0 NBatch=           0 AvBLen=         0.0
 IPart= 14 NShTot=           0 NBatch=           0 AvBLen=         0.0
 IPart=  3 NShTot=           0 NBatch=           0 AvBLen=         0.0
 IPart= 25 NShTot=           0 NBatch=           0 AvBLen=         0.0
 IPart= 28 NShTot=           0 NBatch=           0 AvBLen=         0.0
 IPart= 19 NShTot=           0 NBatch=           0 AvBLen=         0.0
 PrSmSu:  NxtVal=             37.
 *** Overlap *** 
                1             2             3             4             5 
      1  0.100000D+01
      2  0.551678D+00  0.100000D+01
      3  0.552826D+00  0.145258D+00  0.100000D+01
      4  0.000000D+00  0.000000D+00  0.000000D+00  0.100000D+01
      5  0.000000D+00  0.000000D+00  0.000000D+00  0.000000D+00  0.100000D+01
      6 -0.322932D+00  0.000000D+00  0.000000D+00  0.000000D+00  0.000000D+00
      7  0.459937D+00  0.185742D+00  0.905515D+00  0.000000D+00  0.000000D+00
      8  0.000000D+00  0.000000D+00  0.000000D+00  0.802063D+00  0.000000D+00
      9  0.000000D+00  0.000000D+00  0.000000D+00  0.000000D+00  0.802063D+00
     10 -0.143585D+00  0.000000D+00  0.000000D+00  0.000000D+00  0.000000D+00
                6             7             8             9            10 
      6  0.100000D+01
      7  0.000000D+00  0.100000D+01
      8  0.000000D+00  0.000000D+00  0.100000D+01
      9  0.000000D+00  0.000000D+00  0.000000D+00  0.100000D+01
     10  0.802063D+00  0.000000D+00  0.000000D+00  0.000000D+00  0.100000D+01
 *** Kinetic Energy *** 
                1             2             3             4             5 
      1  0.760032D+00
      2  0.392994D+00  0.362575D+01
      3  0.208350D-01 -0.242849D+00  0.145919D+00
      4  0.000000D+00  0.000000D+00  0.000000D+00  0.242177D+00
      5  0.000000D+00  0.000000D+00  0.000000D+00  0.000000D+00  0.242177D+00
      6 -0.173052D+00  0.000000D+00  0.000000D+00  0.000000D+00  0.000000D+00
      7  0.424169D-01  0.193002D-01  0.653913D-01  0.000000D+00  0.000000D+00
      8  0.000000D+00  0.000000D+00  0.000000D+00  0.100038D+00  0.000000D+00
      9  0.000000D+00  0.000000D+00  0.000000D+00  0.000000D+00  0.100038D+00
     10 -0.223453D-01  0.000000D+00  0.000000D+00  0.000000D+00  0.000000D+00
                6             7             8             9            10 
      6  0.242177D+00
      7  0.000000D+00  0.539430D-01
      8  0.000000D+00  0.000000D+00  0.899049D-01
      9  0.000000D+00  0.000000D+00  0.000000D+00  0.899049D-01
     10  0.100038D+00  0.000000D+00  0.000000D+00  0.000000D+00  0.899049D-01
 Entering OneElI...
 Calculate potential energy integrals
    NBasis =  10  MinDer = 0  MaxDer = 0
 Requested accuracy = 0.1000D-12
 Symmetry will be used
 PrmmSu-InSpLW:  IPartL=    0 NPrtUS=   36 NPrtUL=    1 DoSpLW=F IThBeg=    0 IThEnd=   35 NThAct=   36.
 PrSmSu:  IncTry=   512 NBBP=             20 NTPThr=   100 NPartT=   36 Incr=           1 LDynOK=F GPUOK=F.
 PrsmSu:  NPrtUS=  36 ThrOK=T IAlg=1 LenDen=           0 ISkipM=0 DoSpLW=F IThBeg=    0 IThEnd=   35.
 Prism:   IPart=     0 DynPar=F LinDyn=F Incr=           1.
 PRISM was handed   268433784 working-precision words and    10 shell-pairs
 PRISM was handed   268433784 working-precision words and    10 shell-pairs
 PRISM was handed   268433784 working-precision words and    10 shell-pairs
 PRISM was handed   268433784 working-precision words and    10 shell-pairs
 PRISM was handed   268433784 working-precision words and    10 shell-pairs
 PRISM was handed   268433784 working-precision words and    10 shell-pairs
 PRISM was handed   268433784 working-precision words and    10 shell-pairs
 PRISM was handed   268433784 working-precision words and    10 shell-pairs
 PRISM was handed   268433784 working-precision words and    10 shell-pairs
 PRISM was handed   268433784 working-precision words and    10 shell-pairs
 PRISM was handed   268433784 working-precision words and    10 shell-pairs
 PRISM was handed   268433784 working-precision words and    10 shell-pairs
 PRISM was handed   268433784 working-precision words and    10 shell-pairs
 PRISM was handed   268433784 working-precision words and    10 shell-pairs
 PRISM was handed   268433784 working-precision words and    10 shell-pairs
 PRISM was handed   268433784 working-precision words and    10 shell-pairs
 PRISM was handed   268433784 working-precision words and    10 shell-pairs
 PRISM was handed   268433784 working-precision words and    10 shell-pairs
 PRISM was handed   268433784 working-precision words and    10 shell-pairs
 PRISM was handed   268433784 working-precision words and    10 shell-pairs
 PRISM was handed   268433784 working-precision words and    10 shell-pairs
 PRISM was handed   268433784 working-precision words and    10 shell-pairs
 PRISM was handed   268433784 working-precision words and    10 shell-pairs
 PRISM was handed   268433784 working-precision words and    10 shell-pairs
 PRISM was handed   268433784 working-precision words and    10 shell-pairs
 PRISM was handed   268433784 working-precision words and    10 shell-pairs
 PRISM was handed   268433784 working-precision words and    10 shell-pairs
 PRISM was handed   268433784 working-precision words and    10 shell-pairs
 PRISM was handed   268433784 working-precision words and    10 shell-pairs
 PRISM was handed   268433784 working-precision words and    10 shell-pairs
 PRISM was handed   268433784 working-precision words and    10 shell-pairs
 PRISM was handed   268433784 working-precision words and    10 shell-pairs
 PRISM was handed   268433784 working-precision words and    10 shell-pairs
 PRISM was handed   268433784 working-precision words and    10 shell-pairs
 PRISM was handed   268433784 working-precision words and    10 shell-pairs
 PRISM was handed   268433784 working-precision words and    10 shell-pairs
 IPart=  0 NShTot=          20 NBatch=          10 AvBLen=         2.0
 IPart=  3 NShTot=           0 NBatch=           0 AvBLen=         0.0
 IPart= 31 NShTot=           0 NBatch=           0 AvBLen=         0.0
 IPart= 18 NShTot=           0 NBatch=           0 AvBLen=         0.0
 IPart= 30 NShTot=           0 NBatch=           0 AvBLen=         0.0
 IPart= 15 NShTot=           0 NBatch=           0 AvBLen=         0.0
 IPart= 26 NShTot=           0 NBatch=           0 AvBLen=         0.0
 IPart= 14 NShTot=           0 NBatch=           0 AvBLen=         0.0
 IPart= 12 NShTot=           0 NBatch=           0 AvBLen=         0.0
 IPart= 21 NShTot=           0 NBatch=           0 AvBLen=         0.0
 IPart= 24 NShTot=           0 NBatch=           0 AvBLen=         0.0
 IPart= 16 NShTot=           0 NBatch=           0 AvBLen=         0.0
 IPart=  6 NShTot=           0 NBatch=           0 AvBLen=         0.0
 IPart= 28 NShTot=           0 NBatch=           0 AvBLen=         0.0
 IPart=  1 NShTot=           0 NBatch=           0 AvBLen=         0.0
 IPart= 22 NShTot=           0 NBatch=           0 AvBLen=         0.0
 IPart= 13 NShTot=           0 NBatch=           0 AvBLen=         0.0
 IPart= 33 NShTot=           0 NBatch=           0 AvBLen=         0.0
 IPart= 11 NShTot=           0 NBatch=           0 AvBLen=         0.0
 IPart= 20 NShTot=           0 NBatch=           0 AvBLen=         0.0
 IPart=  7 NShTot=           0 NBatch=           0 AvBLen=         0.0
 IPart= 17 NShTot=           0 NBatch=           0 AvBLen=         0.0
 IPart=  2 NShTot=           0 NBatch=           0 AvBLen=         0.0
 IPart=  4 NShTot=           0 NBatch=           0 AvBLen=         0.0
 IPart= 19 NShTot=           0 NBatch=           0 AvBLen=         0.0
 IPart= 32 NShTot=           0 NBatch=           0 AvBLen=         0.0
 IPart= 25 NShTot=           0 NBatch=           0 AvBLen=         0.0
 IPart= 10 NShTot=           0 NBatch=           0 AvBLen=         0.0
 IPart=  5 NShTot=           0 NBatch=           0 AvBLen=         0.0
 IPart=  9 NShTot=           0 NBatch=           0 AvBLen=         0.0
 IPart= 27 NShTot=           0 NBatch=           0 AvBLen=         0.0
 IPart= 34 NShTot=           0 NBatch=           0 AvBLen=         0.0
 IPart=  8 NShTot=           0 NBatch=           0 AvBLen=         0.0
 IPart= 35 NShTot=           0 NBatch=           0 AvBLen=         0.0
 IPart= 23 NShTot=           0 NBatch=           0 AvBLen=         0.0
 IPart= 29 NShTot=           0 NBatch=           0 AvBLen=         0.0
 PrSmSu:  NxtVal=             37.
 ***** Potential Energy ***** 
                1             2             3             4             5 
      1  0.373784D+01
      2  0.328535D+01  0.910183D+01
      3  0.121959D+01  0.393393D+00  0.148314D+01
      4  0.000000D+00  0.000000D+00  0.000000D+00  0.134555D+01
      5  0.000000D+00  0.000000D+00  0.000000D+00  0.000000D+00  0.134555D+01
      6 -0.876278D+00 -0.680735D-01 -0.791482D-01  0.000000D+00  0.000000D+00
      7  0.115753D+01  0.916175D+00  0.123765D+01  0.000000D+00  0.000000D+00
      8  0.000000D+00  0.000000D+00  0.000000D+00  0.841857D+00  0.000000D+00
      9  0.000000D+00  0.000000D+00  0.000000D+00  0.000000D+00  0.841857D+00
     10 -0.293818D+00 -0.134286D-01 -0.367969D-01  0.000000D+00  0.000000D+00
                6             7             8             9            10 
      6  0.138529D+01
      7 -0.683805D-01  0.120411D+01
      8  0.000000D+00  0.000000D+00  0.804420D+00
      9  0.000000D+00  0.000000D+00  0.000000D+00  0.804420D+00
     10  0.856182D+00 -0.347873D-01  0.000000D+00  0.000000D+00  0.811845D+00
 ****** Core Hamiltonian ****** 
                1             2             3             4             5 
      1 -0.297781D+01
      2 -0.289236D+01 -0.547608D+01
      3 -0.119876D+01 -0.636242D+00 -0.133722D+01
      4  0.000000D+00  0.000000D+00  0.000000D+00 -0.110338D+01
      5  0.000000D+00  0.000000D+00  0.000000D+00  0.000000D+00 -0.110338D+01
      6  0.703226D+00  0.680735D-01  0.791482D-01  0.000000D+00  0.000000D+00
      7 -0.111512D+01 -0.896875D+00 -0.117226D+01  0.000000D+00  0.000000D+00
      8  0.000000D+00  0.000000D+00  0.000000D+00 -0.741819D+00  0.000000D+00
      9  0.000000D+00  0.000000D+00  0.000000D+00  0.000000D+00 -0.741819D+00
     10  0.271473D+00  0.134286D-01  0.367969D-01  0.000000D+00  0.000000D+00
                6             7             8             9            10 
      6 -0.114311D+01
      7  0.683805D-01 -0.115017D+01
      8  0.000000D+00  0.000000D+00 -0.714515D+00
      9  0.000000D+00  0.000000D+00  0.000000D+00 -0.714515D+00
     10 -0.756144D+00  0.347873D-01  0.000000D+00  0.000000D+00 -0.721940D+00
 SVDSVc IOpt=   1 NormSV=T IR=1
 SVDSVc V= 2.51D+00 1.82D+00 1.08D+00 3.75D-01 1.52D-01 6.62D-02
 SVDSVc IOpt=   1 NormSV=T IR=3
 SVDSVc V= 1.80D+00 1.98D-01
 SVDSVc IOpt=   1 NormSV=T IR=4
 SVDSVc V= 1.80D+00 1.98D-01
 TstOVc:  Largest diagonal error= 4.22D-15 IB=1 I=    6.
 TstOVc:  Largest same sym error= 4.05D-15 IB=1 I=    5 J=    4.
 TstOVc:  Largest diff sym error= 0.00D+00 IB=0 JB=0 I=    0 J=    0.
 Orthogonalized basis functions: 
                 1             2             3             4             5 
      1   0.333358D+00 -0.417773D-01  0.315199D+00  0.107006D+01  0.775247D+00
      2   0.195738D+00  0.411029D-01  0.753108D+00 -0.786733D+00 -0.394869D+00
      3   0.340080D+00  0.169880D+00 -0.344801D+00 -0.348648D-01  0.579895D+00
      4   0.000000D+00  0.000000D+00  0.000000D+00  0.000000D+00  0.000000D+00
      5   0.000000D+00  0.000000D+00  0.000000D+00  0.000000D+00  0.000000D+00
      6  -0.123483D+00  0.495580D+00  0.697177D-01 -0.367529D+00  0.161926D+01
      7   0.330523D+00  0.173090D+00 -0.343572D+00 -0.503006D+00 -0.953086D+00
      8   0.000000D+00  0.000000D+00  0.000000D+00  0.000000D+00  0.000000D+00
      9   0.000000D+00  0.000000D+00  0.000000D+00  0.000000D+00  0.000000D+00
     10  -0.975751D-01  0.490966D+00  0.133831D+00  0.717299D+00 -0.140009D+01
                 6             7             8             9            10 
      1  -0.116985D+01  0.000000D+00  0.000000D+00  0.000000D+00  0.000000D+00
      2   0.704696D+00  0.000000D+00  0.000000D+00  0.000000D+00  0.000000D+00
      3   0.268594D+01  0.000000D+00  0.000000D+00  0.000000D+00  0.000000D+00
      4   0.000000D+00  0.526744D+00  0.158936D+01  0.000000D+00  0.000000D+00
      5   0.000000D+00  0.000000D+00  0.000000D+00  0.526744D+00  0.158936D+01
      6  -0.953663D+00  0.000000D+00  0.000000D+00  0.000000D+00  0.000000D+00
      7  -0.216861D+01  0.000000D+00  0.000000D+00  0.000000D+00  0.000000D+00
      8   0.000000D+00  0.526744D+00 -0.158936D+01  0.000000D+00  0.000000D+00
      9   0.000000D+00  0.000000D+00  0.000000D+00  0.526744D+00 -0.158936D+01
     10   0.639259D+00  0.000000D+00  0.000000D+00  0.000000D+00  0.000000D+00
 NBasis=    10 RedAO= T EigKep=  6.62D-02  NBF=     6     0     2     2
 NBsUse=    10 1.00D-06 EigRej= -1.00D+00 NBFU=     6     0     2     2
 Leave Link  302 at Mon Mar 28 14:05:26 2022, MaxMem=  9663676416 cpu:               3.7 elap:               0.1
 (Enter /nopt/nrel/apps/gaussian/g16C_1/g16/l303.exe)
 DipDrv will not compute anything.
 Fermi contact integrals: 
                 1             2 
      1   0.628247D+00  0.238254D+00
      2   0.199826D+00  0.252653D+01
      3   0.464649D-01 -0.285664D-01
      4   0.000000D+00  0.000000D+00
      5   0.000000D+00  0.000000D+00
      6  -0.114972D+00  0.000000D+00
      7   0.569967D-01  0.588563D-01
      8   0.000000D+00  0.000000D+00
      9   0.000000D+00  0.000000D+00
     10  -0.204254D-01  0.000000D+00
 Leave Link  303 at Mon Mar 28 14:05:26 2022, MaxMem=  9663676416 cpu:               1.1 elap:               0.1
 (Enter /nopt/nrel/apps/gaussian/g16C_1/g16/l401.exe)
 ExpMin= 3.60D-02 ExpMax= 6.42D+02 ExpMxC= 9.68D+01 IAcc=3 IRadAn=         5 AccDes= 0.00D+00
 Harris functional with IExCor=  205 and IRadAn=       5 diagonalized for initial guess.
 HarFok:  IExCor=  205 AccDes= 0.00D+00 IRadAn=         5 IDoV= 1 UseB2=F ITyADJ=14
 ICtDFT=  3500011 ScaDFX=  1.000000  1.000000  1.000000  1.000000
 FoFCou: FMM=F IPFlag=           0 FMFlag=      100000 FMFlg1=           0
         NFxFlg=           0 DoJE=T BraDBF=F KetDBF=T FulRan=T
         wScrn=  0.000000 ICntrl=       500 IOpCl=  0 I1Cent=   200000004 NGrid=           0
         NMat0=    1 NMatS0=      1 NMatT0=    0 NMatD0=    1 NMtDS0=    0 NMtDT0=    0
 Petite list used in FoFCou.
 Harris En= -7.06682313568039    
 JPrj=0 DoOrth=F DoCkMO=F.
 Initial guess orbital symmetries:
 Alpha Orbitals:
       Occupied  (SG) (SG) (SG)
       Virtual   (PI) (PI) (SG) (PI) (PI) (SG) (SG)
 Beta  Orbitals:
       Occupied  (SG)
       Virtual   (SG) (SG) (PI) (PI) (SG) (PI) (PI) (SG) (SG)
 The electronic state of the initial guess is 3-SG.
 Initial guess <Sx>= 0.0000 <Sy>= 0.0000 <Sz>= 1.0000 <S**2>= 2.0000 S= 1.0000
 Leave Link  401 at Mon Mar 28 14:05:26 2022, MaxMem=  9663676416 cpu:               3.4 elap:               0.1
 (Enter /nopt/nrel/apps/gaussian/g16C_1/g16/l502.exe)
 Keep R1 and R2 ints in memory in symmetry-blocked form, NReq=7210728.
 FoFCou: FMM=F IPFlag=           0 FMFlag=           0 FMFlg1=           0
         NFxFlg=           0 DoJE=F BraDBF=F KetDBF=F FulRan=T
         wScrn=  0.000000 ICntrl=       600 IOpCl=  0 I1Cent=           0 NGrid=           0
         NMat0=    1 NMatS0=     55 NMatT0=    0 NMatD0=    1 NMtDS0=    0 NMtDT0=    0
 Petite list used in FoFCou.
 UHF open shell SCF:
 Using DIIS extrapolation, IDIIS=  1040.
 NGot=  9663676416 LenX=  9663672766 LenY=  9663671884
 Requested convergence on RMS density matrix=1.00D-08 within 128 cycles.
 Requested convergence on MAX density matrix=1.00D-06.
 Requested convergence on             energy=1.00D-06.
 No special actions if energy rises.

 Cycle   1  Pass 1  IDiag  1:
 E= -7.06881688217567    
 DIIS: error= 3.25D-02 at cycle   1 NSaved=   1.
 NSaved= 1 IEnMin= 1 EnMin= -7.06881688217567     IErMin= 1 ErrMin= 3.25D-02
 ErrMax= 3.25D-02  0.00D+00 EMaxC= 1.00D-01 BMatC= 5.27D-02 BMatP= 5.27D-02
 IDIUse=3 WtCom= 6.75D-01 WtEn= 3.25D-01
 Coeff-Com:  0.100D+01
 Coeff-En:   0.100D+01
 Coeff:      0.100D+01
 Gap=     0.237 Goal=   None    Shift=    0.000
 Gap=     2.981 Goal=   None    Shift=    0.000
 GapD=    0.237 DampG=1.000 DampE=0.500 DampFc=0.5000 IDamp=-1.
 Damping current iteration by 5.00D-01
 RMSDP=2.14D-02 MaxDP=1.08D-01              OVMax= 2.84D-02

 Cycle   2  Pass 1  IDiag  1:
 E= -7.07529964271662     Delta-E=       -0.006482760541 Rises=F Damp=T
 DIIS: error= 1.85D-02 at cycle   2 NSaved=   2.
 NSaved= 2 IEnMin= 2 EnMin= -7.07529964271662     IErMin= 2 ErrMin= 1.85D-02
 ErrMax= 1.85D-02  0.00D+00 EMaxC= 1.00D-01 BMatC= 1.69D-02 BMatP= 5.27D-02
 IDIUse=3 WtCom= 8.15D-01 WtEn= 1.85D-01
 Coeff-Com: -0.126D+01 0.226D+01
 Coeff-En:   0.000D+00 0.100D+01
 Coeff:     -0.103D+01 0.203D+01
 Gap=     0.233 Goal=   None    Shift=    0.000
 Gap=     2.925 Goal=   None    Shift=    0.000
 RMSDP=1.57D-02 MaxDP=9.04D-02 DE=-6.48D-03 OVMax= 3.67D-03

 Cycle   3  Pass 1  IDiag  1:
 E= -7.08380144083763     Delta-E=       -0.008501798121 Rises=F Damp=F
 DIIS: error= 2.16D-03 at cycle   3 NSaved=   3.
 NSaved= 3 IEnMin= 3 EnMin= -7.08380144083763     IErMin= 3 ErrMin= 2.16D-03
 ErrMax= 2.16D-03  0.00D+00 EMaxC= 1.00D-01 BMatC= 1.12D-04 BMatP= 1.69D-02
 IDIUse=3 WtCom= 9.78D-01 WtEn= 2.16D-02
 Coeff-Com:  0.676D+00-0.127D+01 0.159D+01
 Coeff-En:   0.000D+00 0.000D+00 0.100D+01
 Coeff:      0.661D+00-0.124D+01 0.158D+01
 Gap=     0.233 Goal=   None    Shift=    0.000
 Gap=     2.909 Goal=   None    Shift=    0.000
 RMSDP=2.66D-03 MaxDP=1.74D-02 DE=-8.50D-03 OVMax= 7.88D-04

 Cycle   4  Pass 1  IDiag  1:
 E= -7.08390969771730     Delta-E=       -0.000108256880 Rises=F Damp=F
 DIIS: error= 1.31D-04 at cycle   4 NSaved=   4.
 NSaved= 4 IEnMin= 4 EnMin= -7.08390969771730     IErMin= 4 ErrMin= 1.31D-04
 ErrMax= 1.31D-04  0.00D+00 EMaxC= 1.00D-01 BMatC= 6.51D-07 BMatP= 1.12D-04
 IDIUse=3 WtCom= 9.99D-01 WtEn= 1.31D-03
 Coeff-Com: -0.204D+00 0.383D+00-0.530D+00 0.135D+01
 Coeff-En:   0.000D+00 0.000D+00 0.000D+00 0.100D+01
 Coeff:     -0.203D+00 0.383D+00-0.530D+00 0.135D+01
 Gap=     0.233 Goal=   None    Shift=    0.000
 Gap=     2.908 Goal=   None    Shift=    0.000
 RMSDP=3.07D-04 MaxDP=1.41D-03 DE=-1.08D-04 OVMax= 1.02D-04

 Cycle   5  Pass 1  IDiag  1:
 E= -7.08391037006255     Delta-E=       -0.000000672345 Rises=F Damp=F
 DIIS: error= 2.66D-05 at cycle   5 NSaved=   5.
 NSaved= 5 IEnMin= 5 EnMin= -7.08391037006255     IErMin= 5 ErrMin= 2.66D-05
 ErrMax= 2.66D-05  0.00D+00 EMaxC= 1.00D-01 BMatC= 1.54D-08 BMatP= 6.51D-07
 IDIUse=1 WtCom= 1.00D+00 WtEn= 0.00D+00
 Coeff-Com:  0.472D-01-0.895D-01 0.128D+00-0.402D+00 0.132D+01
 Coeff:      0.472D-01-0.895D-01 0.128D+00-0.402D+00 0.132D+01
 Gap=     0.233 Goal=   None    Shift=    0.000
 Gap=     2.908 Goal=   None    Shift=    0.000
 RMSDP=7.10D-05 MaxDP=5.18D-04 DE=-6.72D-07 OVMax= 2.22D-06

 Cycle   6  Pass 1  IDiag  1:
 E= -7.08391039550779     Delta-E=       -0.000000025445 Rises=F Damp=F
 DIIS: error= 8.72D-06 at cycle   6 NSaved=   6.
 NSaved= 6 IEnMin= 6 EnMin= -7.08391039550779     IErMin= 6 ErrMin= 8.72D-06
 ErrMax= 8.72D-06  0.00D+00 EMaxC= 1.00D-01 BMatC= 1.24D-09 BMatP= 1.54D-08
 IDIUse=1 WtCom= 1.00D+00 WtEn= 0.00D+00
 Coeff-Com: -0.104D-01 0.199D-01-0.312D-01 0.128D+00-0.660D+00 0.155D+01
 Coeff:     -0.104D-01 0.199D-01-0.312D-01 0.128D+00-0.660D+00 0.155D+01
 Gap=     0.233 Goal=   None    Shift=    0.000
 Gap=     2.908 Goal=   None    Shift=    0.000
 RMSDP=2.79D-05 MaxDP=2.05D-04 DE=-2.54D-08 OVMax= 2.27D-06

 Cycle   7  Pass 1  IDiag  1:
 E= -7.08391039841431     Delta-E=       -0.000000002907 Rises=F Damp=F
 DIIS: error= 1.12D-06 at cycle   7 NSaved=   7.
 NSaved= 7 IEnMin= 7 EnMin= -7.08391039841431     IErMin= 7 ErrMin= 1.12D-06
 ErrMax= 1.12D-06  0.00D+00 EMaxC= 1.00D-01 BMatC= 2.56D-11 BMatP= 1.24D-09
 IDIUse=1 WtCom= 1.00D+00 WtEn= 0.00D+00
 Coeff-Com:  0.287D-03-0.585D-03 0.119D-02-0.682D-02 0.388D-01-0.232D+00
 Coeff-Com:  0.120D+01
 Coeff:      0.287D-03-0.585D-03 0.119D-02-0.682D-02 0.388D-01-0.232D+00
 Coeff:      0.120D+01
 Gap=     0.233 Goal=   None    Shift=    0.000
 Gap=     2.908 Goal=   None    Shift=    0.000
 RMSDP=4.17D-06 MaxDP=3.09D-05 DE=-2.91D-09 OVMax= 2.99D-07

 Cycle   8  Pass 1  IDiag  1:
 E= -7.08391039846892     Delta-E=       -0.000000000055 Rises=F Damp=F
 DIIS: error= 5.24D-08 at cycle   8 NSaved=   8.
 NSaved= 8 IEnMin= 8 EnMin= -7.08391039846892     IErMin= 8 ErrMin= 5.24D-08
 ErrMax= 5.24D-08  0.00D+00 EMaxC= 1.00D-01 BMatC= 1.00D-13 BMatP= 2.56D-11
 IDIUse=1 WtCom= 1.00D+00 WtEn= 0.00D+00
 Coeff-Com: -0.700D-04 0.142D-03-0.286D-03 0.148D-02-0.711D-02 0.492D-01
 Coeff-Com: -0.300D+00 0.126D+01
 Coeff:     -0.700D-04 0.142D-03-0.286D-03 0.148D-02-0.711D-02 0.492D-01
 Coeff:     -0.300D+00 0.126D+01
 Gap=     0.233 Goal=   None    Shift=    0.000
 Gap=     2.908 Goal=   None    Shift=    0.000
 RMSDP=1.25D-07 MaxDP=6.79D-07 DE=-5.46D-11 OVMax= 2.19D-08

 Cycle   9  Pass 1  IDiag  1:
 E= -7.08391039846903     Delta-E=       -0.000000000000 Rises=F Damp=F
 DIIS: error= 3.58D-09 at cycle   9 NSaved=   9.
 NSaved= 9 IEnMin= 9 EnMin= -7.08391039846903     IErMin= 9 ErrMin= 3.58D-09
 ErrMax= 3.58D-09  0.00D+00 EMaxC= 1.00D-01 BMatC= 3.38D-16 BMatP= 1.00D-13
 IDIUse=1 WtCom= 1.00D+00 WtEn= 0.00D+00
 Coeff-Com:  0.310D-06-0.119D-05 0.747D-05-0.566D-04 0.172D-03-0.258D-02
 Coeff-Com:  0.205D-01-0.126D+00 0.111D+01
 Coeff:      0.310D-06-0.119D-05 0.747D-05-0.566D-04 0.172D-03-0.258D-02
 Coeff:      0.205D-01-0.126D+00 0.111D+01
 Gap=     0.233 Goal=   None    Shift=    0.000
 Gap=     2.908 Goal=   None    Shift=    0.000
 RMSDP=4.29D-09 MaxDP=2.58D-08 DE=-1.14D-13 OVMax= 1.91D-09

 SCF Done:  E(UHF) =  -7.08391039847     A.U. after    9 cycles
            NFock=  9  Conv=0.43D-08     -V/T= 1.8656
 <Sx>= 0.0000 <Sy>= 0.0000 <Sz>= 1.0000 <S**2>= 2.0000 S= 1.0000
 <L.S>= 0.000000000000E+00
 KE= 8.183449802730D+00 PE=-2.206899657743D+01 EE= 3.626573110710D+00
 Annihilation of the first spin contaminant:
 S**2 before annihilation     2.0000,   after     2.0000
 Leave Link  502 at Mon Mar 28 14:05:26 2022, MaxMem=  9663676416 cpu:               3.8 elap:               0.1
 (Enter /nopt/nrel/apps/gaussian/g16C_1/g16/l801.exe)
 Windowed orbitals will be sorted by symmetry type.
 ExpMin= 3.60D-02 ExpMax= 6.42D+02 ExpMxC= 9.68D+01 IAcc=3 IRadAn=         5 AccDes= 0.00D+00
 HarFok:  IExCor=  205 AccDes= 0.00D+00 IRadAn=         5 IDoV=-2 UseB2=F ITyADJ=14
 ICtDFT= 12500011 ScaDFX=  1.000000  1.000000  1.000000  1.000000
 Largest valence mixing into a core orbital is  4.28D-03
 Largest core mixing into a valence orbital is  1.56D-03
 Range of M.O.s used for correlation:     2    10
 NBasis=    10 NAE=     3 NBE=     1 NFC=     1 NFV=     0
 NROrb=      9 NOA=     2 NOB=     0 NVA=     7 NVB=     9
 Leave Link  801 at Mon Mar 28 14:05:26 2022, MaxMem=  9663676416 cpu:               2.3 elap:               0.1
 (Enter /nopt/nrel/apps/gaussian/g16C_1/g16/l804.exe)
 Open-shell transformation, MDV=  9663676416 ITran=4 ISComp=2.
 Unit  1 TFree=          7995 TCopy=        115854.
 Semi-Direct transformation.
 ModeAB=           2 MOrb=             2 LenV=    9663554470
 LASXX=          158 LTotXX=         158 LenRXX=         158
 LTotAB=         269 MaxLAS=         990 LenRXY=         990
 NonZer=        1206 LenScr=      785920 LnRSAI=           0
 LnScr1=           0 LExtra=      219242 Total=      1006310
 MaxDsk= 34359738368 SrtSym=           F ITran=            4
 DoSDTr:  NPSUse= 36
 JobTyp=1 Pass  1:  I=   1 to   2.
 (rs|ai) integrals will be sorted in core.
 Complete sort for first half transformation.
 First half transformation complete.
 Complete sort for second half transformation.
 Second half transformation complete.
 Spin components of T(2) and E(2):
     alpha-alpha T2 =       0.2305264378D-03 E2=     -0.2863582733D-03
     alpha-beta  T2 =       0.0000000000D+00 E2=      0.0000000000D+00
     beta-beta   T2 =       0.0000000000D+00 E2=      0.0000000000D+00
 ANorm=    0.1000115257D+01
 E2 =    -0.2863582733D-03 EUMP2 =    -0.70841967567424D+01
 Leave Link  804 at Mon Mar 28 14:05:26 2022, MaxMem=  9663676416 cpu:               1.5 elap:               0.1
 (Enter /nopt/nrel/apps/gaussian/g16C_1/g16/l913.exe)
 CIDS:  MDV=  9663676416.
 Frozen-core window:  NFC=   1 NFV=   0.
 IFCWin=0 IBDFC=1 NFBD=     0     0 NFCmp=     0     0 NFFFC=     0     0
 Using original routines for 1st iteration.
 Using DD4UQ or CC4UQ for 2nd and later iterations.
 Keep R2 and R3 ints in memory in symmetry-blocked form, NReq=7213122.
 FoFCou: FMM=F IPFlag=           0 FMFlag=           0 FMFlg1=           0
         NFxFlg=           0 DoJE=F BraDBF=F KetDBF=F FulRan=T
         wScrn=  0.000000 ICntrl=       600 IOpCl=  0 I1Cent=           0 NGrid=           0
         NMat0=    1 NMatS0=     55 NMatT0=    0 NMatD0=    1 NMtDS0=    0 NMtDT0=    0
 Petite list used in FoFCou.
 CIDS: In Core Option IDoMem=           1.
 Coupled Cluster theory with single and double substitutions
 ===========================================================
 Iterations= 200 Convergence= 0.100D-06
 Produce multiple copies of IABC intergrals
 Iteration Nr.   1
 **********************
 DD1Dir will call FoFMem   1 times, MxPair=         2
 NAB=     0 NAA=     1 NBB=     0.
 MP4(R+Q)=  0.66013153D-07
 Maximum subspace dimension=  5
 A-vector RMS=  1.5534238D-03 Max=  3.3826426D-03 conv= 1.00D-05.
 RLE energy=       -0.0004592589
 E3=       -0.10787367D-03        EUMP3=      -0.70843046304D+01
 E4(DQ)=   -0.41648548D-04        UMP4(DQ)=   -0.70843462790D+01
 E4(SDQ)=  -0.41922167D-04        UMP4(SDQ)=  -0.70843465526D+01
 VARIATIONAL ENERGIES WITH THE FIRST-ORDER WAVEFUNCTION:
 DE(Corr)= -0.39416570E-03 E(Corr)=     -7.0843045642    
 NORM(A)=   0.10003097D+01
 Iteration Nr.   2
 **********************
 DD1Dir will call FoFMem   1 times, MxPair=         2
 NAB=     0 NAA=     1 NBB=     0.
 A-vector RMS=  3.1495033D-04 Max=  5.4534930D-04 conv= 1.00D-05.
 RLE energy=       -0.0004648183
 DE(Corr)= -0.46135667E-03 E(CORR)=     -7.0843717551     Delta=-6.72D-05
 NORM(A)=   0.10003283D+01
 Iteration Nr.   3
 **********************
 DD1Dir will call FoFMem   1 times, MxPair=         2
 NAB=     0 NAA=     1 NBB=     0.
 A-vector RMS=  5.2395633D-05 Max=  1.0209364D-04 conv= 1.00D-05.
 RLE energy=       -0.0004650516
 DE(Corr)= -0.46485727E-03 E(CORR)=     -7.0843752557     Delta=-3.50D-06
 NORM(A)=   0.10003296D+01
 Iteration Nr.   4
 **********************
 DD1Dir will call FoFMem   1 times, MxPair=         2
 NAB=     0 NAA=     1 NBB=     0.
 A-vector RMS=  6.8901334D-06 Max=  1.4357806D-05 conv= 1.00D-05.
 RLE energy=       -0.0004649935
 DE(Corr)= -0.46502735E-03 E(CORR)=     -7.0843754258     Delta=-1.70D-07
 NORM(A)=   0.10003295D+01
 Iteration Nr.   5
 **********************
 DD1Dir will call FoFMem   1 times, MxPair=         2
 NAB=     0 NAA=     1 NBB=     0.
 A-vector RMS=  1.0388756D-06 Max=  3.0384336D-06 conv= 1.00D-05.
 RLE energy=       -0.0004650249
 DE(Corr)= -0.46500548E-03 E(CORR)=     -7.0843754039     Delta= 2.19D-08
 NORM(A)=   0.10003296D+01
 CI/CC converged in    5 iterations to DelEn= 2.19D-08 Conv= 1.00D-07 ErrA1= 1.04D-06 Conv= 1.00D-05
 Wavefunction amplitudes converged. E(Corr)=     -7.0843754039    
 Largest amplitude= 1.54D-02
 Discarding MO integrals.
 Leave Link  913 at Mon Mar 28 14:05:26 2022, MaxMem=  9663676416 cpu:               7.5 elap:               0.2
 (Enter /nopt/nrel/apps/gaussian/g16C_1/g16/l601.exe)
 Copying SCF densities to generalized density rwf, IOpCl= 1 IROHF=0.

 **********************************************************************

            Population analysis using the SCF Density.

 **********************************************************************

 Orbital symmetries:
 Alpha Orbitals:
       Occupied  (SG) (SG) (SG)
       Virtual   (PI) (PI) (SG) (PI) (PI) (SG) (SG)
 Beta  Orbitals:
       Occupied  (SG)
       Virtual   (SG) (PI) (PI) (SG) (SG) (PI) (PI) (SG) (SG)
 The electronic state is 3-SG.
 Alpha  occ. eigenvalues --   -3.00608  -0.49368  -0.20972
 Alpha virt. eigenvalues --    0.02313   0.02313   0.06691   0.14607   0.14607
 Alpha virt. eigenvalues --    0.16383   0.77658
  Beta  occ. eigenvalues --   -2.92292
  Beta virt. eigenvalues --   -0.01484   0.06548   0.06548   0.08022   0.10479
  Beta virt. eigenvalues --    0.18171   0.18171   0.22358   0.93757
          Condensed to atoms (all electrons):
               1          2
     1  H    0.513580   0.089835
     2  Li   0.089835   3.306750
          Atomic-Atomic Spin Densities.
               1          2
     1  H    0.498250   0.001897
     2  Li   0.001897   1.497957
 Mulliken charges and spin densities:
               1          2
     1  H    0.396585   0.500147
     2  Li  -0.396585   1.499853
 Sum of Mulliken charges =  -0.00000   2.00000
 Mulliken charges and spin densities with hydrogens summed into heavy atoms:
               1          2
     2  Li  -0.000000   2.000000
 N-N= 3.175063265520D+00 E-N=-2.206899657201D+01  KE= 8.183449802730D+00
 Symmetry A1   KE= 8.183449802730D+00
 Symmetry A2   KE= 0.000000000000D+00
 Symmetry B1   KE= 0.000000000000D+00
 Symmetry B2   KE= 0.000000000000D+00
 Symmetry A1   SP= 2.000000000000D+00
 Symmetry A2   SP= 0.000000000000D+00
 Symmetry B1   SP= 0.000000000000D+00
 Symmetry B2   SP= 0.000000000000D+00

 Atomic contributions to Alpha molecular orbitals:
 Alpha occ 1 OE=-3.006 is Li2-s=0.9481
 Alpha occ 2 OE=-0.494 is H1-s=0.5115 Li2-p=0.2728 Li2-s=0.2157
 Alpha occ 3 OE=-0.210 is Li2-s=0.6783 Li2-p=0.3331
 Alpha vir 4 OE=0.023 is Li2-p=1.0000
 Alpha vir 5 OE=0.023 is Li2-p=1.0000
 Alpha vir 6 OE=0.067 is Li2-p=0.7780 Li2-s=0.2016
 Alpha vir 7 OE=0.146 is Li2-p=1.0000
 Alpha vir 8 OE=0.146 is Li2-p=1.0000
 Alpha vir 9 OE=0.164 is Li2-s=0.6380 Li2-p=0.3437
 Alpha vir 10 OE=0.777 is H1-s=0.4095 Li2-s=0.3183 Li2-p=0.2722

 Atomic contributions to Beta  molecular orbitals:
 Beta  occ 1 OE=-2.923 is Li2-s=0.9483
 Beta  vir 2 OE=-0.015 is Li2-s=0.6710 Li2-p=0.2103 H1-s=0.1187
 Beta  vir 3 OE=0.065 is Li2-p=1.0000
 Beta  vir 4 OE=0.065 is Li2-p=1.0000
 Beta  vir 5 OE=0.080 is Li2-p=0.6646 Li2-s=0.3072
 Beta  vir 6 OE=0.105 is Li2-p=0.5973 Li2-s=0.2716 H1-s=0.1311
 Beta  vir 7 OE=0.182 is Li2-p=1.0000
 Beta  vir 8 OE=0.182 is Li2-p=1.0000
 Beta  vir 9 OE=0.224 is Li2-s=0.5988 Li2-p=0.3857
 Beta  vir 10 OE=0.938 is H1-s=0.6549 Li2-s=0.2030 Li2-p=0.1421
 
 Leave Link  601 at Mon Mar 28 14:05:26 2022, MaxMem=  9663676416 cpu:               2.4 elap:               0.1
 (Enter /nopt/nrel/apps/gaussian/g16C_1/g16/l9999.exe)

 Test job not archived.
 1\1\GINC-R102U34\SP\UCCSD-FC\Gen\H1Li1(3)\USER\28-Mar-2022\0\\#P C
 CSD(MaxCyc=200,SaveAmplitudes,ReadAmplitudes)/GEN sp pop=AllOrbitals i
 op(3/33=1,3/36=-1)\\test\\0,3\H,0,0.,0.,0.\Li,0,0.,0.,0.5\\Version=ES6
 4L-G16RevC.01\State=3-SG\HF=-7.0839104\MP2=-7.0841968\MP3=-7.0843046\M
 P4D=-7.0843463\MP4DQ=-7.0843463\MP4SDQ=-7.0843466\CCSD=-7.0843754\S2=2
 .000003\S2-1=0.\S2A=2.\RMSD=4.286e-09\PG=C*V [C*(H1Li1)]\\@


 Where a calculator on the ENIAC is equipped with 18,000
 vacuum tubes and weighs 30 tons, computers inthe future
 may  have only 1,000 vacuum tubes and weigh only 1 1/2 tons.
              ---Popular Mechanics, March 1949
 Job cpu time:       0 days  0 hours  0 minutes 35.9 seconds.
 Elapsed time:       0 days  0 hours  0 minutes  1.4 seconds.
 File lengths (MBytes):  RWF=     13 Int=      0 D2E=      0 Chk=      1 Scr=      1
 Normal termination of Gaussian 16 at Mon Mar 28 14:05:26 2022.
