 Entering Gaussian System, Link 0=g16
 Initial command:
 /nopt/nrel/apps/gaussian/g16C_1/g16/l1.exe "/lustre/eaglefs/scratch/user/qc/nah-dissc/nah-1-ccsd-3.0-321g/Gau-5745.inp" -scrdir="/lustre/eaglefs/scratch/user/qc/nah-dissc/nah-1-ccsd-3.0-321g/"
 Default is to use a total of  36 processors:
                               36 via shared-memory
                                1 via Linda
 Entering Link 1 = /nopt/nrel/apps/gaussian/g16C_1/g16/l1.exe PID=      5746.
  
 Copyright (c) 1988-2019, Gaussian, Inc.  All Rights Reserved.
  
 This is part of the Gaussian(R) 16 program.  It is based on
 the Gaussian(R) 09 system (copyright 2009, Gaussian, Inc.),
 the Gaussian(R) 03 system (copyright 2003, Gaussian, Inc.),
 the Gaussian(R) 98 system (copyright 1998, Gaussian, Inc.),
 the Gaussian(R) 94 system (copyright 1995, Gaussian, Inc.),
 the Gaussian 92(TM) system (copyright 1992, Gaussian, Inc.),
 the Gaussian 90(TM) system (copyright 1990, Gaussian, Inc.),
 the Gaussian 88(TM) system (copyright 1988, Gaussian, Inc.),
 the Gaussian 86(TM) system (copyright 1986, Carnegie Mellon
 University), and the Gaussian 82(TM) system (copyright 1983,
 Carnegie Mellon University). Gaussian is a federally registered
 trademark of Gaussian, Inc.
  
 This software contains proprietary and confidential information,
 including trade secrets, belonging to Gaussian, Inc.
  
 This software is provided under written license and may be
 used, copied, transmitted, or stored only in accord with that
 written license.
  
 The following legend is applicable only to US Government
 contracts under FAR:
  
                    RESTRICTED RIGHTS LEGEND
  
 Use, reproduction and disclosure by the US Government is
 subject to restrictions as set forth in subparagraphs (a)
 and (c) of the Commercial Computer Software - Restricted
 Rights clause in FAR 52.227-19.
  
 Gaussian, Inc.
 340 Quinnipiac St., Bldg. 40, Wallingford CT 06492
  
  
 ---------------------------------------------------------------
 Warning -- This program may not be used in any manner that
 competes with the business of Gaussian, Inc. or will provide
 assistance to any competitor of Gaussian, Inc.  The licensee
 of this program is prohibited from giving any competitor of
 Gaussian, Inc. access to this program.  By using this program,
 the user acknowledges that Gaussian, Inc. is engaged in the
 business of creating and licensing software in the field of
 computational chemistry and represents and warrants to the
 licensee that it is not a competitor of Gaussian, Inc. and that
 it will not use this program in any manner prohibited above.
 ---------------------------------------------------------------
  

 Cite this work as:
 Gaussian 16, Revision C.01,
 M. J. Frisch, G. W. Trucks, H. B. Schlegel, G. E. Scuseria, 
 M. A. Robb, J. R. Cheeseman, G. Scalmani, V. Barone, 
 G. A. Petersson, H. Nakatsuji, X. Li, M. Caricato, A. V. Marenich, 
 J. Bloino, B. G. Janesko, R. Gomperts, B. Mennucci, H. P. Hratchian, 
 J. V. Ortiz, A. F. Izmaylov, J. L. Sonnenberg, D. Williams-Young, 
 F. Ding, F. Lipparini, F. Egidi, J. Goings, B. Peng, A. Petrone, 
 T. Henderson, D. Ranasinghe, V. G. Zakrzewski, J. Gao, N. Rega, 
 G. Zheng, W. Liang, M. Hada, M. Ehara, K. Toyota, R. Fukuda, 
 J. Hasegawa, M. Ishida, T. Nakajima, Y. Honda, O. Kitao, H. Nakai, 
 T. Vreven, K. Throssell, J. A. Montgomery, Jr., J. E. Peralta, 
 F. Ogliaro, M. J. Bearpark, J. J. Heyd, E. N. Brothers, K. N. Kudin, 
 V. N. Staroverov, T. A. Keith, R. Kobayashi, J. Normand, 
 K. Raghavachari, A. P. Rendell, J. C. Burant, S. S. Iyengar, 
 J. Tomasi, M. Cossi, J. M. Millam, M. Klene, C. Adamo, R. Cammi, 
 J. W. Ochterski, R. L. Martin, K. Morokuma, O. Farkas, 
 J. B. Foresman, and D. J. Fox, Gaussian, Inc., Wallingford CT, 2019.
 
 ******************************************
 Gaussian 16:  ES64L-G16RevC.01  3-Jul-2019
                28-Mar-2022 
 ******************************************
 %chk=molecule
 Default route: CacheSize=180224 MaxDisk=256GB
 ----------------------------------------------------------------------
 #P CCSD(MaxCyc=200,SaveAmplitudes,ReadAmplitudes)/GEN sp pop=AllOrbita
 ls iop(3/33=1,3/36=-1)
 ----------------------------------------------------------------------
 1/4=180224,38=1,172=1/1;
 2/4=180224,12=2,17=6,18=5,40=1/2;
 3/4=180224,5=7,11=9,25=1,30=1,33=1,36=-1/1,2,3;
 4/4=180224/1;
 5/4=180224,5=2,38=5/2;
 8/4=180224,6=4,9=120000,10=1,24=1/1,4;
 9/4=180224,5=7,6=200,77=1/13;
 6/4=180224,7=2,8=2,9=2,10=2,96=-1/1;
 99/4=180224,5=1,9=1/99;
 Leave Link    1 at Mon Mar 28 14:19:40 2022, MaxMem=           0 cpu:               2.4 elap:               0.1
 (Enter /nopt/nrel/apps/gaussian/g16C_1/g16/l101.exe)
 ----
 test
 ----
 Symbolic Z-matrix:
 Charge =  0 Multiplicity = 1
 H                     0.        0.        0. 
 Na                    0.        0.        3. 
 
 ITRead=  0  0
 MicOpt= -1 -1
 NAtoms=      2 NQM=        2 NQMF=       0 NMMI=      0 NMMIF=      0
                NMic=       0 NMicF=      0.
                    Isotopes and Nuclear Properties:
 (Nuclear quadrupole moments (NQMom) in fm**2, nuclear magnetic moments (NMagM)
  in nuclear magnetons)

  Atom         1           2
 IAtWgt=           1          23
 AtmWgt=   1.0078250  22.9897697
 NucSpn=           1           3
 AtZEff=  -0.0000000  -0.0000000
 NQMom=    0.0000000  10.4000000
 NMagM=    2.7928460   2.2175200
 AtZNuc=   1.0000000  11.0000000
 Leave Link  101 at Mon Mar 28 14:19:40 2022, MaxMem=  9663676416 cpu:               3.0 elap:               0.1
 (Enter /nopt/nrel/apps/gaussian/g16C_1/g16/l202.exe)
                          Input orientation:                          
 ---------------------------------------------------------------------
 Center     Atomic      Atomic             Coordinates (Angstroms)
 Number     Number       Type             X           Y           Z
 ---------------------------------------------------------------------
      1          1           0        0.000000    0.000000    0.000000
      2         11           0        0.000000    0.000000    3.000000
 ---------------------------------------------------------------------
 Stoichiometry    HNa
 Framework group  C*V[C*(HNa)]
 Deg. of freedom     1
 Full point group                 C*V     NOp   4
 Largest Abelian subgroup         C2V     NOp   4
 Largest concise Abelian subgroup C1      NOp   1
                         Standard orientation:                         
 ---------------------------------------------------------------------
 Center     Atomic      Atomic             Coordinates (Angstroms)
 Number     Number       Type             X           Y           Z
 ---------------------------------------------------------------------
      1          1           0        0.000000    0.000000   -2.750000
      2         11           0        0.000000    0.000000    0.250000
 ---------------------------------------------------------------------
 Rotational constants (GHZ):           0.0000000          58.1597647          58.1597647
 Leave Link  202 at Mon Mar 28 14:19:40 2022, MaxMem=  9663676416 cpu:               1.0 elap:               0.1
 (Enter /nopt/nrel/apps/gaussian/g16C_1/g16/l301.exe)
 General basis read from cards:  (5D, 7F)
                         Coordinates in L301:                         
 ---------------------------------------------------------------------
 Center     Atomic      Atomic             Coordinates (Angstroms)
 Number     Number       Type             X           Y           Z
 ---------------------------------------------------------------------
      1          1           0        0.000000    0.000000   -2.750000
      2         11           0        0.000000    0.000000    0.250000
 ---------------------------------------------------------------------
 Centers:       1
 STO-3G
 ****
 Centers:       2
 3-21G
 ****
 FixB: optimizing general contractions.
 Ernie: Thresh=  0.10000D-02 Tol=  0.10000D-05 Strict=F.
 IA=     1 ShT= 0 ShC= 0 NL=   1 NS=   0.
 IA=     1 L=0 SC=0 ISt=    0 NBk=    0 NP=    0 IndPr=    0.
 IA=     2 ShT= 0 ShC= 0 NL=   1 NS=   0.
 IA=     2 L=0 SC=0 ISt=    0 NBk=    0 NP=    0 IndPr=    0.
 IA=     2 ShT= 1 ShC= 0 NL=   3 NS=   1.
 IA=     2 L=1 SC=0 ISt=    1 NBk=    2 NP=    5 IndPr=    0.
 DoElim1:  L=1 select primitive    1 from    2 using    1 C=-1.12D-01
 DoElim2:  L=1 select primitive    5 from    1 using    2 C= 1.09D+00
 DoElim1:  L=1 select primitive    1 from    2 using    1 C= 1.28D-01
 DoElim2:  L=1 select primitive    5 from    1 using    2 C= 9.97D-01
 Delete L=1 primitive    3 from    2 C=  0.00D+00.
 Delete L=1 primitive    2 from    2 C=  0.00D+00.
 Delete L=1 primitive    1 from    2 C=  0.00D+00.
 Delete L=1 primitive    5 from    1 C=  0.00D+00.
 Delete L=1 primitive    4 from    1 C=  0.00D+00.
 IA=     2 L=1 SC=0 ISt=    0 NBk=    0 NP=    0 IndPr=    5.
 LdAtmC:  AtmChg=     1.000000    11.000000
 AtZEff=     -1.0000000    -10.0400000
 NEqShl: 
              1            2            3            4
     1            1            1            1            1
     2            2            2            2            2
     3            3            3            3            3
     4            4            4            4            4
     5            5            5            5            5
 NEqBas: 
              1            2            3            4
     1            1            1            1            1
     2            2            2            2            2
     3            3            3            3            3
     4            4           -4           -4            4
     5            5           -5            5           -5
     6            6            6            6            6
     7            7            7            7            7
     8            8           -8           -8            8
     9            9           -9            9           -9
    10           10           10           10           10
    11           11           11           11           11
    12           12          -12          -12           12
    13           13          -13           13          -13
    14           14           14           14           14
 There are     8 symmetry adapted cartesian basis functions of A1  symmetry.
   1         1   1   1   1
   2         2   2   2   2
   3         3   3   3   3
   4         6   6   6   6
   5         7   7   7   7
   6        10  10  10  10
   7        11  11  11  11
   8        14  14  14  14
 There are     0 symmetry adapted cartesian basis functions of A2  symmetry.
 There are     3 symmetry adapted cartesian basis functions of B1  symmetry.
   9         4   4   4   4
  10         8   8   8   8
  11        12  12  12  12
 There are     3 symmetry adapted cartesian basis functions of B2  symmetry.
  12         5   5   5   5
  13         9   9   9   9
  14        13  13  13  13
 Order= 1 2 4 3
 Reordered character table:
              1            2            3            4            5
     1            1            1            1            1            1
     2            2            1            1           -1           -1
     3            4            1           -1           -1            1
     4            3            1           -1            1           -1
 NEqShl: 
              1            2            3            4
     1            1            1            1            1
     2            2            2            2            2
     3            3            3            3            3
     4            4            4            4            4
     5            5            5            5            5
 NEqBas: 
              1            2            3            4
     1            1            1            1            1
     2            2            2            2            2
     3            3            3            3            3
     4            4           -4           -4            4
     5            5           -5            5           -5
     6            6            6            6            6
     7            7            7            7            7
     8            8           -8           -8            8
     9            9           -9            9           -9
    10           10           10           10           10
    11           11           11           11           11
    12           12          -12          -12           12
    13           13          -13           13          -13
    14           14           14           14           14
 There are     8 symmetry adapted basis functions of A1  symmetry.
   1         1   1   1   1
   2         2   2   2   2
   3         3   3   3   3
   4         6   6   6   6
   5         7   7   7   7
   6        10  10  10  10
   7        11  11  11  11
   8        14  14  14  14
 There are     0 symmetry adapted basis functions of A2  symmetry.
 There are     3 symmetry adapted basis functions of B1  symmetry.
   9         4   4   4   4
  10         8   8   8   8
  11        12  12  12  12
 There are     3 symmetry adapted basis functions of B2  symmetry.
  12         5   5   5   5
  13         9   9   9   9
  14        13  13  13  13
 Order= 1 2 4 3
 Reordered character table:
              1            2            3            4            5
     1            1            1            1            1            1
     2            2            1            1           -1           -1
     3            4            1           -1           -1            1
     4            3            1           -1            1           -1
    14 basis functions,    30 primitive gaussians,    14 cartesian basis functions
     6 alpha electrons        6 beta electrons
       nuclear repulsion energy         1.9403164400 Hartrees.
 IS=     1 IAt=     1 ISR=     1 T=0 IP=      1 IndIP=      1 IndIPD=      0 C=  2.769344D-01  0.000000D+00                             NZ=T
 IS=     1 IAt=     1 ISR=     1 T=0 IP=      2 IndIP=      2 IndIPD=      1 C=  2.678389D-01  0.000000D+00                             NZ=T
 IS=     1 IAt=     1 ISR=     1 T=0 IP=      3 IndIP=      3 IndIPD=      2 C=  8.347367D-02  0.000000D+00                             NZ=T
 IS=     2 IAt=     2 ISR=     1 T=0 IP=      1 IndIP=      4 IndIPD=      0 C=  5.445177D+00  0.000000D+00                             NZ=T
 IS=     2 IAt=     2 ISR=     1 T=0 IP=      2 IndIP=      5 IndIPD=      1 C=  7.646982D+00  0.000000D+00                             NZ=T
 IS=     2 IAt=     2 ISR=     1 T=0 IP=      3 IndIP=      6 IndIPD=      2 C=  4.092173D+00  0.000000D+00                             NZ=T
 IS=     3 IAt=     2 ISR=     2 T=1 IP=      1 IndIP=      7 IndIPD=      0 C= -6.837842D-01  6.561431D+00                             NZ=T
 IS=     3 IAt=     2 ISR=     2 T=1 IP=      2 IndIP=      8 IndIPD=      1 C=  4.933805D-01  3.558943D+00                             NZ=T
 IS=     3 IAt=     2 ISR=     2 T=1 IP=      3 IndIP=      9 IndIPD=      2 C=  5.590773D-01  7.618119D-01                             NZ=T
 IS=     4 IAt=     2 ISR=     3 T=1 IP=      1 IndIP=     10 IndIPD=      0 C= -9.334168D-02  5.458439D-03                             NZ=T
 IS=     4 IAt=     2 ISR=     3 T=1 IP=      2 IndIP=     11 IndIPD=      1 C=  9.521265D-02  4.304303D-02                             NZ=T
 IS=     5 IAt=     2 ISR=     4 T=1 IP=      1 IndIP=     12 IndIPD=      0 C=  4.404717D-02  1.377061D-02                             NZ=T
 IExCor=    0 DFT=F Ex=HF Corr=None ExCW=0 ScaHFX=  1.000000
 ScaDFX=  1.000000  1.000000  1.000000  1.000000 ScalE2=  1.000000  1.000000
 IRadAn=      5 IRanWt=     -1 IRanGd=            0 ICorTp=0 IEmpDi=  4
 NAtoms=    2 NActive=    2 NUniq=    2 SFac= 1.00D+00 NAtFMM=   60 NAOKFM=F Big=F
 Integral buffers will be    131072 words long.
 Raffenetti 1 integral format.
 Two-electron integral symmetry is turned on.
 Leave Link  301 at Mon Mar 28 14:19:40 2022, MaxMem=  9663676416 cpu:               2.2 elap:               0.1
 (Enter /nopt/nrel/apps/gaussian/g16C_1/g16/l302.exe)
 NPDir=0 NMtPBC=     1 NCelOv=     1 NCel=       1 NClECP=     1 NCelD=      1
         NCelK=      1 NCelE2=     1 NClLst=     1 CellRange=     0.0.
 One-electron integrals computed using PRISM.
 One-electron integral symmetry used in STVInt
 Entering OneElI...
 Calculate overlap and kinetic energy integrals
    NBasis =  14  MinDer = 0  MaxDer = 0
 Requested accuracy = 0.1000D-12
 Symmetry will be used
 PrmmSu-InSpLW:  IPartL=    0 NPrtUS=   36 NPrtUL=    1 DoSpLW=F IThBeg=    0 IThEnd=   35 NThAct=   36.
 PrSmSu:  IncTry=   512 NBBP=             15 NTPThr=   100 NPartT=   36 Incr=           1 LDynOK=F GPUOK=F.
 PrsmSu:  NPrtUS=  36 ThrOK=T IAlg=1 LenDen=           0 ISkipM=0 DoSpLW=F IThBeg=    0 IThEnd=   35.
 Prism:   IPart=     0 DynPar=F LinDyn=F Incr=           1.
 PRISM was handed   268433868 working-precision words and    15 shell-pairs
 PRISM was handed   268433868 working-precision words and    15 shell-pairs
 PRISM was handed   268433868 working-precision words and    15 shell-pairs
 PRISM was handed   268433868 working-precision words and    15 shell-pairs
 PRISM was handed   268433868 working-precision words and    15 shell-pairs
 PRISM was handed   268433868 working-precision words and    15 shell-pairs
 PRISM was handed   268433868 working-precision words and    15 shell-pairs
 IPart= 32 NShTot=           0 NBatch=           0 AvBLen=         0.0
 IPart= 16 NShTot=           0 NBatch=           0 AvBLen=         0.0
 IPart= 26 NShTot=           0 NBatch=           0 AvBLen=         0.0
 IPart= 27 NShTot=           0 NBatch=           0 AvBLen=         0.0
 IPart= 34 NShTot=           0 NBatch=           0 AvBLen=         0.0
 IPart= 28 NShTot=           0 NBatch=           0 AvBLen=         0.0
 PRISM was handed   268433868 working-precision words and    15 shell-pairs
 PRISM was handed   268433868 working-precision words and    15 shell-pairs
 PRISM was handed   268433868 working-precision words and    15 shell-pairs
 IPart= 20 NShTot=           0 NBatch=           0 AvBLen=         0.0
 PRISM was handed   268433868 working-precision words and    15 shell-pairs
 PRISM was handed   268433868 working-precision words and    15 shell-pairs
 PRISM was handed   268433868 working-precision words and    15 shell-pairs
 PRISM was handed   268433868 working-precision words and    15 shell-pairs
 IPart= 17 NShTot=           0 NBatch=           0 AvBLen=         0.0
 PRISM was handed   268433868 working-precision words and    15 shell-pairs
 IPart=  2 NShTot=           0 NBatch=           0 AvBLen=         0.0
 IPart= 10 NShTot=           0 NBatch=           0 AvBLen=         0.0
 IPart= 15 NShTot=           0 NBatch=           0 AvBLen=         0.0
 IPart= 18 NShTot=           0 NBatch=           0 AvBLen=         0.0
 PRISM was handed   268433868 working-precision words and    15 shell-pairs
 PRISM was handed   268433868 working-precision words and    15 shell-pairs
 PRISM was handed   268433868 working-precision words and    15 shell-pairs
 IPart=  1 NShTot=           3 NBatch=           3 AvBLen=         1.0
 PRISM was handed   268433868 working-precision words and    15 shell-pairs
 IPart= 12 NShTot=           0 NBatch=           0 AvBLen=         0.0
 PRISM was handed   268433868 working-precision words and    15 shell-pairs
 IPart=  5 NShTot=           0 NBatch=           0 AvBLen=         0.0
 IPart= 35 NShTot=           0 NBatch=           0 AvBLen=         0.0
 IPart= 11 NShTot=           0 NBatch=           0 AvBLen=         0.0
 IPart=  7 NShTot=           0 NBatch=           0 AvBLen=         0.0
 PRISM was handed   268433868 working-precision words and    15 shell-pairs
 PRISM was handed   268433868 working-precision words and    15 shell-pairs
 PRISM was handed   268433868 working-precision words and    15 shell-pairs
 IPart=  6 NShTot=           0 NBatch=           0 AvBLen=         0.0
 PRISM was handed   268433868 working-precision words and    15 shell-pairs
 PRISM was handed   268433868 working-precision words and    15 shell-pairs
 IPart=  0 NShTot=          12 NBatch=          12 AvBLen=         1.0
 PRISM was handed   268433868 working-precision words and    15 shell-pairs
 PRISM was handed   268433868 working-precision words and    15 shell-pairs
 IPart= 24 NShTot=           0 NBatch=           0 AvBLen=         0.0
 IPart= 19 NShTot=           0 NBatch=           0 AvBLen=         0.0
 IPart= 25 NShTot=           0 NBatch=           0 AvBLen=         0.0
 PRISM was handed   268433868 working-precision words and    15 shell-pairs
 PRISM was handed   268433868 working-precision words and    15 shell-pairs
 PRISM was handed   268433868 working-precision words and    15 shell-pairs
 PRISM was handed   268433868 working-precision words and    15 shell-pairs
 PRISM was handed   268433868 working-precision words and    15 shell-pairs
 PRISM was handed   268433868 working-precision words and    15 shell-pairs
 PRISM was handed   268433868 working-precision words and    15 shell-pairs
 PRISM was handed   268433868 working-precision words and    15 shell-pairs
 PRISM was handed   268433868 working-precision words and    15 shell-pairs
 IPart= 13 NShTot=           0 NBatch=           0 AvBLen=         0.0
 IPart= 33 NShTot=           0 NBatch=           0 AvBLen=         0.0
 IPart= 31 NShTot=           0 NBatch=           0 AvBLen=         0.0
 IPart=  3 NShTot=           0 NBatch=           0 AvBLen=         0.0
 IPart=  8 NShTot=           0 NBatch=           0 AvBLen=         0.0
 IPart= 23 NShTot=           0 NBatch=           0 AvBLen=         0.0
 IPart= 21 NShTot=           0 NBatch=           0 AvBLen=         0.0
 IPart= 14 NShTot=           0 NBatch=           0 AvBLen=         0.0
 IPart= 30 NShTot=           0 NBatch=           0 AvBLen=         0.0
 IPart= 22 NShTot=           0 NBatch=           0 AvBLen=         0.0
 IPart=  9 NShTot=           0 NBatch=           0 AvBLen=         0.0
 IPart=  4 NShTot=           0 NBatch=           0 AvBLen=         0.0
 IPart= 29 NShTot=           0 NBatch=           0 AvBLen=         0.0
 PrSmSu:  NxtVal=             37.
 *** Overlap *** 
                1             2             3             4             5 
      1  0.100000D+01
      2  0.138680D-03  0.100000D+01
      3  0.254691D-02  0.226762D+00  0.100000D+01
      4  0.000000D+00  0.000000D+00  0.000000D+00  0.100000D+01
      5  0.000000D+00  0.000000D+00  0.000000D+00  0.000000D+00  0.100000D+01
      6 -0.321495D-02  0.000000D+00  0.000000D+00  0.000000D+00  0.000000D+00
      7  0.139229D+00  0.175172D-02  0.143132D+00  0.000000D+00  0.000000D+00
      8  0.000000D+00  0.000000D+00  0.000000D+00  0.120813D+00  0.000000D+00
      9  0.000000D+00  0.000000D+00  0.000000D+00  0.000000D+00  0.120813D+00
     10 -0.285990D+00  0.000000D+00  0.000000D+00  0.000000D+00  0.000000D+00
     11  0.185281D+00  0.160858D-01  0.166618D+00  0.000000D+00  0.000000D+00
     12  0.000000D+00  0.000000D+00  0.000000D+00  0.399192D-01  0.000000D+00
     13  0.000000D+00  0.000000D+00  0.000000D+00  0.000000D+00  0.399192D-01
     14 -0.297196D+00  0.000000D+00  0.000000D+00  0.000000D+00  0.000000D+00
                6             7             8             9            10 
      6  0.100000D+01
      7  0.000000D+00  0.100000D+01
      8  0.000000D+00  0.000000D+00  0.100000D+01
      9  0.000000D+00  0.000000D+00  0.000000D+00  0.100000D+01
     10  0.120813D+00  0.000000D+00  0.000000D+00  0.000000D+00  0.100000D+01
     11  0.000000D+00  0.876080D+00  0.000000D+00  0.000000D+00  0.000000D+00
     12  0.000000D+00  0.000000D+00  0.775774D+00  0.000000D+00  0.000000D+00
     13  0.000000D+00  0.000000D+00  0.000000D+00  0.775774D+00  0.000000D+00
     14  0.399192D-01  0.000000D+00  0.000000D+00  0.000000D+00  0.775774D+00
               11            12            13            14 
     11  0.100000D+01
     12  0.000000D+00  0.100000D+01
     13  0.000000D+00  0.000000D+00  0.100000D+01
     14  0.000000D+00  0.000000D+00  0.000000D+00  0.100000D+01
 *** Kinetic Energy *** 
                1             2             3             4             5 
      1  0.760032D+00
      2 -0.180318D-03  0.570648D+02
      3 -0.229334D-02 -0.145971D+01  0.183414D+01
      4  0.000000D+00  0.000000D+00  0.000000D+00  0.585712D+01
      5  0.000000D+00  0.000000D+00  0.000000D+00  0.000000D+00  0.585712D+01
      6  0.204284D-02  0.000000D+00  0.000000D+00  0.000000D+00  0.000000D+00
      7 -0.336266D-04 -0.420609D-01 -0.141303D+00  0.000000D+00  0.000000D+00
      8  0.000000D+00  0.000000D+00  0.000000D+00  0.441422D-01  0.000000D+00
      9  0.000000D+00  0.000000D+00  0.000000D+00  0.000000D+00  0.441422D-01
     10 -0.253608D-01  0.000000D+00  0.000000D+00  0.000000D+00  0.000000D+00
     11  0.645423D-02  0.117775D-02  0.119127D-01  0.000000D+00  0.000000D+00
     12  0.000000D+00  0.000000D+00  0.000000D+00  0.476129D-02  0.000000D+00
     13  0.000000D+00  0.000000D+00  0.000000D+00  0.000000D+00  0.476129D-02
     14 -0.235293D-01  0.000000D+00  0.000000D+00  0.000000D+00  0.000000D+00
                6             7             8             9            10 
      6  0.585712D+01
      7  0.000000D+00  0.106538D+00
      8  0.000000D+00  0.000000D+00  0.153112D+00
      9  0.000000D+00  0.000000D+00  0.000000D+00  0.153112D+00
     10  0.441422D-01  0.000000D+00  0.000000D+00  0.000000D+00  0.153112D+00
     11  0.000000D+00  0.447876D-01  0.000000D+00  0.000000D+00  0.000000D+00
     12  0.000000D+00  0.000000D+00  0.676855D-01  0.000000D+00  0.000000D+00
     13  0.000000D+00  0.000000D+00  0.000000D+00  0.676855D-01  0.000000D+00
     14  0.476129D-02  0.000000D+00  0.000000D+00  0.000000D+00  0.676855D-01
               11            12            13            14 
     11  0.366524D-01
     12  0.000000D+00  0.610873D-01
     13  0.000000D+00  0.000000D+00  0.610873D-01
     14  0.000000D+00  0.000000D+00  0.000000D+00  0.610873D-01
 Entering OneElI...
 Calculate potential energy integrals
    NBasis =  14  MinDer = 0  MaxDer = 0
 Requested accuracy = 0.1000D-12
 Symmetry will be used
 PrmmSu-InSpLW:  IPartL=    0 NPrtUS=   36 NPrtUL=    1 DoSpLW=F IThBeg=    0 IThEnd=   35 NThAct=   36.
 PrSmSu:  IncTry=   512 NBBP=             30 NTPThr=   100 NPartT=   36 Incr=           1 LDynOK=F GPUOK=F.
 PrsmSu:  NPrtUS=  36 ThrOK=T IAlg=1 LenDen=           0 ISkipM=0 DoSpLW=F IThBeg=    0 IThEnd=   35.
 Prism:   IPart=     0 DynPar=F LinDyn=F Incr=           1.
 PRISM was handed   268433958 working-precision words and    15 shell-pairs
 PRISM was handed   268433958 working-precision words and    15 shell-pairs
 PRISM was handed   268433958 working-precision words and    15 shell-pairs
 PRISM was handed   268433958 working-precision words and    15 shell-pairs
 PRISM was handed   268433958 working-precision words and    15 shell-pairs
 PRISM was handed   268433958 working-precision words and    15 shell-pairs
 PRISM was handed   268433958 working-precision words and    15 shell-pairs
 PRISM was handed   268433958 working-precision words and    15 shell-pairs
 PRISM was handed   268433958 working-precision words and    15 shell-pairs
 PRISM was handed   268433958 working-precision words and    15 shell-pairs
 PRISM was handed   268433958 working-precision words and    15 shell-pairs
 PRISM was handed   268433958 working-precision words and    15 shell-pairs
 PRISM was handed   268433958 working-precision words and    15 shell-pairs
 PRISM was handed   268433958 working-precision words and    15 shell-pairs
 PRISM was handed   268433958 working-precision words and    15 shell-pairs
 PRISM was handed   268433958 working-precision words and    15 shell-pairs
 PRISM was handed   268433958 working-precision words and    15 shell-pairs
 PRISM was handed   268433958 working-precision words and    15 shell-pairs
 PRISM was handed   268433958 working-precision words and    15 shell-pairs
 PRISM was handed   268433958 working-precision words and    15 shell-pairs
 PRISM was handed   268433958 working-precision words and    15 shell-pairs
 PRISM was handed   268433958 working-precision words and    15 shell-pairs
 PRISM was handed   268433958 working-precision words and    15 shell-pairs
 PRISM was handed   268433958 working-precision words and    15 shell-pairs
 PRISM was handed   268433958 working-precision words and    15 shell-pairs
 PRISM was handed   268433958 working-precision words and    15 shell-pairs
 PRISM was handed   268433958 working-precision words and    15 shell-pairs
 PRISM was handed   268433958 working-precision words and    15 shell-pairs
 PRISM was handed   268433958 working-precision words and    15 shell-pairs
 PRISM was handed   268433958 working-precision words and    15 shell-pairs
 PRISM was handed   268433958 working-precision words and    15 shell-pairs
 PRISM was handed   268433958 working-precision words and    15 shell-pairs
 PRISM was handed   268433958 working-precision words and    15 shell-pairs
 PRISM was handed   268433958 working-precision words and    15 shell-pairs
 PRISM was handed   268433958 working-precision words and    15 shell-pairs
 PRISM was handed   268433958 working-precision words and    15 shell-pairs
 IPart=  1 NShTot=           6 NBatch=           3 AvBLen=         2.0
 IPart=  0 NShTot=          24 NBatch=          12 AvBLen=         2.0
 IPart=  7 NShTot=           0 NBatch=           0 AvBLen=         0.0
 IPart= 30 NShTot=           0 NBatch=           0 AvBLen=         0.0
 IPart= 22 NShTot=           0 NBatch=           0 AvBLen=         0.0
 IPart= 15 NShTot=           0 NBatch=           0 AvBLen=         0.0
 IPart= 34 NShTot=           0 NBatch=           0 AvBLen=         0.0
 IPart=  8 NShTot=           0 NBatch=           0 AvBLen=         0.0
 IPart=  6 NShTot=           0 NBatch=           0 AvBLen=         0.0
 IPart= 19 NShTot=           0 NBatch=           0 AvBLen=         0.0
 IPart=  5 NShTot=           0 NBatch=           0 AvBLen=         0.0
 IPart=  2 NShTot=           0 NBatch=           0 AvBLen=         0.0
 IPart= 16 NShTot=           0 NBatch=           0 AvBLen=         0.0
 IPart= 31 NShTot=           0 NBatch=           0 AvBLen=         0.0
 IPart=  3 NShTot=           0 NBatch=           0 AvBLen=         0.0
 IPart= 27 NShTot=           0 NBatch=           0 AvBLen=         0.0
 IPart=  4 NShTot=           0 NBatch=           0 AvBLen=         0.0
 IPart= 29 NShTot=           0 NBatch=           0 AvBLen=         0.0
 IPart= 23 NShTot=           0 NBatch=           0 AvBLen=         0.0
 IPart= 35 NShTot=           0 NBatch=           0 AvBLen=         0.0
 IPart= 21 NShTot=           0 NBatch=           0 AvBLen=         0.0
 IPart= 32 NShTot=           0 NBatch=           0 AvBLen=         0.0
 IPart= 14 NShTot=           0 NBatch=           0 AvBLen=         0.0
 IPart= 17 NShTot=           0 NBatch=           0 AvBLen=         0.0
 IPart= 24 NShTot=           0 NBatch=           0 AvBLen=         0.0
 IPart= 13 NShTot=           0 NBatch=           0 AvBLen=         0.0
 IPart= 18 NShTot=           0 NBatch=           0 AvBLen=         0.0
 IPart=  9 NShTot=           0 NBatch=           0 AvBLen=         0.0
 IPart= 33 NShTot=           0 NBatch=           0 AvBLen=         0.0
 IPart= 12 NShTot=           0 NBatch=           0 AvBLen=         0.0
 IPart= 11 NShTot=           0 NBatch=           0 AvBLen=         0.0
 IPart= 25 NShTot=           0 NBatch=           0 AvBLen=         0.0
 IPart= 26 NShTot=           0 NBatch=           0 AvBLen=         0.0
 IPart= 28 NShTot=           0 NBatch=           0 AvBLen=         0.0
 IPart= 20 NShTot=           0 NBatch=           0 AvBLen=         0.0
 IPart= 10 NShTot=           0 NBatch=           0 AvBLen=         0.0
 PrSmSu:  NxtVal=             37.
 ***** Potential Energy ***** 
                1             2             3             4             5 
      1  0.316693D+01
      2  0.866775D-02  0.117331D+03
      3  0.272185D-01  0.127827D+02  0.182926D+02
      4  0.000000D+00  0.000000D+00  0.000000D+00  0.188128D+02
      5  0.000000D+00  0.000000D+00  0.000000D+00  0.000000D+00  0.188128D+02
      6 -0.269693D-01 -0.117347D-02 -0.137413D-01  0.000000D+00  0.000000D+00
      7  0.424382D+00  0.827379D-01  0.135735D+01  0.000000D+00  0.000000D+00
      8  0.000000D+00  0.000000D+00  0.000000D+00  0.116183D+01  0.000000D+00
      9  0.000000D+00  0.000000D+00  0.000000D+00  0.000000D+00  0.116183D+01
     10 -0.833069D+00 -0.133895D-04 -0.244408D-02  0.000000D+00  0.000000D+00
     11  0.519159D+00  0.101988D+01  0.213264D+01  0.000000D+00  0.000000D+00
     12  0.000000D+00  0.000000D+00  0.000000D+00  0.370034D+00  0.000000D+00
     13  0.000000D+00  0.000000D+00  0.000000D+00  0.000000D+00  0.370034D+00
     14 -0.792229D+00 -0.384553D-05 -0.817746D-03  0.000000D+00  0.000000D+00
                6             7             8             9            10 
      6  0.188153D+02
      7 -0.446605D-02  0.373266D+01
      8  0.000000D+00  0.000000D+00  0.306188D+01
      9  0.000000D+00  0.000000D+00  0.000000D+00  0.306188D+01
     10  0.116274D+01 -0.637311D-01  0.000000D+00  0.000000D+00  0.311800D+01
     11 -0.397289D-02  0.300629D+01  0.000000D+00  0.000000D+00 -0.664634D-01
     12  0.000000D+00  0.000000D+00  0.199226D+01  0.000000D+00  0.000000D+00
     13  0.000000D+00  0.000000D+00  0.000000D+00  0.199226D+01  0.000000D+00
     14  0.370353D+00 -0.453372D-01  0.000000D+00  0.000000D+00  0.204014D+01
               11            12            13            14 
     11  0.290683D+01
     12  0.000000D+00  0.195684D+01
     13  0.000000D+00  0.000000D+00  0.195684D+01
     14 -0.626651D-01  0.000000D+00  0.000000D+00  0.201104D+01
 ****** Core Hamiltonian ****** 
                1             2             3             4             5 
      1 -0.240690D+01
      2 -0.884807D-02 -0.602659D+02
      3 -0.295118D-01 -0.142424D+02 -0.164585D+02
      4  0.000000D+00  0.000000D+00  0.000000D+00 -0.129557D+02
      5  0.000000D+00  0.000000D+00  0.000000D+00  0.000000D+00 -0.129557D+02
      6  0.290122D-01  0.117347D-02  0.137413D-01  0.000000D+00  0.000000D+00
      7 -0.424416D+00 -0.124799D+00 -0.149865D+01  0.000000D+00  0.000000D+00
      8  0.000000D+00  0.000000D+00  0.000000D+00 -0.111769D+01  0.000000D+00
      9  0.000000D+00  0.000000D+00  0.000000D+00  0.000000D+00 -0.111769D+01
     10  0.807708D+00  0.133895D-04  0.244408D-02  0.000000D+00  0.000000D+00
     11 -0.512705D+00 -0.101871D+01 -0.212072D+01  0.000000D+00  0.000000D+00
     12  0.000000D+00  0.000000D+00  0.000000D+00 -0.365272D+00  0.000000D+00
     13  0.000000D+00  0.000000D+00  0.000000D+00  0.000000D+00 -0.365272D+00
     14  0.768699D+00  0.384553D-05  0.817746D-03  0.000000D+00  0.000000D+00
                6             7             8             9            10 
      6 -0.129582D+02
      7  0.446605D-02 -0.362612D+01
      8  0.000000D+00  0.000000D+00 -0.290877D+01
      9  0.000000D+00  0.000000D+00  0.000000D+00 -0.290877D+01
     10 -0.111859D+01  0.637311D-01  0.000000D+00  0.000000D+00 -0.296489D+01
     11  0.397289D-02 -0.296151D+01  0.000000D+00  0.000000D+00  0.664634D-01
     12  0.000000D+00  0.000000D+00 -0.192457D+01  0.000000D+00  0.000000D+00
     13  0.000000D+00  0.000000D+00  0.000000D+00 -0.192457D+01  0.000000D+00
     14 -0.365592D+00  0.453372D-01  0.000000D+00  0.000000D+00 -0.197245D+01
               11            12            13            14 
     11 -0.287017D+01
     12  0.000000D+00 -0.189575D+01
     13  0.000000D+00  0.000000D+00 -0.189575D+01
     14  0.626651D-01  0.000000D+00  0.000000D+00 -0.194996D+01
 SVDSVc IOpt=   1 NormSV=T IR=1
 SVDSVc V= 2.05D+00 1.88D+00 1.19D+00 1.00D+00 7.92D-01 7.36D-01 2.20D-01 1.22D-01
 SVDSVc IOpt=   1 NormSV=T IR=3
 SVDSVc V= 1.79D+00 9.88D-01 2.20D-01
 SVDSVc IOpt=   1 NormSV=T IR=4
 SVDSVc V= 1.79D+00 9.88D-01 2.20D-01
 TstOVc:  Largest diagonal error= 1.78D-15 IB=3 I=   11.
 TstOVc:  Largest same sym error= 8.20D-16 IB=1 I=    4 J=    3.
 TstOVc:  Largest diff sym error= 0.00D+00 IB=0 JB=0 I=    0 J=    0.
 Orthogonalized basis functions: 
                 1             2             3             4             5 
      1   0.267238D+00 -0.113657D+00 -0.822890D-01  0.201687D+00  0.820652D+00
      2   0.287050D-01  0.402843D-01  0.672084D+00  0.494046D-01  0.474401D+00
      3   0.106360D+00  0.129934D+00  0.586913D+00  0.242438D-02 -0.432864D+00
      4   0.000000D+00  0.000000D+00  0.000000D+00  0.000000D+00  0.000000D+00
      5   0.000000D+00  0.000000D+00  0.000000D+00  0.000000D+00  0.000000D+00
      6  -0.456111D-01  0.665146D-01 -0.299974D-01  0.973461D+00 -0.184612D+00
      7   0.334360D+00  0.341940D+00 -0.131813D+00 -0.440058D-01 -0.906482D-01
      8   0.000000D+00  0.000000D+00  0.000000D+00  0.000000D+00  0.000000D+00
      9   0.000000D+00  0.000000D+00  0.000000D+00  0.000000D+00  0.000000D+00
     10  -0.293759D+00  0.363358D+00 -0.388860D-01  0.272194D-01  0.253182D+00
     11   0.342244D+00  0.341027D+00 -0.113486D+00 -0.325247D-01 -0.390929D-01
     12   0.000000D+00  0.000000D+00  0.000000D+00  0.000000D+00  0.000000D+00
     13   0.000000D+00  0.000000D+00  0.000000D+00  0.000000D+00  0.000000D+00
     14  -0.293379D+00  0.360880D+00 -0.354363D-01 -0.772628D-01  0.263295D+00
                 6             7             8             9            10 
      1   0.576991D+00 -0.194467D-01 -0.127067D+00  0.000000D+00  0.000000D+00
      2  -0.611065D+00  0.231851D-03 -0.192096D-01  0.000000D+00  0.000000D+00
      3   0.722912D+00 -0.641502D-03 -0.546216D-01  0.000000D+00  0.000000D+00
      4   0.000000D+00  0.000000D+00  0.000000D+00  0.106366D+00  0.993078D+00
      5   0.000000D+00  0.000000D+00  0.000000D+00  0.000000D+00  0.000000D+00
      6  -0.956366D-01 -0.156926D+00  0.313692D-02  0.000000D+00  0.000000D+00
      7  -0.203967D+00  0.668885D-02 -0.200443D+01  0.000000D+00  0.000000D+00
      8   0.000000D+00  0.000000D+00  0.000000D+00  0.525558D+00 -0.486986D-01
      9   0.000000D+00  0.000000D+00  0.000000D+00  0.000000D+00  0.000000D+00
     10   0.167971D+00  0.150808D+01 -0.168302D-01  0.000000D+00  0.000000D+00
     11  -0.147133D+00 -0.276093D-02  0.203778D+01  0.000000D+00  0.000000D+00
     12   0.000000D+00  0.000000D+00  0.000000D+00  0.520070D+00 -0.153894D+00
     13   0.000000D+00  0.000000D+00  0.000000D+00  0.000000D+00  0.000000D+00
     14   0.170454D+00 -0.149916D+01 -0.282861D-01  0.000000D+00  0.000000D+00
                11            12            13            14 
      1   0.000000D+00  0.000000D+00  0.000000D+00  0.000000D+00
      2   0.000000D+00  0.000000D+00  0.000000D+00  0.000000D+00
      3   0.000000D+00  0.000000D+00  0.000000D+00  0.000000D+00
      4  -0.157598D+00  0.000000D+00  0.000000D+00  0.000000D+00
      5   0.000000D+00  0.106366D+00  0.993078D+00 -0.157598D+00
      6   0.000000D+00  0.000000D+00  0.000000D+00  0.000000D+00
      7   0.000000D+00  0.000000D+00  0.000000D+00  0.000000D+00
      8   0.151160D+01  0.000000D+00  0.000000D+00  0.000000D+00
      9   0.000000D+00  0.525558D+00 -0.486986D-01  0.151160D+01
     10   0.000000D+00  0.000000D+00  0.000000D+00  0.000000D+00
     11   0.000000D+00  0.000000D+00  0.000000D+00  0.000000D+00
     12  -0.149532D+01  0.000000D+00  0.000000D+00  0.000000D+00
     13   0.000000D+00  0.520070D+00 -0.153894D+00 -0.149532D+01
     14   0.000000D+00  0.000000D+00  0.000000D+00  0.000000D+00
 NBasis=    14 RedAO= T EigKep=  1.22D-01  NBF=     8     0     3     3
 NBsUse=    14 1.00D-06 EigRej= -1.00D+00 NBFU=     8     0     3     3
 Leave Link  302 at Mon Mar 28 14:19:40 2022, MaxMem=  9663676416 cpu:               3.2 elap:               0.1
 (Enter /nopt/nrel/apps/gaussian/g16C_1/g16/l303.exe)
 DipDrv will not compute anything.
 Fermi contact integrals: 
                 1             2 
      1   0.628247D+00  0.366994D-03
      2   0.000000D+00  0.171843D+02
      3   0.000000D+00  0.368674D+00
      4   0.000000D+00  0.000000D+00
      5   0.000000D+00  0.000000D+00
      6   0.000000D+00  0.000000D+00
      7   0.134280D-01  0.187097D-02
      8   0.000000D+00  0.000000D+00
      9   0.000000D+00  0.000000D+00
     10  -0.344143D-01  0.000000D+00
     11   0.200842D-01  0.440472D-01
     12   0.000000D+00  0.000000D+00
     13   0.000000D+00  0.000000D+00
     14  -0.355967D-01  0.000000D+00
 Leave Link  303 at Mon Mar 28 14:19:40 2022, MaxMem=  9663676416 cpu:               1.1 elap:               0.1
 (Enter /nopt/nrel/apps/gaussian/g16C_1/g16/l401.exe)
 ExpMin= 2.44D-02 ExpMax= 5.48D+02 ExpMxC= 5.48D+02 IAcc=3 IRadAn=         5 AccDes= 0.00D+00
 Harris functional with IExCor=  205 and IRadAn=       5 diagonalized for initial guess.
 HarFok:  IExCor=  205 AccDes= 0.00D+00 IRadAn=         5 IDoV= 1 UseB2=F ITyADJ=14
 ICtDFT=  3500011 ScaDFX=  1.000000  1.000000  1.000000  1.000000
 FoFCou: FMM=F IPFlag=           0 FMFlag=      100000 FMFlg1=           0
         NFxFlg=           0 DoJE=T BraDBF=F KetDBF=T FulRan=T
         wScrn=  0.000000 ICntrl=       500 IOpCl=  0 I1Cent=   200000004 NGrid=           0
         NMat0=    1 NMatS0=      1 NMatT0=    0 NMatD0=    1 NMtDS0=    0 NMtDT0=    0
 Petite list used in FoFCou.
 Harris En= -161.165066600443    
 JPrj=0 DoOrth=F DoCkMO=F.
 Initial guess orbital symmetries:
       Occupied  (SG) (SG) (SG) (PI) (PI) (SG)
       Virtual   (SG) (PI) (PI) (SG) (SG) (SG) (PI) (PI)
 The electronic state of the initial guess is 1-SG.
 Leave Link  401 at Mon Mar 28 14:19:40 2022, MaxMem=  9663676416 cpu:               3.9 elap:               0.1
 (Enter /nopt/nrel/apps/gaussian/g16C_1/g16/l502.exe)
 Keep R1 ints in memory in symmetry-blocked form, NReq=7213017.
 FoFCou: FMM=F IPFlag=           0 FMFlag=           0 FMFlg1=           0
         NFxFlg=           0 DoJE=F BraDBF=F KetDBF=F FulRan=T
         wScrn=  0.000000 ICntrl=       600 IOpCl=  0 I1Cent=           0 NGrid=           0
         NMat0=    1 NMatS0=    105 NMatT0=    0 NMatD0=    1 NMtDS0=    0 NMtDT0=    0
 Petite list used in FoFCou.
 Closed shell SCF:
 Using DIIS extrapolation, IDIIS=  1040.
 NGot=  9663676416 LenX=  9663671753 LenY=  9663670871
 Requested convergence on RMS density matrix=1.00D-08 within 128 cycles.
 Requested convergence on MAX density matrix=1.00D-06.
 Requested convergence on             energy=1.00D-06.
 No special actions if energy rises.

 Cycle   1  Pass 1  IDiag  1:
 E= -161.235444658633    
 DIIS: error= 4.32D-02 at cycle   1 NSaved=   1.
 NSaved= 1 IEnMin= 1 EnMin= -161.235444658633     IErMin= 1 ErrMin= 4.32D-02
 ErrMax= 4.32D-02  0.00D+00 EMaxC= 1.00D-01 BMatC= 2.06D-02 BMatP= 2.06D-02
 IDIUse=3 WtCom= 5.68D-01 WtEn= 4.32D-01
 Coeff-Com:  0.100D+01
 Coeff-En:   0.100D+01
 Coeff:      0.100D+01
 Gap=     0.107 Goal=   None    Shift=    0.000
 GapD=    0.107 DampG=1.000 DampE=0.500 DampFc=0.5000 IDamp=-1.
 Damping current iteration by 5.00D-01
 RMSDP=2.93D-02 MaxDP=3.21D-01              OVMax= 1.37D-02

 Cycle   2  Pass 1  IDiag  1:
 E= -161.269423238459     Delta-E=       -0.033978579827 Rises=F Damp=T
 DIIS: error= 1.75D-02 at cycle   2 NSaved=   2.
 NSaved= 2 IEnMin= 2 EnMin= -161.269423238459     IErMin= 2 ErrMin= 1.75D-02
 ErrMax= 1.75D-02  0.00D+00 EMaxC= 1.00D-01 BMatC= 4.14D-03 BMatP= 2.06D-02
 IDIUse=3 WtCom= 8.25D-01 WtEn= 1.75D-01
 Coeff-Com: -0.785D+00 0.178D+01
 Coeff-En:   0.000D+00 0.100D+01
 Coeff:     -0.648D+00 0.165D+01
 Gap=     0.205 Goal=   None    Shift=    0.000
 RMSDP=1.03D-02 MaxDP=1.08D-01 DE=-3.40D-02 OVMax= 5.25D-04

 Cycle   3  Pass 1  IDiag  1:
 E= -161.299923338219     Delta-E=       -0.030500099760 Rises=F Damp=F
 DIIS: error= 3.15D-04 at cycle   3 NSaved=   3.
 NSaved= 3 IEnMin= 3 EnMin= -161.299923338219     IErMin= 3 ErrMin= 3.15D-04
 ErrMax= 3.15D-04  0.00D+00 EMaxC= 1.00D-01 BMatC= 3.00D-06 BMatP= 4.14D-03
 IDIUse=3 WtCom= 9.97D-01 WtEn= 3.15D-03
 Coeff-Com:  0.455D-01-0.119D+00 0.107D+01
 Coeff-En:   0.000D+00 0.000D+00 0.100D+01
 Coeff:      0.453D-01-0.119D+00 0.107D+01
 Gap=     0.208 Goal=   None    Shift=    0.000
 RMSDP=3.00D-04 MaxDP=1.60D-03 DE=-3.05D-02 OVMax= 3.00D-04

 Cycle   4  Pass 1  IDiag  1:
 E= -161.299929968896     Delta-E=       -0.000006630677 Rises=F Damp=F
 DIIS: error= 7.68D-05 at cycle   4 NSaved=   4.
 NSaved= 4 IEnMin= 4 EnMin= -161.299929968896     IErMin= 4 ErrMin= 7.68D-05
 ErrMax= 7.68D-05  0.00D+00 EMaxC= 1.00D-01 BMatC= 6.80D-08 BMatP= 3.00D-06
 IDIUse=1 WtCom= 1.00D+00 WtEn= 0.00D+00
 Coeff-Com: -0.157D-01 0.370D-01-0.226D+00 0.120D+01
 Coeff:     -0.157D-01 0.370D-01-0.226D+00 0.120D+01
 Gap=     0.208 Goal=   None    Shift=    0.000
 RMSDP=9.43D-05 MaxDP=5.51D-04 DE=-6.63D-06 OVMax= 2.09D-05

 Cycle   5  Pass 1  IDiag  1:
 E= -161.299930629449     Delta-E=       -0.000000660553 Rises=F Damp=F
 DIIS: error= 3.18D-05 at cycle   5 NSaved=   5.
 NSaved= 5 IEnMin= 5 EnMin= -161.299930629449     IErMin= 5 ErrMin= 3.18D-05
 ErrMax= 3.18D-05  0.00D+00 EMaxC= 1.00D-01 BMatC= 9.77D-09 BMatP= 6.80D-08
 IDIUse=1 WtCom= 1.00D+00 WtEn= 0.00D+00
 Coeff-Com: -0.135D-02 0.270D-02 0.899D-02-0.493D+00 0.148D+01
 Coeff:     -0.135D-02 0.270D-02 0.899D-02-0.493D+00 0.148D+01
 Gap=     0.208 Goal=   None    Shift=    0.000
 RMSDP=4.28D-05 MaxDP=2.27D-04 DE=-6.61D-07 OVMax= 1.83D-06

 Cycle   6  Pass 1  IDiag  1:
 E= -161.299930752343     Delta-E=       -0.000000122893 Rises=F Damp=F
 DIIS: error= 6.70D-06 at cycle   6 NSaved=   6.
 NSaved= 6 IEnMin= 6 EnMin= -161.299930752343     IErMin= 6 ErrMin= 6.70D-06
 ErrMax= 6.70D-06  0.00D+00 EMaxC= 1.00D-01 BMatC= 3.67D-10 BMatP= 9.77D-09
 IDIUse=1 WtCom= 1.00D+00 WtEn= 0.00D+00
 Coeff-Com: -0.823D-04 0.335D-03-0.112D-01 0.270D+00-0.884D+00 0.163D+01
 Coeff:     -0.823D-04 0.335D-03-0.112D-01 0.270D+00-0.884D+00 0.163D+01
 Gap=     0.208 Goal=   None    Shift=    0.000
 RMSDP=9.93D-06 MaxDP=5.26D-05 DE=-1.23D-07 OVMax= 1.52D-07

 Cycle   7  Pass 1  IDiag  1:
 E= -161.299930757960     Delta-E=       -0.000000005617 Rises=F Damp=F
 DIIS: error= 4.70D-07 at cycle   7 NSaved=   7.
 NSaved= 7 IEnMin= 7 EnMin= -161.299930757960     IErMin= 7 ErrMin= 4.70D-07
 ErrMax= 4.70D-07  0.00D+00 EMaxC= 1.00D-01 BMatC= 2.61D-12 BMatP= 3.67D-10
 IDIUse=1 WtCom= 1.00D+00 WtEn= 0.00D+00
 Coeff-Com: -0.136D-04 0.136D-04 0.111D-02-0.347D-01 0.124D+00-0.312D+00
 Coeff-Com:  0.122D+01
 Coeff:     -0.136D-04 0.136D-04 0.111D-02-0.347D-01 0.124D+00-0.312D+00
 Coeff:      0.122D+01
 Gap=     0.208 Goal=   None    Shift=    0.000
 RMSDP=9.69D-07 MaxDP=5.89D-06 DE=-5.62D-09 OVMax= 2.34D-07

 Cycle   8  Pass 1  IDiag  1:
 E= -161.299930757993     Delta-E=       -0.000000000034 Rises=F Damp=F
 DIIS: error= 3.46D-08 at cycle   8 NSaved=   8.
 NSaved= 8 IEnMin= 8 EnMin= -161.299930757993     IErMin= 8 ErrMin= 3.46D-08
 ErrMax= 3.46D-08  0.00D+00 EMaxC= 1.00D-01 BMatC= 1.04D-14 BMatP= 2.61D-12
 IDIUse=1 WtCom= 1.00D+00 WtEn= 0.00D+00
 Coeff-Com:  0.463D-05-0.705D-05-0.224D-03 0.755D-02-0.276D-01 0.700D-01
 Coeff-Com: -0.307D+00 0.126D+01
 Coeff:      0.463D-05-0.705D-05-0.224D-03 0.755D-02-0.276D-01 0.700D-01
 Coeff:     -0.307D+00 0.126D+01
 Gap=     0.208 Goal=   None    Shift=    0.000
 RMSDP=7.13D-08 MaxDP=4.15D-07 DE=-3.35D-11 OVMax= 8.89D-09

 Cycle   9  Pass 1  IDiag  1:
 E= -161.299930757993     Delta-E=       -0.000000000000 Rises=F Damp=F
 DIIS: error= 6.51D-09 at cycle   9 NSaved=   9.
 NSaved= 9 IEnMin= 9 EnMin= -161.299930757993     IErMin= 9 ErrMin= 6.51D-09
 ErrMax= 6.51D-09  0.00D+00 EMaxC= 1.00D-01 BMatC= 4.52D-16 BMatP= 1.04D-14
 IDIUse=1 WtCom= 1.00D+00 WtEn= 0.00D+00
 Coeff-Com: -0.689D-06 0.851D-06 0.498D-04-0.158D-02 0.592D-02-0.143D-01
 Coeff-Com:  0.668D-01-0.335D+00 0.128D+01
 Coeff:     -0.689D-06 0.851D-06 0.498D-04-0.158D-02 0.592D-02-0.143D-01
 Coeff:      0.668D-01-0.335D+00 0.128D+01
 Gap=     0.208 Goal=   None    Shift=    0.000
 RMSDP=1.33D-08 MaxDP=9.95D-08 DE=-8.53D-14 OVMax= 9.32D-10

 Cycle  10  Pass 1  IDiag  1:
 E= -161.299930757993     Delta-E=       -0.000000000000 Rises=F Damp=F
 DIIS: error= 7.28D-10 at cycle  10 NSaved=  10.
 NSaved=10 IEnMin=10 EnMin= -161.299930757993     IErMin=10 ErrMin= 7.28D-10
 ErrMax= 7.28D-10  0.00D+00 EMaxC= 1.00D-01 BMatC= 7.80D-18 BMatP= 4.52D-16
 IDIUse=1 WtCom= 1.00D+00 WtEn= 0.00D+00
 Coeff-Com: -0.306D-09 0.125D-07-0.153D-05 0.403D-04-0.188D-03 0.297D-03
 Coeff-Com: -0.230D-02 0.172D-01-0.178D+00 0.116D+01
 Coeff:     -0.306D-09 0.125D-07-0.153D-05 0.403D-04-0.188D-03 0.297D-03
 Coeff:     -0.230D-02 0.172D-01-0.178D+00 0.116D+01
 Gap=     0.208 Goal=   None    Shift=    0.000
 RMSDP=1.76D-09 MaxDP=1.05D-08 DE=-5.68D-14 OVMax= 1.10D-10

 SCF Done:  E(RHF) =  -161.299930758     A.U. after   10 cycles
            NFock= 10  Conv=0.18D-08     -V/T= 2.0036
 KE= 1.607234176461D+02 PE=-3.913868694078D+02 EE= 6.742320456366D+01
 Leave Link  502 at Mon Mar 28 14:19:40 2022, MaxMem=  9663676416 cpu:               4.6 elap:               0.2
 (Enter /nopt/nrel/apps/gaussian/g16C_1/g16/l801.exe)
 Windowed orbitals will be sorted by symmetry type.
 ExpMin= 2.44D-02 ExpMax= 5.48D+02 ExpMxC= 5.48D+02 IAcc=3 IRadAn=         5 AccDes= 0.00D+00
 HarFok:  IExCor=  205 AccDes= 0.00D+00 IRadAn=         5 IDoV=-2 UseB2=F ITyADJ=14
 ICtDFT= 12500011 ScaDFX=  1.000000  1.000000  1.000000  1.000000
 Largest valence mixing into a core orbital is  2.92D-04
 Largest core mixing into a valence orbital is  1.15D-04
 Range of M.O.s used for correlation:     6    14
 NBasis=    14 NAE=     6 NBE=     6 NFC=     5 NFV=     0
 NROrb=      9 NOA=     1 NOB=     1 NVA=     8 NVB=     8
 Leave Link  801 at Mon Mar 28 14:19:41 2022, MaxMem=  9663676416 cpu:               2.5 elap:               0.1
 (Enter /nopt/nrel/apps/gaussian/g16C_1/g16/l804.exe)
 Closed-shell transformation, MDV=  9663676416 ITran=4 ISComp=2.
 Unit  1 TFree=          8118 TCopy=        116765.
 Semi-Direct transformation.
 ModeAB=           2 MOrb=             1 LenV=    9663555891
 LASXX=           88 LTotXX=          88 LenRXX=          88
 LTotAB=         141 MaxLAS=         945 LenRXY=         945
 NonZer=        1107 LenScr=      785920 LnRSAI=           0
 LnScr1=           0 LExtra=      220189 Total=      1007142
 MaxDsk= 34359738368 SrtSym=           F ITran=            4
 DoSDTr:  NPSUse= 36
 JobTyp=0 Pass  1:  I=   1 to   1.
 (rs|ai) integrals will be sorted in core.
 Complete sort for first half transformation.
 First half transformation complete.
 Complete sort for second half transformation.
 Second half transformation complete.
 Spin components of T(2) and E(2):
     alpha-alpha T2 =       0.0000000000D+00 E2=      0.0000000000D+00
     alpha-beta  T2 =       0.3568244380D-01 E2=     -0.2746799540D-01
     beta-beta   T2 =       0.0000000000D+00 E2=      0.0000000000D+00
 ANorm=    0.1017684845D+01
 E2 =    -0.2746799540D-01 EUMP2 =    -0.16132739875339D+03
 Leave Link  804 at Mon Mar 28 14:19:41 2022, MaxMem=  9663676416 cpu:               1.4 elap:               0.1
 (Enter /nopt/nrel/apps/gaussian/g16C_1/g16/l913.exe)
 CIDS:  MDV=  9663676416.
 Frozen-core window:  NFC=   5 NFV=   0.
 IFCWin=0 IBDFC=1 NFBD=     0     0 NFCmp=     0     0 NFFFC=     0     0
 Using DD3R+UMP44R for 1st iteration.
 Using DD4RQ for 2nd and later iterations.
 Keep R2 and R3 ints in memory in symmetry-blocked form, NReq=7215411.
 FoFCou: FMM=F IPFlag=           0 FMFlag=           0 FMFlg1=           0
         NFxFlg=           0 DoJE=F BraDBF=F KetDBF=F FulRan=T
         wScrn=  0.000000 ICntrl=       600 IOpCl=  0 I1Cent=           0 NGrid=           0
         NMat0=    1 NMatS0=    105 NMatT0=    0 NMatD0=    1 NMtDS0=    0 NMtDT0=    0
 Petite list used in FoFCou.
 CIDS: In Core Option IDoMem=           1.
 Coupled Cluster theory with single and double substitutions
 ===========================================================
 Iterations= 200 Convergence= 0.100D-06
 Produce multiple copies of IABC intergrals
 Iteration Nr.   1
 **********************
 DD1Dir will call FoFMem   1 times, MxPair=         2
 NAB=     1 NAA=     0 NBB=     0.
 MP4(R+Q)=  0.98012520D-03
 Maximum subspace dimension=  5
 A-vector RMS=  3.1556436D-02 Max=  5.5237532D-02 conv= 1.00D-05.
 RLE energy=       -0.0487597485
 E3=       -0.12979649D-01        EUMP3=      -0.16134037840D+03
 E4(DQ)=   -0.57778983D-02        UMP4(DQ)=   -0.16134615630D+03
 E4(SDQ)=  -0.61868346D-02        UMP4(SDQ)=  -0.16134656524D+03
 VARIATIONAL ENERGIES WITH THE FIRST-ORDER WAVEFUNCTION:
 DE(Corr)= -0.39462353E-01 E(Corr)=     -161.33939311    
 NORM(A)=   0.10581793D+01
 Iteration Nr.   2
 **********************
 DD1Dir will call FoFMem   1 times, MxPair=         2
 NAB=     1 NAA=     0 NBB=     0.
 A-vector RMS=  1.6861439D-02 Max=  2.6035590D-02 conv= 1.00D-05.
 RLE energy=       -0.0499009976
 DE(Corr)= -0.49291275E-01 E(CORR)=     -161.34922203     Delta=-9.83D-03
 NORM(A)=   0.10659939D+01
 Iteration Nr.   3
 **********************
 DD1Dir will call FoFMem   1 times, MxPair=         2
 NAB=     1 NAA=     0 NBB=     0.
 A-vector RMS=  1.7665731D-02 Max=  2.1189332D-02 conv= 1.00D-05.
 RLE energy=       -0.0511525158
 DE(Corr)= -0.50049380E-01 E(CORR)=     -161.34998014     Delta=-7.58D-04
 NORM(A)=   0.10875324D+01
 Iteration Nr.   4
 **********************
 DD1Dir will call FoFMem   1 times, MxPair=         2
 NAB=     1 NAA=     0 NBB=     0.
 A-vector RMS=  5.3639242D-03 Max=  1.7078995D-02 conv= 1.00D-05.
 RLE energy=       -0.0535487207
 DE(Corr)= -0.51768661E-01 E(CORR)=     -161.35169942     Delta=-1.72D-03
 NORM(A)=   0.11130512D+01
 Iteration Nr.   5
 **********************
 DD1Dir will call FoFMem   1 times, MxPair=         2
 NAB=     1 NAA=     0 NBB=     0.
 A-vector RMS=  2.4616755D-03 Max=  1.9708719D-03 conv= 1.00D-05.
 RLE energy=       -0.0526022237
 DE(Corr)= -0.53228806E-01 E(CORR)=     -161.35315956     Delta=-1.46D-03
 NORM(A)=   0.11063898D+01
 Iteration Nr.   6
 **********************
 DD1Dir will call FoFMem   1 times, MxPair=         2
 NAB=     1 NAA=     0 NBB=     0.
 A-vector RMS=  1.5872320D-03 Max=  1.7486705D-03 conv= 1.00D-05.
 RLE energy=       -0.0529183177
 DE(Corr)= -0.52671263E-01 E(CORR)=     -161.35260202     Delta= 5.58D-04
 NORM(A)=   0.11099030D+01
 Iteration Nr.   7
 **********************
 DD1Dir will call FoFMem   1 times, MxPair=         2
 NAB=     1 NAA=     0 NBB=     0.
 A-vector RMS=  6.0768156D-04 Max=  7.5145647D-04 conv= 1.00D-05.
 RLE energy=       -0.0528535988
 DE(Corr)= -0.52898217E-01 E(CORR)=     -161.35282897     Delta=-2.27D-04
 NORM(A)=   0.11094514D+01
 Iteration Nr.   8
 **********************
 DD1Dir will call FoFMem   1 times, MxPair=         2
 NAB=     1 NAA=     0 NBB=     0.
 A-vector RMS=  7.4740355D-05 Max=  1.0800315D-04 conv= 1.00D-05.
 RLE energy=       -0.0528440268
 DE(Corr)= -0.52849142E-01 E(CORR)=     -161.35277990     Delta= 4.91D-05
 NORM(A)=   0.11093693D+01
 Iteration Nr.   9
 **********************
 DD1Dir will call FoFMem   1 times, MxPair=         2
 NAB=     1 NAA=     0 NBB=     0.
 A-vector RMS=  2.7897648D-05 Max=  5.5802318D-05 conv= 1.00D-05.
 RLE energy=       -0.0528461755
 DE(Corr)= -0.52844728E-01 E(CORR)=     -161.35277549     Delta= 4.41D-06
 NORM(A)=   0.11093916D+01
 Iteration Nr.  10
 **********************
 DD1Dir will call FoFMem   1 times, MxPair=         2
 NAB=     1 NAA=     0 NBB=     0.
 A-vector RMS=  6.6227809D-06 Max=  2.3351763D-05 conv= 1.00D-05.
 RLE energy=       -0.0528471133
 DE(Corr)= -0.52846789E-01 E(CORR)=     -161.35277755     Delta=-2.06D-06
 NORM(A)=   0.11093962D+01
 Iteration Nr.  11
 **********************
 DD1Dir will call FoFMem   1 times, MxPair=         2
 NAB=     1 NAA=     0 NBB=     0.
 A-vector RMS=  1.3219670D-06 Max=  1.1547682D-06 conv= 1.00D-05.
 RLE energy=       -0.0528469096
 DE(Corr)= -0.52847017E-01 E(CORR)=     -161.35277777     Delta=-2.28D-07
 NORM(A)=   0.11093955D+01
 Iteration Nr.  12
 **********************
 DD1Dir will call FoFMem   1 times, MxPair=         2
 NAB=     1 NAA=     0 NBB=     0.
 A-vector RMS=  7.0667428D-07 Max=  6.3047832D-07 conv= 1.00D-05.
 RLE energy=       -0.0528470066
 DE(Corr)= -0.52846937E-01 E(CORR)=     -161.35277770     Delta= 7.96D-08
 NORM(A)=   0.11093957D+01
 CI/CC converged in   12 iterations to DelEn= 7.96D-08 Conv= 1.00D-07 ErrA1= 7.07D-07 Conv= 1.00D-05
 Wavefunction amplitudes converged. E(Corr)=     -161.35277770    
 Dominant configurations:
 ***********************
 Spin Case        I    J    A    B          Value
    AA            6         7            0.161317D+00
   ABAB           6    6    7    7      -0.152147D+00
   ABAB           6    6    7   14       0.171165D+00
   ABAB           6    6   10   14       0.106467D+00
   ABAB           6    6   14    7       0.171165D+00
   ABAB           6    6   14   10       0.106467D+00
   ABAB           6    6   14   14      -0.199867D+00
 Largest amplitude= 2.00D-01
 Discarding MO integrals.
 Leave Link  913 at Mon Mar 28 14:19:41 2022, MaxMem=  9663676416 cpu:               3.7 elap:               0.1
 (Enter /nopt/nrel/apps/gaussian/g16C_1/g16/l601.exe)
 Copying SCF densities to generalized density rwf, IOpCl= 0 IROHF=0.

 **********************************************************************

            Population analysis using the SCF Density.

 **********************************************************************

 Orbital symmetries:
       Occupied  (SG) (SG) (PI) (PI) (SG) (SG)
       Virtual   (SG) (PI) (PI) (SG) (SG) (PI) (PI) (SG)
 The electronic state is 1-SG.
 Alpha  occ. eigenvalues --  -40.26557  -2.81608  -1.53453  -1.53453  -1.53347
 Alpha  occ. eigenvalues --   -0.22434
 Alpha virt. eigenvalues --   -0.01675   0.03174   0.03174   0.10511   0.15295
 Alpha virt. eigenvalues --    0.15452   0.15452   0.22221
          Condensed to atoms (all electrons):
               1          2
     1  H    0.663180   0.247811
     2  Na   0.247811  10.841198
 Mulliken charges:
               1
     1  H    0.089009
     2  Na  -0.089009
 Sum of Mulliken charges =   0.00000
 Mulliken charges with hydrogens summed into heavy atoms:
               1
     2  Na   0.000000
 N-N= 1.940316440040D+00 E-N=-3.913868693863D+02  KE= 1.607234176461D+02
 Symmetry A1   KE= 1.376419109051D+02
 Symmetry A2   KE= 0.000000000000D+00
 Symmetry B1   KE= 1.154075337054D+01
 Symmetry B2   KE= 1.154075337054D+01

 Atomic contributions to Alpha molecular orbitals:
 Alpha occ 1 OE=-40.266 is Na2-s=1.0000
 Alpha occ 2 OE=-2.816 is Na2-s=0.9999
 Alpha occ 3 OE=-1.535 is Na2-p=1.0000
 Alpha occ 4 OE=-1.535 is Na2-p=1.0000
 Alpha occ 5 OE=-1.533 is Na2-p=0.9999
 Alpha occ 6 OE=-0.224 is H1-s=0.4555 Na2-s=0.3193 Na2-p=0.2251
 Alpha vir 7 OE=-0.017 is Na2-s=0.5590 Na2-p=0.4087
 Alpha vir 8 OE=0.032 is Na2-p=1.0000
 Alpha vir 9 OE=0.032 is Na2-p=1.0000
 Alpha vir 10 OE=0.105 is Na2-s=0.5914 Na2-p=0.3613
 Alpha vir 11 OE=0.153 is Na2-p=0.5202 Na2-s=0.4428
 Alpha vir 12 OE=0.155 is Na2-p=1.0000
 Alpha vir 13 OE=0.155 is Na2-p=1.0000
 Alpha vir 14 OE=0.222 is Na2-p=0.4846 H1-s=0.4280
 
 Leave Link  601 at Mon Mar 28 14:19:41 2022, MaxMem=  9663676416 cpu:               3.3 elap:               0.1
 (Enter /nopt/nrel/apps/gaussian/g16C_1/g16/l9999.exe)

 Test job not archived.
 1\1\GINC-R102U34\SP\RCCSD-FC\Gen\H1Na1\USER\28-Mar-2022\0\\#P CCSD
 (MaxCyc=200,SaveAmplitudes,ReadAmplitudes)/GEN sp pop=AllOrbitals iop(
 3/33=1,3/36=-1)\\test\\0,1\H,0,0.,0.,0.\Na,0,0.,0.,3.\\Version=ES64L-G
 16RevC.01\State=1-SG\HF=-161.2999308\MP2=-161.3273988\MP3=-161.3403784
 \MP4D=-161.3471364\MP4DQ=-161.3461563\MP4SDQ=-161.3465652\CCSD=-161.35
 27777\RMSD=1.759e-09\PG=C*V [C*(H1Na1)]\\@


 MORNING PEOPLE ARE USUALLY ADMIRED AS EARLY BIRDS.
 RECALL BEN FRANKLIN'S APHORISM THAT THE EARLY BIRD GETS THE WORM.
 I IDENTIFY WITH THE WORM. --  CRAIG JAGGER, MINNEAPOLIS, KS.
 Job cpu time:       0 days  0 hours  0 minutes 33.8 seconds.
 Elapsed time:       0 days  0 hours  0 minutes  1.3 seconds.
 File lengths (MBytes):  RWF=     13 Int=      0 D2E=      0 Chk=      1 Scr=      1
 Normal termination of Gaussian 16 at Mon Mar 28 14:19:41 2022.
