 Entering Gaussian System, Link 0=g16
 Initial command:
 /nopt/nrel/apps/gaussian/g16C_1/g16/l1.exe "/lustre/eaglefs/scratch/user/qc/kh-dissc/kh-3-ccsd-2.1-321g/Gau-24466.inp" -scrdir="/lustre/eaglefs/scratch/user/qc/kh-dissc/kh-3-ccsd-2.1-321g/"
 Default is to use a total of  36 processors:
                               36 via shared-memory
                                1 via Linda
 Entering Link 1 = /nopt/nrel/apps/gaussian/g16C_1/g16/l1.exe PID=     24467.
  
 Copyright (c) 1988-2019, Gaussian, Inc.  All Rights Reserved.
  
 This is part of the Gaussian(R) 16 program.  It is based on
 the Gaussian(R) 09 system (copyright 2009, Gaussian, Inc.),
 the Gaussian(R) 03 system (copyright 2003, Gaussian, Inc.),
 the Gaussian(R) 98 system (copyright 1998, Gaussian, Inc.),
 the Gaussian(R) 94 system (copyright 1995, Gaussian, Inc.),
 the Gaussian 92(TM) system (copyright 1992, Gaussian, Inc.),
 the Gaussian 90(TM) system (copyright 1990, Gaussian, Inc.),
 the Gaussian 88(TM) system (copyright 1988, Gaussian, Inc.),
 the Gaussian 86(TM) system (copyright 1986, Carnegie Mellon
 University), and the Gaussian 82(TM) system (copyright 1983,
 Carnegie Mellon University). Gaussian is a federally registered
 trademark of Gaussian, Inc.
  
 This software contains proprietary and confidential information,
 including trade secrets, belonging to Gaussian, Inc.
  
 This software is provided under written license and may be
 used, copied, transmitted, or stored only in accord with that
 written license.
  
 The following legend is applicable only to US Government
 contracts under FAR:
  
                    RESTRICTED RIGHTS LEGEND
  
 Use, reproduction and disclosure by the US Government is
 subject to restrictions as set forth in subparagraphs (a)
 and (c) of the Commercial Computer Software - Restricted
 Rights clause in FAR 52.227-19.
  
 Gaussian, Inc.
 340 Quinnipiac St., Bldg. 40, Wallingford CT 06492
  
  
 ---------------------------------------------------------------
 Warning -- This program may not be used in any manner that
 competes with the business of Gaussian, Inc. or will provide
 assistance to any competitor of Gaussian, Inc.  The licensee
 of this program is prohibited from giving any competitor of
 Gaussian, Inc. access to this program.  By using this program,
 the user acknowledges that Gaussian, Inc. is engaged in the
 business of creating and licensing software in the field of
 computational chemistry and represents and warrants to the
 licensee that it is not a competitor of Gaussian, Inc. and that
 it will not use this program in any manner prohibited above.
 ---------------------------------------------------------------
  

 Cite this work as:
 Gaussian 16, Revision C.01,
 M. J. Frisch, G. W. Trucks, H. B. Schlegel, G. E. Scuseria, 
 M. A. Robb, J. R. Cheeseman, G. Scalmani, V. Barone, 
 G. A. Petersson, H. Nakatsuji, X. Li, M. Caricato, A. V. Marenich, 
 J. Bloino, B. G. Janesko, R. Gomperts, B. Mennucci, H. P. Hratchian, 
 J. V. Ortiz, A. F. Izmaylov, J. L. Sonnenberg, D. Williams-Young, 
 F. Ding, F. Lipparini, F. Egidi, J. Goings, B. Peng, A. Petrone, 
 T. Henderson, D. Ranasinghe, V. G. Zakrzewski, J. Gao, N. Rega, 
 G. Zheng, W. Liang, M. Hada, M. Ehara, K. Toyota, R. Fukuda, 
 J. Hasegawa, M. Ishida, T. Nakajima, Y. Honda, O. Kitao, H. Nakai, 
 T. Vreven, K. Throssell, J. A. Montgomery, Jr., J. E. Peralta, 
 F. Ogliaro, M. J. Bearpark, J. J. Heyd, E. N. Brothers, K. N. Kudin, 
 V. N. Staroverov, T. A. Keith, R. Kobayashi, J. Normand, 
 K. Raghavachari, A. P. Rendell, J. C. Burant, S. S. Iyengar, 
 J. Tomasi, M. Cossi, J. M. Millam, M. Klene, C. Adamo, R. Cammi, 
 J. W. Ochterski, R. L. Martin, K. Morokuma, O. Farkas, 
 J. B. Foresman, and D. J. Fox, Gaussian, Inc., Wallingford CT, 2019.
 
 ******************************************
 Gaussian 16:  ES64L-G16RevC.01  3-Jul-2019
                28-Mar-2022 
 ******************************************
 %chk=molecule
 Default route: CacheSize=180224 MaxDisk=256GB
 ----------------------------------------------------------------------
 #P CCSD(MaxCyc=200,SaveAmplitudes,ReadAmplitudes)/GEN sp pop=AllOrbita
 ls iop(3/33=1,3/36=-1)
 ----------------------------------------------------------------------
 1/4=180224,38=1,172=1/1;
 2/4=180224,12=2,17=6,18=5,40=1/2;
 3/4=180224,5=7,11=9,25=1,30=1,33=1,36=-1/1,2,3;
 4/4=180224/1;
 5/4=180224,5=2,38=5/2;
 8/4=180224,6=4,9=120000,10=1,24=1/1,4;
 9/4=180224,5=7,6=200,77=1/13;
 6/4=180224,7=2,8=2,9=2,10=2,96=-1/1;
 99/4=180224,5=1,9=1/99;
 Leave Link    1 at Mon Mar 28 14:38:49 2022, MaxMem=           0 cpu:               2.1 elap:               0.1
 (Enter /nopt/nrel/apps/gaussian/g16C_1/g16/l101.exe)
 ----
 test
 ----
 Symbolic Z-matrix:
 Charge =  0 Multiplicity = 3
 H                     0.        0.        0. 
 K                     0.        0.        2.1 
 
 ITRead=  0  0
 MicOpt= -1 -1
 NAtoms=      2 NQM=        2 NQMF=       0 NMMI=      0 NMMIF=      0
                NMic=       0 NMicF=      0.
                    Isotopes and Nuclear Properties:
 (Nuclear quadrupole moments (NQMom) in fm**2, nuclear magnetic moments (NMagM)
  in nuclear magnetons)

  Atom         1           2
 IAtWgt=           1          39
 AtmWgt=   1.0078250  38.9637079
 NucSpn=           1           3
 AtZEff=  -0.0000000  -0.0000000
 NQMom=    0.0000000   5.8500000
 NMagM=    2.7928460   0.3914660
 AtZNuc=   1.0000000  19.0000000
 Leave Link  101 at Mon Mar 28 14:38:49 2022, MaxMem=  9663676416 cpu:               3.0 elap:               0.1
 (Enter /nopt/nrel/apps/gaussian/g16C_1/g16/l202.exe)
                          Input orientation:                          
 ---------------------------------------------------------------------
 Center     Atomic      Atomic             Coordinates (Angstroms)
 Number     Number       Type             X           Y           Z
 ---------------------------------------------------------------------
      1          1           0        0.000000    0.000000    0.000000
      2         19           0        0.000000    0.000000    2.100000
 ---------------------------------------------------------------------
 Stoichiometry    HK(3)
 Framework group  C*V[C*(HK)]
 Deg. of freedom     1
 Full point group                 C*V     NOp   4
 Largest Abelian subgroup         C2V     NOp   4
 Largest concise Abelian subgroup C1      NOp   1
                         Standard orientation:                         
 ---------------------------------------------------------------------
 Center     Atomic      Atomic             Coordinates (Angstroms)
 Number     Number       Type             X           Y           Z
 ---------------------------------------------------------------------
      1          1           0        0.000000    0.000000   -1.995000
      2         19           0        0.000000    0.000000    0.105000
 ---------------------------------------------------------------------
 Rotational constants (GHZ):           0.0000000         116.6497983         116.6497983
 Leave Link  202 at Mon Mar 28 14:38:49 2022, MaxMem=  9663676416 cpu:               0.6 elap:               0.0
 (Enter /nopt/nrel/apps/gaussian/g16C_1/g16/l301.exe)
 General basis read from cards:  (5D, 7F)
                         Coordinates in L301:                         
 ---------------------------------------------------------------------
 Center     Atomic      Atomic             Coordinates (Angstroms)
 Number     Number       Type             X           Y           Z
 ---------------------------------------------------------------------
      1          1           0        0.000000    0.000000   -1.995000
      2         19           0        0.000000    0.000000    0.105000
 ---------------------------------------------------------------------
 Centers:       1
 STO-3G
 ****
 Centers:       2
 3-21G
 ****
 FixB: optimizing general contractions.
 Ernie: Thresh=  0.10000D-02 Tol=  0.10000D-05 Strict=F.
 IA=     1 ShT= 0 ShC= 0 NL=   1 NS=   0.
 IA=     1 L=0 SC=0 ISt=    0 NBk=    0 NP=    0 IndPr=    0.
 IA=     2 ShT= 0 ShC= 0 NL=   1 NS=   0.
 IA=     2 L=0 SC=0 ISt=    0 NBk=    0 NP=    0 IndPr=    0.
 IA=     2 ShT= 1 ShC= 0 NL=   4 NS=   1.
 IA=     2 L=1 SC=0 ISt=    1 NBk=    3 NP=    8 IndPr=    0.
 DoElim1:  L=1 select primitive    1 from    2 using    1 C=-1.09D-01
 DoElim1:  L=1 select primitive    1 from    3 using    1 C=-1.09D-01
 DoElim1:  L=1 select primitive    4 from    3 using    2 C=-2.70D-01
 DoElim2:  L=1 select primitive    8 from    2 using    3 C= 1.13D+00
 DoElim2:  L=1 select primitive    8 from    1 using    3 C= 1.13D+00
 DoElim2:  L=1 select primitive    6 from    1 using    2 C= 8.11D-01
 DoElim1:  L=1 select primitive    1 from    2 using    1 C= 1.34D-01
 DoElim1:  L=1 select primitive    1 from    3 using    1 C= 1.34D-01
 DoElim1:  L=1 select primitive    4 from    3 using    2 C= 1.99D-02
 DoElim2:  L=1 select primitive    8 from    2 using    3 C= 1.00D+00
 DoElim2:  L=1 select primitive    8 from    1 using    3 C= 1.00D+00
 DoElim2:  L=1 select primitive    6 from    1 using    2 C= 6.45D-01
 Delete L=1 primitive    6 from    3 C=  0.00D+00.
 Delete L=1 primitive    5 from    3 C=  0.00D+00.
 Delete L=1 primitive    4 from    3 C=  0.00D+00.
 Delete L=1 primitive    3 from    3 C=  0.00D+00.
 Delete L=1 primitive    2 from    3 C=  0.00D+00.
 Delete L=1 primitive    1 from    3 C=  0.00D+00.
 Delete L=1 primitive    8 from    2 C=  0.00D+00.
 Delete L=1 primitive    7 from    2 C=  0.00D+00.
 Delete L=1 primitive    3 from    2 C=  0.00D+00.
 Delete L=1 primitive    2 from    2 C=  0.00D+00.
 Delete L=1 primitive    1 from    2 C=  0.00D+00.
 Delete L=1 primitive    8 from    1 C=  0.00D+00.
 Delete L=1 primitive    7 from    1 C=  0.00D+00.
 Delete L=1 primitive    6 from    1 C=  0.00D+00.
 Delete L=1 primitive    5 from    1 C=  0.00D+00.
 Delete L=1 primitive    4 from    1 C=  0.00D+00.
 IA=     2 L=1 SC=0 ISt=    0 NBk=    0 NP=    0 IndPr=    8.
 LdAtmC:  AtmChg=     1.000000    19.000000
 AtZEff=     -1.0000000    -22.4200000
 NEqShl: 
              1            2            3            4
     1            1            1            1            1
     2            2            2            2            2
     3            3            3            3            3
     4            4            4            4            4
     5            5            5            5            5
     6            6            6            6            6
 NEqBas: 
              1            2            3            4
     1            1            1            1            1
     2            2            2            2            2
     3            3            3            3            3
     4            4           -4           -4            4
     5            5           -5            5           -5
     6            6            6            6            6
     7            7            7            7            7
     8            8           -8           -8            8
     9            9           -9            9           -9
    10           10           10           10           10
    11           11           11           11           11
    12           12          -12          -12           12
    13           13          -13           13          -13
    14           14           14           14           14
    15           15           15           15           15
    16           16          -16          -16           16
    17           17          -17           17          -17
    18           18           18           18           18
 There are    10 symmetry adapted cartesian basis functions of A1  symmetry.
   1         1   1   1   1
   2         2   2   2   2
   3         3   3   3   3
   4         6   6   6   6
   5         7   7   7   7
   6        10  10  10  10
   7        11  11  11  11
   8        14  14  14  14
   9        15  15  15  15
  10        18  18  18  18
 There are     0 symmetry adapted cartesian basis functions of A2  symmetry.
 There are     4 symmetry adapted cartesian basis functions of B1  symmetry.
  11         4   4   4   4
  12         8   8   8   8
  13        12  12  12  12
  14        16  16  16  16
 There are     4 symmetry adapted cartesian basis functions of B2  symmetry.
  15         5   5   5   5
  16         9   9   9   9
  17        13  13  13  13
  18        17  17  17  17
 Order= 1 2 4 3
 Reordered character table:
              1            2            3            4            5
     1            1            1            1            1            1
     2            2            1            1           -1           -1
     3            4            1           -1           -1            1
     4            3            1           -1            1           -1
 NEqShl: 
              1            2            3            4
     1            1            1            1            1
     2            2            2            2            2
     3            3            3            3            3
     4            4            4            4            4
     5            5            5            5            5
     6            6            6            6            6
 NEqBas: 
              1            2            3            4
     1            1            1            1            1
     2            2            2            2            2
     3            3            3            3            3
     4            4           -4           -4            4
     5            5           -5            5           -5
     6            6            6            6            6
     7            7            7            7            7
     8            8           -8           -8            8
     9            9           -9            9           -9
    10           10           10           10           10
    11           11           11           11           11
    12           12          -12          -12           12
    13           13          -13           13          -13
    14           14           14           14           14
    15           15           15           15           15
    16           16          -16          -16           16
    17           17          -17           17          -17
    18           18           18           18           18
 There are    10 symmetry adapted basis functions of A1  symmetry.
   1         1   1   1   1
   2         2   2   2   2
   3         3   3   3   3
   4         6   6   6   6
   5         7   7   7   7
   6        10  10  10  10
   7        11  11  11  11
   8        14  14  14  14
   9        15  15  15  15
  10        18  18  18  18
 There are     0 symmetry adapted basis functions of A2  symmetry.
 There are     4 symmetry adapted basis functions of B1  symmetry.
  11         4   4   4   4
  12         8   8   8   8
  13        12  12  12  12
  14        16  16  16  16
 There are     4 symmetry adapted basis functions of B2  symmetry.
  15         5   5   5   5
  16         9   9   9   9
  17        13  13  13  13
  18        17  17  17  17
 Order= 1 2 4 3
 Reordered character table:
              1            2            3            4            5
     1            1            1            1            1            1
     2            2            1            1           -1           -1
     3            4            1           -1           -1            1
     4            3            1           -1            1           -1
    18 basis functions,    42 primitive gaussians,    18 cartesian basis functions
    11 alpha electrons        9 beta electrons
       nuclear repulsion energy         4.7877938131 Hartrees.
 IS=     1 IAt=     1 ISR=     1 T=0 IP=      1 IndIP=      1 IndIPD=      0 C=  2.769344D-01  0.000000D+00                             NZ=T
 IS=     1 IAt=     1 ISR=     1 T=0 IP=      2 IndIP=      2 IndIPD=      1 C=  2.678389D-01  0.000000D+00                             NZ=T
 IS=     1 IAt=     1 ISR=     1 T=0 IP=      3 IndIP=      3 IndIPD=      2 C=  8.347367D-02  0.000000D+00                             NZ=T
 IS=     2 IAt=     2 ISR=     1 T=0 IP=      1 IndIP=      4 IndIPD=      0 C=  1.235533D+01  0.000000D+00                             NZ=T
 IS=     2 IAt=     2 ISR=     1 T=0 IP=      2 IndIP=      5 IndIPD=      1 C=  1.757620D+01  0.000000D+00                             NZ=T
 IS=     2 IAt=     2 ISR=     1 T=0 IP=      3 IndIP=      6 IndIPD=      2 C=  9.965255D+00  0.000000D+00                             NZ=T
 IS=     3 IAt=     2 ISR=     2 T=1 IP=      1 IndIP=      7 IndIPD=      0 C= -1.917303D+00  3.974198D+01                             NZ=T
 IS=     3 IAt=     2 ISR=     2 T=1 IP=      2 IndIP=      8 IndIPD=      1 C=  6.276214D-01  2.313166D+01                             NZ=T
 IS=     3 IAt=     2 ISR=     2 T=1 IP=      3 IndIP=      9 IndIPD=      2 C=  2.074825D+00  4.747626D+00                             NZ=T
 IS=     4 IAt=     2 ISR=     3 T=1 IP=      1 IndIP=     10 IndIPD=      0 C= -5.565498D-01  1.669766D-01                             NZ=T
 IS=     4 IAt=     2 ISR=     3 T=1 IP=      2 IndIP=     11 IndIPD=      1 C=  2.958337D-01  7.678126D-01                             NZ=T
 IS=     4 IAt=     2 ISR=     3 T=1 IP=      3 IndIP=     12 IndIPD=      2 C=  2.772726D-01  2.705395D-01                             NZ=T
 IS=     5 IAt=     2 ISR=     4 T=1 IP=      1 IndIP=     13 IndIPD=      0 C= -6.663323D-02  7.553623D-05                             NZ=T
 IS=     5 IAt=     2 ISR=     4 T=1 IP=      2 IndIP=     14 IndIPD=      1 C=  7.057644D-02  2.467884D-02                             NZ=T
 IS=     6 IAt=     2 ISR=     5 T=1 IP=      1 IndIP=     15 IndIPD=      0 C=  3.215666D-02  8.150947D-03                             NZ=T
 IExCor=    0 DFT=F Ex=HF Corr=None ExCW=0 ScaHFX=  1.000000
 ScaDFX=  1.000000  1.000000  1.000000  1.000000 ScalE2=  1.000000  1.000000
 IRadAn=      5 IRanWt=     -1 IRanGd=            0 ICorTp=0 IEmpDi=  4
 NAtoms=    2 NActive=    2 NUniq=    2 SFac= 1.00D+00 NAtFMM=   60 NAOKFM=F Big=F
 Integral buffers will be    131072 words long.
 Raffenetti 2 integral format.
 Two-electron integral symmetry is turned on.
 Leave Link  301 at Mon Mar 28 14:38:49 2022, MaxMem=  9663676416 cpu:               2.3 elap:               0.1
 (Enter /nopt/nrel/apps/gaussian/g16C_1/g16/l302.exe)
 NPDir=0 NMtPBC=     1 NCelOv=     1 NCel=       1 NClECP=     1 NCelD=      1
         NCelK=      1 NCelE2=     1 NClLst=     1 CellRange=     0.0.
 One-electron integrals computed using PRISM.
 One-electron integral symmetry used in STVInt
 Entering OneElI...
 Calculate overlap and kinetic energy integrals
    NBasis =  18  MinDer = 0  MaxDer = 0
 Requested accuracy = 0.1000D-12
 Symmetry will be used
 PrmmSu-InSpLW:  IPartL=    0 NPrtUS=   36 NPrtUL=    1 DoSpLW=F IThBeg=    0 IThEnd=   35 NThAct=   36.
 PrSmSu:  IncTry=   512 NBBP=             21 NTPThr=   100 NPartT=   36 Incr=           1 LDynOK=F GPUOK=F.
 PrsmSu:  NPrtUS=  36 ThrOK=T IAlg=1 LenDen=           0 ISkipM=0 DoSpLW=F IThBeg=    0 IThEnd=   35.
 Prism:   IPart=     0 DynPar=F LinDyn=F Incr=           1.
 PRISM was handed   268433216 working-precision words and    21 shell-pairs
 PRISM was handed   268433216 working-precision words and    21 shell-pairs
 PRISM was handed   268433216 working-precision words and    21 shell-pairs
 PRISM was handed   268433216 working-precision words and    21 shell-pairs
 PRISM was handed   268433216 working-precision words and    21 shell-pairs
 PRISM was handed   268433216 working-precision words and    21 shell-pairs
 PRISM was handed   268433216 working-precision words and    21 shell-pairs
 PRISM was handed   268433216 working-precision words and    21 shell-pairs
 PRISM was handed   268433216 working-precision words and    21 shell-pairs
 IPart= 22 NShTot=           0 NBatch=           0 AvBLen=         0.0
 IPart= 35 NShTot=           0 NBatch=           0 AvBLen=         0.0
 IPart= 30 NShTot=           0 NBatch=           0 AvBLen=         0.0
 IPart= 11 NShTot=           0 NBatch=           0 AvBLen=         0.0
 IPart= 16 NShTot=           0 NBatch=           0 AvBLen=         0.0
 IPart= 14 NShTot=           0 NBatch=           0 AvBLen=         0.0
 IPart= 34 NShTot=           0 NBatch=           0 AvBLen=         0.0
 IPart= 24 NShTot=           0 NBatch=           0 AvBLen=         0.0
 PRISM was handed   268433216 working-precision words and    21 shell-pairs
 PRISM was handed   268433216 working-precision words and    21 shell-pairs
 PRISM was handed   268433216 working-precision words and    21 shell-pairs
 IPart=  0 NShTot=          10 NBatch=          10 AvBLen=         1.0
 PRISM was handed   268433216 working-precision words and    21 shell-pairs
 PRISM was handed   268433216 working-precision words and    21 shell-pairs
 PRISM was handed   268433216 working-precision words and    21 shell-pairs
 PRISM was handed   268433216 working-precision words and    21 shell-pairs
 IPart=  6 NShTot=           0 NBatch=           0 AvBLen=         0.0
 IPart= 28 NShTot=           0 NBatch=           0 AvBLen=         0.0
 IPart=  1 NShTot=           7 NBatch=           7 AvBLen=         1.0
 IPart=  7 NShTot=           0 NBatch=           0 AvBLen=         0.0
 IPart= 29 NShTot=           0 NBatch=           0 AvBLen=         0.0
 IPart= 26 NShTot=           0 NBatch=           0 AvBLen=         0.0
 PRISM was handed   268433216 working-precision words and    21 shell-pairs
 PRISM was handed   268433216 working-precision words and    21 shell-pairs
 PRISM was handed   268433216 working-precision words and    21 shell-pairs
 PRISM was handed   268433216 working-precision words and    21 shell-pairs
 PRISM was handed   268433216 working-precision words and    21 shell-pairs
 IPart= 17 NShTot=           0 NBatch=           0 AvBLen=         0.0
 PRISM was handed   268433216 working-precision words and    21 shell-pairs
 IPart=  5 NShTot=           0 NBatch=           0 AvBLen=         0.0
 IPart= 27 NShTot=           0 NBatch=           0 AvBLen=         0.0
 IPart=  9 NShTot=           0 NBatch=           0 AvBLen=         0.0
 IPart= 25 NShTot=           0 NBatch=           0 AvBLen=         0.0
 IPart= 18 NShTot=           0 NBatch=           0 AvBLen=         0.0
 PRISM was handed   268433216 working-precision words and    21 shell-pairs
 PRISM was handed   268433216 working-precision words and    21 shell-pairs
 PRISM was handed   268433216 working-precision words and    21 shell-pairs
 PRISM was handed   268433216 working-precision words and    21 shell-pairs
 PRISM was handed   268433216 working-precision words and    21 shell-pairs
 PRISM was handed   268433216 working-precision words and    21 shell-pairs
 PRISM was handed   268433216 working-precision words and    21 shell-pairs
 PRISM was handed   268433216 working-precision words and    21 shell-pairs
 PRISM was handed   268433216 working-precision words and    21 shell-pairs
 PRISM was handed   268433216 working-precision words and    21 shell-pairs
 PRISM was handed   268433216 working-precision words and    21 shell-pairs
 PRISM was handed   268433216 working-precision words and    21 shell-pairs
 PRISM was handed   268433216 working-precision words and    21 shell-pairs
 PRISM was handed   268433216 working-precision words and    21 shell-pairs
 IPart=  4 NShTot=           0 NBatch=           0 AvBLen=         0.0
 IPart= 12 NShTot=           0 NBatch=           0 AvBLen=         0.0
 IPart= 23 NShTot=           0 NBatch=           0 AvBLen=         0.0
 IPart= 20 NShTot=           0 NBatch=           0 AvBLen=         0.0
 IPart= 19 NShTot=           0 NBatch=           0 AvBLen=         0.0
 IPart= 31 NShTot=           0 NBatch=           0 AvBLen=         0.0
 IPart= 33 NShTot=           0 NBatch=           0 AvBLen=         0.0
 IPart= 21 NShTot=           0 NBatch=           0 AvBLen=         0.0
 IPart= 32 NShTot=           0 NBatch=           0 AvBLen=         0.0
 IPart= 10 NShTot=           0 NBatch=           0 AvBLen=         0.0
 IPart=  2 NShTot=           3 NBatch=           3 AvBLen=         1.0
 IPart=  3 NShTot=           1 NBatch=           1 AvBLen=         1.0
 IPart=  8 NShTot=           0 NBatch=           0 AvBLen=         0.0
 IPart= 13 NShTot=           0 NBatch=           0 AvBLen=         0.0
 IPart= 15 NShTot=           0 NBatch=           0 AvBLen=         0.0
 PrSmSu:  NxtVal=             37.
 *** Overlap *** 
                1             2             3             4             5 
      1  0.100000D+01
      2  0.908171D-03  0.100000D+01
      3  0.771900D-02  0.255104D+00  0.100000D+01
      4  0.000000D+00  0.000000D+00  0.000000D+00  0.100000D+01
      5  0.000000D+00  0.000000D+00  0.000000D+00  0.000000D+00  0.100000D+01
      6 -0.307404D-02  0.000000D+00  0.000000D+00  0.000000D+00  0.000000D+00
      7  0.682796D-01  0.851285D-02  0.305620D+00  0.000000D+00  0.000000D+00
      8  0.000000D+00  0.000000D+00  0.000000D+00  0.282859D+00  0.000000D+00
      9  0.000000D+00  0.000000D+00  0.000000D+00  0.000000D+00  0.282859D+00
     10 -0.993548D-01  0.000000D+00  0.000000D+00  0.000000D+00  0.000000D+00
     11  0.296661D+00  0.657633D-03  0.101668D-01  0.000000D+00  0.000000D+00
     12  0.000000D+00  0.000000D+00  0.000000D+00  0.931227D-02  0.000000D+00
     13  0.000000D+00  0.000000D+00  0.000000D+00  0.000000D+00  0.931227D-02
     14 -0.392738D+00  0.000000D+00  0.000000D+00  0.000000D+00  0.000000D+00
     15  0.228438D+00  0.496746D-02  0.403235D-01  0.000000D+00  0.000000D+00
     16  0.000000D+00  0.000000D+00  0.000000D+00  0.310109D-02  0.000000D+00
     17  0.000000D+00  0.000000D+00  0.000000D+00  0.000000D+00  0.310109D-02
     18 -0.214873D+00  0.000000D+00  0.000000D+00  0.000000D+00  0.000000D+00
                6             7             8             9            10 
      6  0.100000D+01
      7  0.000000D+00  0.100000D+01
      8  0.000000D+00  0.000000D+00  0.100000D+01
      9  0.000000D+00  0.000000D+00  0.000000D+00  0.100000D+01
     10  0.282859D+00  0.000000D+00  0.000000D+00  0.000000D+00  0.100000D+01
     11  0.000000D+00  0.215867D+00  0.000000D+00  0.000000D+00  0.000000D+00
     12  0.000000D+00  0.000000D+00  0.200079D+00  0.000000D+00  0.000000D+00
     13  0.000000D+00  0.000000D+00  0.000000D+00  0.200079D+00  0.000000D+00
     14  0.931227D-02  0.000000D+00  0.000000D+00  0.000000D+00  0.200079D+00
     15  0.000000D+00  0.230714D+00  0.000000D+00  0.000000D+00  0.000000D+00
     16  0.000000D+00  0.000000D+00  0.749696D-01  0.000000D+00  0.000000D+00
     17  0.000000D+00  0.000000D+00  0.000000D+00  0.749696D-01  0.000000D+00
     18  0.310109D-02  0.000000D+00  0.000000D+00  0.000000D+00  0.749696D-01
               11            12            13            14            15 
     11  0.100000D+01
     12  0.000000D+00  0.100000D+01
     13  0.000000D+00  0.000000D+00  0.100000D+01
     14  0.000000D+00  0.000000D+00  0.000000D+00  0.100000D+01
     15  0.889160D+00  0.000000D+00  0.000000D+00  0.000000D+00  0.100000D+01
     16  0.000000D+00  0.788263D+00  0.000000D+00  0.000000D+00  0.000000D+00
     17  0.000000D+00  0.000000D+00  0.788263D+00  0.000000D+00  0.000000D+00
     18  0.000000D+00  0.000000D+00  0.000000D+00  0.788263D+00  0.000000D+00
               16            17            18 
     16  0.100000D+01
     17  0.000000D+00  0.100000D+01
     18  0.000000D+00  0.000000D+00  0.100000D+01
 *** Kinetic Energy *** 
                1             2             3             4             5 
      1  0.760032D+00
      2 -0.376186D-03  0.176298D+03
      3 -0.304376D-02 -0.620687D+01  0.781415D+01
      4  0.000000D+00  0.000000D+00  0.000000D+00  0.280311D+02
      5  0.000000D+00  0.000000D+00  0.000000D+00  0.000000D+00  0.280311D+02
      6  0.490934D-03  0.000000D+00  0.000000D+00  0.000000D+00  0.000000D+00
      7 -0.176586D-01 -0.709406D+00 -0.685499D+00  0.000000D+00  0.000000D+00
      8  0.000000D+00  0.000000D+00  0.000000D+00  0.125035D+01  0.000000D+00
      9  0.000000D+00  0.000000D+00  0.000000D+00  0.000000D+00  0.125035D+01
     10  0.902903D-02  0.000000D+00  0.000000D+00  0.000000D+00  0.000000D+00
     11  0.255470D-01 -0.621117D-02 -0.439131D-01  0.000000D+00  0.000000D+00
     12  0.000000D+00  0.000000D+00  0.000000D+00  0.182620D-02  0.000000D+00
     13  0.000000D+00  0.000000D+00  0.000000D+00  0.000000D+00  0.182620D-02
     14 -0.520557D-01  0.000000D+00  0.000000D+00  0.000000D+00  0.000000D+00
     15  0.866854D-02  0.239311D-03  0.193628D-02  0.000000D+00  0.000000D+00
     16  0.000000D+00  0.000000D+00  0.000000D+00  0.248286D-03  0.000000D+00
     17  0.000000D+00  0.000000D+00  0.000000D+00  0.000000D+00  0.248286D-03
     18 -0.146223D-01  0.000000D+00  0.000000D+00  0.000000D+00  0.000000D+00
                6             7             8             9            10 
      6  0.280311D+02
      7  0.000000D+00  0.856984D+00
      8  0.000000D+00  0.000000D+00  0.155517D+01
      9  0.000000D+00  0.000000D+00  0.000000D+00  0.155517D+01
     10  0.125035D+01  0.000000D+00  0.000000D+00  0.000000D+00  0.155517D+01
     11  0.000000D+00 -0.669248D-01  0.000000D+00  0.000000D+00  0.000000D+00
     12  0.000000D+00  0.000000D+00  0.358731D-01  0.000000D+00  0.000000D+00
     13  0.000000D+00  0.000000D+00  0.000000D+00  0.358731D-01  0.000000D+00
     14  0.182620D-02  0.000000D+00  0.000000D+00  0.000000D+00  0.358731D-01
     15  0.000000D+00  0.106939D-01  0.000000D+00  0.000000D+00  0.000000D+00
     16  0.000000D+00  0.000000D+00  0.579876D-02  0.000000D+00  0.000000D+00
     17  0.000000D+00  0.000000D+00  0.000000D+00  0.579876D-02  0.000000D+00
     18  0.248286D-03  0.000000D+00  0.000000D+00  0.000000D+00  0.579876D-02
               11            12            13            14            15 
     11  0.660420D-01
     12  0.000000D+00  0.974466D-01
     13  0.000000D+00  0.000000D+00  0.974466D-01
     14  0.000000D+00  0.000000D+00  0.000000D+00  0.974466D-01
     15  0.293463D-01  0.000000D+00  0.000000D+00  0.000000D+00  0.240938D-01
     16  0.000000D+00  0.448313D-01  0.000000D+00  0.000000D+00  0.000000D+00
     17  0.000000D+00  0.000000D+00  0.448313D-01  0.000000D+00  0.000000D+00
     18  0.000000D+00  0.000000D+00  0.000000D+00  0.448313D-01  0.000000D+00
               16            17            18 
     16  0.401564D-01
     17  0.000000D+00  0.401564D-01
     18  0.000000D+00  0.000000D+00  0.401564D-01
 Entering OneElI...
 Calculate potential energy integrals
    NBasis =  18  MinDer = 0  MaxDer = 0
 Requested accuracy = 0.1000D-12
 Symmetry will be used
 PrmmSu-InSpLW:  IPartL=    0 NPrtUS=   36 NPrtUL=    1 DoSpLW=F IThBeg=    0 IThEnd=   35 NThAct=   36.
 PrSmSu:  IncTry=   512 NBBP=             42 NTPThr=   100 NPartT=   36 Incr=           1 LDynOK=F GPUOK=F.
 PrsmSu:  NPrtUS=  36 ThrOK=T IAlg=1 LenDen=           0 ISkipM=0 DoSpLW=F IThBeg=    0 IThEnd=   35.
 Prism:   IPart=     0 DynPar=F LinDyn=F Incr=           1.
 PRISM was handed   268433413 working-precision words and    21 shell-pairs
 PRISM was handed   268433413 working-precision words and    21 shell-pairs
 PRISM was handed   268433413 working-precision words and    21 shell-pairs
 PRISM was handed   268433413 working-precision words and    21 shell-pairs
 PRISM was handed   268433413 working-precision words and    21 shell-pairs
 PRISM was handed   268433413 working-precision words and    21 shell-pairs
 PRISM was handed   268433413 working-precision words and    21 shell-pairs
 PRISM was handed   268433413 working-precision words and    21 shell-pairs
 PRISM was handed   268433413 working-precision words and    21 shell-pairs
 PRISM was handed   268433413 working-precision words and    21 shell-pairs
 PRISM was handed   268433413 working-precision words and    21 shell-pairs
 PRISM was handed   268433413 working-precision words and    21 shell-pairs
 PRISM was handed   268433413 working-precision words and    21 shell-pairs
 PRISM was handed   268433413 working-precision words and    21 shell-pairs
 PRISM was handed   268433413 working-precision words and    21 shell-pairs
 PRISM was handed   268433413 working-precision words and    21 shell-pairs
 PRISM was handed   268433413 working-precision words and    21 shell-pairs
 PRISM was handed   268433413 working-precision words and    21 shell-pairs
 PRISM was handed   268433413 working-precision words and    21 shell-pairs
 PRISM was handed   268433413 working-precision words and    21 shell-pairs
 PRISM was handed   268433413 working-precision words and    21 shell-pairs
 PRISM was handed   268433413 working-precision words and    21 shell-pairs
 PRISM was handed   268433413 working-precision words and    21 shell-pairs
 PRISM was handed   268433413 working-precision words and    21 shell-pairs
 PRISM was handed   268433413 working-precision words and    21 shell-pairs
 PRISM was handed   268433413 working-precision words and    21 shell-pairs
 PRISM was handed   268433413 working-precision words and    21 shell-pairs
 PRISM was handed   268433413 working-precision words and    21 shell-pairs
 PRISM was handed   268433413 working-precision words and    21 shell-pairs
 PRISM was handed   268433413 working-precision words and    21 shell-pairs
 PRISM was handed   268433413 working-precision words and    21 shell-pairs
 PRISM was handed   268433413 working-precision words and    21 shell-pairs
 PRISM was handed   268433413 working-precision words and    21 shell-pairs
 PRISM was handed   268433413 working-precision words and    21 shell-pairs
 PRISM was handed   268433413 working-precision words and    21 shell-pairs
 PRISM was handed   268433413 working-precision words and    21 shell-pairs
 IPart= 25 NShTot=           0 NBatch=           0 AvBLen=         0.0
 IPart= 34 NShTot=           0 NBatch=           0 AvBLen=         0.0
 IPart= 21 NShTot=           0 NBatch=           0 AvBLen=         0.0
 IPart= 33 NShTot=           0 NBatch=           0 AvBLen=         0.0
 IPart= 35 NShTot=           0 NBatch=           0 AvBLen=         0.0
 IPart=  4 NShTot=           0 NBatch=           0 AvBLen=         0.0
 IPart=  3 NShTot=           0 NBatch=           0 AvBLen=         0.0
 IPart= 23 NShTot=           0 NBatch=           0 AvBLen=         0.0
 IPart= 17 NShTot=           0 NBatch=           0 AvBLen=         0.0
 IPart= 22 NShTot=           0 NBatch=           0 AvBLen=         0.0
 IPart=  8 NShTot=           0 NBatch=           0 AvBLen=         0.0
 IPart= 11 NShTot=           0 NBatch=           0 AvBLen=         0.0
 IPart=  9 NShTot=           0 NBatch=           0 AvBLen=         0.0
 IPart= 32 NShTot=           0 NBatch=           0 AvBLen=         0.0
 IPart= 30 NShTot=           0 NBatch=           0 AvBLen=         0.0
 IPart= 26 NShTot=           0 NBatch=           0 AvBLen=         0.0
 IPart= 15 NShTot=           0 NBatch=           0 AvBLen=         0.0
 IPart= 29 NShTot=           0 NBatch=           0 AvBLen=         0.0
 IPart= 27 NShTot=           0 NBatch=           0 AvBLen=         0.0
 IPart= 10 NShTot=           0 NBatch=           0 AvBLen=         0.0
 IPart= 28 NShTot=           0 NBatch=           0 AvBLen=         0.0
 IPart= 18 NShTot=           0 NBatch=           0 AvBLen=         0.0
 IPart= 19 NShTot=           0 NBatch=           0 AvBLen=         0.0
 IPart=  7 NShTot=           0 NBatch=           0 AvBLen=         0.0
 IPart= 31 NShTot=           0 NBatch=           0 AvBLen=         0.0
 IPart= 12 NShTot=           0 NBatch=           0 AvBLen=         0.0
 IPart= 24 NShTot=           0 NBatch=           0 AvBLen=         0.0
 IPart= 16 NShTot=           0 NBatch=           0 AvBLen=         0.0
 IPart=  6 NShTot=           0 NBatch=           0 AvBLen=         0.0
 IPart=  5 NShTot=           0 NBatch=           0 AvBLen=         0.0
 IPart= 20 NShTot=           0 NBatch=           0 AvBLen=         0.0
 IPart= 14 NShTot=           0 NBatch=           0 AvBLen=         0.0
 IPart= 13 NShTot=           0 NBatch=           0 AvBLen=         0.0
 IPart=  2 NShTot=           4 NBatch=           2 AvBLen=         2.0
 IPart=  0 NShTot=          24 NBatch=          12 AvBLen=         2.0
 IPart=  1 NShTot=          14 NBatch=           7 AvBLen=         2.0
 PrSmSu:  NxtVal=             37.
 ***** Potential Energy ***** 
                1             2             3             4             5 
      1  0.601336D+01
      2  0.175922D+00  0.355925D+03
      3  0.346196D+00  0.428665D+02  0.620870D+02
      4  0.000000D+00  0.000000D+00  0.000000D+00  0.711578D+02
      5  0.000000D+00  0.000000D+00  0.000000D+00  0.000000D+00  0.711578D+02
      6 -0.109586D+00 -0.172029D-02 -0.129996D-01  0.000000D+00  0.000000D+00
      7  0.838383D+00  0.118180D+01  0.115237D+02  0.000000D+00  0.000000D+00
      8  0.000000D+00  0.000000D+00  0.000000D+00  0.115055D+02  0.000000D+00
      9  0.000000D+00  0.000000D+00  0.000000D+00  0.000000D+00  0.115055D+02
     10 -0.975616D+00 -0.862974D-04 -0.599603D-02  0.000000D+00  0.000000D+00
     11  0.170304D+01  0.123638D+00  0.388375D+00  0.000000D+00  0.000000D+00
     12  0.000000D+00  0.000000D+00  0.000000D+00  0.334584D+00  0.000000D+00
     13  0.000000D+00  0.000000D+00  0.000000D+00  0.000000D+00  0.334584D+00
     14 -0.212936D+01 -0.187535D-05 -0.212452D-03  0.000000D+00  0.000000D+00
     15  0.129971D+01  0.963693D+00  0.183692D+01  0.000000D+00  0.000000D+00
     16  0.000000D+00  0.000000D+00  0.000000D+00  0.111068D+00  0.000000D+00
     17  0.000000D+00  0.000000D+00  0.000000D+00  0.000000D+00  0.111068D+00
     18 -0.108675D+01  0.000000D+00 -0.708649D-04  0.000000D+00  0.000000D+00
                6             7             8             9            10 
      6  0.711591D+02
      7 -0.646907D-02  0.182718D+02
      8  0.000000D+00  0.000000D+00  0.168675D+02
      9  0.000000D+00  0.000000D+00  0.000000D+00  0.168675D+02
     10  0.115066D+02 -0.470879D-01  0.000000D+00  0.000000D+00  0.168886D+02
     11 -0.239863D-03  0.240779D+01  0.000000D+00  0.000000D+00 -0.219051D-01
     12  0.000000D+00  0.000000D+00  0.210537D+01  0.000000D+00  0.000000D+00
     13  0.000000D+00  0.000000D+00  0.000000D+00  0.210537D+01  0.000000D+00
     14  0.334626D+00 -0.115955D-01  0.000000D+00  0.000000D+00  0.211550D+01
     15 -0.776856D-03  0.320160D+01  0.000000D+00  0.000000D+00 -0.186797D-01
     16  0.000000D+00  0.000000D+00  0.764108D+00  0.000000D+00  0.000000D+00
     17  0.000000D+00  0.000000D+00  0.000000D+00  0.764108D+00  0.000000D+00
     18  0.111082D+00 -0.437830D-02  0.000000D+00  0.000000D+00  0.768124D+00
               11            12            13            14            15 
     11  0.496738D+01
     12  0.000000D+00  0.416066D+01
     13  0.000000D+00  0.000000D+00  0.416066D+01
     14 -0.872035D-01  0.000000D+00  0.000000D+00  0.422740D+01
     15  0.411938D+01  0.000000D+00  0.000000D+00 -0.731628D-01  0.401540D+01
     16  0.000000D+00  0.276209D+01  0.000000D+00  0.000000D+00  0.000000D+00
     17  0.000000D+00  0.000000D+00  0.276209D+01  0.000000D+00  0.000000D+00
     18 -0.503738D-01  0.000000D+00  0.000000D+00  0.280174D+01 -0.505061D-01
               16            17            18 
     16  0.268430D+01
     17  0.000000D+00  0.268430D+01
     18  0.000000D+00  0.000000D+00  0.271299D+01
 ****** Core Hamiltonian ****** 
                1             2             3             4             5 
      1 -0.525333D+01
      2 -0.176298D+00 -0.179627D+03
      3 -0.349239D+00 -0.490733D+02 -0.542728D+02
      4  0.000000D+00  0.000000D+00  0.000000D+00 -0.431267D+02
      5  0.000000D+00  0.000000D+00  0.000000D+00  0.000000D+00 -0.431267D+02
      6  0.110077D+00  0.172029D-02  0.129996D-01  0.000000D+00  0.000000D+00
      7 -0.856042D+00 -0.189120D+01 -0.122092D+02  0.000000D+00  0.000000D+00
      8  0.000000D+00  0.000000D+00  0.000000D+00 -0.102552D+02  0.000000D+00
      9  0.000000D+00  0.000000D+00  0.000000D+00  0.000000D+00 -0.102552D+02
     10  0.984645D+00  0.862974D-04  0.599603D-02  0.000000D+00  0.000000D+00
     11 -0.167749D+01 -0.129849D+00 -0.432289D+00  0.000000D+00  0.000000D+00
     12  0.000000D+00  0.000000D+00  0.000000D+00 -0.332757D+00  0.000000D+00
     13  0.000000D+00  0.000000D+00  0.000000D+00  0.000000D+00 -0.332757D+00
     14  0.207730D+01  0.187535D-05  0.212452D-03  0.000000D+00  0.000000D+00
     15 -0.129104D+01 -0.963454D+00 -0.183498D+01  0.000000D+00  0.000000D+00
     16  0.000000D+00  0.000000D+00  0.000000D+00 -0.110820D+00  0.000000D+00
     17  0.000000D+00  0.000000D+00  0.000000D+00  0.000000D+00 -0.110820D+00
     18  0.107212D+01  0.000000D+00  0.708649D-04  0.000000D+00  0.000000D+00
                6             7             8             9            10 
      6 -0.431281D+02
      7  0.646907D-02 -0.174148D+02
      8  0.000000D+00  0.000000D+00 -0.153123D+02
      9  0.000000D+00  0.000000D+00  0.000000D+00 -0.153123D+02
     10 -0.102562D+02  0.470879D-01  0.000000D+00  0.000000D+00 -0.153334D+02
     11  0.239863D-03 -0.247471D+01  0.000000D+00  0.000000D+00  0.219051D-01
     12  0.000000D+00  0.000000D+00 -0.206950D+01  0.000000D+00  0.000000D+00
     13  0.000000D+00  0.000000D+00  0.000000D+00 -0.206950D+01  0.000000D+00
     14 -0.332800D+00  0.115955D-01  0.000000D+00  0.000000D+00 -0.207962D+01
     15  0.776856D-03 -0.319091D+01  0.000000D+00  0.000000D+00  0.186797D-01
     16  0.000000D+00  0.000000D+00 -0.758309D+00  0.000000D+00  0.000000D+00
     17  0.000000D+00  0.000000D+00  0.000000D+00 -0.758309D+00  0.000000D+00
     18 -0.110834D+00  0.437830D-02  0.000000D+00  0.000000D+00 -0.762325D+00
               11            12            13            14            15 
     11 -0.490134D+01
     12  0.000000D+00 -0.406321D+01
     13  0.000000D+00  0.000000D+00 -0.406321D+01
     14  0.872035D-01  0.000000D+00  0.000000D+00 -0.412996D+01
     15 -0.409003D+01  0.000000D+00  0.000000D+00  0.731628D-01 -0.399130D+01
     16  0.000000D+00 -0.271726D+01  0.000000D+00  0.000000D+00  0.000000D+00
     17  0.000000D+00  0.000000D+00 -0.271726D+01  0.000000D+00  0.000000D+00
     18  0.503738D-01  0.000000D+00  0.000000D+00 -0.275691D+01  0.505061D-01
               16            17            18 
     16 -0.264415D+01
     17  0.000000D+00 -0.264415D+01
     18  0.000000D+00  0.000000D+00 -0.267283D+01
 SVDSVc IOpt=   1 NormSV=T IR=1
 SVDSVc V= 2.21D+00 1.92D+00 1.35D+00 1.25D+00 9.53D-01 7.50D-01 6.91D-01 5.87D-01 1.79D-01 1.06D-01
 SVDSVc IOpt=   1 NormSV=T IR=3
 SVDSVc V= 1.84D+00 1.25D+00 7.08D-01 2.01D-01
 SVDSVc IOpt=   1 NormSV=T IR=4
 SVDSVc V= 1.84D+00 1.25D+00 7.08D-01 2.01D-01
 TstOVc:  Largest diagonal error= 1.33D-15 IB=1 I=    9.
 TstOVc:  Largest same sym error= 1.45D-15 IB=1 I=    4 J=    3.
 TstOVc:  Largest diff sym error= 0.00D+00 IB=0 JB=0 I=    0 J=    0.
 Orthogonalized basis functions: 
                 1             2             3             4             5 
      1   0.280794D+00 -0.102918D+00 -0.651134D-01  0.356481D-01  0.124743D+00
      2   0.152222D-01  0.227995D-01  0.448633D+00  0.162903D-01  0.761088D+00
      3   0.586146D-01  0.713485D-01  0.607988D+00  0.162529D-01 -0.122559D+00
      4   0.000000D+00  0.000000D+00  0.000000D+00  0.000000D+00  0.000000D+00
      5   0.000000D+00  0.000000D+00  0.000000D+00  0.000000D+00  0.000000D+00
      6  -0.221632D-01  0.498718D-01 -0.223737D-01  0.647357D+00  0.642823D-02
      7   0.156538D+00  0.151966D+00  0.346834D+00  0.159896D-02 -0.637930D+00
      8   0.000000D+00  0.000000D+00  0.000000D+00  0.000000D+00  0.000000D+00
      9   0.000000D+00  0.000000D+00  0.000000D+00  0.000000D+00  0.000000D+00
     10  -0.815515D-01  0.143910D+00 -0.269106D-01  0.581483D+00 -0.138598D-02
     11   0.345120D+00  0.276434D+00 -0.154914D+00 -0.151459D-01  0.129086D+00
     12   0.000000D+00  0.000000D+00  0.000000D+00  0.000000D+00  0.000000D+00
     13   0.000000D+00  0.000000D+00  0.000000D+00  0.000000D+00  0.000000D+00
     14  -0.243290D+00  0.399024D+00 -0.328706D-01 -0.102456D+00  0.304774D-01
     15   0.337981D+00  0.282804D+00 -0.130827D+00 -0.167658D-01  0.107233D+00
     16   0.000000D+00  0.000000D+00  0.000000D+00  0.000000D+00  0.000000D+00
     17   0.000000D+00  0.000000D+00  0.000000D+00  0.000000D+00  0.000000D+00
     18  -0.213149D+00  0.377594D+00 -0.399623D-01 -0.170184D+00  0.605996D-01
                 6             7             8             9            10 
      1   0.836450D+00  0.559671D+00 -0.749945D-01  0.417670D+00 -0.265170D+00
      2  -0.930985D-01 -0.564918D-01 -0.531495D+00 -0.130562D-02 -0.996355D-02
      3   0.927854D-01  0.701235D-01  0.883879D+00  0.759468D-02  0.708967D-01
      4   0.000000D+00  0.000000D+00  0.000000D+00  0.000000D+00  0.000000D+00
      5   0.000000D+00  0.000000D+00  0.000000D+00  0.000000D+00  0.000000D+00
      6   0.411820D+00 -0.702028D+00  0.140570D-01  0.758684D-01 -0.499791D-02
      7   0.175793D-01 -0.147359D-01 -0.773305D+00  0.122378D-02  0.136355D-01
      8   0.000000D+00  0.000000D+00  0.000000D+00  0.000000D+00  0.000000D+00
      9   0.000000D+00  0.000000D+00  0.000000D+00  0.000000D+00  0.000000D+00
     10  -0.363836D+00  0.770334D+00 -0.209393D-01 -0.255568D+00  0.202482D-01
     11  -0.155474D+00 -0.897605D-01  0.112799D+00  0.142821D+00  0.218476D+01
     12   0.000000D+00  0.000000D+00  0.000000D+00  0.000000D+00  0.000000D+00
     13   0.000000D+00  0.000000D+00  0.000000D+00  0.000000D+00  0.000000D+00
     14   0.112330D+00  0.545276D-01 -0.222910D-02  0.171691D+01 -0.284600D+00
     15  -0.240608D+00 -0.152722D+00  0.150620D+00 -0.271606D+00 -0.211206D+01
     16   0.000000D+00  0.000000D+00  0.000000D+00  0.000000D+00  0.000000D+00
     17   0.000000D+00  0.000000D+00  0.000000D+00  0.000000D+00  0.000000D+00
     18   0.468594D+00  0.702398D-01 -0.310472D-01 -0.151612D+01  0.185545D+00
                11            12            13            14            15 
      1   0.000000D+00  0.000000D+00  0.000000D+00  0.000000D+00  0.000000D+00
      2   0.000000D+00  0.000000D+00  0.000000D+00  0.000000D+00  0.000000D+00
      3   0.000000D+00  0.000000D+00  0.000000D+00  0.000000D+00  0.000000D+00
      4   0.709850D-01  0.645112D+00 -0.813656D+00  0.880868D-01  0.000000D+00
      5   0.000000D+00  0.000000D+00  0.000000D+00  0.000000D+00  0.709850D-01
      6   0.000000D+00  0.000000D+00  0.000000D+00  0.000000D+00  0.000000D+00
      7   0.000000D+00  0.000000D+00  0.000000D+00  0.000000D+00  0.000000D+00
      8   0.188890D+00  0.576969D+00  0.841851D+00 -0.284389D+00  0.000000D+00
      9   0.000000D+00  0.000000D+00  0.000000D+00  0.000000D+00  0.188890D+00
     10   0.000000D+00  0.000000D+00  0.000000D+00  0.000000D+00  0.000000D+00
     11   0.000000D+00  0.000000D+00  0.000000D+00  0.000000D+00  0.000000D+00
     12   0.508568D+00 -0.118274D+00 -0.151283D-02  0.158900D+01  0.000000D+00
     13   0.000000D+00  0.000000D+00  0.000000D+00  0.000000D+00  0.508568D+00
     14   0.000000D+00  0.000000D+00  0.000000D+00  0.000000D+00  0.000000D+00
     15   0.000000D+00  0.000000D+00  0.000000D+00  0.000000D+00  0.000000D+00
     16   0.493792D+00 -0.191632D+00 -0.203508D+00 -0.154043D+01  0.000000D+00
     17   0.000000D+00  0.000000D+00  0.000000D+00  0.000000D+00  0.493792D+00
     18   0.000000D+00  0.000000D+00  0.000000D+00  0.000000D+00  0.000000D+00
                16            17            18 
      1   0.000000D+00  0.000000D+00  0.000000D+00
      2   0.000000D+00  0.000000D+00  0.000000D+00
      3   0.000000D+00  0.000000D+00  0.000000D+00
      4   0.000000D+00  0.000000D+00  0.000000D+00
      5   0.645112D+00 -0.813656D+00  0.880868D-01
      6   0.000000D+00  0.000000D+00  0.000000D+00
      7   0.000000D+00  0.000000D+00  0.000000D+00
      8   0.000000D+00  0.000000D+00  0.000000D+00
      9   0.576969D+00  0.841851D+00 -0.284389D+00
     10   0.000000D+00  0.000000D+00  0.000000D+00
     11   0.000000D+00  0.000000D+00  0.000000D+00
     12   0.000000D+00  0.000000D+00  0.000000D+00
     13  -0.118274D+00 -0.151283D-02  0.158900D+01
     14   0.000000D+00  0.000000D+00  0.000000D+00
     15   0.000000D+00  0.000000D+00  0.000000D+00
     16   0.000000D+00  0.000000D+00  0.000000D+00
     17  -0.191632D+00 -0.203508D+00 -0.154043D+01
     18   0.000000D+00  0.000000D+00  0.000000D+00
 NBasis=    18 RedAO= T EigKep=  1.06D-01  NBF=    10     0     4     4
 NBsUse=    18 1.00D-06 EigRej= -1.00D+00 NBFU=    10     0     4     4
 Leave Link  302 at Mon Mar 28 14:38:50 2022, MaxMem=  9663676416 cpu:               3.4 elap:               0.1
 (Enter /nopt/nrel/apps/gaussian/g16C_1/g16/l303.exe)
 DipDrv will not compute anything.
 Fermi contact integrals: 
                 1             2 
      1   0.628247D+00  0.585797D-02
      2   0.000000D+00  0.398968D+02
      3   0.000000D+00  0.785144D+00
      4   0.000000D+00  0.000000D+00
      5   0.000000D+00  0.000000D+00
      6   0.000000D+00  0.000000D+00
      7   0.747324D-03  0.165565D-01
      8   0.000000D+00  0.000000D+00
      9   0.000000D+00  0.000000D+00
     10  -0.289370D-02  0.000000D+00
     11   0.367890D-01  0.394321D-02
     12   0.000000D+00  0.000000D+00
     13   0.000000D+00  0.000000D+00
     14  -0.530213D-01  0.000000D+00
     15   0.249696D-01  0.321567D-01
     16   0.000000D+00  0.000000D+00
     17   0.000000D+00  0.000000D+00
     18  -0.251170D-01  0.000000D+00
 Leave Link  303 at Mon Mar 28 14:38:50 2022, MaxMem=  9663676416 cpu:               1.1 elap:               0.1
 (Enter /nopt/nrel/apps/gaussian/g16C_1/g16/l401.exe)
 ExpMin= 1.61D-02 ExpMax= 1.72D+03 ExpMxC= 1.72D+03 IAcc=3 IRadAn=         5 AccDes= 0.00D+00
 Harris functional with IExCor=  205 and IRadAn=       5 diagonalized for initial guess.
 HarFok:  IExCor=  205 AccDes= 0.00D+00 IRadAn=         5 IDoV= 1 UseB2=F ITyADJ=14
 ICtDFT=  3500011 ScaDFX=  1.000000  1.000000  1.000000  1.000000
 FoFCou: FMM=F IPFlag=           0 FMFlag=      100000 FMFlg1=           0
         NFxFlg=           0 DoJE=T BraDBF=F KetDBF=T FulRan=T
         wScrn=  0.000000 ICntrl=       500 IOpCl=  0 I1Cent=   200000004 NGrid=           0
         NMat0=    1 NMatS0=      1 NMatT0=    0 NMatD0=    1 NMtDS0=    0 NMtDT0=    0
 Petite list used in FoFCou.
 Harris En= -595.899325215101    
 JPrj=0 DoOrth=F DoCkMO=F.
 Initial guess orbital symmetries:
 Alpha Orbitals:
       Occupied  (SG) (SG) (SG) (PI) (PI) (SG) (SG) (PI) (PI) (SG)
                 (SG)
       Virtual   (PI) (PI) (SG) (SG) (PI) (PI) (SG)
 Beta  Orbitals:
       Occupied  (SG) (SG) (SG) (PI) (PI) (SG) (SG) (PI) (PI)
       Virtual   (SG) (SG) (PI) (PI) (SG) (SG) (PI) (PI) (SG)
 The electronic state of the initial guess is 3-SG.
 Initial guess <Sx>= 0.0000 <Sy>= 0.0000 <Sz>= 1.0000 <S**2>= 2.0000 S= 1.0000
 Leave Link  401 at Mon Mar 28 14:38:50 2022, MaxMem=  9663676416 cpu:               3.7 elap:               0.1
 (Enter /nopt/nrel/apps/gaussian/g16C_1/g16/l502.exe)
 Keep R1 and R2 ints in memory in symmetry-blocked form, NReq=7225907.
 FoFCou: FMM=F IPFlag=           0 FMFlag=           0 FMFlg1=           0
         NFxFlg=           0 DoJE=F BraDBF=F KetDBF=F FulRan=T
         wScrn=  0.000000 ICntrl=       600 IOpCl=  0 I1Cent=           0 NGrid=           0
         NMat0=    1 NMatS0=    171 NMatT0=    0 NMatD0=    1 NMtDS0=    0 NMtDT0=    0
 Petite list used in FoFCou.
 UHF open shell SCF:
 Using DIIS extrapolation, IDIIS=  1040.
 NGot=  9663676416 LenX=  9663664010 LenY=  9663663128
 Requested convergence on RMS density matrix=1.00D-08 within 128 cycles.
 Requested convergence on MAX density matrix=1.00D-06.
 Requested convergence on             energy=1.00D-06.
 No special actions if energy rises.

 Cycle   1  Pass 1  IDiag  1:
 E= -596.577893271944    
 DIIS: error= 2.37D-02 at cycle   1 NSaved=   1.
 NSaved= 1 IEnMin= 1 EnMin= -596.577893271944     IErMin= 1 ErrMin= 2.37D-02
 ErrMax= 2.37D-02  0.00D+00 EMaxC= 1.00D-01 BMatC= 4.01D-02 BMatP= 4.01D-02
 IDIUse=3 WtCom= 7.63D-01 WtEn= 2.37D-01
 Coeff-Com:  0.100D+01
 Coeff-En:   0.100D+01
 Coeff:      0.100D+01
 Gap=     0.160 Goal=   None    Shift=    0.000
 Gap=     0.978 Goal=   None    Shift=    0.000
 GapD=    0.160 DampG=1.000 DampE=0.500 DampFc=0.5000 IDamp=-1.
 Damping current iteration by 5.00D-01
 RMSDP=1.26D-02 MaxDP=1.45D-01              OVMax= 0.00D+00

 Cycle   2  Pass 1  IDiag  1:
 E= -596.586528281701     Delta-E=       -0.008635009757 Rises=F Damp=T
 DIIS: error= 1.59D-02 at cycle   2 NSaved=   2.
 NSaved= 2 IEnMin= 2 EnMin= -596.586528281701     IErMin= 2 ErrMin= 1.59D-02
 ErrMax= 1.59D-02  0.00D+00 EMaxC= 1.00D-01 BMatC= 1.39D-02 BMatP= 4.01D-02
 IDIUse=3 WtCom= 8.41D-01 WtEn= 1.59D-01
 Coeff-Com: -0.131D+01 0.231D+01
 Coeff-En:   0.000D+00 0.100D+01
 Coeff:     -0.110D+01 0.210D+01
 Gap=     0.146 Goal=   None    Shift=    0.000
 Gap=     0.932 Goal=   None    Shift=    0.000
 RMSDP=1.15D-02 MaxDP=1.54D-01 DE=-8.64D-03 OVMax= 0.00D+00

 Cycle   3  Pass 1  IDiag  1:
 E= -596.599470404946     Delta-E=       -0.012942123245 Rises=F Damp=F
 DIIS: error= 2.44D-03 at cycle   3 NSaved=   3.
 NSaved= 3 IEnMin= 3 EnMin= -596.599470404946     IErMin= 3 ErrMin= 2.44D-03
 ErrMax= 2.44D-03  0.00D+00 EMaxC= 1.00D-01 BMatC= 2.14D-04 BMatP= 1.39D-02
 IDIUse=3 WtCom= 9.76D-01 WtEn= 2.44D-02
 Coeff-Com:  0.482D+00-0.943D+00 0.146D+01
 Coeff-En:   0.000D+00 0.000D+00 0.100D+01
 Coeff:      0.471D+00-0.920D+00 0.145D+01
 Gap=     0.145 Goal=   None    Shift=    0.000
 Gap=     0.935 Goal=   None    Shift=    0.000
 RMSDP=3.84D-03 MaxDP=5.40D-02 DE=-1.29D-02 OVMax= 0.00D+00

 Cycle   4  Pass 1  IDiag  1:
 E= -596.599788739840     Delta-E=       -0.000318334895 Rises=F Damp=F
 DIIS: error= 4.48D-04 at cycle   4 NSaved=   4.
 NSaved= 4 IEnMin= 4 EnMin= -596.599788739840     IErMin= 4 ErrMin= 4.48D-04
 ErrMax= 4.48D-04  0.00D+00 EMaxC= 1.00D-01 BMatC= 4.06D-06 BMatP= 2.14D-04
 IDIUse=3 WtCom= 9.96D-01 WtEn= 4.48D-03
 Coeff-Com: -0.193D+00 0.378D+00-0.642D+00 0.146D+01
 Coeff-En:   0.000D+00 0.000D+00 0.000D+00 0.100D+01
 Coeff:     -0.192D+00 0.377D+00-0.639D+00 0.146D+01
 Gap=     0.144 Goal=   None    Shift=    0.000
 Gap=     0.936 Goal=   None    Shift=    0.000
 RMSDP=1.33D-03 MaxDP=2.19D-02 DE=-3.18D-04 OVMax= 0.00D+00

 Cycle   5  Pass 1  IDiag  1:
 E= -596.599807551286     Delta-E=       -0.000018811446 Rises=F Damp=F
 DIIS: error= 1.52D-04 at cycle   5 NSaved=   5.
 NSaved= 5 IEnMin= 5 EnMin= -596.599807551286     IErMin= 5 ErrMin= 1.52D-04
 ErrMax= 1.52D-04  0.00D+00 EMaxC= 1.00D-01 BMatC= 4.86D-07 BMatP= 4.06D-06
 IDIUse=3 WtCom= 9.98D-01 WtEn= 1.52D-03
 Coeff-Com:  0.828D-01-0.163D+00 0.293D+00-0.997D+00 0.178D+01
 Coeff-En:   0.000D+00 0.000D+00 0.000D+00 0.000D+00 0.100D+01
 Coeff:      0.827D-01-0.163D+00 0.292D+00-0.995D+00 0.178D+01
 Gap=     0.144 Goal=   None    Shift=    0.000
 Gap=     0.937 Goal=   None    Shift=    0.000
 RMSDP=6.60D-04 MaxDP=1.12D-02 DE=-1.88D-05 OVMax= 0.00D+00

 Cycle   6  Pass 1  IDiag  1:
 E= -596.599810052753     Delta-E=       -0.000002501467 Rises=F Damp=F
 DIIS: error= 8.99D-06 at cycle   6 NSaved=   6.
 NSaved= 6 IEnMin= 6 EnMin= -596.599810052753     IErMin= 6 ErrMin= 8.99D-06
 ErrMax= 8.99D-06  0.00D+00 EMaxC= 1.00D-01 BMatC= 2.56D-09 BMatP= 4.86D-07
 IDIUse=1 WtCom= 1.00D+00 WtEn= 0.00D+00
 Coeff-Com: -0.820D-02 0.162D-01-0.301D-01 0.116D+00-0.245D+00 0.115D+01
 Coeff:     -0.820D-02 0.162D-01-0.301D-01 0.116D+00-0.245D+00 0.115D+01
 Gap=     0.144 Goal=   None    Shift=    0.000
 Gap=     0.937 Goal=   None    Shift=    0.000
 RMSDP=2.20D-05 MaxDP=3.56D-04 DE=-2.50D-06 OVMax= 0.00D+00

 Cycle   7  Pass 1  IDiag  1:
 E= -596.599810065117     Delta-E=       -0.000000012364 Rises=F Damp=F
 DIIS: error= 4.38D-06 at cycle   7 NSaved=   7.
 NSaved= 7 IEnMin= 7 EnMin= -596.599810065117     IErMin= 7 ErrMin= 4.38D-06
 ErrMax= 4.38D-06  0.00D+00 EMaxC= 1.00D-01 BMatC= 5.23D-10 BMatP= 2.56D-09
 IDIUse=1 WtCom= 1.00D+00 WtEn= 0.00D+00
 Coeff-Com:  0.630D-02-0.124D-01 0.228D-01-0.867D-01 0.180D+00-0.956D+00
 Coeff-Com:  0.185D+01
 Coeff:      0.630D-02-0.124D-01 0.228D-01-0.867D-01 0.180D+00-0.956D+00
 Coeff:      0.185D+01
 Gap=     0.144 Goal=   None    Shift=    0.000
 Gap=     0.937 Goal=   None    Shift=    0.000
 RMSDP=1.13D-05 MaxDP=1.09D-04 DE=-1.24D-08 OVMax= 0.00D+00

 Cycle   8  Pass 1  IDiag  1:
 E= -596.599810068749     Delta-E=       -0.000000003631 Rises=F Damp=F
 DIIS: error= 1.20D-06 at cycle   8 NSaved=   8.
 NSaved= 8 IEnMin= 8 EnMin= -596.599810068749     IErMin= 8 ErrMin= 1.20D-06
 ErrMax= 1.20D-06  0.00D+00 EMaxC= 1.00D-01 BMatC= 3.47D-11 BMatP= 5.23D-10
 IDIUse=1 WtCom= 1.00D+00 WtEn= 0.00D+00
 Coeff-Com: -0.208D-03 0.409D-03-0.853D-03 0.448D-02-0.118D-01 0.167D+00
 Coeff-Com: -0.655D+00 0.150D+01
 Coeff:     -0.208D-03 0.409D-03-0.853D-03 0.448D-02-0.118D-01 0.167D+00
 Coeff:     -0.655D+00 0.150D+01
 Gap=     0.144 Goal=   None    Shift=    0.000
 Gap=     0.937 Goal=   None    Shift=    0.000
 RMSDP=3.52D-06 MaxDP=3.67D-05 DE=-3.63D-09 OVMax= 0.00D+00

 Cycle   9  Pass 1  IDiag  1:
 E= -596.599810068985     Delta-E=       -0.000000000237 Rises=F Damp=F
 DIIS: error= 4.77D-08 at cycle   9 NSaved=   9.
 NSaved= 9 IEnMin= 9 EnMin= -596.599810068985     IErMin= 9 ErrMin= 4.77D-08
 ErrMax= 4.77D-08  0.00D+00 EMaxC= 1.00D-01 BMatC= 1.02D-13 BMatP= 3.47D-11
 IDIUse=1 WtCom= 1.00D+00 WtEn= 0.00D+00
 Coeff-Com:  0.842D-04-0.165D-03 0.321D-03-0.139D-02 0.328D-02-0.342D-01
 Coeff-Com:  0.141D+00-0.344D+00 0.124D+01
 Coeff:      0.842D-04-0.165D-03 0.321D-03-0.139D-02 0.328D-02-0.342D-01
 Coeff:      0.141D+00-0.344D+00 0.124D+01
 Gap=     0.144 Goal=   None    Shift=    0.000
 Gap=     0.937 Goal=   None    Shift=    0.000
 RMSDP=1.16D-07 MaxDP=1.72D-06 DE=-2.37D-10 OVMax= 0.00D+00

 Cycle  10  Pass 1  IDiag  1:
 E= -596.599810068986     Delta-E=       -0.000000000000 Rises=F Damp=F
 DIIS: error= 1.00D-08 at cycle  10 NSaved=  10.
 NSaved=10 IEnMin=10 EnMin= -596.599810068986     IErMin=10 ErrMin= 1.00D-08
 ErrMax= 1.00D-08  0.00D+00 EMaxC= 1.00D-01 BMatC= 3.00D-15 BMatP= 1.02D-13
 IDIUse=1 WtCom= 1.00D+00 WtEn= 0.00D+00
 Coeff-Com: -0.282D-05 0.542D-05-0.175D-04 0.145D-03-0.469D-03 0.926D-02
 Coeff-Com: -0.460D-01 0.121D+00-0.524D+00 0.144D+01
 Coeff:     -0.282D-05 0.542D-05-0.175D-04 0.145D-03-0.469D-03 0.926D-02
 Coeff:     -0.460D-01 0.121D+00-0.524D+00 0.144D+01
 Gap=     0.144 Goal=   None    Shift=    0.000
 Gap=     0.937 Goal=   None    Shift=    0.000
 RMSDP=2.14D-08 MaxDP=2.27D-07 DE=-3.41D-13 OVMax= 0.00D+00

 Cycle  11  Pass 1  IDiag  1:
 E= -596.599810068986     Delta-E=        0.000000000000 Rises=F Damp=F
 DIIS: error= 1.37D-09 at cycle  11 NSaved=  11.
 NSaved=11 IEnMin=10 EnMin= -596.599810068986     IErMin=11 ErrMin= 1.37D-09
 ErrMax= 1.37D-09  0.00D+00 EMaxC= 1.00D-01 BMatC= 4.56D-17 BMatP= 3.00D-15
 IDIUse=1 WtCom= 1.00D+00 WtEn= 0.00D+00
 Coeff-Com:  0.190D-06-0.356D-06 0.176D-05-0.174D-04 0.586D-04-0.124D-02
 Coeff-Com:  0.650D-02-0.172D-01 0.800D-01-0.315D+00 0.125D+01
 Coeff:      0.190D-06-0.356D-06 0.176D-05-0.174D-04 0.586D-04-0.124D-02
 Coeff:      0.650D-02-0.172D-01 0.800D-01-0.315D+00 0.125D+01
 Gap=     0.144 Goal=   None    Shift=    0.000
 Gap=     0.937 Goal=   None    Shift=    0.000
 RMSDP=3.61D-09 MaxDP=3.23D-08 DE= 0.00D+00 OVMax= 0.00D+00

 SCF Done:  E(UHF) =  -596.599810069     A.U. after   11 cycles
            NFock= 11  Conv=0.36D-08     -V/T= 2.0000
 <Sx>= 0.0000 <Sy>= 0.0000 <Sz>= 1.0000 <S**2>= 2.0001 S= 1.0000
 <L.S>= 0.000000000000E+00
 KE= 5.965804424567D+02 PE=-1.426649696248D+03 EE= 2.286816499087D+02
 Annihilation of the first spin contaminant:
 S**2 before annihilation     2.0001,   after     2.0000
 Leave Link  502 at Mon Mar 28 14:38:50 2022, MaxMem=  9663676416 cpu:               6.4 elap:               0.2
 (Enter /nopt/nrel/apps/gaussian/g16C_1/g16/l801.exe)
 Windowed orbitals will be sorted by symmetry type.
 ExpMin= 1.61D-02 ExpMax= 1.72D+03 ExpMxC= 1.72D+03 IAcc=3 IRadAn=         5 AccDes= 0.00D+00
 HarFok:  IExCor=  205 AccDes= 0.00D+00 IRadAn=         5 IDoV=-2 UseB2=F ITyADJ=14
 ICtDFT= 12500011 ScaDFX=  1.000000  1.000000  1.000000  1.000000
 Largest valence mixing into a core orbital is  1.24D-02
 Largest core mixing into a valence orbital is  1.24D-02
 Range of M.O.s used for correlation:    10    18
 NBasis=    18 NAE=    11 NBE=     9 NFC=     9 NFV=     0
 NROrb=      9 NOA=     2 NOB=     0 NVA=     7 NVB=     9
 Leave Link  801 at Mon Mar 28 14:38:50 2022, MaxMem=  9663676416 cpu:               2.7 elap:               0.1
 (Enter /nopt/nrel/apps/gaussian/g16C_1/g16/l804.exe)
 Open-shell transformation, MDV=  9663676416 ITran=4 ISComp=2.
 Unit  1 TFree=         22650 TCopy=          3942.
 Semi-Direct transformation.
 ModeAB=           2 MOrb=             2 LenV=    9663554185
 LASXX=          158 LTotXX=         158 LenRXX=         158
 LTotAB=         269 MaxLAS=        3078 LenRXY=        3078
 NonZer=        3510 LenScr=      785920 LnRSAI=           0
 LnScr1=           0 LExtra=      223048 Total=      1012204
 MaxDsk= 34359738368 SrtSym=           F ITran=            4
 DoSDTr:  NPSUse= 36
 JobTyp=1 Pass  1:  I=   1 to   2.
 (rs|ai) integrals will be sorted in core.
 Complete sort for first half transformation.
 First half transformation complete.
 Complete sort for second half transformation.
 Second half transformation complete.
 Spin components of T(2) and E(2):
     alpha-alpha T2 =       0.6420844860D-05 E2=     -0.5445735182D-05
     alpha-beta  T2 =       0.0000000000D+00 E2=      0.0000000000D+00
     beta-beta   T2 =       0.0000000000D+00 E2=      0.0000000000D+00
 ANorm=    0.1000003210D+01
 E2 =    -0.5445735182D-05 EUMP2 =    -0.59659981551472D+03
 Leave Link  804 at Mon Mar 28 14:38:50 2022, MaxMem=  9663676416 cpu:               2.1 elap:               0.1
 (Enter /nopt/nrel/apps/gaussian/g16C_1/g16/l913.exe)
 CIDS:  MDV=  9663676416.
 Frozen-core window:  NFC=   9 NFV=   0.
 IFCWin=0 IBDFC=1 NFBD=     0     0 NFCmp=     0     0 NFFFC=     0     0
 Using original routines for 1st iteration.
 Using DD4UQ or CC4UQ for 2nd and later iterations.
 Keep R2 and R3 ints in memory in symmetry-blocked form, NReq=7228325.
 FoFCou: FMM=F IPFlag=           0 FMFlag=           0 FMFlg1=           0
         NFxFlg=           0 DoJE=F BraDBF=F KetDBF=F FulRan=T
         wScrn=  0.000000 ICntrl=       600 IOpCl=  0 I1Cent=           0 NGrid=           0
         NMat0=    1 NMatS0=    171 NMatT0=    0 NMatD0=    1 NMtDS0=    0 NMtDT0=    0
 Petite list used in FoFCou.
 CIDS: In Core Option IDoMem=           1.
 Coupled Cluster theory with single and double substitutions
 ===========================================================
 Iterations= 200 Convergence= 0.100D-06
 Produce multiple copies of IABC intergrals
 Iteration Nr.   1
 **********************
 DD1Dir will call FoFMem   1 times, MxPair=         2
 NAB=     0 NAA=     1 NBB=     0.
 MP4(R+Q)=  0.34966221D-10
 Maximum subspace dimension=  5
 A-vector RMS=  2.0758012D-04 Max=  4.4072132D-04 conv= 1.00D-05.
 RLE energy=       -0.0000079166
 E3=       -0.16997043D-05        EUMP3=      -0.59659981721D+03
 E4(DQ)=   -0.53377312D-06        UMP4(DQ)=   -0.59659981775D+03
 E4(SDQ)=  -0.54444172D-06        UMP4(SDQ)=  -0.59659981776D+03
 VARIATIONAL ENERGIES WITH THE FIRST-ORDER WAVEFUNCTION:
 DE(Corr)= -0.71454043E-05 E(Corr)=     -596.59981721    
 NORM(A)=   0.10000068D+01
 Iteration Nr.   2
 **********************
 DD1Dir will call FoFMem   1 times, MxPair=         2
 NAB=     0 NAA=     1 NBB=     0.
 A-vector RMS=  1.9470829D-05 Max=  3.1259139D-05 conv= 1.00D-05.
 RLE energy=       -0.0000079555
 DE(Corr)= -0.79368670E-05 E(CORR)=     -596.59981801     Delta=-7.91D-07
 NORM(A)=   0.10000069D+01
 Iteration Nr.   3
 **********************
 DD1Dir will call FoFMem   1 times, MxPair=         2
 NAB=     0 NAA=     1 NBB=     0.
 A-vector RMS=  4.2550901D-06 Max=  1.0170797D-05 conv= 1.00D-05.
 RLE energy=       -0.0000079564
 DE(Corr)= -0.79554826E-05 E(CORR)=     -596.59981802     Delta=-1.86D-08
 NORM(A)=   0.10000069D+01
 Iteration Nr.   4
 **********************
 DD1Dir will call FoFMem   1 times, MxPair=         2
 NAB=     0 NAA=     1 NBB=     0.
 A-vector RMS=  9.9274368D-07 Max=  3.2763609D-06 conv= 1.00D-05.
 RLE energy=       -0.0000079564
 DE(Corr)= -0.79563919E-05 E(CORR)=     -596.59981803     Delta=-9.09D-10
 NORM(A)=   0.10000069D+01
 CI/CC converged in    4 iterations to DelEn=-9.09D-10 Conv= 1.00D-07 ErrA1= 9.93D-07 Conv= 1.00D-05
 Wavefunction amplitudes converged. E(Corr)=     -596.59981803    
 Largest amplitude= 2.07D-03
 Discarding MO integrals.
 Leave Link  913 at Mon Mar 28 14:38:50 2022, MaxMem=  9663676416 cpu:               5.1 elap:               0.2
 (Enter /nopt/nrel/apps/gaussian/g16C_1/g16/l601.exe)
 Copying SCF densities to generalized density rwf, IOpCl= 1 IROHF=0.

 **********************************************************************

            Population analysis using the SCF Density.

 **********************************************************************

 Orbital symmetries:
 Alpha Orbitals:
       Occupied  (SG) (SG) (SG) (PI) (PI) (SG) (SG) (PI) (PI) (SG)
                 (SG)
       Virtual   (PI) (PI) (SG) (SG) (PI) (PI) (SG)
 Beta  Orbitals:
       Occupied  (SG) (SG) (PI) (PI) (SG) (SG) (SG) (PI) (PI)
       Virtual   (SG) (PI) (PI) (SG) (SG) (PI) (PI) (SG) (SG)
 The electronic state is 3-SG.
 Alpha  occ. eigenvalues -- -132.62427 -14.42439 -11.44006 -11.43903 -11.43903
 Alpha  occ. eigenvalues --   -1.76010  -0.97269  -0.95990  -0.95990  -0.56967
 Alpha  occ. eigenvalues --   -0.13184
 Alpha virt. eigenvalues --    0.01228   0.01228   0.02294   0.08429   0.10066
 Alpha virt. eigenvalues --    0.10066   0.17766
  Beta  occ. eigenvalues -- -132.62296 -14.42247 -11.43834 -11.43834 -11.43746
  Beta  occ. eigenvalues --   -1.75271  -0.95800  -0.95740  -0.95740
  Beta virt. eigenvalues --   -0.02030   0.03084   0.03084   0.04131   0.06202
  Beta virt. eigenvalues --    0.12284   0.12284   0.13010   0.36424
          Condensed to atoms (all electrons):
               1          2
     1  H    0.870577   0.044121
     2  K    0.044121  19.041180
          Atomic-Atomic Spin Densities.
               1          2
     1  H    0.869091   0.037238
     2  K    0.037238   1.056433
 Mulliken charges and spin densities:
               1          2
     1  H    0.085302   0.906329
     2  K   -0.085302   1.093671
 Sum of Mulliken charges =  -0.00000   2.00000
 Mulliken charges and spin densities with hydrogens summed into heavy atoms:
               1          2
     2  K   -0.000000   2.000000
 N-N= 4.787793813086D+00 E-N=-1.426649696252D+03  KE= 5.965804424567D+02
 Symmetry A1   KE= 4.714059066773D+02
 Symmetry A2   KE= 0.000000000000D+00
 Symmetry B1   KE= 6.258726788970D+01
 Symmetry B2   KE= 6.258726788970D+01
 Symmetry A1   SP= 2.000000000000D+00
 Symmetry A2   SP= 0.000000000000D+00
 Symmetry B1   SP=-5.278473889302D-15
 Symmetry B2   SP= 2.500486962901D-15

 Atomic contributions to Alpha molecular orbitals:
 Alpha occ 1 OE=-132.624 is K2-s=1.0000
 Alpha occ 2 OE=-14.424 is K2-s=1.0000
 Alpha occ 3 OE=-11.440 is K2-p=1.0000
 Alpha occ 4 OE=-11.439 is K2-p=1.0000
 Alpha occ 5 OE=-11.439 is K2-p=1.0000
 Alpha occ 6 OE=-1.760 is K2-s=0.9987
 Alpha occ 7 OE=-0.973 is K2-p=0.9751
 Alpha occ 8 OE=-0.960 is K2-p=1.0000
 Alpha occ 9 OE=-0.960 is K2-p=1.0000
 Alpha occ 10 OE=-0.570 is H1-s=0.8770
 Alpha occ 11 OE=-0.132 is K2-s=0.8233 K2-p=0.1682
 Alpha vir 12 OE=0.012 is K2-p=1.0000
 Alpha vir 13 OE=0.012 is K2-p=1.0000
 Alpha vir 14 OE=0.023 is K2-p=0.7811 K2-s=0.2109
 Alpha vir 15 OE=0.084 is K2-s=0.7749 K2-p=0.2226
 Alpha vir 16 OE=0.101 is K2-p=1.0000
 Alpha vir 17 OE=0.101 is K2-p=1.0000
 Alpha vir 18 OE=0.178 is K2-p=0.7760 K2-s=0.1450

 Atomic contributions to Beta  molecular orbitals:
 Beta  occ 1 OE=-132.623 is K2-s=1.0000
 Beta  occ 2 OE=-14.422 is K2-s=1.0000
 Beta  occ 3 OE=-11.438 is K2-p=1.0000
 Beta  occ 4 OE=-11.438 is K2-p=1.0000
 Beta  occ 5 OE=-11.437 is K2-p=1.0000
 Beta  occ 6 OE=-1.753 is K2-s=0.9992
 Beta  occ 7 OE=-0.958 is K2-p=0.9956
 Beta  occ 8 OE=-0.957 is K2-p=1.0000
 Beta  occ 9 OE=-0.957 is K2-p=1.0000
 Beta  vir 10 OE=-0.020 is K2-s=0.6340 K2-p=0.2492 H1-s=0.1168
 Beta  vir 11 OE=0.031 is K2-p=1.0000
 Beta  vir 12 OE=0.031 is K2-p=1.0000
 Beta  vir 13 OE=0.041 is K2-p=0.7935 K2-s=0.2065
 Beta  vir 14 OE=0.062 is K2-s=0.6361 K2-p=0.2556 H1-s=0.1083
 Beta  vir 15 OE=0.123 is K2-p=1.0000
 Beta  vir 16 OE=0.123 is K2-p=1.0000
 Beta  vir 17 OE=0.130 is K2-p=0.5079 K2-s=0.4668
 Beta  vir 18 OE=0.364 is H1-s=0.7456 K2-p=0.1976
 
 Leave Link  601 at Mon Mar 28 14:38:50 2022, MaxMem=  9663676416 cpu:               0.9 elap:               0.0
 (Enter /nopt/nrel/apps/gaussian/g16C_1/g16/l9999.exe)

 Test job not archived.
 1\1\GINC-R102U34\SP\UCCSD-FC\Gen\H1K1(3)\USER\28-Mar-2022\0\\#P CC
 SD(MaxCyc=200,SaveAmplitudes,ReadAmplitudes)/GEN sp pop=AllOrbitals io
 p(3/33=1,3/36=-1)\\test\\0,3\H,0,0.,0.,0.\K,0,0.,0.,2.1\\Version=ES64L
 -G16RevC.01\State=3-SG\HF=-596.5998101\MP2=-596.5998155\MP3=-596.59981
 72\MP4D=-596.5998177\MP4DQ=-596.5998177\MP4SDQ=-596.5998178\CCSD=-596.
 599818\S2=2.000141\S2-1=0.\S2A=2.\RMSD=3.614e-09\PG=C*V [C*(H1K1)]\\@


 10 WHATSOEVER THY HAND FINDETH TO DO, DO IT WITH THY  
 MIGHT. FOR THERE IS NO WORK, NOR DEVICE, NOR KNOWLEDGE, NOR  
 WISDOM, IN THE GRAVE, WHITHER THOU GOEST.                    
 11 I RETURNED AND SAW UNDER THE SUN, THAT THE RACE IS NOT TO 
 THE SWIFT, NOR THE BATTLE TO THE STRONG, NEITHER YET BREAD TO
 THE WISE, NOR YET RICHES TO MEN OF UNDERSTANDING, NOR YET    
 FAVOR TO MEN OF SKILL. BUT TIME AND CHANCE HAPPEN TO THEM ALL.
 12 FOR MAN ALSO KNOWETH NOT HIS TIME. AS THE FISHES   
 THAT ARE TAKEN IN AN EVIL NET, AND AS THE BIRDS THAT ARE     
 CAUGHT IN THE SNARE. SO ARE THE SONS OF MEN SNARED IN AN EVIL
 TIME, WHEN IT FALLETH SUDDENLY UPON THEM.
                                         ECCLESIASTES 9
 Job cpu time:       0 days  0 hours  0 minutes 34.7 seconds.
 Elapsed time:       0 days  0 hours  0 minutes  1.3 seconds.
 File lengths (MBytes):  RWF=     13 Int=      0 D2E=      0 Chk=      1 Scr=      1
 Normal termination of Gaussian 16 at Mon Mar 28 14:38:50 2022.
