 Entering Gaussian System, Link 0=g16
 Initial command:
 /nopt/nrel/apps/gaussian/g16C_1/g16/l1.exe "/lustre/eaglefs/scratch/user/qc/tih-dissc-sto3g/tih-4-ccsd-2.3-sto3g/Gau-8845.inp" -scrdir="/lustre/eaglefs/scratch/user/qc/tih-dissc-sto3g/tih-4-ccsd-2.3-sto3g/"
 Default is to use a total of  36 processors:
                               36 via shared-memory
                                1 via Linda
 Entering Link 1 = /nopt/nrel/apps/gaussian/g16C_1/g16/l1.exe PID=      8846.
  
 Copyright (c) 1988-2019, Gaussian, Inc.  All Rights Reserved.
  
 This is part of the Gaussian(R) 16 program.  It is based on
 the Gaussian(R) 09 system (copyright 2009, Gaussian, Inc.),
 the Gaussian(R) 03 system (copyright 2003, Gaussian, Inc.),
 the Gaussian(R) 98 system (copyright 1998, Gaussian, Inc.),
 the Gaussian(R) 94 system (copyright 1995, Gaussian, Inc.),
 the Gaussian 92(TM) system (copyright 1992, Gaussian, Inc.),
 the Gaussian 90(TM) system (copyright 1990, Gaussian, Inc.),
 the Gaussian 88(TM) system (copyright 1988, Gaussian, Inc.),
 the Gaussian 86(TM) system (copyright 1986, Carnegie Mellon
 University), and the Gaussian 82(TM) system (copyright 1983,
 Carnegie Mellon University). Gaussian is a federally registered
 trademark of Gaussian, Inc.
  
 This software contains proprietary and confidential information,
 including trade secrets, belonging to Gaussian, Inc.
  
 This software is provided under written license and may be
 used, copied, transmitted, or stored only in accord with that
 written license.
  
 The following legend is applicable only to US Government
 contracts under FAR:
  
                    RESTRICTED RIGHTS LEGEND
  
 Use, reproduction and disclosure by the US Government is
 subject to restrictions as set forth in subparagraphs (a)
 and (c) of the Commercial Computer Software - Restricted
 Rights clause in FAR 52.227-19.
  
 Gaussian, Inc.
 340 Quinnipiac St., Bldg. 40, Wallingford CT 06492
  
  
 ---------------------------------------------------------------
 Warning -- This program may not be used in any manner that
 competes with the business of Gaussian, Inc. or will provide
 assistance to any competitor of Gaussian, Inc.  The licensee
 of this program is prohibited from giving any competitor of
 Gaussian, Inc. access to this program.  By using this program,
 the user acknowledges that Gaussian, Inc. is engaged in the
 business of creating and licensing software in the field of
 computational chemistry and represents and warrants to the
 licensee that it is not a competitor of Gaussian, Inc. and that
 it will not use this program in any manner prohibited above.
 ---------------------------------------------------------------
  

 Cite this work as:
 Gaussian 16, Revision C.01,
 M. J. Frisch, G. W. Trucks, H. B. Schlegel, G. E. Scuseria, 
 M. A. Robb, J. R. Cheeseman, G. Scalmani, V. Barone, 
 G. A. Petersson, H. Nakatsuji, X. Li, M. Caricato, A. V. Marenich, 
 J. Bloino, B. G. Janesko, R. Gomperts, B. Mennucci, H. P. Hratchian, 
 J. V. Ortiz, A. F. Izmaylov, J. L. Sonnenberg, D. Williams-Young, 
 F. Ding, F. Lipparini, F. Egidi, J. Goings, B. Peng, A. Petrone, 
 T. Henderson, D. Ranasinghe, V. G. Zakrzewski, J. Gao, N. Rega, 
 G. Zheng, W. Liang, M. Hada, M. Ehara, K. Toyota, R. Fukuda, 
 J. Hasegawa, M. Ishida, T. Nakajima, Y. Honda, O. Kitao, H. Nakai, 
 T. Vreven, K. Throssell, J. A. Montgomery, Jr., J. E. Peralta, 
 F. Ogliaro, M. J. Bearpark, J. J. Heyd, E. N. Brothers, K. N. Kudin, 
 V. N. Staroverov, T. A. Keith, R. Kobayashi, J. Normand, 
 K. Raghavachari, A. P. Rendell, J. C. Burant, S. S. Iyengar, 
 J. Tomasi, M. Cossi, J. M. Millam, M. Klene, C. Adamo, R. Cammi, 
 J. W. Ochterski, R. L. Martin, K. Morokuma, O. Farkas, 
 J. B. Foresman, and D. J. Fox, Gaussian, Inc., Wallingford CT, 2019.
 
 ******************************************
 Gaussian 16:  ES64L-G16RevC.01  3-Jul-2019
                25-Mar-2022 
 ******************************************
 %chk=molecule
 Default route: CacheSize=180224 MaxDisk=256GB
 --------------------------------------------------
 #P CCSD/GEN sp pop=AllOrbitals iop(3/33=1,3/36=-1)
 --------------------------------------------------
 1/4=180224,38=1,172=1/1;
 2/4=180224,12=2,17=6,18=5,40=1/2;
 3/4=180224,5=7,11=9,25=1,30=1,33=1,36=-1/1,2,3;
 4/4=180224/1;
 5/4=180224,5=2,38=5/2;
 8/4=180224,6=4,9=120000,10=1/1,4;
 9/4=180224,5=7/13;
 6/4=180224,7=2,8=2,9=2,10=2,96=-1/1;
 99/4=180224,5=1,9=1/99;
 Leave Link    1 at Fri Mar 25 14:39:01 2022, MaxMem=           0 cpu:               2.2 elap:               0.1
 (Enter /nopt/nrel/apps/gaussian/g16C_1/g16/l101.exe)
 ----
 test
 ----
 Symbolic Z-matrix:
 Charge =  0 Multiplicity = 4
 H                     0.        0.        0. 
 Ti                    0.        0.        2.3 
 
 ITRead=  0  0
 MicOpt= -1 -1
 NAtoms=      2 NQM=        2 NQMF=       0 NMMI=      0 NMMIF=      0
                NMic=       0 NMicF=      0.
                    Isotopes and Nuclear Properties:
 (Nuclear quadrupole moments (NQMom) in fm**2, nuclear magnetic moments (NMagM)
  in nuclear magnetons)

  Atom         1           2
 IAtWgt=           1          48
 AtmWgt=   1.0078250  47.9479467
 NucSpn=           1           0
 AtZEff=  -0.0000000  -0.0000000
 NQMom=    0.0000000   0.0000000
 NMagM=    2.7928460   0.0000000
 AtZNuc=   1.0000000  22.0000000
 Leave Link  101 at Fri Mar 25 14:39:01 2022, MaxMem=  9663676416 cpu:               3.2 elap:               0.1
 (Enter /nopt/nrel/apps/gaussian/g16C_1/g16/l202.exe)
                          Input orientation:                          
 ---------------------------------------------------------------------
 Center     Atomic      Atomic             Coordinates (Angstroms)
 Number     Number       Type             X           Y           Z
 ---------------------------------------------------------------------
      1          1           0        0.000000    0.000000    0.000000
      2         22           0        0.000000    0.000000    2.300000
 ---------------------------------------------------------------------
 Stoichiometry    HTi(4)
 Framework group  C*V[C*(HTi)]
 Deg. of freedom     1
 Full point group                 C*V     NOp   4
 Largest Abelian subgroup         C2V     NOp   4
 Largest concise Abelian subgroup C1      NOp   1
                         Standard orientation:                         
 ---------------------------------------------------------------------
 Center     Atomic      Atomic             Coordinates (Angstroms)
 Number     Number       Type             X           Y           Z
 ---------------------------------------------------------------------
      1          1           0        0.000000    0.000000   -2.200000
      2         22           0        0.000000    0.000000    0.100000
 ---------------------------------------------------------------------
 Rotational constants (GHZ):           0.0000000          96.7854941          96.7854941
 Leave Link  202 at Fri Mar 25 14:39:01 2022, MaxMem=  9663676416 cpu:               0.7 elap:               0.0
 (Enter /nopt/nrel/apps/gaussian/g16C_1/g16/l301.exe)
 General basis read from cards:  (5D, 7F)
                         Coordinates in L301:                         
 ---------------------------------------------------------------------
 Center     Atomic      Atomic             Coordinates (Angstroms)
 Number     Number       Type             X           Y           Z
 ---------------------------------------------------------------------
      1          1           0        0.000000    0.000000   -2.200000
      2         22           0        0.000000    0.000000    0.100000
 ---------------------------------------------------------------------
 Centers:       1
 STO-3G
 ****
 Centers:       2
 STO-3G
 ****
 FixB: optimizing general contractions.
 Ernie: Thresh=  0.10000D-02 Tol=  0.10000D-05 Strict=F.
 IA=     1 ShT= 0 ShC= 0 NL=   1 NS=   0.
 IA=     1 L=0 SC=0 ISt=    0 NBk=    0 NP=    0 IndPr=    0.
 IA=     2 ShT= 0 ShC= 0 NL=   1 NS=   0.
 IA=     2 L=0 SC=0 ISt=    0 NBk=    0 NP=    0 IndPr=    0.
 IA=     2 ShT= 1 ShC= 0 NL=   3 NS=   0.
 IA=     2 L=1 SC=0 ISt=    1 NBk=    3 NP=    9 IndPr=    0.
 DoElim1:  L=1 select primitive    1 from    2 using    1 C=-1.00D-01
 DoElim1:  L=1 select primitive    1 from    3 using    1 C=-1.00D-01
 DoElim1:  L=1 select primitive    4 from    3 using    2 C=-2.28D-01
 DoElim2:  L=1 select primitive    9 from    2 using    3 C= 1.13D+00
 DoElim2:  L=1 select primitive    9 from    1 using    3 C= 1.13D+00
 DoElim2:  L=1 select primitive    7 from    1 using    2 C= 9.17D-01
 DoElim1:  L=1 select primitive    1 from    2 using    1 C= 1.56D-01
 DoElim1:  L=1 select primitive    1 from    3 using    1 C= 1.56D-01
 DoElim1:  L=1 select primitive    4 from    3 using    2 C= 4.95D-03
 DoElim2:  L=1 select primitive    8 from    2 using    3 C= 5.72D-01
 DoElim2:  L=1 select primitive    8 from    1 using    3 C= 5.72D-01
 DoElim2:  L=1 select primitive    5 from    1 using    2 C= 5.78D-01
 Delete L=1 primitive    7 from    3 C=  0.00D+00.
 Delete L=1 primitive    5 from    3 C=  0.00D+00.
 Delete L=1 primitive    4 from    3 C=  0.00D+00.
 Delete L=1 primitive    3 from    3 C=  0.00D+00.
 Delete L=1 primitive    2 from    3 C=  0.00D+00.
 Delete L=1 primitive    1 from    3 C=  0.00D+00.
 Delete L=1 primitive    9 from    2 C=  0.00D+00.
 Delete L=1 primitive    8 from    2 C=  0.00D+00.
 Delete L=1 primitive    6 from    2 C=  0.00D+00.
 Delete L=1 primitive    3 from    2 C=  0.00D+00.
 Delete L=1 primitive    2 from    2 C=  0.00D+00.
 Delete L=1 primitive    1 from    2 C=  0.00D+00.
 Delete L=1 primitive    9 from    1 C=  0.00D+00.
 Delete L=1 primitive    8 from    1 C=  0.00D+00.
 Delete L=1 primitive    7 from    1 C=  0.00D+00.
 Delete L=1 primitive    6 from    1 C=  0.00D+00.
 Delete L=1 primitive    5 from    1 C=  0.00D+00.
 Delete L=1 primitive    4 from    1 C=  0.00D+00.
 IA=     2 L=1 SC=0 ISt=    0 NBk=    0 NP=    0 IndPr=    9.
 IA=     2 ShT= 2 ShC= 2 NL=   1 NS=   0.
 IA=     2 L=2 SC=2 ISt=    0 NBk=    0 NP=    0 IndPr=    0.
 LdAtmC:  AtmChg=     1.000000    22.000000
 AtZEff=     -1.0000000    -23.9800000
 NEqShl: 
              1            2            3            4
     1            1            1            1            1
     2            2            2            2            2
     3            3            3            3            3
     4            4            4            4            4
     5            5            5            5            5
     6            6            6            6            6
 NEqBas: 
              1            2            3            4
     1            1            1            1            1
     2            2            2            2            2
     3            3            3            3            3
     4            4           -4           -4            4
     5            5           -5            5           -5
     6            6            6            6            6
     7            7            7            7            7
     8            8           -8           -8            8
     9            9           -9            9           -9
    10           10           10           10           10
    11           11           11           11           11
    12           12          -12          -12           12
    13           13          -13           13          -13
    14           14           14           14           14
    15           15           15           15           15
    16           16           16           16           16
    17           17           17           17           17
    18           18           18          -18          -18
    19           19          -19          -19           19
    20           20          -20           20          -20
 There are    11 symmetry adapted cartesian basis functions of A1  symmetry.
   1         1   1   1   1
   2         2   2   2   2
   3         3   3   3   3
   4         6   6   6   6
   5         7   7   7   7
   6        10  10  10  10
   7        11  11  11  11
   8        14  14  14  14
   9        15  15  15  15
  10        16  16  16  16
  11        17  17  17  17
 There are     1 symmetry adapted cartesian basis functions of A2  symmetry.
  12        18  18  18  18
 There are     4 symmetry adapted cartesian basis functions of B1  symmetry.
  13         4   4   4   4
  14         8   8   8   8
  15        12  12  12  12
  16        19  19  19  19
 There are     4 symmetry adapted cartesian basis functions of B2  symmetry.
  17         5   5   5   5
  18         9   9   9   9
  19        13  13  13  13
  20        20  20  20  20
 Order= 1 2 4 3
 Reordered character table:
              1            2            3            4            5
     1            1            1            1            1            1
     2            2            1            1           -1           -1
     3            4            1           -1           -1            1
     4            3            1           -1            1           -1
 NEqShl: 
              1            2            3            4
     1            1            1            1            1
     2            2            2            2            2
     3            3            3            3            3
     4            4            4            4            4
     5            5            5            5            5
     6            6            6            6            6
 NEqBas: 
              1            2            3            4
     1            1            1            1            1
     2            2            2            2            2
     3            3            3            3            3
     4            4           -4           -4            4
     5            5           -5            5           -5
     6            6            6            6            6
     7            7            7            7            7
     8            8           -8           -8            8
     9            9           -9            9           -9
    10           10           10           10           10
    11           11           11           11           11
    12           12          -12          -12           12
    13           13          -13           13          -13
    14           14           14           14           14
    15           15           15           15           15
    16           16          -16          -16           16
    17           17          -17           17          -17
    18           18           18           18           18
    19           19           19          -19          -19
 There are    10 symmetry adapted basis functions of A1  symmetry.
   1         1   1   1   1
   2         2   2   2   2
   3         3   3   3   3
   4         6   6   6   6
   5         7   7   7   7
   6        10  10  10  10
   7        11  11  11  11
   8        14  14  14  14
   9        15  15  15  15
  10        18  18  18  18
 There are     1 symmetry adapted basis functions of A2  symmetry.
  11        19  19  19  19
 There are     4 symmetry adapted basis functions of B1  symmetry.
  12         4   4   4   4
  13         8   8   8   8
  14        12  12  12  12
  15        16  16  16  16
 There are     4 symmetry adapted basis functions of B2  symmetry.
  16         5   5   5   5
  17         9   9   9   9
  18        13  13  13  13
  19        17  17  17  17
 Order= 1 2 4 3
 Reordered character table:
              1            2            3            4            5
     1            1            1            1            1            1
     2            2            1            1           -1           -1
     3            4            1           -1           -1            1
     4            3            1           -1            1           -1
    19 basis functions,    60 primitive gaussians,    20 cartesian basis functions
    13 alpha electrons       10 beta electrons
       nuclear repulsion energy         5.0616950610 Hartrees.
 IS=     1 IAt=     1 ISR=     1 T=0 IP=      1 IndIP=      1 IndIPD=      0 C=  2.769344D-01  0.000000D+00                             NZ=T
 IS=     1 IAt=     1 ISR=     1 T=0 IP=      2 IndIP=      2 IndIPD=      1 C=  2.678389D-01  0.000000D+00                             NZ=T
 IS=     1 IAt=     1 ISR=     1 T=0 IP=      3 IndIP=      3 IndIPD=      2 C=  8.347367D-02  0.000000D+00                             NZ=T
 IS=     2 IAt=     2 ISR=     1 T=0 IP=      1 IndIP=      4 IndIPD=      0 C=  2.004993D+01  0.000000D+00                             NZ=T
 IS=     2 IAt=     2 ISR=     1 T=0 IP=      2 IndIP=      5 IndIPD=      1 C=  1.939142D+01  0.000000D+00                             NZ=T
 IS=     2 IAt=     2 ISR=     1 T=0 IP=      3 IndIP=      6 IndIPD=      2 C=  6.043458D+00  0.000000D+00                             NZ=T
 IS=     3 IAt=     2 ISR=     2 T=1 IP=      1 IndIP=      7 IndIPD=      0 C= -1.820341D+00  4.925761D+01                             NZ=T
 IS=     3 IAt=     2 ISR=     2 T=1 IP=      2 IndIP=      8 IndIPD=      1 C=  2.434854D+00  3.097451D+01                             NZ=T
 IS=     3 IAt=     2 ISR=     2 T=1 IP=      3 IndIP=      9 IndIPD=      2 C=  1.837620D+00  4.906883D+00                             NZ=T
 IS=     4 IAt=     2 ISR=     3 T=1 IP=      1 IndIP=     10 IndIPD=      0 C= -5.746721D-01  5.803915D-02                             NZ=T
 IS=     4 IAt=     2 ISR=     3 T=1 IP=      2 IndIP=     11 IndIPD=      1 C=  2.252897D-01  1.535208D+00                             NZ=T
 IS=     4 IAt=     2 ISR=     3 T=1 IP=      3 IndIP=     12 IndIPD=      2 C=  4.647390D-01  3.915940D-01                             NZ=T
 IS=     5 IAt=     2 ISR=     4 T=1 IP=      1 IndIP=     13 IndIPD=      0 C= -1.706594D-01 -1.133666D-01                             NZ=T
 IS=     5 IAt=     2 ISR=     4 T=1 IP=      2 IndIP=     14 IndIPD=      1 C=  5.129963D-03  1.533382D-01                             NZ=T
 IS=     5 IAt=     2 ISR=     4 T=1 IP=      3 IndIP=     15 IndIPD=      2 C=  1.603140D-01  5.311239D-02                             NZ=T
 IS=     6 IAt=     2 ISR=     5 T=2 IP=      1 IndIP=     16 IndIPD=      1 C=  0.000000D+00  0.000000D+00  8.652016D-01  0.000000D+00 NZ=T
 IS=     6 IAt=     2 ISR=     5 T=2 IP=      2 IndIP=     17 IndIPD=      2 C=  0.000000D+00  0.000000D+00  3.231180D-01  0.000000D+00 NZ=T
 IS=     6 IAt=     2 ISR=     5 T=2 IP=      3 IndIP=     18 IndIPD=      3 C=  0.000000D+00  0.000000D+00  2.668013D-02  0.000000D+00 NZ=T
 IExCor=    0 DFT=F Ex=HF Corr=None ExCW=0 ScaHFX=  1.000000
 ScaDFX=  1.000000  1.000000  1.000000  1.000000 ScalE2=  1.000000  1.000000
 IRadAn=      5 IRanWt=     -1 IRanGd=            0 ICorTp=0 IEmpDi=  4
 NAtoms=    2 NActive=    2 NUniq=    2 SFac= 1.00D+00 NAtFMM=   60 NAOKFM=F Big=F
 Integral buffers will be    131072 words long.
 Raffenetti 2 integral format.
 Two-electron integral symmetry is turned on.
 Leave Link  301 at Fri Mar 25 14:39:01 2022, MaxMem=  9663676416 cpu:               1.8 elap:               0.1
 (Enter /nopt/nrel/apps/gaussian/g16C_1/g16/l302.exe)
 NPDir=0 NMtPBC=     1 NCelOv=     1 NCel=       1 NClECP=     1 NCelD=      1
         NCelK=      1 NCelE2=     1 NClLst=     1 CellRange=     0.0.
 One-electron integrals computed using PRISM.
 One-electron integral symmetry used in STVInt
 Entering OneElI...
 Calculate overlap and kinetic energy integrals
    NBasis =  19  MinDer = 0  MaxDer = 0
 Requested accuracy = 0.1000D-12
 Symmetry will be used
 PrmmSu-InSpLW:  IPartL=    0 NPrtUS=   36 NPrtUL=    1 DoSpLW=F IThBeg=    0 IThEnd=   35 NThAct=   36.
 PrSmSu:  IncTry=   512 NBBP=             21 NTPThr=   100 NPartT=   36 Incr=           1 LDynOK=F GPUOK=F.
 PrsmSu:  NPrtUS=  36 ThrOK=T IAlg=1 LenDen=           0 ISkipM=0 DoSpLW=F IThBeg=    0 IThEnd=   35.
 Prism:   IPart=     0 DynPar=F LinDyn=F Incr=           1.
 PRISM was handed   268432668 working-precision words and    21 shell-pairs
 PRISM was handed   268432668 working-precision words and    21 shell-pairs
 PRISM was handed   268432668 working-precision words and    21 shell-pairs
 PRISM was handed   268432668 working-precision words and    21 shell-pairs
 PRISM was handed   268432668 working-precision words and    21 shell-pairs
 PRISM was handed   268432668 working-precision words and    21 shell-pairs
 PRISM was handed   268432668 working-precision words and    21 shell-pairs
 PRISM was handed   268432668 working-precision words and    21 shell-pairs
 PRISM was handed   268432668 working-precision words and    21 shell-pairs
 PRISM was handed   268432668 working-precision words and    21 shell-pairs
 PRISM was handed   268432668 working-precision words and    21 shell-pairs
 PRISM was handed   268432668 working-precision words and    21 shell-pairs
 IPart=  9 NShTot=           0 NBatch=           0 AvBLen=         0.0
 IPart=  8 NShTot=           0 NBatch=           0 AvBLen=         0.0
 PRISM was handed   268432668 working-precision words and    21 shell-pairs
 PRISM was handed   268432668 working-precision words and    21 shell-pairs
 PRISM was handed   268432668 working-precision words and    21 shell-pairs
 IPart= 14 NShTot=           0 NBatch=           0 AvBLen=         0.0
 IPart= 22 NShTot=           0 NBatch=           0 AvBLen=         0.0
 IPart= 24 NShTot=           0 NBatch=           0 AvBLen=         0.0
 IPart= 21 NShTot=           0 NBatch=           0 AvBLen=         0.0
 IPart= 20 NShTot=           0 NBatch=           0 AvBLen=         0.0
 IPart= 27 NShTot=           0 NBatch=           0 AvBLen=         0.0
 IPart= 15 NShTot=           0 NBatch=           0 AvBLen=         0.0
 PRISM was handed   268432668 working-precision words and    21 shell-pairs
 PRISM was handed   268432668 working-precision words and    21 shell-pairs
 PRISM was handed   268432668 working-precision words and    21 shell-pairs
 PRISM was handed   268432668 working-precision words and    21 shell-pairs
 PRISM was handed   268432668 working-precision words and    21 shell-pairs
 PRISM was handed   268432668 working-precision words and    21 shell-pairs
 IPart=  5 NShTot=           1 NBatch=           1 AvBLen=         1.0
 PRISM was handed   268432668 working-precision words and    21 shell-pairs
 PRISM was handed   268432668 working-precision words and    21 shell-pairs
 IPart= 31 NShTot=           0 NBatch=           0 AvBLen=         0.0
 IPart= 23 NShTot=           0 NBatch=           0 AvBLen=         0.0
 IPart=  2 NShTot=           3 NBatch=           3 AvBLen=         1.0
 IPart= 16 NShTot=           0 NBatch=           0 AvBLen=         0.0
 PRISM was handed   268432668 working-precision words and    21 shell-pairs
 PRISM was handed   268432668 working-precision words and    21 shell-pairs
 PRISM was handed   268432668 working-precision words and    21 shell-pairs
 PRISM was handed   268432668 working-precision words and    21 shell-pairs
 PRISM was handed   268432668 working-precision words and    21 shell-pairs
 PRISM was handed   268432668 working-precision words and    21 shell-pairs
 PRISM was handed   268432668 working-precision words and    21 shell-pairs
 IPart= 29 NShTot=           0 NBatch=           0 AvBLen=         0.0
 IPart= 32 NShTot=           0 NBatch=           0 AvBLen=         0.0
 IPart=  6 NShTot=           0 NBatch=           0 AvBLen=         0.0
 IPart=  7 NShTot=           0 NBatch=           0 AvBLen=         0.0
 IPart= 18 NShTot=           0 NBatch=           0 AvBLen=         0.0
 IPart= 10 NShTot=           0 NBatch=           0 AvBLen=         0.0
 IPart= 25 NShTot=           0 NBatch=           0 AvBLen=         0.0
 IPart= 17 NShTot=           0 NBatch=           0 AvBLen=         0.0
 PRISM was handed   268432668 working-precision words and    21 shell-pairs
 PRISM was handed   268432668 working-precision words and    21 shell-pairs
 PRISM was handed   268432668 working-precision words and    21 shell-pairs
 IPart=  3 NShTot=           2 NBatch=           2 AvBLen=         1.0
 IPart= 11 NShTot=           0 NBatch=           0 AvBLen=         0.0
 IPart= 19 NShTot=           0 NBatch=           0 AvBLen=         0.0
 IPart= 33 NShTot=           0 NBatch=           0 AvBLen=         0.0
 IPart= 28 NShTot=           0 NBatch=           0 AvBLen=         0.0
 IPart=  4 NShTot=           2 NBatch=           2 AvBLen=         1.0
 IPart= 34 NShTot=           0 NBatch=           0 AvBLen=         0.0
 PRISM was handed   268432668 working-precision words and    21 shell-pairs
 PRISM was handed   268432668 working-precision words and    21 shell-pairs
 PRISM was handed   268432668 working-precision words and    21 shell-pairs
 IPart=  0 NShTot=           8 NBatch=           8 AvBLen=         1.0
 IPart= 12 NShTot=           0 NBatch=           0 AvBLen=         0.0
 IPart= 26 NShTot=           0 NBatch=           0 AvBLen=         0.0
 IPart= 35 NShTot=           0 NBatch=           0 AvBLen=         0.0
 IPart= 30 NShTot=           0 NBatch=           0 AvBLen=         0.0
 IPart= 13 NShTot=           0 NBatch=           0 AvBLen=         0.0
 IPart=  1 NShTot=           5 NBatch=           5 AvBLen=         1.0
 PrSmSu:  NxtVal=             37.
 *** Overlap *** 
                1             2             3             4             5 
      1  0.100000D+01
      2  0.475580D-03  0.100000D+01
      3  0.331984D-02  0.371775D+00  0.100000D+01
      4  0.000000D+00  0.000000D+00  0.000000D+00  0.100000D+01
      5  0.000000D+00  0.000000D+00  0.000000D+00  0.000000D+00  0.100000D+01
      6 -0.127306D-02  0.000000D+00  0.000000D+00  0.000000D+00  0.000000D+00
      7  0.268767D-01  0.223608D-01  0.300384D+00  0.000000D+00  0.000000D+00
      8  0.000000D+00  0.000000D+00  0.000000D+00  0.313309D+00  0.000000D+00
      9  0.000000D+00  0.000000D+00  0.000000D+00  0.000000D+00  0.313309D+00
     10 -0.276076D-01  0.000000D+00  0.000000D+00  0.000000D+00  0.000000D+00
     11  0.191050D+00 -0.412730D-03  0.136941D-01  0.000000D+00  0.000000D+00
     12  0.000000D+00  0.000000D+00  0.000000D+00  0.250808D-01  0.000000D+00
     13  0.000000D+00  0.000000D+00  0.000000D+00  0.000000D+00  0.250808D-01
     14 -0.275533D+00  0.000000D+00  0.000000D+00  0.000000D+00  0.000000D+00
     15  0.125866D+00  0.000000D+00  0.000000D+00  0.000000D+00  0.000000D+00
     16  0.000000D+00  0.000000D+00  0.000000D+00  0.000000D+00  0.000000D+00
     17  0.000000D+00  0.000000D+00  0.000000D+00  0.000000D+00  0.000000D+00
     18  0.000000D+00  0.000000D+00  0.000000D+00  0.000000D+00  0.000000D+00
     19  0.000000D+00  0.000000D+00  0.000000D+00  0.000000D+00  0.000000D+00
                6             7             8             9            10 
      6  0.100000D+01
      7  0.000000D+00  0.100000D+01
      8  0.000000D+00  0.000000D+00  0.100000D+01
      9  0.000000D+00  0.000000D+00  0.000000D+00  0.100000D+01
     10  0.313309D+00  0.000000D+00  0.000000D+00  0.000000D+00  0.100000D+01
     11  0.000000D+00  0.395149D+00  0.000000D+00  0.000000D+00  0.000000D+00
     12  0.000000D+00  0.000000D+00  0.407435D+00  0.000000D+00  0.000000D+00
     13  0.000000D+00  0.000000D+00  0.000000D+00  0.407435D+00  0.000000D+00
     14  0.250808D-01  0.000000D+00  0.000000D+00  0.000000D+00  0.407435D+00
     15  0.000000D+00  0.000000D+00  0.000000D+00  0.000000D+00  0.000000D+00
     16  0.000000D+00  0.000000D+00  0.000000D+00  0.000000D+00  0.000000D+00
     17  0.000000D+00  0.000000D+00  0.000000D+00  0.000000D+00  0.000000D+00
     18  0.000000D+00  0.000000D+00  0.000000D+00  0.000000D+00  0.000000D+00
     19  0.000000D+00  0.000000D+00  0.000000D+00  0.000000D+00  0.000000D+00
               11            12            13            14            15 
     11  0.100000D+01
     12  0.000000D+00  0.100000D+01
     13  0.000000D+00  0.000000D+00  0.100000D+01
     14  0.000000D+00  0.000000D+00  0.000000D+00  0.100000D+01
     15  0.000000D+00  0.000000D+00  0.000000D+00  0.000000D+00  0.100000D+01
     16  0.000000D+00  0.000000D+00  0.000000D+00  0.000000D+00  0.000000D+00
     17  0.000000D+00  0.000000D+00  0.000000D+00  0.000000D+00  0.000000D+00
     18  0.000000D+00  0.000000D+00  0.000000D+00  0.000000D+00  0.000000D+00
     19  0.000000D+00  0.000000D+00  0.000000D+00  0.000000D+00  0.000000D+00
               16            17            18            19 
     16  0.100000D+01
     17  0.000000D+00  0.100000D+01
     18  0.000000D+00  0.000000D+00  0.100000D+01
     19  0.000000D+00  0.000000D+00  0.000000D+00  0.100000D+01
 *** Kinetic Energy *** 
                1             2             3             4             5 
      1  0.760032D+00
      2 -0.273155D-03  0.229340D+03
      3 -0.180428D-02  0.137973D+01  0.120824D+02
      4  0.000000D+00  0.000000D+00  0.000000D+00  0.378073D+02
      5  0.000000D+00  0.000000D+00  0.000000D+00  0.000000D+00  0.378073D+02
      6  0.312847D-03  0.000000D+00  0.000000D+00  0.000000D+00  0.000000D+00
      7 -0.108273D-01 -0.798994D+00 -0.840664D+00  0.000000D+00  0.000000D+00
      8  0.000000D+00  0.000000D+00  0.000000D+00  0.187471D+01  0.000000D+00
      9  0.000000D+00  0.000000D+00  0.000000D+00  0.000000D+00  0.187471D+01
     10  0.688474D-02  0.000000D+00  0.000000D+00  0.000000D+00  0.000000D+00
     11  0.182074D-02 -0.407071D-01 -0.207745D+00  0.000000D+00  0.000000D+00
     12  0.000000D+00  0.000000D+00  0.000000D+00 -0.209473D-01  0.000000D+00
     13  0.000000D+00  0.000000D+00  0.000000D+00  0.000000D+00 -0.209473D-01
     14 -0.259312D-01  0.000000D+00  0.000000D+00  0.000000D+00  0.000000D+00
     15  0.166915D-01  0.000000D+00  0.000000D+00  0.000000D+00  0.000000D+00
     16  0.000000D+00  0.000000D+00  0.000000D+00  0.000000D+00  0.000000D+00
     17  0.000000D+00  0.000000D+00  0.000000D+00  0.000000D+00  0.000000D+00
     18  0.000000D+00  0.000000D+00  0.000000D+00  0.000000D+00  0.000000D+00
     19  0.000000D+00  0.000000D+00  0.000000D+00  0.000000D+00  0.000000D+00
                6             7             8             9            10 
      6  0.378073D+02
      7  0.000000D+00  0.116813D+01
      8  0.000000D+00  0.000000D+00  0.275070D+01
      9  0.000000D+00  0.000000D+00  0.000000D+00  0.275070D+01
     10  0.187471D+01  0.000000D+00  0.000000D+00  0.000000D+00  0.275070D+01
     11  0.000000D+00 -0.927537D-01  0.000000D+00  0.000000D+00  0.000000D+00
     12  0.000000D+00  0.000000D+00  0.199329D+00  0.000000D+00  0.000000D+00
     13  0.000000D+00  0.000000D+00  0.000000D+00  0.199329D+00  0.000000D+00
     14 -0.209473D-01  0.000000D+00  0.000000D+00  0.000000D+00  0.199329D+00
     15  0.000000D+00  0.000000D+00  0.000000D+00  0.000000D+00  0.000000D+00
     16  0.000000D+00  0.000000D+00  0.000000D+00  0.000000D+00  0.000000D+00
     17  0.000000D+00  0.000000D+00  0.000000D+00  0.000000D+00  0.000000D+00
     18  0.000000D+00  0.000000D+00  0.000000D+00  0.000000D+00  0.000000D+00
     19  0.000000D+00  0.000000D+00  0.000000D+00  0.000000D+00  0.000000D+00
               11            12            13            14            15 
     11  0.207443D+00
     12  0.000000D+00  0.409500D+00
     13  0.000000D+00  0.000000D+00  0.409500D+00
     14  0.000000D+00  0.000000D+00  0.000000D+00  0.409500D+00
     15  0.000000D+00  0.000000D+00  0.000000D+00  0.000000D+00  0.180044D+01
     16  0.000000D+00  0.000000D+00  0.000000D+00  0.000000D+00  0.000000D+00
     17  0.000000D+00  0.000000D+00  0.000000D+00  0.000000D+00  0.000000D+00
     18  0.000000D+00  0.000000D+00  0.000000D+00  0.000000D+00  0.000000D+00
     19  0.000000D+00  0.000000D+00  0.000000D+00  0.000000D+00  0.000000D+00
               16            17            18            19 
     16  0.180044D+01
     17  0.000000D+00  0.180044D+01
     18  0.000000D+00  0.000000D+00  0.180044D+01
     19  0.000000D+00  0.000000D+00  0.000000D+00  0.180044D+01
 Entering OneElI...
 Calculate potential energy integrals
    NBasis =  19  MinDer = 0  MaxDer = 0
 Requested accuracy = 0.1000D-12
 Symmetry will be used
 PrmmSu-InSpLW:  IPartL=    0 NPrtUS=   36 NPrtUL=    1 DoSpLW=F IThBeg=    0 IThEnd=   35 NThAct=   36.
 PrSmSu:  IncTry=   512 NBBP=             42 NTPThr=   100 NPartT=   36 Incr=           1 LDynOK=F GPUOK=F.
 PrsmSu:  NPrtUS=  36 ThrOK=T IAlg=1 LenDen=           0 ISkipM=0 DoSpLW=F IThBeg=    0 IThEnd=   35.
 Prism:   IPart=     0 DynPar=F LinDyn=F Incr=           1.
 PRISM was handed   268432888 working-precision words and    21 shell-pairs
 PRISM was handed   268432888 working-precision words and    21 shell-pairs
 PRISM was handed   268432888 working-precision words and    21 shell-pairs
 PRISM was handed   268432888 working-precision words and    21 shell-pairs
 PRISM was handed   268432888 working-precision words and    21 shell-pairs
 PRISM was handed   268432888 working-precision words and    21 shell-pairs
 PRISM was handed   268432888 working-precision words and    21 shell-pairs
 PRISM was handed   268432888 working-precision words and    21 shell-pairs
 PRISM was handed   268432888 working-precision words and    21 shell-pairs
 PRISM was handed   268432888 working-precision words and    21 shell-pairs
 PRISM was handed   268432888 working-precision words and    21 shell-pairs
 PRISM was handed   268432888 working-precision words and    21 shell-pairs
 PRISM was handed   268432888 working-precision words and    21 shell-pairs
 PRISM was handed   268432888 working-precision words and    21 shell-pairs
 PRISM was handed   268432888 working-precision words and    21 shell-pairs
 PRISM was handed   268432888 working-precision words and    21 shell-pairs
 PRISM was handed   268432888 working-precision words and    21 shell-pairs
 PRISM was handed   268432888 working-precision words and    21 shell-pairs
 PRISM was handed   268432888 working-precision words and    21 shell-pairs
 PRISM was handed   268432888 working-precision words and    21 shell-pairs
 PRISM was handed   268432888 working-precision words and    21 shell-pairs
 PRISM was handed   268432888 working-precision words and    21 shell-pairs
 PRISM was handed   268432888 working-precision words and    21 shell-pairs
 PRISM was handed   268432888 working-precision words and    21 shell-pairs
 PRISM was handed   268432888 working-precision words and    21 shell-pairs
 PRISM was handed   268432888 working-precision words and    21 shell-pairs
 PRISM was handed   268432888 working-precision words and    21 shell-pairs
 PRISM was handed   268432888 working-precision words and    21 shell-pairs
 PRISM was handed   268432888 working-precision words and    21 shell-pairs
 PRISM was handed   268432888 working-precision words and    21 shell-pairs
 PRISM was handed   268432888 working-precision words and    21 shell-pairs
 PRISM was handed   268432888 working-precision words and    21 shell-pairs
 PRISM was handed   268432888 working-precision words and    21 shell-pairs
 PRISM was handed   268432888 working-precision words and    21 shell-pairs
 PRISM was handed   268432888 working-precision words and    21 shell-pairs
 PRISM was handed   268432888 working-precision words and    21 shell-pairs
 IPart=  9 NShTot=           0 NBatch=           0 AvBLen=         0.0
 IPart=  6 NShTot=           0 NBatch=           0 AvBLen=         0.0
 IPart= 31 NShTot=           0 NBatch=           0 AvBLen=         0.0
 IPart= 18 NShTot=           0 NBatch=           0 AvBLen=         0.0
 IPart= 20 NShTot=           0 NBatch=           0 AvBLen=         0.0
 IPart= 33 NShTot=           0 NBatch=           0 AvBLen=         0.0
 IPart= 30 NShTot=           0 NBatch=           0 AvBLen=         0.0
 IPart= 12 NShTot=           0 NBatch=           0 AvBLen=         0.0
 IPart= 19 NShTot=           0 NBatch=           0 AvBLen=         0.0
 IPart= 11 NShTot=           0 NBatch=           0 AvBLen=         0.0
 IPart=  8 NShTot=           0 NBatch=           0 AvBLen=         0.0
 IPart= 22 NShTot=           0 NBatch=           0 AvBLen=         0.0
 IPart= 15 NShTot=           0 NBatch=           0 AvBLen=         0.0
 IPart= 16 NShTot=           0 NBatch=           0 AvBLen=         0.0
 IPart= 14 NShTot=           0 NBatch=           0 AvBLen=         0.0
 IPart= 27 NShTot=           0 NBatch=           0 AvBLen=         0.0
 IPart=  3 NShTot=           4 NBatch=           2 AvBLen=         2.0
 IPart= 24 NShTot=           0 NBatch=           0 AvBLen=         0.0
 IPart= 34 NShTot=           0 NBatch=           0 AvBLen=         0.0
 IPart= 35 NShTot=           0 NBatch=           0 AvBLen=         0.0
 IPart= 26 NShTot=           0 NBatch=           0 AvBLen=         0.0
 IPart=  5 NShTot=           2 NBatch=           1 AvBLen=         2.0
 IPart= 21 NShTot=           0 NBatch=           0 AvBLen=         0.0
 IPart=  1 NShTot=          10 NBatch=           5 AvBLen=         2.0
 IPart=  2 NShTot=           6 NBatch=           3 AvBLen=         2.0
 IPart= 25 NShTot=           0 NBatch=           0 AvBLen=         0.0
 IPart=  4 NShTot=           2 NBatch=           1 AvBLen=         2.0
 IPart= 17 NShTot=           0 NBatch=           0 AvBLen=         0.0
 IPart= 28 NShTot=           0 NBatch=           0 AvBLen=         0.0
 IPart=  7 NShTot=           0 NBatch=           0 AvBLen=         0.0
 IPart= 23 NShTot=           0 NBatch=           0 AvBLen=         0.0
 IPart= 32 NShTot=           0 NBatch=           0 AvBLen=         0.0
 IPart= 13 NShTot=           0 NBatch=           0 AvBLen=         0.0
 IPart=  0 NShTot=          18 NBatch=           9 AvBLen=         2.0
 IPart= 29 NShTot=           0 NBatch=           0 AvBLen=         0.0
 IPart= 10 NShTot=           0 NBatch=           0 AvBLen=         0.0
 PrSmSu:  NxtVal=             37.
 ***** Potential Energy ***** 
                1             2             3             4             5 
      1  0.628795D+01
      2  0.114956D+00  0.468994D+03
      3  0.214953D+00  0.902314D+02  0.964821D+02
      4  0.000000D+00  0.000000D+00  0.000000D+00  0.957114D+02
      5  0.000000D+00  0.000000D+00  0.000000D+00  0.000000D+00  0.957114D+02
      6 -0.620892D-01 -0.144217D-02 -0.877779D-02  0.000000D+00  0.000000D+00
      7  0.478883D+00  0.472523D+01  0.170307D+02  0.000000D+00  0.000000D+00
      8  0.000000D+00  0.000000D+00  0.000000D+00  0.174581D+02  0.000000D+00
      9  0.000000D+00  0.000000D+00  0.000000D+00  0.000000D+00  0.174581D+02
     10 -0.415226D+00 -0.100165D-03 -0.439160D-02  0.000000D+00  0.000000D+00
     11  0.145284D+01 -0.133763D+00  0.484559D+00  0.000000D+00  0.000000D+00
     12  0.000000D+00  0.000000D+00  0.000000D+00  0.120410D+01  0.000000D+00
     13  0.000000D+00  0.000000D+00  0.000000D+00  0.000000D+00  0.120410D+01
     14 -0.202575D+01 -0.510882D-05 -0.388627D-03  0.000000D+00  0.000000D+00
     15  0.102109D+01  0.000000D+00  0.137215D-03  0.000000D+00  0.000000D+00
     16  0.000000D+00  0.000000D+00  0.000000D+00 -0.104318D-02  0.000000D+00
     17  0.000000D+00  0.000000D+00  0.000000D+00  0.000000D+00 -0.104318D-02
     18  0.000000D+00  0.000000D+00  0.000000D+00  0.000000D+00  0.000000D+00
     19  0.000000D+00  0.000000D+00  0.000000D+00  0.000000D+00  0.000000D+00
                6             7             8             9            10 
      6  0.957121D+02
      7 -0.458647D-02  0.254640D+02
      8  0.000000D+00  0.000000D+00  0.255050D+02
      9  0.000000D+00  0.000000D+00  0.000000D+00  0.255050D+02
     10  0.174587D+02 -0.310750D-01  0.000000D+00  0.000000D+00  0.255136D+02
     11 -0.309579D-03  0.653267D+01  0.000000D+00  0.000000D+00 -0.191522D-01
     12  0.000000D+00  0.000000D+00  0.684965D+01  0.000000D+00  0.000000D+00
     13  0.000000D+00  0.000000D+00  0.000000D+00  0.684965D+01  0.000000D+00
     14  0.120417D+01 -0.183731D-01  0.000000D+00  0.000000D+00  0.685757D+01
     15 -0.123651D-02  0.762647D-02  0.000000D+00  0.000000D+00 -0.286948D-01
     16  0.000000D+00  0.000000D+00 -0.215975D-01  0.000000D+00  0.000000D+00
     17  0.000000D+00  0.000000D+00  0.000000D+00 -0.215975D-01  0.000000D+00
     18  0.000000D+00  0.000000D+00  0.000000D+00  0.000000D+00  0.000000D+00
     19  0.000000D+00  0.000000D+00  0.000000D+00  0.000000D+00  0.000000D+00
               11            12            13            14            15 
     11  0.958447D+01
     12  0.000000D+00  0.956661D+01
     13  0.000000D+00  0.000000D+00  0.956661D+01
     14 -0.792066D-01  0.000000D+00  0.000000D+00  0.962038D+01
     15  0.260108D-01  0.000000D+00  0.000000D+00 -0.648301D-01  0.141454D+02
     16  0.000000D+00 -0.387552D-01  0.000000D+00  0.000000D+00  0.000000D+00
     17  0.000000D+00  0.000000D+00 -0.387552D-01  0.000000D+00  0.000000D+00
     18  0.000000D+00  0.000000D+00  0.000000D+00  0.000000D+00  0.000000D+00
     19  0.000000D+00  0.000000D+00  0.000000D+00  0.000000D+00  0.000000D+00
               16            17            18            19 
     16  0.141315D+02
     17  0.000000D+00  0.141315D+02
     18  0.000000D+00  0.000000D+00  0.141149D+02
     19  0.000000D+00  0.000000D+00  0.000000D+00  0.141149D+02
 ****** Core Hamiltonian ****** 
                1             2             3             4             5 
      1 -0.552792D+01
      2 -0.115229D+00 -0.239654D+03
      3 -0.216757D+00 -0.888517D+02 -0.843997D+02
      4  0.000000D+00  0.000000D+00  0.000000D+00 -0.579040D+02
      5  0.000000D+00  0.000000D+00  0.000000D+00  0.000000D+00 -0.579040D+02
      6  0.624020D-01  0.144217D-02  0.877779D-02  0.000000D+00  0.000000D+00
      7 -0.489710D+00 -0.552423D+01 -0.178714D+02  0.000000D+00  0.000000D+00
      8  0.000000D+00  0.000000D+00  0.000000D+00 -0.155833D+02  0.000000D+00
      9  0.000000D+00  0.000000D+00  0.000000D+00  0.000000D+00 -0.155833D+02
     10  0.422111D+00  0.100165D-03  0.439160D-02  0.000000D+00  0.000000D+00
     11 -0.145102D+01  0.930558D-01 -0.692304D+00  0.000000D+00  0.000000D+00
     12  0.000000D+00  0.000000D+00  0.000000D+00 -0.122505D+01  0.000000D+00
     13  0.000000D+00  0.000000D+00  0.000000D+00  0.000000D+00 -0.122505D+01
     14  0.199982D+01  0.510882D-05  0.388627D-03  0.000000D+00  0.000000D+00
     15 -0.100440D+01  0.000000D+00 -0.137215D-03  0.000000D+00  0.000000D+00
     16  0.000000D+00  0.000000D+00  0.000000D+00  0.104318D-02  0.000000D+00
     17  0.000000D+00  0.000000D+00  0.000000D+00  0.000000D+00  0.104318D-02
     18  0.000000D+00  0.000000D+00  0.000000D+00  0.000000D+00  0.000000D+00
     19  0.000000D+00  0.000000D+00  0.000000D+00  0.000000D+00  0.000000D+00
                6             7             8             9            10 
      6 -0.579048D+02
      7  0.458647D-02 -0.242959D+02
      8  0.000000D+00  0.000000D+00 -0.227543D+02
      9  0.000000D+00  0.000000D+00  0.000000D+00 -0.227543D+02
     10 -0.155840D+02  0.310750D-01  0.000000D+00  0.000000D+00 -0.227629D+02
     11  0.309579D-03 -0.662542D+01  0.000000D+00  0.000000D+00  0.191522D-01
     12  0.000000D+00  0.000000D+00 -0.665032D+01  0.000000D+00  0.000000D+00
     13  0.000000D+00  0.000000D+00  0.000000D+00 -0.665032D+01  0.000000D+00
     14 -0.122511D+01  0.183731D-01  0.000000D+00  0.000000D+00 -0.665824D+01
     15  0.123651D-02 -0.762647D-02  0.000000D+00  0.000000D+00  0.286948D-01
     16  0.000000D+00  0.000000D+00  0.215975D-01  0.000000D+00  0.000000D+00
     17  0.000000D+00  0.000000D+00  0.000000D+00  0.215975D-01  0.000000D+00
     18  0.000000D+00  0.000000D+00  0.000000D+00  0.000000D+00  0.000000D+00
     19  0.000000D+00  0.000000D+00  0.000000D+00  0.000000D+00  0.000000D+00
               11            12            13            14            15 
     11 -0.937703D+01
     12  0.000000D+00 -0.915711D+01
     13  0.000000D+00  0.000000D+00 -0.915711D+01
     14  0.792066D-01  0.000000D+00  0.000000D+00 -0.921088D+01
     15 -0.260108D-01  0.000000D+00  0.000000D+00  0.648301D-01 -0.123450D+02
     16  0.000000D+00  0.387552D-01  0.000000D+00  0.000000D+00  0.000000D+00
     17  0.000000D+00  0.000000D+00  0.387552D-01  0.000000D+00  0.000000D+00
     18  0.000000D+00  0.000000D+00  0.000000D+00  0.000000D+00  0.000000D+00
     19  0.000000D+00  0.000000D+00  0.000000D+00  0.000000D+00  0.000000D+00
               16            17            18            19 
     16 -0.123310D+02
     17  0.000000D+00 -0.123310D+02
     18  0.000000D+00  0.000000D+00 -0.123145D+02
     19  0.000000D+00  0.000000D+00  0.000000D+00 -0.123145D+02
 SVDSVc IOpt=   1 NormSV=T IR=1
 SVDSVc V= 1.63D+00 1.56D+00 1.30D+00 1.13D+00 1.00D+00 9.91D-01 8.16D-01 6.81D-01 4.70D-01 4.26D-01
 SVDSVc IOpt=   1 NormSV=T IR=2
 SVDSVc V= 1.00D+00
 SVDSVc IOpt=   1 NormSV=T IR=3
 SVDSVc V= 1.53D+00 1.00D+00 9.76D-01 4.98D-01
 SVDSVc IOpt=   1 NormSV=T IR=4
 SVDSVc V= 1.53D+00 1.00D+00 9.76D-01 4.98D-01
 TstOVc:  Largest diagonal error= 1.11D-15 IB=1 I=    1.
 TstOVc:  Largest same sym error= 6.94D-16 IB=1 I=    7 J=    4.
 TstOVc:  Largest diff sym error= 0.00D+00 IB=0 JB=0 I=    0 J=    0.
 Orthogonalized basis functions: 
                 1             2             3             4             5 
      1   0.275339D+00 -0.108431D+00 -0.317446D+00  0.442145D+00  0.000000D+00
      2   0.172334D+00  0.233683D+00  0.460727D+00  0.285991D+00  0.000000D+00
      3   0.271025D+00  0.332824D+00  0.377231D+00  0.118469D+00  0.000000D+00
      4   0.000000D+00  0.000000D+00  0.000000D+00  0.000000D+00  0.000000D+00
      5   0.000000D+00  0.000000D+00  0.000000D+00  0.000000D+00  0.000000D+00
      6  -0.166284D+00  0.230855D+00 -0.215555D+00  0.422638D+00  0.000000D+00
      7   0.336943D+00  0.323223D+00 -0.175815D+00 -0.296096D+00  0.000000D+00
      8   0.000000D+00  0.000000D+00  0.000000D+00  0.000000D+00  0.000000D+00
      9   0.000000D+00  0.000000D+00  0.000000D+00  0.000000D+00  0.000000D+00
     10  -0.306323D+00  0.384576D+00 -0.204535D+00  0.198240D+00  0.000000D+00
     11   0.301361D+00  0.199098D+00 -0.422907D+00 -0.235172D+00  0.000000D+00
     12   0.000000D+00  0.000000D+00  0.000000D+00  0.000000D+00  0.000000D+00
     13   0.000000D+00  0.000000D+00  0.000000D+00  0.000000D+00  0.000000D+00
     14  -0.325955D+00  0.343579D+00 -0.430548D-02 -0.230850D+00  0.000000D+00
     15   0.551459D-01 -0.243770D-01 -0.135023D+00  0.421828D+00  0.000000D+00
     16   0.000000D+00  0.000000D+00  0.000000D+00  0.000000D+00  0.000000D+00
     17   0.000000D+00  0.000000D+00  0.000000D+00  0.000000D+00  0.000000D+00
     18   0.000000D+00  0.000000D+00  0.000000D+00  0.000000D+00  0.100000D+01
     19   0.000000D+00  0.000000D+00  0.000000D+00  0.000000D+00  0.000000D+00
                 6             7             8             9            10 
      1  -0.561166D-01  0.556953D+00 -0.438714D+00 -0.223735D+00  0.473388D+00
      2  -0.215038D-01  0.367320D+00  0.627140D+00  0.388619D+00  0.340681D+00
      3  -0.103332D-02 -0.159805D+00 -0.522143D+00 -0.589344D+00 -0.568400D+00
      4   0.000000D+00  0.000000D+00  0.000000D+00  0.000000D+00  0.000000D+00
      5   0.000000D+00  0.000000D+00  0.000000D+00  0.000000D+00  0.000000D+00
      6  -0.486707D+00 -0.500290D+00  0.292530D+00 -0.401968D+00  0.291805D+00
      7   0.270278D-01 -0.373665D+00 -0.243745D+00  0.577524D+00  0.686974D+00
      8   0.000000D+00  0.000000D+00  0.000000D+00  0.000000D+00  0.000000D+00
      9   0.000000D+00  0.000000D+00  0.000000D+00  0.000000D+00  0.000000D+00
     10  -0.160882D-01  0.272152D+00 -0.297850D+00  0.732513D+00 -0.582778D+00
     11   0.521055D-02  0.236841D+00  0.588011D+00 -0.334093D+00 -0.616916D+00
     12   0.000000D+00  0.000000D+00  0.000000D+00  0.000000D+00  0.000000D+00
     13   0.000000D+00  0.000000D+00  0.000000D+00  0.000000D+00  0.000000D+00
     14   0.370817D+00  0.299522D+00 -0.215182D-01 -0.659801D+00  0.628395D+00
     15   0.793701D+00 -0.380913D+00  0.173132D+00  0.530844D-01 -0.103844D+00
     16   0.000000D+00  0.000000D+00  0.000000D+00  0.000000D+00  0.000000D+00
     17   0.000000D+00  0.000000D+00  0.000000D+00  0.000000D+00  0.000000D+00
     18   0.000000D+00  0.000000D+00  0.000000D+00  0.000000D+00  0.000000D+00
     19   0.000000D+00  0.000000D+00  0.000000D+00  0.000000D+00  0.000000D+00
                11            12            13            14            15 
      1   0.000000D+00  0.000000D+00  0.000000D+00  0.000000D+00  0.000000D+00
      2   0.000000D+00  0.000000D+00  0.000000D+00  0.000000D+00  0.000000D+00
      3   0.000000D+00  0.000000D+00  0.000000D+00  0.000000D+00  0.000000D+00
      4   0.000000D+00  0.358362D+00  0.000000D+00  0.802807D+00 -0.593005D+00
      5   0.000000D+00  0.000000D+00  0.000000D+00  0.000000D+00  0.000000D+00
      6   0.000000D+00  0.000000D+00  0.000000D+00  0.000000D+00  0.000000D+00
      7   0.000000D+00  0.000000D+00  0.000000D+00  0.000000D+00  0.000000D+00
      8   0.000000D+00  0.565532D+00  0.000000D+00 -0.127423D-01  0.101370D+01
      9   0.000000D+00  0.000000D+00  0.000000D+00  0.000000D+00  0.000000D+00
     10   0.000000D+00  0.000000D+00  0.000000D+00  0.000000D+00  0.000000D+00
     11   0.000000D+00  0.000000D+00  0.000000D+00  0.000000D+00  0.000000D+00
     12   0.000000D+00  0.454909D+00  0.000000D+00 -0.616584D+00 -0.793056D+00
     13   0.000000D+00  0.000000D+00  0.000000D+00  0.000000D+00  0.000000D+00
     14   0.000000D+00  0.000000D+00  0.000000D+00  0.000000D+00  0.000000D+00
     15   0.000000D+00  0.000000D+00  0.000000D+00  0.000000D+00  0.000000D+00
     16   0.000000D+00  0.000000D+00  0.100000D+01  0.000000D+00  0.000000D+00
     17   0.000000D+00  0.000000D+00  0.000000D+00  0.000000D+00  0.000000D+00
     18   0.000000D+00  0.000000D+00  0.000000D+00  0.000000D+00  0.000000D+00
     19   0.100000D+01  0.000000D+00  0.000000D+00  0.000000D+00  0.000000D+00
                16            17            18            19 
      1   0.000000D+00  0.000000D+00  0.000000D+00  0.000000D+00
      2   0.000000D+00  0.000000D+00  0.000000D+00  0.000000D+00
      3   0.000000D+00  0.000000D+00  0.000000D+00  0.000000D+00
      4   0.000000D+00  0.000000D+00  0.000000D+00  0.000000D+00
      5   0.358362D+00  0.000000D+00  0.802807D+00 -0.593005D+00
      6   0.000000D+00  0.000000D+00  0.000000D+00  0.000000D+00
      7   0.000000D+00  0.000000D+00  0.000000D+00  0.000000D+00
      8   0.000000D+00  0.000000D+00  0.000000D+00  0.000000D+00
      9   0.565532D+00  0.000000D+00 -0.127423D-01  0.101370D+01
     10   0.000000D+00  0.000000D+00  0.000000D+00  0.000000D+00
     11   0.000000D+00  0.000000D+00  0.000000D+00  0.000000D+00
     12   0.000000D+00  0.000000D+00  0.000000D+00  0.000000D+00
     13   0.454909D+00  0.000000D+00 -0.616584D+00 -0.793056D+00
     14   0.000000D+00  0.000000D+00  0.000000D+00  0.000000D+00
     15   0.000000D+00  0.000000D+00  0.000000D+00  0.000000D+00
     16   0.000000D+00  0.000000D+00  0.000000D+00  0.000000D+00
     17   0.000000D+00  0.100000D+01  0.000000D+00  0.000000D+00
     18   0.000000D+00  0.000000D+00  0.000000D+00  0.000000D+00
     19   0.000000D+00  0.000000D+00  0.000000D+00  0.000000D+00
 NBasis=    19 RedAO= T EigKep=  4.26D-01  NBF=    10     1     4     4
 NBsUse=    19 1.00D-06 EigRej= -1.00D+00 NBFU=    10     1     4     4
 Leave Link  302 at Fri Mar 25 14:39:01 2022, MaxMem=  9663676416 cpu:               3.6 elap:               0.1
 (Enter /nopt/nrel/apps/gaussian/g16C_1/g16/l303.exe)
 DipDrv will not compute anything.
 Fermi contact integrals: 
                 1             2 
      1   0.628247D+00  0.343937D-02
      2   0.000000D+00  0.454848D+02
      3   0.000000D+00  0.245213D+01
      4   0.000000D+00  0.000000D+00
      5   0.000000D+00  0.000000D+00
      6   0.000000D+00  0.000000D+00
      7   0.286738D-05  0.115357D+00
      8   0.000000D+00  0.000000D+00
      9   0.000000D+00  0.000000D+00
     10  -0.105012D-04  0.000000D+00
     11   0.179240D-01 -0.521539D-02
     12   0.000000D+00  0.000000D+00
     13   0.000000D+00  0.000000D+00
     14  -0.304046D-01  0.000000D+00
     15   0.134400D-01  0.000000D+00
     16   0.000000D+00  0.000000D+00
     17   0.000000D+00  0.000000D+00
     18   0.000000D+00  0.000000D+00
     19   0.000000D+00  0.000000D+00
 Leave Link  303 at Fri Mar 25 14:39:01 2022, MaxMem=  9663676416 cpu:               1.0 elap:               0.0
 (Enter /nopt/nrel/apps/gaussian/g16C_1/g16/l401.exe)
 ExpMin= 1.16D-01 ExpMax= 1.03D+03 ExpMxC= 1.03D+03 IAcc=3 IRadAn=         5 AccDes= 0.00D+00
 Harris functional with IExCor=  205 and IRadAn=       5 diagonalized for initial guess.
 HarFok:  IExCor=  205 AccDes= 0.00D+00 IRadAn=         5 IDoV= 1 UseB2=F ITyADJ=14
 ICtDFT=  3500011 ScaDFX=  1.000000  1.000000  1.000000  1.000000
 FoFCou: FMM=F IPFlag=           0 FMFlag=      100000 FMFlg1=           0
         NFxFlg=           0 DoJE=T BraDBF=F KetDBF=T FulRan=T
         wScrn=  0.000000 ICntrl=       500 IOpCl=  0 I1Cent=   200000004 NGrid=           0
         NMat0=    1 NMatS0=      1 NMatT0=    0 NMatD0=    1 NMtDS0=    0 NMtDT0=    0
 Petite list used in FoFCou.
 Harris En= -839.356957878809    
 JPrj=0 DoOrth=F DoCkMO=F.
 Initial guess orbital symmetries:
 Alpha Orbitals:
       Occupied  (SG) (SG) (SG) (PI) (PI) (SG) (SG) (PI) (PI) (SG)
                 (SG) (PI) (PI)
       Virtual   (DLTA) (DLTA) (SG) (PI) (PI) (SG)
 Beta  Orbitals:
       Occupied  (SG) (SG) (SG) (PI) (PI) (SG) (SG) (PI) (PI) (SG)
       Virtual   (SG) (PI) (PI) (DLTA) (DLTA) (SG) (PI) (PI) (SG)
 The electronic state of the initial guess is 4-SG.
 Initial guess <Sx>= 0.0000 <Sy>= 0.0000 <Sz>= 1.5000 <S**2>= 3.7500 S= 1.5000
 Leave Link  401 at Fri Mar 25 14:39:02 2022, MaxMem=  9663676416 cpu:               3.8 elap:               0.1
 (Enter /nopt/nrel/apps/gaussian/g16C_1/g16/l502.exe)
 Keep R1 and R2 ints in memory in symmetry-blocked form, NReq=7413039.
 FoFCou: FMM=F IPFlag=           0 FMFlag=           0 FMFlg1=           0
         NFxFlg=           0 DoJE=F BraDBF=F KetDBF=F FulRan=T
         wScrn=  0.000000 ICntrl=       600 IOpCl=  0 I1Cent=           0 NGrid=           0
         NMat0=    1 NMatS0=    190 NMatT0=    0 NMatD0=    1 NMtDS0=    0 NMtDT0=    0
 Petite list used in FoFCou.
 UHF open shell SCF:
 Using DIIS extrapolation, IDIIS=  1040.
 NGot=  9663676416 LenX=  9663662661 LenY=  9663661779
 Requested convergence on RMS density matrix=1.00D-08 within 128 cycles.
 Requested convergence on MAX density matrix=1.00D-06.
 Requested convergence on             energy=1.00D-06.
 No special actions if energy rises.

 Cycle   1  Pass 1  IDiag  1:
 E= -839.945314926389    
 DIIS: error= 7.60D-02 at cycle   1 NSaved=   1.
 NSaved= 1 IEnMin= 1 EnMin= -839.945314926389     IErMin= 1 ErrMin= 7.60D-02
 ErrMax= 7.60D-02  0.00D+00 EMaxC= 1.00D-01 BMatC= 3.54D-01 BMatP= 3.54D-01
 IDIUse=3 WtCom= 2.40D-01 WtEn= 7.60D-01
 Coeff-Com:  0.100D+01
 Coeff-En:   0.100D+01
 Coeff:      0.100D+01
 Gap=     0.394 Goal=   None    Shift=    0.000
 Gap=     0.247 Goal=   None    Shift=    0.000
 GapD=    0.247 DampG=1.000 DampE=0.250 DampFc=0.2500 IDamp=-1.
 Damping current iteration by 2.50D-01
 RMSDP=2.51D-02 MaxDP=2.21D-01              OVMax= 0.00D+00

 Cycle   2  Pass 1  IDiag  1:
 E= -839.966673937315     Delta-E=       -0.021359010926 Rises=F Damp=T
 DIIS: error= 5.67D-02 at cycle   2 NSaved=   2.
 NSaved= 2 IEnMin= 2 EnMin= -839.966673937315     IErMin= 2 ErrMin= 5.67D-02
 ErrMax= 5.67D-02  0.00D+00 EMaxC= 1.00D-01 BMatC= 1.98D-01 BMatP= 3.54D-01
 IDIUse=3 WtCom= 4.33D-01 WtEn= 5.67D-01
 Coeff-Com: -0.289D+01 0.389D+01
 Coeff-En:   0.000D+00 0.100D+01
 Coeff:     -0.125D+01 0.225D+01
 Gap=     0.387 Goal=   None    Shift=    0.000
 Gap=     0.315 Goal=   None    Shift=    0.000
 RMSDP=2.06D-02 MaxDP=1.68D-01 DE=-2.14D-02 OVMax= 0.00D+00

 Cycle   3  Pass 1  IDiag  1:
 E= -840.039735161693     Delta-E=       -0.073061224378 Rises=F Damp=F
 DIIS: error= 8.30D-03 at cycle   3 NSaved=   3.
 NSaved= 3 IEnMin= 3 EnMin= -840.039735161693     IErMin= 3 ErrMin= 8.30D-03
 ErrMax= 8.30D-03  0.00D+00 EMaxC= 1.00D-01 BMatC= 4.25D-03 BMatP= 1.98D-01
 IDIUse=3 WtCom= 9.17D-01 WtEn= 8.30D-02
 Coeff-Com:  0.931D+00-0.125D+01 0.132D+01
 Coeff-En:   0.000D+00 0.000D+00 0.100D+01
 Coeff:      0.854D+00-0.114D+01 0.129D+01
 Gap=     0.387 Goal=   None    Shift=    0.000
 Gap=     0.361 Goal=   None    Shift=    0.000
 RMSDP=7.00D-03 MaxDP=7.08D-02 DE=-7.31D-02 OVMax= 0.00D+00

 Cycle   4  Pass 1  IDiag  1:
 E= -840.047702575379     Delta-E=       -0.007967413686 Rises=F Damp=F
 DIIS: error= 7.27D-03 at cycle   4 NSaved=   4.
 NSaved= 4 IEnMin= 4 EnMin= -840.047702575379     IErMin= 4 ErrMin= 7.27D-03
 ErrMax= 7.27D-03  0.00D+00 EMaxC= 1.00D-01 BMatC= 2.57D-03 BMatP= 4.25D-03
 IDIUse=3 WtCom= 9.27D-01 WtEn= 7.27D-02
 Coeff-Com: -0.173D+01 0.231D+01-0.204D+01 0.245D+01
 Coeff-En:   0.000D+00 0.000D+00 0.000D+00 0.100D+01
 Coeff:     -0.160D+01 0.215D+01-0.189D+01 0.235D+01
 Gap=     0.398 Goal=   None    Shift=    0.000
 Gap=     0.382 Goal=   None    Shift=    0.000
 RMSDP=1.10D-02 MaxDP=1.13D-01 DE=-7.97D-03 OVMax= 0.00D+00

 Cycle   5  Pass 1  IDiag  1:
 E= -840.057098527381     Delta-E=       -0.009395952002 Rises=F Damp=F
 DIIS: error= 5.31D-03 at cycle   5 NSaved=   5.
 NSaved= 5 IEnMin= 5 EnMin= -840.057098527381     IErMin= 5 ErrMin= 5.31D-03
 ErrMax= 5.31D-03  0.00D+00 EMaxC= 1.00D-01 BMatC= 1.24D-03 BMatP= 2.57D-03
 IDIUse=3 WtCom= 9.47D-01 WtEn= 5.31D-02
 Coeff-Com: -0.112D+01 0.150D+01 0.562D+00-0.273D+01 0.278D+01
 Coeff-En:   0.000D+00 0.000D+00 0.000D+00 0.000D+00 0.100D+01
 Coeff:     -0.106D+01 0.142D+01 0.533D+00-0.258D+01 0.269D+01
 Gap=     0.402 Goal=   None    Shift=    0.000
 Gap=     0.406 Goal=   None    Shift=    0.000
 RMSDP=1.32D-02 MaxDP=1.24D-01 DE=-9.40D-03 OVMax= 0.00D+00

 Cycle   6  Pass 1  IDiag  1:
 E= -840.064115403411     Delta-E=       -0.007016876030 Rises=F Damp=F
 DIIS: error= 2.66D-03 at cycle   6 NSaved=   6.
 NSaved= 6 IEnMin= 6 EnMin= -840.064115403411     IErMin= 6 ErrMin= 2.66D-03
 ErrMax= 2.66D-03  0.00D+00 EMaxC= 1.00D-01 BMatC= 3.89D-04 BMatP= 1.24D-03
 IDIUse=3 WtCom= 9.73D-01 WtEn= 2.66D-02
 Coeff-Com: -0.273D-01 0.220D-01-0.873D+00 0.269D+01-0.352D+01 0.272D+01
 Coeff-En:   0.000D+00 0.000D+00 0.000D+00 0.000D+00 0.000D+00 0.100D+01
 Coeff:     -0.266D-01 0.214D-01-0.850D+00 0.261D+01-0.343D+01 0.267D+01
 Gap=     0.401 Goal=   None    Shift=    0.000
 Gap=     0.420 Goal=   None    Shift=    0.000
 RMSDP=9.83D-03 MaxDP=7.60D-02 DE=-7.02D-03 OVMax= 0.00D+00

 Cycle   7  Pass 1  IDiag  1:
 E= -840.066471795479     Delta-E=       -0.002356392068 Rises=F Damp=F
 DIIS: error= 7.42D-04 at cycle   7 NSaved=   7.
 NSaved= 7 IEnMin= 7 EnMin= -840.066471795479     IErMin= 7 ErrMin= 7.42D-04
 ErrMax= 7.42D-04  0.00D+00 EMaxC= 1.00D-01 BMatC= 4.61D-05 BMatP= 3.89D-04
 IDIUse=3 WtCom= 9.93D-01 WtEn= 7.42D-03
 Coeff-Com: -0.122D+00 0.172D+00 0.301D+00-0.121D+01 0.175D+01-0.167D+01
 Coeff-Com:  0.178D+01
 Coeff-En:   0.000D+00 0.000D+00 0.000D+00 0.000D+00 0.000D+00 0.000D+00
 Coeff-En:   0.100D+01
 Coeff:     -0.121D+00 0.171D+00 0.299D+00-0.120D+01 0.174D+01-0.166D+01
 Coeff:      0.178D+01
 Gap=     0.411 Goal=   None    Shift=    0.000
 Gap=     0.425 Goal=   None    Shift=    0.000
 RMSDP=2.70D-03 MaxDP=2.23D-02 DE=-2.36D-03 OVMax= 0.00D+00

 Cycle   8  Pass 1  IDiag  1:
 E= -840.066683761863     Delta-E=       -0.000211966384 Rises=F Damp=F
 DIIS: error= 3.18D-04 at cycle   8 NSaved=   8.
 NSaved= 8 IEnMin= 8 EnMin= -840.066683761863     IErMin= 8 ErrMin= 3.18D-04
 ErrMax= 3.18D-04  0.00D+00 EMaxC= 1.00D-01 BMatC= 9.04D-06 BMatP= 4.61D-05
 IDIUse=3 WtCom= 9.97D-01 WtEn= 3.18D-03
 Coeff-Com: -0.662D-01 0.879D-01 0.420D-01-0.173D+00 0.242D+00-0.200D+00
 Coeff-Com: -0.162D+00 0.123D+01
 Coeff-En:   0.000D+00 0.000D+00 0.000D+00 0.000D+00 0.000D+00 0.000D+00
 Coeff-En:   0.000D+00 0.100D+01
 Coeff:     -0.660D-01 0.876D-01 0.418D-01-0.173D+00 0.241D+00-0.199D+00
 Coeff:     -0.161D+00 0.123D+01
 Gap=     0.408 Goal=   None    Shift=    0.000
 Gap=     0.425 Goal=   None    Shift=    0.000
 RMSDP=5.53D-04 MaxDP=5.23D-03 DE=-2.12D-04 OVMax= 0.00D+00

 Cycle   9  Pass 1  IDiag  1:
 E= -840.066708420027     Delta-E=       -0.000024658165 Rises=F Damp=F
 DIIS: error= 2.36D-04 at cycle   9 NSaved=   9.
 NSaved= 9 IEnMin= 9 EnMin= -840.066708420027     IErMin= 9 ErrMin= 2.36D-04
 ErrMax= 2.36D-04  0.00D+00 EMaxC= 1.00D-01 BMatC= 3.78D-06 BMatP= 9.04D-06
 IDIUse=3 WtCom= 9.98D-01 WtEn= 2.36D-03
 Coeff-Com: -0.154D-01 0.199D-01-0.410D-01 0.103D+00-0.228D+00 0.311D+00
 Coeff-Com: -0.234D+00-0.746D+00 0.183D+01
 Coeff-En:   0.000D+00 0.000D+00 0.000D+00 0.000D+00 0.000D+00 0.000D+00
 Coeff-En:   0.000D+00 0.000D+00 0.100D+01
 Coeff:     -0.153D-01 0.198D-01-0.409D-01 0.103D+00-0.227D+00 0.310D+00
 Coeff:     -0.233D+00-0.744D+00 0.183D+01
 Gap=     0.412 Goal=   None    Shift=    0.000
 Gap=     0.427 Goal=   None    Shift=    0.000
 RMSDP=7.45D-04 MaxDP=6.84D-03 DE=-2.47D-05 OVMax= 0.00D+00

 Cycle  10  Pass 1  IDiag  1:
 E= -840.066725886883     Delta-E=       -0.000017466855 Rises=F Damp=F
 DIIS: error= 1.32D-04 at cycle  10 NSaved=  10.
 NSaved=10 IEnMin=10 EnMin= -840.066725886883     IErMin=10 ErrMin= 1.32D-04
 ErrMax= 1.32D-04  0.00D+00 EMaxC= 1.00D-01 BMatC= 2.62D-06 BMatP= 3.78D-06
 IDIUse=3 WtCom= 9.99D-01 WtEn= 1.32D-03
 Coeff-Com:  0.292D-01-0.382D-01 0.699D-01-0.175D+00 0.227D+00-0.231D+00
 Coeff-Com:  0.573D+00-0.135D+01-0.239D-01 0.192D+01
 Coeff-En:   0.000D+00 0.000D+00 0.000D+00 0.000D+00 0.000D+00 0.000D+00
 Coeff-En:   0.000D+00 0.000D+00 0.000D+00 0.100D+01
 Coeff:      0.292D-01-0.381D-01 0.698D-01-0.175D+00 0.227D+00-0.231D+00
 Coeff:      0.572D+00-0.135D+01-0.238D-01 0.192D+01
 Gap=     0.410 Goal=   None    Shift=    0.000
 Gap=     0.427 Goal=   None    Shift=    0.000
 RMSDP=5.50D-04 MaxDP=5.85D-03 DE=-1.75D-05 OVMax= 0.00D+00

 Cycle  11  Pass 1  IDiag  1:
 E= -840.066735184231     Delta-E=       -0.000009297349 Rises=F Damp=F
 DIIS: error= 4.68D-05 at cycle  11 NSaved=  11.
 NSaved=11 IEnMin=11 EnMin= -840.066735184231     IErMin=11 ErrMin= 4.68D-05
 ErrMax= 4.68D-05  0.00D+00 EMaxC= 1.00D-01 BMatC= 2.65D-07 BMatP= 2.62D-06
 IDIUse=1 WtCom= 1.00D+00 WtEn= 0.00D+00
 Coeff-Com:  0.808D-02-0.114D-01-0.205D-01 0.812D-01-0.118D+00 0.120D+00
 Coeff-Com: -0.305D+00 0.842D+00-0.107D+00-0.149D+01 0.200D+01
 Coeff:      0.808D-02-0.114D-01-0.205D-01 0.812D-01-0.118D+00 0.120D+00
 Coeff:     -0.305D+00 0.842D+00-0.107D+00-0.149D+01 0.200D+01
 Gap=     0.410 Goal=   None    Shift=    0.000
 Gap=     0.427 Goal=   None    Shift=    0.000
 RMSDP=2.50D-04 MaxDP=2.58D-03 DE=-9.30D-06 OVMax= 0.00D+00

 Cycle  12  Pass 1  IDiag  1:
 E= -840.066736303029     Delta-E=       -0.000001118797 Rises=F Damp=F
 DIIS: error= 7.54D-06 at cycle  12 NSaved=  12.
 NSaved=12 IEnMin=12 EnMin= -840.066736303029     IErMin=12 ErrMin= 7.54D-06
 ErrMax= 7.54D-06  0.00D+00 EMaxC= 1.00D-01 BMatC= 5.53D-09 BMatP= 2.65D-07
 IDIUse=1 WtCom= 1.00D+00 WtEn= 0.00D+00
 Coeff-Com: -0.288D-02 0.397D-02 0.272D-02-0.128D-01 0.183D-01-0.185D-01
 Coeff-Com:  0.746D-01-0.256D+00 0.552D-01 0.500D+00-0.826D+00 0.146D+01
 Coeff:     -0.288D-02 0.397D-02 0.272D-02-0.128D-01 0.183D-01-0.185D-01
 Coeff:      0.746D-01-0.256D+00 0.552D-01 0.500D+00-0.826D+00 0.146D+01
 Gap=     0.410 Goal=   None    Shift=    0.000
 Gap=     0.427 Goal=   None    Shift=    0.000
 RMSDP=1.34D-05 MaxDP=1.24D-04 DE=-1.12D-06 OVMax= 0.00D+00

 Cycle  13  Pass 1  IDiag  1:
 E= -840.066736311576     Delta-E=       -0.000000008547 Rises=F Damp=F
 DIIS: error= 1.82D-06 at cycle  13 NSaved=  13.
 NSaved=13 IEnMin=13 EnMin= -840.066736311576     IErMin=13 ErrMin= 1.82D-06
 ErrMax= 1.82D-06  0.00D+00 EMaxC= 1.00D-01 BMatC= 2.46D-10 BMatP= 5.53D-09
 IDIUse=1 WtCom= 1.00D+00 WtEn= 0.00D+00
 Coeff-Com: -0.843D-03 0.110D-02-0.127D-02 0.261D-02-0.304D-02 0.340D-02
 Coeff-Com: -0.211D-01 0.779D-01-0.234D-01-0.144D+00 0.245D+00-0.483D+00
 Coeff-Com:  0.135D+01
 Coeff:     -0.843D-03 0.110D-02-0.127D-02 0.261D-02-0.304D-02 0.340D-02
 Coeff:     -0.211D-01 0.779D-01-0.234D-01-0.144D+00 0.245D+00-0.483D+00
 Coeff:      0.135D+01
 Gap=     0.410 Goal=   None    Shift=    0.000
 Gap=     0.427 Goal=   None    Shift=    0.000
 RMSDP=2.77D-06 MaxDP=3.73D-05 DE=-8.55D-09 OVMax= 0.00D+00

 Cycle  14  Pass 1  IDiag  1:
 E= -840.066736312026     Delta-E=       -0.000000000451 Rises=F Damp=F
 DIIS: error= 5.72D-07 at cycle  14 NSaved=  14.
 NSaved=14 IEnMin=14 EnMin= -840.066736312026     IErMin=14 ErrMin= 5.72D-07
 ErrMax= 5.72D-07  0.00D+00 EMaxC= 1.00D-01 BMatC= 3.01D-11 BMatP= 2.46D-10
 IDIUse=1 WtCom= 1.00D+00 WtEn= 0.00D+00
 Coeff-Com: -0.911D-04 0.124D-03-0.557D-04 0.550D-04-0.206D-03 0.129D-03
 Coeff-Com:  0.246D-02-0.120D-01 0.615D-02 0.211D-01-0.409D-01 0.911D-01
 Coeff-Com: -0.633D+00 0.156D+01
 Coeff:     -0.911D-04 0.124D-03-0.557D-04 0.550D-04-0.206D-03 0.129D-03
 Coeff:      0.246D-02-0.120D-01 0.615D-02 0.211D-01-0.409D-01 0.911D-01
 Coeff:     -0.633D+00 0.156D+01
 Gap=     0.410 Goal=   None    Shift=    0.000
 Gap=     0.427 Goal=   None    Shift=    0.000
 RMSDP=1.63D-06 MaxDP=1.27D-05 DE=-4.51D-10 OVMax= 0.00D+00

 Cycle  15  Pass 1  IDiag  1:
 E= -840.066736312098     Delta-E=       -0.000000000071 Rises=F Damp=F
 DIIS: error= 1.13D-07 at cycle  15 NSaved=  15.
 NSaved=15 IEnMin=15 EnMin= -840.066736312098     IErMin=15 ErrMin= 1.13D-07
 ErrMax= 1.13D-07  0.00D+00 EMaxC= 1.00D-01 BMatC= 2.14D-12 BMatP= 3.01D-11
 IDIUse=1 WtCom= 1.00D+00 WtEn= 0.00D+00
 Coeff-Com: -0.512D-05 0.693D-05 0.468D-04-0.178D-03 0.272D-03-0.192D-03
 Coeff-Com: -0.449D-03 0.270D-02-0.880D-03-0.671D-02 0.111D-01-0.289D-01
 Coeff-Com:  0.220D+00-0.588D+00 0.139D+01
 Coeff:     -0.512D-05 0.693D-05 0.468D-04-0.178D-03 0.272D-03-0.192D-03
 Coeff:     -0.449D-03 0.270D-02-0.880D-03-0.671D-02 0.111D-01-0.289D-01
 Coeff:      0.220D+00-0.588D+00 0.139D+01
 Gap=     0.410 Goal=   None    Shift=    0.000
 Gap=     0.427 Goal=   None    Shift=    0.000
 RMSDP=3.55D-07 MaxDP=4.55D-06 DE=-7.12D-11 OVMax= 0.00D+00

 Cycle  16  Pass 1  IDiag  1:
 E= -840.066736312100     Delta-E=       -0.000000000003 Rises=F Damp=F
 DIIS: error= 8.19D-09 at cycle  16 NSaved=  16.
 NSaved=16 IEnMin=16 EnMin= -840.066736312100     IErMin=16 ErrMin= 8.19D-09
 ErrMax= 8.19D-09  0.00D+00 EMaxC= 1.00D-01 BMatC= 6.67D-15 BMatP= 2.14D-12
 IDIUse=1 WtCom= 1.00D+00 WtEn= 0.00D+00
 Coeff-Com:  0.145D-05-0.196D-05-0.208D-05 0.111D-04-0.151D-04 0.959D-05
 Coeff-Com:  0.829D-06-0.318D-04-0.254D-04 0.211D-03-0.135D-03 0.128D-02
 Coeff-Com: -0.795D-02 0.227D-01-0.116D+00 0.110D+01
 Coeff:      0.145D-05-0.196D-05-0.208D-05 0.111D-04-0.151D-04 0.959D-05
 Coeff:      0.829D-06-0.318D-04-0.254D-04 0.211D-03-0.135D-03 0.128D-02
 Coeff:     -0.795D-02 0.227D-01-0.116D+00 0.110D+01
 Gap=     0.410 Goal=   None    Shift=    0.000
 Gap=     0.427 Goal=   None    Shift=    0.000
 RMSDP=2.85D-08 MaxDP=2.88D-07 DE=-2.50D-12 OVMax= 0.00D+00

 Cycle  17  Pass 1  IDiag  1:
 E= -840.066736312100     Delta-E=        0.000000000000 Rises=F Damp=F
 DIIS: error= 2.41D-09 at cycle  17 NSaved=  17.
 NSaved=17 IEnMin=16 EnMin= -840.066736312100     IErMin=17 ErrMin= 2.41D-09
 ErrMax= 2.41D-09  0.00D+00 EMaxC= 1.00D-01 BMatC= 9.36D-16 BMatP= 6.67D-15
 IDIUse=1 WtCom= 1.00D+00 WtEn= 0.00D+00
 Large coefficients: NSaved= 17 BigCof=    0.00 CofMax=   10.00 Det=-4.12D-16
 Inversion failed.  Reducing to 16 matrices.
 Large coefficients: NSaved= 16 BigCof=    0.00 CofMax=   10.00 Det=-4.40D-16
 Inversion failed.  Reducing to 15 matrices.
 Coeff-Com:  0.305D-06-0.133D-05 0.231D-05-0.142D-05-0.516D-05 0.299D-04
 Coeff-Com: -0.186D-04-0.548D-04 0.729D-04-0.420D-03 0.282D-02-0.821D-02
 Coeff-Com:  0.312D-01-0.233D+00 0.121D+01
 Coeff:      0.305D-06-0.133D-05 0.231D-05-0.142D-05-0.516D-05 0.299D-04
 Coeff:     -0.186D-04-0.548D-04 0.729D-04-0.420D-03 0.282D-02-0.821D-02
 Coeff:      0.312D-01-0.233D+00 0.121D+01
 Gap=     0.410 Goal=   None    Shift=    0.000
 Gap=     0.427 Goal=   None    Shift=    0.000
 RMSDP=3.37D-09 MaxDP=3.58D-08 DE= 0.00D+00 OVMax= 0.00D+00

 SCF Done:  E(UHF) =  -840.066736312     A.U. after   17 cycles
            NFock= 17  Conv=0.34D-08     -V/T= 2.0044
 <Sx>= 0.0000 <Sy>= 0.0000 <Sz>= 1.5000 <S**2>= 3.8561 S= 1.5264
 <L.S>= 0.000000000000E+00
 KE= 8.363655709791D+02 PE=-1.994463068576D+03 EE= 3.129690662238D+02
 Annihilation of the first spin contaminant:
 S**2 before annihilation     3.8561,   after     3.7501
 Leave Link  502 at Fri Mar 25 14:39:02 2022, MaxMem=  9663676416 cpu:               6.4 elap:               0.2
 (Enter /nopt/nrel/apps/gaussian/g16C_1/g16/l801.exe)
 Windowed orbitals will be sorted by symmetry type.
 ExpMin= 1.16D-01 ExpMax= 1.03D+03 ExpMxC= 1.03D+03 IAcc=3 IRadAn=         5 AccDes= 0.00D+00
 HarFok:  IExCor=  205 AccDes= 0.00D+00 IRadAn=         5 IDoV=-2 UseB2=F ITyADJ=14
 ICtDFT= 12500011 ScaDFX=  1.000000  1.000000  1.000000  1.000000
 Largest valence mixing into a core orbital is  4.02D-04
 Largest core mixing into a valence orbital is  3.15D-04
 Largest valence mixing into a core orbital is  1.08D-03
 Largest core mixing into a valence orbital is  4.04D-04
 Range of M.O.s used for correlation:    10    19
 NBasis=    19 NAE=    13 NBE=    10 NFC=     9 NFV=     0
 NROrb=     10 NOA=     4 NOB=     1 NVA=     6 NVB=     9
 Leave Link  801 at Fri Mar 25 14:39:02 2022, MaxMem=  9663676416 cpu:               2.2 elap:               0.1
 (Enter /nopt/nrel/apps/gaussian/g16C_1/g16/l804.exe)
 Open-shell transformation, MDV=  9663676416 ITran=4 ISComp=2.
 Unit  1 TFree=         25012 TCopy=        222819.
 Semi-Direct transformation.
 ModeAB=           2 MOrb=             4 LenV=    9663501562
 LASXX=          307 LTotXX=         307 LenRXX=         307
 LTotAB=         523 MaxLAS=        8400 LenRXY=        8400
 NonZer=        9720 LenScr=      785920 LnRSAI=           0
 LnScr1=           0 LExtra=      224069 Total=      1018696
 MaxDsk= 34359738368 SrtSym=           F ITran=            4
 DoSDTr:  NPSUse= 36
 JobTyp=1 Pass  1:  I=   1 to   4.
 (rs|ai) integrals will be sorted in core.
 Complete sort for first half transformation.
 First half transformation complete.
 Complete sort for second half transformation.
 Second half transformation complete.
 ModeAB=           2 MOrb=             1 LenV=    9663501562
 LASXX=          105 LTotXX=         105 LenRXX=        2100
 LTotAB=          65 MaxLAS=        2100 LenRXY=          65
 NonZer=        2430 LenScr=      785920 LnRSAI=           0
 LnScr1=           0 LExtra=      232776 Total=      1020861
 MaxDsk= 34359738368 SrtSym=           F ITran=            4
 DoSDTr:  NPSUse= 36
 JobTyp=2 Pass  1:  I=   1 to   1.
 (rs|ai) integrals will be sorted in core.
 Complete sort for first half transformation.
 First half transformation complete.
 Complete sort for second half transformation.
 Second half transformation complete.
 Spin components of T(2) and E(2):
     alpha-alpha T2 =       0.1568731267D-02 E2=     -0.1392165977D-02
     alpha-beta  T2 =       0.1299081855D-01 E2=     -0.1575084620D-01
     beta-beta   T2 =       0.0000000000D+00 E2=      0.0000000000D+00
 ANorm=    0.1007253469D+01
 E2 =    -0.1714301218D-01 EUMP2 =    -0.84008387932428D+03
 (S**2,0)=  0.38561D+01           (S**2,1)=  0.38158D+01
 E(PUHF)=      -0.84007163811D+03        E(PMP2)=      -0.84008785175D+03
 Leave Link  804 at Fri Mar 25 14:39:02 2022, MaxMem=  9663676416 cpu:              13.1 elap:               0.4
 (Enter /nopt/nrel/apps/gaussian/g16C_1/g16/l913.exe)
 CIDS:  MDV=  9663676416.
 Frozen-core window:  NFC=   9 NFV=   0.
 IFCWin=0 IBDFC=1 NFBD=     0     0 NFCmp=     0     0 NFFFC=     0     0
 Using original routines for 1st iteration.
 Using DD4UQ or CC4UQ for 2nd and later iterations.
 Keep R2 and R3 ints in memory in symmetry-blocked form, NReq=7415497.
 FoFCou: FMM=F IPFlag=           0 FMFlag=           0 FMFlg1=           0
         NFxFlg=           0 DoJE=F BraDBF=F KetDBF=F FulRan=T
         wScrn=  0.000000 ICntrl=       600 IOpCl=  0 I1Cent=           0 NGrid=           0
         NMat0=    1 NMatS0=    190 NMatT0=    0 NMatD0=    1 NMtDS0=    0 NMtDT0=    0
 Petite list used in FoFCou.
 CIDS: In Core Option IDoMem=           1.
 Coupled Cluster theory with single and double substitutions
 ===========================================================
 Iterations=  50 Convergence= 0.100D-06
 Produce multiple copies of IABC intergrals
 Iteration Nr.   1
 **********************
 DD1Dir will call FoFMem   1 times, MxPair=        14
 NAB=     4 NAA=     6 NBB=     0.
 E(PMP3)=      -0.84009623298D+03
 MP4(R+Q)=  0.21947574D-03
 Maximum subspace dimension=  5
 A-vector RMS=  1.5968979D-02 Max=  2.8322311D-02 conv= 1.00D-05.
 RLE energy=       -0.0367518147
 E3=       -0.93585544D-02        EUMP3=      -0.84009323788D+03
 E4(DQ)=   -0.52539370D-02        UMP4(DQ)=   -0.84009849182D+03
 E4(SDQ)=  -0.57089786D-02        UMP4(SDQ)=  -0.84009894686D+03
 VARIATIONAL ENERGIES WITH THE FIRST-ORDER WAVEFUNCTION:
 DE(Corr)= -0.26289614E-01 E(Corr)=     -840.09302593    
 NORM(A)=   0.10359074D+01
 Iteration Nr.   2
 **********************
 DD1Dir will call FoFMem   1 times, MxPair=        14
 NAB=     4 NAA=     6 NBB=     0.
 A-vector RMS=  1.1825330D-02 Max=  2.0352312D-02 conv= 1.00D-05.
 RLE energy=       -0.0420131325
 DE(Corr)= -0.37960535E-01 E(CORR)=     -840.10469685     Delta=-1.17D-02
 NORM(A)=   0.10544565D+01
 Iteration Nr.   3
 **********************
 DD1Dir will call FoFMem   1 times, MxPair=        14
 NAB=     4 NAA=     6 NBB=     0.
 A-vector RMS=  5.3763466D-03 Max=  1.7267725D-02 conv= 1.00D-05.
 RLE energy=       -0.0455672845
 DE(Corr)= -0.42365412E-01 E(CORR)=     -840.10910172     Delta=-4.40D-03
 NORM(A)=   0.10725638D+01
 Iteration Nr.   4
 **********************
 DD1Dir will call FoFMem   1 times, MxPair=        14
 NAB=     4 NAA=     6 NBB=     0.
 A-vector RMS=  4.2514949D-03 Max=  1.3753024D-02 conv= 1.00D-05.
 RLE energy=       -0.0456269893
 DE(Corr)= -0.45229913E-01 E(CORR)=     -840.11196622     Delta=-2.86D-03
 NORM(A)=   0.10908185D+01
 Iteration Nr.   5
 **********************
 DD1Dir will call FoFMem   1 times, MxPair=        14
 NAB=     4 NAA=     6 NBB=     0.
 A-vector RMS=  3.8530944D-03 Max=  9.1020141D-03 conv= 1.00D-05.
 RLE energy=       -0.0492840509
 DE(Corr)= -0.46070594E-01 E(CORR)=     -840.11280691     Delta=-8.41D-04
 NORM(A)=   0.11303308D+01
 Iteration Nr.   6
 **********************
 DD1Dir will call FoFMem   1 times, MxPair=        14
 NAB=     4 NAA=     6 NBB=     0.
 A-vector RMS=  2.8462205D-03 Max=  5.2372175D-03 conv= 1.00D-05.
 RLE energy=       -0.0470206866
 DE(Corr)= -0.48887429E-01 E(CORR)=     -840.11562374     Delta=-2.82D-03
 NORM(A)=   0.11272279D+01
 Iteration Nr.   7
 **********************
 DD1Dir will call FoFMem   1 times, MxPair=        14
 NAB=     4 NAA=     6 NBB=     0.
 A-vector RMS=  1.7901485D-03 Max=  2.7428861D-03 conv= 1.00D-05.
 RLE energy=       -0.0494272634
 DE(Corr)= -0.47530690E-01 E(CORR)=     -840.11426700     Delta= 1.36D-03
 NORM(A)=   0.11523791D+01
 Iteration Nr.   8
 **********************
 DD1Dir will call FoFMem   1 times, MxPair=        14
 NAB=     4 NAA=     6 NBB=     0.
 A-vector RMS=  1.2426600D-03 Max=  2.4404917D-03 conv= 1.00D-05.
 RLE energy=       -0.0485187567
 DE(Corr)= -0.49294232E-01 E(CORR)=     -840.11603054     Delta=-1.76D-03
 NORM(A)=   0.11420873D+01
 Iteration Nr.   9
 **********************
 DD1Dir will call FoFMem   1 times, MxPair=        14
 NAB=     4 NAA=     6 NBB=     0.
 A-vector RMS=  8.7353624D-04 Max=  1.4400336D-03 conv= 1.00D-05.
 RLE energy=       -0.0490504936
 DE(Corr)= -0.48637746E-01 E(CORR)=     -840.11537406     Delta= 6.56D-04
 NORM(A)=   0.11493608D+01
 Iteration Nr.  10
 **********************
 DD1Dir will call FoFMem   1 times, MxPair=        14
 NAB=     4 NAA=     6 NBB=     0.
 A-vector RMS=  6.1001648D-04 Max=  8.6615498D-04 conv= 1.00D-05.
 RLE energy=       -0.0489572920
 DE(Corr)= -0.49031973E-01 E(CORR)=     -840.11576829     Delta=-3.94D-04
 NORM(A)=   0.11482503D+01
 Iteration Nr.  11
 **********************
 DD1Dir will call FoFMem   1 times, MxPair=        14
 NAB=     4 NAA=     6 NBB=     0.
 A-vector RMS=  3.8591893D-04 Max=  5.1918504D-04 conv= 1.00D-05.
 RLE energy=       -0.0489373949
 DE(Corr)= -0.48952686E-01 E(CORR)=     -840.11568900     Delta= 7.93D-05
 NORM(A)=   0.11481979D+01
 Iteration Nr.  12
 **********************
 DD1Dir will call FoFMem   1 times, MxPair=        14
 NAB=     4 NAA=     6 NBB=     0.
 A-vector RMS=  1.4372461D-04 Max=  2.4311576D-04 conv= 1.00D-05.
 RLE energy=       -0.0489780841
 DE(Corr)= -0.48948601E-01 E(CORR)=     -840.11568491     Delta= 4.08D-06
 NORM(A)=   0.11485429D+01
 Iteration Nr.  13
 **********************
 DD1Dir will call FoFMem   1 times, MxPair=        14
 NAB=     4 NAA=     6 NBB=     0.
 A-vector RMS=  9.8895901D-05 Max=  1.3043743D-04 conv= 1.00D-05.
 RLE energy=       -0.0489562410
 DE(Corr)= -0.48979115E-01 E(CORR)=     -840.11571543     Delta=-3.05D-05
 NORM(A)=   0.11482300D+01
 Iteration Nr.  14
 **********************
 DD1Dir will call FoFMem   1 times, MxPair=        14
 NAB=     4 NAA=     6 NBB=     0.
 A-vector RMS=  2.1844207D-05 Max=  2.7457731D-05 conv= 1.00D-05.
 RLE energy=       -0.0489634743
 DE(Corr)= -0.48958294E-01 E(CORR)=     -840.11569461     Delta= 2.08D-05
 NORM(A)=   0.11482500D+01
 Iteration Nr.  15
 **********************
 DD1Dir will call FoFMem   1 times, MxPair=        14
 NAB=     4 NAA=     6 NBB=     0.
 A-vector RMS=  1.3143021D-05 Max=  1.8106715D-05 conv= 1.00D-05.
 RLE energy=       -0.0489593858
 DE(Corr)= -0.48961945E-01 E(CORR)=     -840.11569826     Delta=-3.65D-06
 NORM(A)=   0.11482231D+01
 Iteration Nr.  16
 **********************
 DD1Dir will call FoFMem   1 times, MxPair=        14
 NAB=     4 NAA=     6 NBB=     0.
 A-vector RMS=  7.7612996D-06 Max=  1.3577435D-05 conv= 1.00D-05.
 RLE energy=       -0.0489651112
 DE(Corr)= -0.48959240E-01 E(CORR)=     -840.11569555     Delta= 2.70D-06
 NORM(A)=   0.11482859D+01
 Iteration Nr.  17
 **********************
 DD1Dir will call FoFMem   1 times, MxPair=        14
 NAB=     4 NAA=     6 NBB=     0.
 A-vector RMS=  5.9808892D-06 Max=  8.6069590D-06 conv= 1.00D-05.
 RLE energy=       -0.0489581534
 DE(Corr)= -0.48963534E-01 E(CORR)=     -840.11569985     Delta=-4.29D-06
 NORM(A)=   0.11482603D+01
 Iteration Nr.  18
 **********************
 DD1Dir will call FoFMem   1 times, MxPair=        14
 NAB=     4 NAA=     6 NBB=     0.
 A-vector RMS=  3.6407038D-06 Max=  6.7269490D-06 conv= 1.00D-05.
 RLE energy=       -0.0489664533
 DE(Corr)= -0.48959156E-01 E(CORR)=     -840.11569547     Delta= 4.38D-06
 NORM(A)=   0.11483335D+01
 Iteration Nr.  19
 **********************
 DD1Dir will call FoFMem   1 times, MxPair=        14
 NAB=     4 NAA=     6 NBB=     0.
 A-vector RMS=  3.4177707D-06 Max=  7.2896541D-06 conv= 1.00D-05.
 RLE energy=       -0.0489608259
 DE(Corr)= -0.48964684E-01 E(CORR)=     -840.11570100     Delta=-5.53D-06
 NORM(A)=   0.11483022D+01
 Iteration Nr.  20
 **********************
 DD1Dir will call FoFMem   1 times, MxPair=        14
 NAB=     4 NAA=     6 NBB=     0.
 A-vector RMS=  1.3228137D-06 Max=  1.9694901D-06 conv= 1.00D-05.
 RLE energy=       -0.0489620367
 DE(Corr)= -0.48961097E-01 E(CORR)=     -840.11569741     Delta= 3.59D-06
 NORM(A)=   0.11483141D+01
 Iteration Nr.  21
 **********************
 DD1Dir will call FoFMem   1 times, MxPair=        14
 NAB=     4 NAA=     6 NBB=     0.
 A-vector RMS=  5.6138441D-07 Max=  5.9596057D-07 conv= 1.00D-05.
 RLE energy=       -0.0489618685
 DE(Corr)= -0.48961935E-01 E(CORR)=     -840.11569825     Delta=-8.38D-07
 NORM(A)=   0.11483141D+01
 Iteration Nr.  22
 **********************
 DD1Dir will call FoFMem   1 times, MxPair=        14
 NAB=     4 NAA=     6 NBB=     0.
 A-vector RMS=  2.4168343D-07 Max=  2.9299799D-07 conv= 1.00D-05.
 RLE energy=       -0.0489619376
 DE(Corr)= -0.48961858E-01 E(CORR)=     -840.11569817     Delta= 7.73D-08
 NORM(A)=   0.11483156D+01
 CI/CC converged in   22 iterations to DelEn= 7.73D-08 Conv= 1.00D-07 ErrA1= 2.42D-07 Conv= 1.00D-05
 Wavefunction amplitudes converged. E(Corr)=     -840.11569817    
 Dominant configurations:
 ***********************
 Spin Case        I    J    A    B          Value
   AAAA          13   12   16   17      -0.468698D+00
   ABAB          10   10   19   11       0.112811D+00
   ABAB          10   10   19   19      -0.128393D+00
   ABAB          11   10   19   11      -0.107120D+00
 Largest amplitude= 4.69D-01

 S**2, projected HF & approx projected MPn energies after annihilation of
 unwanted spin states (see manual for definitions):

 spins       (S**2,0) (S**2,1)    PUHF        PMP2        PMP3        PMP4
 annihilated
 s+1         3.74995  3.74997 -840.071638 -840.087852 -840.096233

 Discarding MO integrals.
 Leave Link  913 at Fri Mar 25 14:39:03 2022, MaxMem=  9663676416 cpu:               8.3 elap:               0.3
 (Enter /nopt/nrel/apps/gaussian/g16C_1/g16/l601.exe)
 Copying SCF densities to generalized density rwf, IOpCl= 1 IROHF=0.

 **********************************************************************

            Population analysis using the SCF Density.

 **********************************************************************

 Orbital symmetries:
 Alpha Orbitals:
       Occupied  (SG) (SG) (PI) (PI) (SG) (SG) (SG) (PI) (PI) (SG)
                 (SG) (PI) (PI)
       Virtual   (PI) (PI) (DLTA) (DLTA) (SG) (SG)
 Beta  Orbitals:
       Occupied  (SG) (SG) (PI) (PI) (SG) (SG) (PI) (PI) (SG) (SG)
       Virtual   (SG) (PI) (PI) (DLTA) (DLTA) (SG) (PI) (PI) (SG)
 The electronic state is 4-SG.
 Alpha  occ. eigenvalues -- -181.61264 -21.38468 -17.96914 -17.96914 -17.96319
 Alpha  occ. eigenvalues --   -3.00139  -1.94730  -1.93671  -1.93671  -0.36028
 Alpha  occ. eigenvalues --   -0.21826  -0.14842  -0.14842
 Alpha virt. eigenvalues --    0.26141   0.26141   0.28294   0.28294   0.31056
 Alpha virt. eigenvalues --    0.41703
  Beta  occ. eigenvalues -- -181.60957 -21.37748 -17.96425 -17.96425 -17.95850
  Beta  occ. eigenvalues --   -2.92549  -1.86260  -1.86260  -1.82119  -0.21716
  Beta virt. eigenvalues --    0.20972   0.31015   0.31015   0.35106   0.35106
  Beta virt. eigenvalues --    0.39954   0.41007   0.41007   0.51234
          Condensed to atoms (all electrons):
               1          2
     1  H    1.002030   0.185357
     2  Ti   0.185357  21.627256
          Atomic-Atomic Spin Densities.
               1          2
     1  H    0.556576  -0.042295
     2  Ti  -0.042295   2.528015
 Mulliken charges and spin densities:
               1          2
     1  H   -0.187387   0.514281
     2  Ti   0.187387   2.485719
 Sum of Mulliken charges =  -0.00000   3.00000
 Mulliken charges and spin densities with hydrogens summed into heavy atoms:
               1          2
     2  Ti  -0.000000   3.000000
 N-N= 5.061695060974D+00 E-N=-1.994463068460D+03  KE= 8.363655709791D+02
 Symmetry A1   KE= 6.594697380806D+02
 Symmetry A2   KE= 1.233162301666D-50
 Symmetry B1   KE= 8.844791644924D+01
 Symmetry B2   KE= 8.844791644924D+01
 Symmetry A1   SP= 1.000000000000D+00
 Symmetry A2   SP= 5.672800619682D-51
 Symmetry B1   SP= 1.000000000000D+00
 Symmetry B2   SP= 1.000000000000D+00

 Atomic contributions to Alpha molecular orbitals:
 Alpha occ 1 OE=-181.613 is Ti2-s=1.0000
 Alpha occ 2 OE=-21.385 is Ti2-s=1.0000
 Alpha occ 3 OE=-17.969 is Ti2-p=1.0000
 Alpha occ 4 OE=-17.969 is Ti2-p=1.0000
 Alpha occ 5 OE=-17.963 is Ti2-p=1.0000
 Alpha occ 6 OE=-3.001 is Ti2-s=0.9998
 Alpha occ 7 OE=-1.947 is Ti2-p=0.9998
 Alpha occ 8 OE=-1.937 is Ti2-p=0.9999
 Alpha occ 9 OE=-1.937 is Ti2-p=0.9999
 Alpha occ 10 OE=-0.360 is H1-s=0.7368 Ti2-s=0.2121
 Alpha occ 11 OE=-0.218 is Ti2-s=0.7058 Ti2-p=0.1540 H1-s=0.1139
 Alpha occ 12 OE=-0.148 is Ti2-d=0.8149 Ti2-p=0.1851
 Alpha occ 13 OE=-0.148 is Ti2-d=0.8149 Ti2-p=0.1851
 Alpha vir 14 OE=0.261 is Ti2-p=0.8150 Ti2-d=0.1850
 Alpha vir 15 OE=0.261 is Ti2-p=0.8150 Ti2-d=0.1850
 Alpha vir 16 OE=0.283 is Ti2-d=1.0000
 Alpha vir 17 OE=0.283 is Ti2-d=1.0000
 Alpha vir 18 OE=0.311 is Ti2-d=0.5815 Ti2-p=0.3987
 Alpha vir 19 OE=0.417 is Ti2-p=0.4112 Ti2-d=0.3772 H1-s=0.1412

 Atomic contributions to Beta  molecular orbitals:
 Beta  occ 1 OE=-181.610 is Ti2-s=1.0000
 Beta  occ 2 OE=-21.377 is Ti2-s=1.0000
 Beta  occ 3 OE=-17.964 is Ti2-p=1.0000
 Beta  occ 4 OE=-17.964 is Ti2-p=1.0000
 Beta  occ 5 OE=-17.958 is Ti2-p=1.0000
 Beta  occ 6 OE=-2.925 is Ti2-s=0.9996
 Beta  occ 7 OE=-1.863 is Ti2-p=0.9999
 Beta  occ 8 OE=-1.863 is Ti2-p=0.9999
 Beta  occ 9 OE=-1.821 is Ti2-p=0.9997
 Beta  occ 10 OE=-0.217 is Ti2-s=0.4769 H1-s=0.3363 Ti2-p=0.1610
 Beta  vir 11 OE=0.210 is Ti2-s=0.5034 H1-s=0.2609 Ti2-d=0.1269 Ti2-p=0.1089
 Beta  vir 12 OE=0.310 is Ti2-p=0.8105 Ti2-d=0.1895
 Beta  vir 13 OE=0.310 is Ti2-p=0.8105 Ti2-d=0.1895
 Beta  vir 14 OE=0.351 is Ti2-d=1.0000
 Beta  vir 15 OE=0.351 is Ti2-d=1.0000
 Beta  vir 16 OE=0.400 is Ti2-d=0.7207 Ti2-p=0.2546
 Beta  vir 17 OE=0.410 is Ti2-d=0.8104 Ti2-p=0.1896
 Beta  vir 18 OE=0.410 is Ti2-d=0.8104 Ti2-p=0.1896
 Beta  vir 19 OE=0.512 is Ti2-p=0.4757 H1-s=0.3991 Ti2-d=0.1266
 
 Leave Link  601 at Fri Mar 25 14:39:03 2022, MaxMem=  9663676416 cpu:               3.3 elap:               0.1
 (Enter /nopt/nrel/apps/gaussian/g16C_1/g16/l9999.exe)

 Test job not archived.
 1\1\GINC-R3I7N35\SP\UCCSD-FC\Gen\H1Ti1(4)\USER\25-Mar-2022\0\\#P C
 CSD/GEN sp pop=AllOrbitals iop(3/33=1,3/36=-1)\\test\\0,4\H,0,0.,0.,0.
 \Ti,0,0.,0.,2.3\\Version=ES64L-G16RevC.01\State=4-SG\HF=-840.0667363\M
 P2=-840.0838793\MP3=-840.0932379\MP4D=-840.0987113\MP4DQ=-840.0984918\
 PUHF=-840.0716381\PMP2-0=-840.0878517\PMP3-0=-840.096233\MP4SDQ=-840.0
 989469\CCSD=-840.1156982\S2=3.856099\S2-1=3.815848\S2A=3.750067\RMSD=3
 .372e-09\PG=C*V [C*(H1Ti1)]\\@


    WHAT WE HAVE LEARNED
 IS LIKE A HANDFUL OF EARTH;
  WHAT WE HAVE YET TO LEARN
   IS LIKE THE WHOLE WORLD.

         -- AVVAYIAR
 Job cpu time:       0 days  0 hours  0 minutes 51.4 seconds.
 Elapsed time:       0 days  0 hours  0 minutes  1.9 seconds.
 File lengths (MBytes):  RWF=     13 Int=      0 D2E=      0 Chk=      1 Scr=      1
 Normal termination of Gaussian 16 at Fri Mar 25 14:39:03 2022.
