 Entering Gaussian System, Link 0=g16
 Initial command:
 /nopt/nrel/apps/gaussian/g16C_1/g16/l1.exe "/lustre/eaglefs/scratch/user/qc/nah-dissc/nah-3-ccsd-1.9-321g/Gau-1966.inp" -scrdir="/lustre/eaglefs/scratch/user/qc/nah-dissc/nah-3-ccsd-1.9-321g/"
 Default is to use a total of  36 processors:
                               36 via shared-memory
                                1 via Linda
 Entering Link 1 = /nopt/nrel/apps/gaussian/g16C_1/g16/l1.exe PID=      1967.
  
 Copyright (c) 1988-2019, Gaussian, Inc.  All Rights Reserved.
  
 This is part of the Gaussian(R) 16 program.  It is based on
 the Gaussian(R) 09 system (copyright 2009, Gaussian, Inc.),
 the Gaussian(R) 03 system (copyright 2003, Gaussian, Inc.),
 the Gaussian(R) 98 system (copyright 1998, Gaussian, Inc.),
 the Gaussian(R) 94 system (copyright 1995, Gaussian, Inc.),
 the Gaussian 92(TM) system (copyright 1992, Gaussian, Inc.),
 the Gaussian 90(TM) system (copyright 1990, Gaussian, Inc.),
 the Gaussian 88(TM) system (copyright 1988, Gaussian, Inc.),
 the Gaussian 86(TM) system (copyright 1986, Carnegie Mellon
 University), and the Gaussian 82(TM) system (copyright 1983,
 Carnegie Mellon University). Gaussian is a federally registered
 trademark of Gaussian, Inc.
  
 This software contains proprietary and confidential information,
 including trade secrets, belonging to Gaussian, Inc.
  
 This software is provided under written license and may be
 used, copied, transmitted, or stored only in accord with that
 written license.
  
 The following legend is applicable only to US Government
 contracts under FAR:
  
                    RESTRICTED RIGHTS LEGEND
  
 Use, reproduction and disclosure by the US Government is
 subject to restrictions as set forth in subparagraphs (a)
 and (c) of the Commercial Computer Software - Restricted
 Rights clause in FAR 52.227-19.
  
 Gaussian, Inc.
 340 Quinnipiac St., Bldg. 40, Wallingford CT 06492
  
  
 ---------------------------------------------------------------
 Warning -- This program may not be used in any manner that
 competes with the business of Gaussian, Inc. or will provide
 assistance to any competitor of Gaussian, Inc.  The licensee
 of this program is prohibited from giving any competitor of
 Gaussian, Inc. access to this program.  By using this program,
 the user acknowledges that Gaussian, Inc. is engaged in the
 business of creating and licensing software in the field of
 computational chemistry and represents and warrants to the
 licensee that it is not a competitor of Gaussian, Inc. and that
 it will not use this program in any manner prohibited above.
 ---------------------------------------------------------------
  

 Cite this work as:
 Gaussian 16, Revision C.01,
 M. J. Frisch, G. W. Trucks, H. B. Schlegel, G. E. Scuseria, 
 M. A. Robb, J. R. Cheeseman, G. Scalmani, V. Barone, 
 G. A. Petersson, H. Nakatsuji, X. Li, M. Caricato, A. V. Marenich, 
 J. Bloino, B. G. Janesko, R. Gomperts, B. Mennucci, H. P. Hratchian, 
 J. V. Ortiz, A. F. Izmaylov, J. L. Sonnenberg, D. Williams-Young, 
 F. Ding, F. Lipparini, F. Egidi, J. Goings, B. Peng, A. Petrone, 
 T. Henderson, D. Ranasinghe, V. G. Zakrzewski, J. Gao, N. Rega, 
 G. Zheng, W. Liang, M. Hada, M. Ehara, K. Toyota, R. Fukuda, 
 J. Hasegawa, M. Ishida, T. Nakajima, Y. Honda, O. Kitao, H. Nakai, 
 T. Vreven, K. Throssell, J. A. Montgomery, Jr., J. E. Peralta, 
 F. Ogliaro, M. J. Bearpark, J. J. Heyd, E. N. Brothers, K. N. Kudin, 
 V. N. Staroverov, T. A. Keith, R. Kobayashi, J. Normand, 
 K. Raghavachari, A. P. Rendell, J. C. Burant, S. S. Iyengar, 
 J. Tomasi, M. Cossi, J. M. Millam, M. Klene, C. Adamo, R. Cammi, 
 J. W. Ochterski, R. L. Martin, K. Morokuma, O. Farkas, 
 J. B. Foresman, and D. J. Fox, Gaussian, Inc., Wallingford CT, 2019.
 
 ******************************************
 Gaussian 16:  ES64L-G16RevC.01  3-Jul-2019
                28-Mar-2022 
 ******************************************
 %chk=molecule
 Default route: CacheSize=180224 MaxDisk=256GB
 ----------------------------------------------------------------------
 #P CCSD(MaxCyc=200,SaveAmplitudes,ReadAmplitudes)/GEN sp pop=AllOrbita
 ls iop(3/33=1,3/36=-1)
 ----------------------------------------------------------------------
 1/4=180224,38=1,172=1/1;
 2/4=180224,12=2,17=6,18=5,40=1/2;
 3/4=180224,5=7,11=9,25=1,30=1,33=1,36=-1/1,2,3;
 4/4=180224/1;
 5/4=180224,5=2,38=5/2;
 8/4=180224,6=4,9=120000,10=1,24=1/1,4;
 9/4=180224,5=7,6=200,77=1/13;
 6/4=180224,7=2,8=2,9=2,10=2,96=-1/1;
 99/4=180224,5=1,9=1/99;
 Leave Link    1 at Mon Mar 28 14:24:39 2022, MaxMem=           0 cpu:               2.2 elap:               0.1
 (Enter /nopt/nrel/apps/gaussian/g16C_1/g16/l101.exe)
 ----
 test
 ----
 Symbolic Z-matrix:
 Charge =  0 Multiplicity = 3
 H                     0.        0.        0. 
 Na                    0.        0.        1.9 
 
 ITRead=  0  0
 MicOpt= -1 -1
 NAtoms=      2 NQM=        2 NQMF=       0 NMMI=      0 NMMIF=      0
                NMic=       0 NMicF=      0.
                    Isotopes and Nuclear Properties:
 (Nuclear quadrupole moments (NQMom) in fm**2, nuclear magnetic moments (NMagM)
  in nuclear magnetons)

  Atom         1           2
 IAtWgt=           1          23
 AtmWgt=   1.0078250  22.9897697
 NucSpn=           1           3
 AtZEff=  -0.0000000  -0.0000000
 NQMom=    0.0000000  10.4000000
 NMagM=    2.7928460   2.2175200
 AtZNuc=   1.0000000  11.0000000
 Leave Link  101 at Mon Mar 28 14:24:39 2022, MaxMem=  9663676416 cpu:               3.0 elap:               0.1
 (Enter /nopt/nrel/apps/gaussian/g16C_1/g16/l202.exe)
                          Input orientation:                          
 ---------------------------------------------------------------------
 Center     Atomic      Atomic             Coordinates (Angstroms)
 Number     Number       Type             X           Y           Z
 ---------------------------------------------------------------------
      1          1           0        0.000000    0.000000    0.000000
      2         11           0        0.000000    0.000000    1.900000
 ---------------------------------------------------------------------
 Stoichiometry    HNa(3)
 Framework group  C*V[C*(HNa)]
 Deg. of freedom     1
 Full point group                 C*V     NOp   4
 Largest Abelian subgroup         C2V     NOp   4
 Largest concise Abelian subgroup C1      NOp   1
                         Standard orientation:                         
 ---------------------------------------------------------------------
 Center     Atomic      Atomic             Coordinates (Angstroms)
 Number     Number       Type             X           Y           Z
 ---------------------------------------------------------------------
      1          1           0        0.000000    0.000000   -1.741667
      2         11           0        0.000000    0.000000    0.158333
 ---------------------------------------------------------------------
 Rotational constants (GHZ):           0.0000000         144.9966434         144.9966434
 Leave Link  202 at Mon Mar 28 14:24:39 2022, MaxMem=  9663676416 cpu:               0.7 elap:               0.0
 (Enter /nopt/nrel/apps/gaussian/g16C_1/g16/l301.exe)
 General basis read from cards:  (5D, 7F)
                         Coordinates in L301:                         
 ---------------------------------------------------------------------
 Center     Atomic      Atomic             Coordinates (Angstroms)
 Number     Number       Type             X           Y           Z
 ---------------------------------------------------------------------
      1          1           0        0.000000    0.000000   -1.741667
      2         11           0        0.000000    0.000000    0.158333
 ---------------------------------------------------------------------
 Centers:       1
 STO-3G
 ****
 Centers:       2
 3-21G
 ****
 FixB: optimizing general contractions.
 Ernie: Thresh=  0.10000D-02 Tol=  0.10000D-05 Strict=F.
 IA=     1 ShT= 0 ShC= 0 NL=   1 NS=   0.
 IA=     1 L=0 SC=0 ISt=    0 NBk=    0 NP=    0 IndPr=    0.
 IA=     2 ShT= 0 ShC= 0 NL=   1 NS=   0.
 IA=     2 L=0 SC=0 ISt=    0 NBk=    0 NP=    0 IndPr=    0.
 IA=     2 ShT= 1 ShC= 0 NL=   3 NS=   1.
 IA=     2 L=1 SC=0 ISt=    1 NBk=    2 NP=    5 IndPr=    0.
 DoElim1:  L=1 select primitive    1 from    2 using    1 C=-1.12D-01
 DoElim2:  L=1 select primitive    5 from    1 using    2 C= 1.09D+00
 DoElim1:  L=1 select primitive    1 from    2 using    1 C= 1.28D-01
 DoElim2:  L=1 select primitive    5 from    1 using    2 C= 9.97D-01
 Delete L=1 primitive    3 from    2 C=  0.00D+00.
 Delete L=1 primitive    2 from    2 C=  0.00D+00.
 Delete L=1 primitive    1 from    2 C=  0.00D+00.
 Delete L=1 primitive    5 from    1 C=  0.00D+00.
 Delete L=1 primitive    4 from    1 C=  0.00D+00.
 IA=     2 L=1 SC=0 ISt=    0 NBk=    0 NP=    0 IndPr=    5.
 LdAtmC:  AtmChg=     1.000000    11.000000
 AtZEff=     -1.0000000    -10.0400000
 NEqShl: 
              1            2            3            4
     1            1            1            1            1
     2            2            2            2            2
     3            3            3            3            3
     4            4            4            4            4
     5            5            5            5            5
 NEqBas: 
              1            2            3            4
     1            1            1            1            1
     2            2            2            2            2
     3            3            3            3            3
     4            4           -4           -4            4
     5            5           -5            5           -5
     6            6            6            6            6
     7            7            7            7            7
     8            8           -8           -8            8
     9            9           -9            9           -9
    10           10           10           10           10
    11           11           11           11           11
    12           12          -12          -12           12
    13           13          -13           13          -13
    14           14           14           14           14
 There are     8 symmetry adapted cartesian basis functions of A1  symmetry.
   1         1   1   1   1
   2         2   2   2   2
   3         3   3   3   3
   4         6   6   6   6
   5         7   7   7   7
   6        10  10  10  10
   7        11  11  11  11
   8        14  14  14  14
 There are     0 symmetry adapted cartesian basis functions of A2  symmetry.
 There are     3 symmetry adapted cartesian basis functions of B1  symmetry.
   9         4   4   4   4
  10         8   8   8   8
  11        12  12  12  12
 There are     3 symmetry adapted cartesian basis functions of B2  symmetry.
  12         5   5   5   5
  13         9   9   9   9
  14        13  13  13  13
 Order= 1 2 4 3
 Reordered character table:
              1            2            3            4            5
     1            1            1            1            1            1
     2            2            1            1           -1           -1
     3            4            1           -1           -1            1
     4            3            1           -1            1           -1
 NEqShl: 
              1            2            3            4
     1            1            1            1            1
     2            2            2            2            2
     3            3            3            3            3
     4            4            4            4            4
     5            5            5            5            5
 NEqBas: 
              1            2            3            4
     1            1            1            1            1
     2            2            2            2            2
     3            3            3            3            3
     4            4           -4           -4            4
     5            5           -5            5           -5
     6            6            6            6            6
     7            7            7            7            7
     8            8           -8           -8            8
     9            9           -9            9           -9
    10           10           10           10           10
    11           11           11           11           11
    12           12          -12          -12           12
    13           13          -13           13          -13
    14           14           14           14           14
 There are     8 symmetry adapted basis functions of A1  symmetry.
   1         1   1   1   1
   2         2   2   2   2
   3         3   3   3   3
   4         6   6   6   6
   5         7   7   7   7
   6        10  10  10  10
   7        11  11  11  11
   8        14  14  14  14
 There are     0 symmetry adapted basis functions of A2  symmetry.
 There are     3 symmetry adapted basis functions of B1  symmetry.
   9         4   4   4   4
  10         8   8   8   8
  11        12  12  12  12
 There are     3 symmetry adapted basis functions of B2  symmetry.
  12         5   5   5   5
  13         9   9   9   9
  14        13  13  13  13
 Order= 1 2 4 3
 Reordered character table:
              1            2            3            4            5
     1            1            1            1            1            1
     2            2            1            1           -1           -1
     3            4            1           -1           -1            1
     4            3            1           -1            1           -1
    14 basis functions,    30 primitive gaussians,    14 cartesian basis functions
     7 alpha electrons        5 beta electrons
       nuclear repulsion energy         3.0636575369 Hartrees.
 IS=     1 IAt=     1 ISR=     1 T=0 IP=      1 IndIP=      1 IndIPD=      0 C=  2.769344D-01  0.000000D+00                             NZ=T
 IS=     1 IAt=     1 ISR=     1 T=0 IP=      2 IndIP=      2 IndIPD=      1 C=  2.678389D-01  0.000000D+00                             NZ=T
 IS=     1 IAt=     1 ISR=     1 T=0 IP=      3 IndIP=      3 IndIPD=      2 C=  8.347367D-02  0.000000D+00                             NZ=T
 IS=     2 IAt=     2 ISR=     1 T=0 IP=      1 IndIP=      4 IndIPD=      0 C=  5.445177D+00  0.000000D+00                             NZ=T
 IS=     2 IAt=     2 ISR=     1 T=0 IP=      2 IndIP=      5 IndIPD=      1 C=  7.646982D+00  0.000000D+00                             NZ=T
 IS=     2 IAt=     2 ISR=     1 T=0 IP=      3 IndIP=      6 IndIPD=      2 C=  4.092173D+00  0.000000D+00                             NZ=T
 IS=     3 IAt=     2 ISR=     2 T=1 IP=      1 IndIP=      7 IndIPD=      0 C= -6.837842D-01  6.561431D+00                             NZ=T
 IS=     3 IAt=     2 ISR=     2 T=1 IP=      2 IndIP=      8 IndIPD=      1 C=  4.933805D-01  3.558943D+00                             NZ=T
 IS=     3 IAt=     2 ISR=     2 T=1 IP=      3 IndIP=      9 IndIPD=      2 C=  5.590773D-01  7.618119D-01                             NZ=T
 IS=     4 IAt=     2 ISR=     3 T=1 IP=      1 IndIP=     10 IndIPD=      0 C= -9.334168D-02  5.458439D-03                             NZ=T
 IS=     4 IAt=     2 ISR=     3 T=1 IP=      2 IndIP=     11 IndIPD=      1 C=  9.521265D-02  4.304303D-02                             NZ=T
 IS=     5 IAt=     2 ISR=     4 T=1 IP=      1 IndIP=     12 IndIPD=      0 C=  4.404717D-02  1.377061D-02                             NZ=T
 IExCor=    0 DFT=F Ex=HF Corr=None ExCW=0 ScaHFX=  1.000000
 ScaDFX=  1.000000  1.000000  1.000000  1.000000 ScalE2=  1.000000  1.000000
 IRadAn=      5 IRanWt=     -1 IRanGd=            0 ICorTp=0 IEmpDi=  4
 NAtoms=    2 NActive=    2 NUniq=    2 SFac= 1.00D+00 NAtFMM=   60 NAOKFM=F Big=F
 Integral buffers will be    131072 words long.
 Raffenetti 2 integral format.
 Two-electron integral symmetry is turned on.
 Leave Link  301 at Mon Mar 28 14:24:39 2022, MaxMem=  9663676416 cpu:               2.7 elap:               0.1
 (Enter /nopt/nrel/apps/gaussian/g16C_1/g16/l302.exe)
 NPDir=0 NMtPBC=     1 NCelOv=     1 NCel=       1 NClECP=     1 NCelD=      1
         NCelK=      1 NCelE2=     1 NClLst=     1 CellRange=     0.0.
 One-electron integrals computed using PRISM.
 One-electron integral symmetry used in STVInt
 Entering OneElI...
 Calculate overlap and kinetic energy integrals
    NBasis =  14  MinDer = 0  MaxDer = 0
 Requested accuracy = 0.1000D-12
 Symmetry will be used
 PrmmSu-InSpLW:  IPartL=    0 NPrtUS=   36 NPrtUL=    1 DoSpLW=F IThBeg=    0 IThEnd=   35 NThAct=   36.
 PrSmSu:  IncTry=   512 NBBP=             15 NTPThr=   100 NPartT=   36 Incr=           1 LDynOK=F GPUOK=F.
 PrsmSu:  NPrtUS=  36 ThrOK=T IAlg=1 LenDen=           0 ISkipM=0 DoSpLW=F IThBeg=    0 IThEnd=   35.
 Prism:   IPart=     0 DynPar=F LinDyn=F Incr=           1.
 PRISM was handed   268433825 working-precision words and    15 shell-pairs
 PRISM was handed   268433825 working-precision words and    15 shell-pairs
 PRISM was handed   268433825 working-precision words and    15 shell-pairs
 PRISM was handed   268433825 working-precision words and    15 shell-pairs
 PRISM was handed   268433825 working-precision words and    15 shell-pairs
 PRISM was handed   268433825 working-precision words and    15 shell-pairs
 PRISM was handed   268433825 working-precision words and    15 shell-pairs
 PRISM was handed   268433825 working-precision words and    15 shell-pairs
 PRISM was handed   268433825 working-precision words and    15 shell-pairs
 PRISM was handed   268433825 working-precision words and    15 shell-pairs
 PRISM was handed   268433825 working-precision words and    15 shell-pairs
 IPart=  6 NShTot=           0 NBatch=           0 AvBLen=         0.0
 IPart= 30 NShTot=           0 NBatch=           0 AvBLen=         0.0
 IPart= 14 NShTot=           0 NBatch=           0 AvBLen=         0.0
 IPart= 32 NShTot=           0 NBatch=           0 AvBLen=         0.0
 IPart=  5 NShTot=           0 NBatch=           0 AvBLen=         0.0
 IPart=  8 NShTot=           0 NBatch=           0 AvBLen=         0.0
 IPart= 15 NShTot=           0 NBatch=           0 AvBLen=         0.0
 IPart= 16 NShTot=           0 NBatch=           0 AvBLen=         0.0
 IPart= 19 NShTot=           0 NBatch=           0 AvBLen=         0.0
 PRISM was handed   268433825 working-precision words and    15 shell-pairs
 PRISM was handed   268433825 working-precision words and    15 shell-pairs
 IPart=  1 NShTot=           4 NBatch=           4 AvBLen=         1.0
 IPart= 25 NShTot=           0 NBatch=           0 AvBLen=         0.0
 PRISM was handed   268433825 working-precision words and    15 shell-pairs
 PRISM was handed   268433825 working-precision words and    15 shell-pairs
 IPart= 24 NShTot=           0 NBatch=           0 AvBLen=         0.0
 PRISM was handed   268433825 working-precision words and    15 shell-pairs
 IPart= 18 NShTot=           0 NBatch=           0 AvBLen=         0.0
 IPart=  0 NShTot=          10 NBatch=          10 AvBLen=         1.0
 IPart= 26 NShTot=           0 NBatch=           0 AvBLen=         0.0
 IPart= 31 NShTot=           0 NBatch=           0 AvBLen=         0.0
 PRISM was handed   268433825 working-precision words and    15 shell-pairs
 PRISM was handed   268433825 working-precision words and    15 shell-pairs
 PRISM was handed   268433825 working-precision words and    15 shell-pairs
 PRISM was handed   268433825 working-precision words and    15 shell-pairs
 PRISM was handed   268433825 working-precision words and    15 shell-pairs
 PRISM was handed   268433825 working-precision words and    15 shell-pairs
 IPart= 33 NShTot=           0 NBatch=           0 AvBLen=         0.0
 IPart= 28 NShTot=           0 NBatch=           0 AvBLen=         0.0
 IPart= 35 NShTot=           0 NBatch=           0 AvBLen=         0.0
 IPart=  4 NShTot=           0 NBatch=           0 AvBLen=         0.0
 PRISM was handed   268433825 working-precision words and    15 shell-pairs
 IPart= 23 NShTot=           0 NBatch=           0 AvBLen=         0.0
 IPart= 11 NShTot=           0 NBatch=           0 AvBLen=         0.0
 PRISM was handed   268433825 working-precision words and    15 shell-pairs
 PRISM was handed   268433825 working-precision words and    15 shell-pairs
 PRISM was handed   268433825 working-precision words and    15 shell-pairs
 PRISM was handed   268433825 working-precision words and    15 shell-pairs
 PRISM was handed   268433825 working-precision words and    15 shell-pairs
 PRISM was handed   268433825 working-precision words and    15 shell-pairs
 IPart= 13 NShTot=           0 NBatch=           0 AvBLen=         0.0
 IPart= 12 NShTot=           0 NBatch=           0 AvBLen=         0.0
 IPart= 10 NShTot=           0 NBatch=           0 AvBLen=         0.0
 PRISM was handed   268433825 working-precision words and    15 shell-pairs
 PRISM was handed   268433825 working-precision words and    15 shell-pairs
 PRISM was handed   268433825 working-precision words and    15 shell-pairs
 PRISM was handed   268433825 working-precision words and    15 shell-pairs
 IPart= 22 NShTot=           0 NBatch=           0 AvBLen=         0.0
 IPart= 29 NShTot=           0 NBatch=           0 AvBLen=         0.0
 PRISM was handed   268433825 working-precision words and    15 shell-pairs
 PRISM was handed   268433825 working-precision words and    15 shell-pairs
 PRISM was handed   268433825 working-precision words and    15 shell-pairs
 IPart=  9 NShTot=           0 NBatch=           0 AvBLen=         0.0
 IPart=  2 NShTot=           1 NBatch=           1 AvBLen=         1.0
 IPart= 20 NShTot=           0 NBatch=           0 AvBLen=         0.0
 IPart=  3 NShTot=           0 NBatch=           0 AvBLen=         0.0
 IPart= 27 NShTot=           0 NBatch=           0 AvBLen=         0.0
 IPart= 17 NShTot=           0 NBatch=           0 AvBLen=         0.0
 IPart= 34 NShTot=           0 NBatch=           0 AvBLen=         0.0
 IPart= 21 NShTot=           0 NBatch=           0 AvBLen=         0.0
 IPart=  7 NShTot=           0 NBatch=           0 AvBLen=         0.0
 PrSmSu:  NxtVal=             37.
 *** Overlap *** 
                1             2             3             4             5 
      1  0.100000D+01
      2  0.352068D-02  0.100000D+01
      3  0.441627D-01  0.226762D+00  0.100000D+01
      4  0.000000D+00  0.000000D+00  0.000000D+00  0.100000D+01
      5  0.000000D+00  0.000000D+00  0.000000D+00  0.000000D+00  0.100000D+01
      6 -0.405598D-01  0.000000D+00  0.000000D+00  0.000000D+00  0.000000D+00
      7  0.339639D+00  0.175172D-02  0.143132D+00  0.000000D+00  0.000000D+00
      8  0.000000D+00  0.000000D+00  0.000000D+00  0.120813D+00  0.000000D+00
      9  0.000000D+00  0.000000D+00  0.000000D+00  0.000000D+00  0.120813D+00
     10 -0.467924D+00  0.000000D+00  0.000000D+00  0.000000D+00  0.000000D+00
     11  0.283648D+00  0.160858D-01  0.166618D+00  0.000000D+00  0.000000D+00
     12  0.000000D+00  0.000000D+00  0.000000D+00  0.399192D-01  0.000000D+00
     13  0.000000D+00  0.000000D+00  0.000000D+00  0.000000D+00  0.399192D-01
     14 -0.288440D+00  0.000000D+00  0.000000D+00  0.000000D+00  0.000000D+00
                6             7             8             9            10 
      6  0.100000D+01
      7  0.000000D+00  0.100000D+01
      8  0.000000D+00  0.000000D+00  0.100000D+01
      9  0.000000D+00  0.000000D+00  0.000000D+00  0.100000D+01
     10  0.120813D+00  0.000000D+00  0.000000D+00  0.000000D+00  0.100000D+01
     11  0.000000D+00  0.876080D+00  0.000000D+00  0.000000D+00  0.000000D+00
     12  0.000000D+00  0.000000D+00  0.775774D+00  0.000000D+00  0.000000D+00
     13  0.000000D+00  0.000000D+00  0.000000D+00  0.775774D+00  0.000000D+00
     14  0.399192D-01  0.000000D+00  0.000000D+00  0.000000D+00  0.775774D+00
               11            12            13            14 
     11  0.100000D+01
     12  0.000000D+00  0.100000D+01
     13  0.000000D+00  0.000000D+00  0.100000D+01
     14  0.000000D+00  0.000000D+00  0.000000D+00  0.100000D+01
 *** Kinetic Energy *** 
                1             2             3             4             5 
      1  0.760032D+00
      2 -0.106033D-02  0.570648D+02
      3 -0.137067D-01 -0.145971D+01  0.183414D+01
      4  0.000000D+00  0.000000D+00  0.000000D+00  0.585712D+01
      5  0.000000D+00  0.000000D+00  0.000000D+00  0.000000D+00  0.585712D+01
      6  0.833325D-02  0.000000D+00  0.000000D+00  0.000000D+00  0.000000D+00
      7  0.347029D-01 -0.420609D-01 -0.141303D+00  0.000000D+00  0.000000D+00
      8  0.000000D+00  0.000000D+00  0.000000D+00  0.441422D-01  0.000000D+00
      9  0.000000D+00  0.000000D+00  0.000000D+00  0.000000D+00  0.441422D-01
     10 -0.855636D-01  0.000000D+00  0.000000D+00  0.000000D+00  0.000000D+00
     11  0.152445D-01  0.117775D-02  0.119127D-01  0.000000D+00  0.000000D+00
     12  0.000000D+00  0.000000D+00  0.000000D+00  0.476129D-02  0.000000D+00
     13  0.000000D+00  0.000000D+00  0.000000D+00  0.000000D+00  0.476129D-02
     14 -0.283293D-01  0.000000D+00  0.000000D+00  0.000000D+00  0.000000D+00
                6             7             8             9            10 
      6  0.585712D+01
      7  0.000000D+00  0.106538D+00
      8  0.000000D+00  0.000000D+00  0.153112D+00
      9  0.000000D+00  0.000000D+00  0.000000D+00  0.153112D+00
     10  0.441422D-01  0.000000D+00  0.000000D+00  0.000000D+00  0.153112D+00
     11  0.000000D+00  0.447876D-01  0.000000D+00  0.000000D+00  0.000000D+00
     12  0.000000D+00  0.000000D+00  0.676855D-01  0.000000D+00  0.000000D+00
     13  0.000000D+00  0.000000D+00  0.000000D+00  0.676855D-01  0.000000D+00
     14  0.476129D-02  0.000000D+00  0.000000D+00  0.000000D+00  0.676855D-01
               11            12            13            14 
     11  0.366524D-01
     12  0.000000D+00  0.610873D-01
     13  0.000000D+00  0.000000D+00  0.610873D-01
     14  0.000000D+00  0.000000D+00  0.000000D+00  0.610873D-01
 Entering OneElI...
 Calculate potential energy integrals
    NBasis =  14  MinDer = 0  MaxDer = 0
 Requested accuracy = 0.1000D-12
 Symmetry will be used
 PrmmSu-InSpLW:  IPartL=    0 NPrtUS=   36 NPrtUL=    1 DoSpLW=F IThBeg=    0 IThEnd=   35 NThAct=   36.
 PrSmSu:  IncTry=   512 NBBP=             30 NTPThr=   100 NPartT=   36 Incr=           1 LDynOK=F GPUOK=F.
 PrsmSu:  NPrtUS=  36 ThrOK=T IAlg=1 LenDen=           0 ISkipM=0 DoSpLW=F IThBeg=    0 IThEnd=   35.
 Prism:   IPart=     0 DynPar=F LinDyn=F Incr=           1.
 PRISM was handed   268433948 working-precision words and    15 shell-pairs
 PRISM was handed   268433948 working-precision words and    15 shell-pairs
 PRISM was handed   268433948 working-precision words and    15 shell-pairs
 PRISM was handed   268433948 working-precision words and    15 shell-pairs
 PRISM was handed   268433948 working-precision words and    15 shell-pairs
 PRISM was handed   268433948 working-precision words and    15 shell-pairs
 PRISM was handed   268433948 working-precision words and    15 shell-pairs
 PRISM was handed   268433948 working-precision words and    15 shell-pairs
 PRISM was handed   268433948 working-precision words and    15 shell-pairs
 PRISM was handed   268433948 working-precision words and    15 shell-pairs
 PRISM was handed   268433948 working-precision words and    15 shell-pairs
 PRISM was handed   268433948 working-precision words and    15 shell-pairs
 PRISM was handed   268433948 working-precision words and    15 shell-pairs
 PRISM was handed   268433948 working-precision words and    15 shell-pairs
 PRISM was handed   268433948 working-precision words and    15 shell-pairs
 PRISM was handed   268433948 working-precision words and    15 shell-pairs
 PRISM was handed   268433948 working-precision words and    15 shell-pairs
 PRISM was handed   268433948 working-precision words and    15 shell-pairs
 PRISM was handed   268433948 working-precision words and    15 shell-pairs
 PRISM was handed   268433948 working-precision words and    15 shell-pairs
 PRISM was handed   268433948 working-precision words and    15 shell-pairs
 PRISM was handed   268433948 working-precision words and    15 shell-pairs
 PRISM was handed   268433948 working-precision words and    15 shell-pairs
 PRISM was handed   268433948 working-precision words and    15 shell-pairs
 PRISM was handed   268433948 working-precision words and    15 shell-pairs
 PRISM was handed   268433948 working-precision words and    15 shell-pairs
 PRISM was handed   268433948 working-precision words and    15 shell-pairs
 PRISM was handed   268433948 working-precision words and    15 shell-pairs
 PRISM was handed   268433948 working-precision words and    15 shell-pairs
 PRISM was handed   268433948 working-precision words and    15 shell-pairs
 PRISM was handed   268433948 working-precision words and    15 shell-pairs
 PRISM was handed   268433948 working-precision words and    15 shell-pairs
 PRISM was handed   268433948 working-precision words and    15 shell-pairs
 PRISM was handed   268433948 working-precision words and    15 shell-pairs
 PRISM was handed   268433948 working-precision words and    15 shell-pairs
 PRISM was handed   268433948 working-precision words and    15 shell-pairs
 IPart=  1 NShTot=           6 NBatch=           3 AvBLen=         2.0
 IPart=  2 NShTot=           0 NBatch=           0 AvBLen=         0.0
 IPart=  0 NShTot=          24 NBatch=          12 AvBLen=         2.0
 IPart=  7 NShTot=           0 NBatch=           0 AvBLen=         0.0
 IPart= 21 NShTot=           0 NBatch=           0 AvBLen=         0.0
 IPart=  4 NShTot=           0 NBatch=           0 AvBLen=         0.0
 IPart= 28 NShTot=           0 NBatch=           0 AvBLen=         0.0
 IPart= 18 NShTot=           0 NBatch=           0 AvBLen=         0.0
 IPart= 20 NShTot=           0 NBatch=           0 AvBLen=         0.0
 IPart= 32 NShTot=           0 NBatch=           0 AvBLen=         0.0
 IPart= 16 NShTot=           0 NBatch=           0 AvBLen=         0.0
 IPart= 22 NShTot=           0 NBatch=           0 AvBLen=         0.0
 IPart= 30 NShTot=           0 NBatch=           0 AvBLen=         0.0
 IPart= 33 NShTot=           0 NBatch=           0 AvBLen=         0.0
 IPart= 35 NShTot=           0 NBatch=           0 AvBLen=         0.0
 IPart= 29 NShTot=           0 NBatch=           0 AvBLen=         0.0
 IPart= 31 NShTot=           0 NBatch=           0 AvBLen=         0.0
 IPart=  5 NShTot=           0 NBatch=           0 AvBLen=         0.0
 IPart= 34 NShTot=           0 NBatch=           0 AvBLen=         0.0
 IPart= 27 NShTot=           0 NBatch=           0 AvBLen=         0.0
 IPart= 24 NShTot=           0 NBatch=           0 AvBLen=         0.0
 IPart= 17 NShTot=           0 NBatch=           0 AvBLen=         0.0
 IPart= 26 NShTot=           0 NBatch=           0 AvBLen=         0.0
 IPart=  6 NShTot=           0 NBatch=           0 AvBLen=         0.0
 IPart=  3 NShTot=           0 NBatch=           0 AvBLen=         0.0
 IPart= 19 NShTot=           0 NBatch=           0 AvBLen=         0.0
 IPart= 23 NShTot=           0 NBatch=           0 AvBLen=         0.0
 IPart= 25 NShTot=           0 NBatch=           0 AvBLen=         0.0
 IPart= 14 NShTot=           0 NBatch=           0 AvBLen=         0.0
 IPart= 12 NShTot=           0 NBatch=           0 AvBLen=         0.0
 IPart= 13 NShTot=           0 NBatch=           0 AvBLen=         0.0
 IPart= 11 NShTot=           0 NBatch=           0 AvBLen=         0.0
 IPart= 10 NShTot=           0 NBatch=           0 AvBLen=         0.0
 IPart= 15 NShTot=           0 NBatch=           0 AvBLen=         0.0
 IPart=  9 NShTot=           0 NBatch=           0 AvBLen=         0.0
 IPart=  8 NShTot=           0 NBatch=           0 AvBLen=         0.0
 PrSmSu:  NxtVal=             37.
 ***** Potential Energy ***** 
                1             2             3             4             5 
      1  0.428834D+01
      2  0.222722D+00  0.117433D+03
      3  0.534679D+00  0.128059D+02  0.183948D+02
      4  0.000000D+00  0.000000D+00  0.000000D+00  0.189125D+02
      5  0.000000D+00  0.000000D+00  0.000000D+00  0.000000D+00  0.189125D+02
      6 -0.369730D+00 -0.292555D-02 -0.342581D-01  0.000000D+00  0.000000D+00
      7  0.140421D+01  0.829167D-01  0.137196D+01  0.000000D+00  0.000000D+00
      8  0.000000D+00  0.000000D+00  0.000000D+00  0.117328D+01  0.000000D+00
      9  0.000000D+00  0.000000D+00  0.000000D+00  0.000000D+00  0.117328D+01
     10 -0.179857D+01 -0.333810D-04 -0.609318D-02  0.000000D+00  0.000000D+00
     11  0.111850D+01  0.102153D+01  0.214965D+01  0.000000D+00  0.000000D+00
     12  0.000000D+00  0.000000D+00  0.000000D+00  0.373798D+00  0.000000D+00
     13  0.000000D+00  0.000000D+00  0.000000D+00  0.000000D+00  0.373798D+00
     14 -0.100599D+01 -0.958721D-05 -0.203865D-02  0.000000D+00  0.000000D+00
                6             7             8             9            10 
      6  0.189223D+02
      7 -0.111339D-01  0.381067D+01
      8  0.000000D+00  0.000000D+00  0.310947D+01
      9  0.000000D+00  0.000000D+00  0.000000D+00  0.310947D+01
     10  0.117685D+01 -0.104192D+00  0.000000D+00  0.000000D+00  0.319492D+01
     11 -0.990448D-02  0.306298D+01  0.000000D+00  0.000000D+00 -0.902813D-01
     12  0.000000D+00  0.000000D+00  0.201986D+01  0.000000D+00  0.000000D+00
     13  0.000000D+00  0.000000D+00  0.000000D+00  0.201986D+01  0.000000D+00
     14  0.375055D+00 -0.608796D-01  0.000000D+00  0.000000D+00  0.207266D+01
               11            12            13            14 
     11  0.294954D+01
     12  0.000000D+00  0.197714D+01
     13  0.000000D+00  0.000000D+00  0.197714D+01
     14 -0.648461D-01  0.000000D+00  0.000000D+00  0.201759D+01
 ****** Core Hamiltonian ****** 
                1             2             3             4             5 
      1 -0.352831D+01
      2 -0.223783D+00 -0.603681D+02
      3 -0.548385D+00 -0.142656D+02 -0.165606D+02
      4  0.000000D+00  0.000000D+00  0.000000D+00 -0.130554D+02
      5  0.000000D+00  0.000000D+00  0.000000D+00  0.000000D+00 -0.130554D+02
      6  0.378063D+00  0.292555D-02  0.342581D-01  0.000000D+00  0.000000D+00
      7 -0.136951D+01 -0.124978D+00 -0.151327D+01  0.000000D+00  0.000000D+00
      8  0.000000D+00  0.000000D+00  0.000000D+00 -0.112914D+01  0.000000D+00
      9  0.000000D+00  0.000000D+00  0.000000D+00  0.000000D+00 -0.112914D+01
     10  0.171301D+01  0.333810D-04  0.609318D-02  0.000000D+00  0.000000D+00
     11 -0.110326D+01 -0.102035D+01 -0.213774D+01  0.000000D+00  0.000000D+00
     12  0.000000D+00  0.000000D+00  0.000000D+00 -0.369036D+00  0.000000D+00
     13  0.000000D+00  0.000000D+00  0.000000D+00  0.000000D+00 -0.369036D+00
     14  0.977659D+00  0.958721D-05  0.203865D-02  0.000000D+00  0.000000D+00
                6             7             8             9            10 
      6 -0.130652D+02
      7  0.111339D-01 -0.370413D+01
      8  0.000000D+00  0.000000D+00 -0.295636D+01
      9  0.000000D+00  0.000000D+00  0.000000D+00 -0.295636D+01
     10 -0.113271D+01  0.104192D+00  0.000000D+00  0.000000D+00 -0.304180D+01
     11  0.990448D-02 -0.301819D+01  0.000000D+00  0.000000D+00  0.902813D-01
     12  0.000000D+00  0.000000D+00 -0.195217D+01  0.000000D+00  0.000000D+00
     13  0.000000D+00  0.000000D+00  0.000000D+00 -0.195217D+01  0.000000D+00
     14 -0.370293D+00  0.608796D-01  0.000000D+00  0.000000D+00 -0.200498D+01
               11            12            13            14 
     11 -0.291289D+01
     12  0.000000D+00 -0.191605D+01
     13  0.000000D+00  0.000000D+00 -0.191605D+01
     14  0.648461D-01  0.000000D+00  0.000000D+00 -0.195651D+01
 SVDSVc IOpt=   1 NormSV=T IR=1
 SVDSVc V= 2.25D+00 1.87D+00 1.20D+00 9.89D-01 7.58D-01 6.31D-01 1.90D-01 1.20D-01
 SVDSVc IOpt=   1 NormSV=T IR=3
 SVDSVc V= 1.79D+00 9.88D-01 2.20D-01
 SVDSVc IOpt=   1 NormSV=T IR=4
 SVDSVc V= 1.79D+00 9.88D-01 2.20D-01
 TstOVc:  Largest diagonal error= 1.78D-15 IB=3 I=   11.
 TstOVc:  Largest same sym error= 7.37D-16 IB=1 I=    7 J=    2.
 TstOVc:  Largest diff sym error= 0.00D+00 IB=0 JB=0 I=    0 J=    0.
 Orthogonalized basis functions: 
                 1             2             3             4             5 
      1   0.321440D+00 -0.743726D-01 -0.652421D-01  0.492905D-01 -0.188055D+00
      2   0.219177D-01  0.404344D-01  0.674302D+00  0.144135D-01 -0.766353D+00
      3   0.916750D-01  0.128851D+00  0.590010D+00  0.157549D-04  0.823107D+00
      4   0.000000D+00  0.000000D+00  0.000000D+00  0.000000D+00  0.000000D+00
      5   0.000000D+00  0.000000D+00  0.000000D+00  0.000000D+00  0.000000D+00
      6  -0.455552D-01  0.724199D-01 -0.172645D-01  0.995539D+00  0.447227D-02
      7   0.311495D+00  0.339558D+00 -0.125883D+00 -0.159930D-01 -0.703788D-01
      8   0.000000D+00  0.000000D+00  0.000000D+00  0.000000D+00  0.000000D+00
      9   0.000000D+00  0.000000D+00  0.000000D+00  0.000000D+00  0.000000D+00
     10  -0.280201D+00  0.375092D+00 -0.348088D-01 -0.311630D-01 -0.383157D-01
     11   0.304184D+00  0.344014D+00 -0.100520D+00 -0.189433D-01 -0.406250D-01
     12   0.000000D+00  0.000000D+00  0.000000D+00  0.000000D+00  0.000000D+00
     13   0.000000D+00  0.000000D+00  0.000000D+00  0.000000D+00  0.000000D+00
     14  -0.249876D+00  0.363405D+00 -0.454288D-01 -0.124873D+00 -0.102189D+00
                 6             7             8             9            10 
      1   0.102592D+01  0.517986D+00 -0.257507D+00  0.000000D+00  0.000000D+00
      2  -0.103383D+00 -0.584962D-03  0.210121D-01  0.000000D+00  0.000000D+00
      3   0.177623D+00  0.153456D-01  0.467811D-01  0.000000D+00  0.000000D+00
      4   0.000000D+00  0.000000D+00  0.000000D+00  0.106366D+00  0.993078D+00
      5   0.000000D+00  0.000000D+00  0.000000D+00  0.000000D+00  0.000000D+00
      6   0.149013D-01 -0.155180D+00  0.201536D-01  0.000000D+00  0.000000D+00
      7  -0.224132D+00  0.118875D+00  0.205987D+01  0.000000D+00  0.000000D+00
      8   0.000000D+00  0.000000D+00  0.000000D+00  0.525558D+00 -0.486986D-01
      9   0.000000D+00  0.000000D+00  0.000000D+00  0.000000D+00  0.000000D+00
     10   0.112962D+00  0.168341D+01 -0.289340D+00  0.000000D+00  0.000000D+00
     11  -0.332122D+00 -0.313196D+00 -0.197693D+01  0.000000D+00  0.000000D+00
     12   0.000000D+00  0.000000D+00  0.000000D+00  0.520070D+00 -0.153894D+00
     13   0.000000D+00  0.000000D+00  0.000000D+00  0.000000D+00  0.000000D+00
     14   0.562742D+00 -0.142058D+01  0.169753D+00  0.000000D+00  0.000000D+00
                11            12            13            14 
      1   0.000000D+00  0.000000D+00  0.000000D+00  0.000000D+00
      2   0.000000D+00  0.000000D+00  0.000000D+00  0.000000D+00
      3   0.000000D+00  0.000000D+00  0.000000D+00  0.000000D+00
      4  -0.157598D+00  0.000000D+00  0.000000D+00  0.000000D+00
      5   0.000000D+00  0.106366D+00  0.993078D+00 -0.157598D+00
      6   0.000000D+00  0.000000D+00  0.000000D+00  0.000000D+00
      7   0.000000D+00  0.000000D+00  0.000000D+00  0.000000D+00
      8   0.151160D+01  0.000000D+00  0.000000D+00  0.000000D+00
      9   0.000000D+00  0.525558D+00 -0.486986D-01  0.151160D+01
     10   0.000000D+00  0.000000D+00  0.000000D+00  0.000000D+00
     11   0.000000D+00  0.000000D+00  0.000000D+00  0.000000D+00
     12  -0.149532D+01  0.000000D+00  0.000000D+00  0.000000D+00
     13   0.000000D+00  0.520070D+00 -0.153894D+00 -0.149532D+01
     14   0.000000D+00  0.000000D+00  0.000000D+00  0.000000D+00
 NBasis=    14 RedAO= T EigKep=  1.20D-01  NBF=     8     0     3     3
 NBsUse=    14 1.00D-06 EigRej= -1.00D+00 NBFU=     8     0     3     3
 Leave Link  302 at Mon Mar 28 14:24:39 2022, MaxMem=  9663676416 cpu:               4.0 elap:               0.1
 (Enter /nopt/nrel/apps/gaussian/g16C_1/g16/l303.exe)
 DipDrv will not compute anything.
 Fermi contact integrals: 
                 1             2 
      1   0.628247D+00  0.955222D-02
      2   0.000000D+00  0.171843D+02
      3   0.470497D-05  0.368674D+00
      4   0.000000D+00  0.000000D+00
      5   0.000000D+00  0.000000D+00
      6  -0.230189D-04  0.000000D+00
      7   0.432539D-01  0.187097D-02
      8   0.000000D+00  0.000000D+00
      9   0.000000D+00  0.000000D+00
     10  -0.704732D-01  0.000000D+00
     11   0.321450D-01  0.440472D-01
     12   0.000000D+00  0.000000D+00
     13   0.000000D+00  0.000000D+00
     14  -0.360829D-01  0.000000D+00
 Leave Link  303 at Mon Mar 28 14:24:39 2022, MaxMem=  9663676416 cpu:               1.1 elap:               0.1
 (Enter /nopt/nrel/apps/gaussian/g16C_1/g16/l401.exe)
 ExpMin= 2.44D-02 ExpMax= 5.48D+02 ExpMxC= 5.48D+02 IAcc=3 IRadAn=         5 AccDes= 0.00D+00
 Harris functional with IExCor=  205 and IRadAn=       5 diagonalized for initial guess.
 HarFok:  IExCor=  205 AccDes= 0.00D+00 IRadAn=         5 IDoV= 1 UseB2=F ITyADJ=14
 ICtDFT=  3500011 ScaDFX=  1.000000  1.000000  1.000000  1.000000
 FoFCou: FMM=F IPFlag=           0 FMFlag=      100000 FMFlg1=           0
         NFxFlg=           0 DoJE=T BraDBF=F KetDBF=T FulRan=T
         wScrn=  0.000000 ICntrl=       500 IOpCl=  0 I1Cent=   200000004 NGrid=           0
         NMat0=    1 NMatS0=      1 NMatT0=    0 NMatD0=    1 NMtDS0=    0 NMtDT0=    0
 Petite list used in FoFCou.
 Harris En= -161.035950191974    
 JPrj=0 DoOrth=F DoCkMO=F.
 Initial guess orbital symmetries:
 Alpha Orbitals:
       Occupied  (SG) (SG) (SG) (PI) (PI) (SG) (SG)
       Virtual   (PI) (PI) (SG) (SG) (PI) (PI) (SG)
 Beta  Orbitals:
       Occupied  (SG) (SG) (SG) (PI) (PI)
       Virtual   (SG) (SG) (PI) (PI) (SG) (SG) (PI) (PI) (SG)
 The electronic state of the initial guess is 3-SG.
 Initial guess <Sx>= 0.0000 <Sy>= 0.0000 <Sz>= 1.0000 <S**2>= 2.0000 S= 1.0000
 Leave Link  401 at Mon Mar 28 14:24:40 2022, MaxMem=  9663676416 cpu:               3.8 elap:               0.1
 (Enter /nopt/nrel/apps/gaussian/g16C_1/g16/l502.exe)
 Keep R1 and R2 ints in memory in symmetry-blocked form, NReq=7213197.
 FoFCou: FMM=F IPFlag=           0 FMFlag=           0 FMFlg1=           0
         NFxFlg=           0 DoJE=F BraDBF=F KetDBF=F FulRan=T
         wScrn=  0.000000 ICntrl=       600 IOpCl=  0 I1Cent=           0 NGrid=           0
         NMat0=    1 NMatS0=    105 NMatT0=    0 NMatD0=    1 NMtDS0=    0 NMtDT0=    0
 Petite list used in FoFCou.
 UHF open shell SCF:
 Using DIIS extrapolation, IDIIS=  1040.
 NGot=  9663676416 LenX=  9663669932 LenY=  9663669050
 Requested convergence on RMS density matrix=1.00D-08 within 128 cycles.
 Requested convergence on MAX density matrix=1.00D-06.
 Requested convergence on             energy=1.00D-06.
 No special actions if energy rises.

 Cycle   1  Pass 1  IDiag  1:
 E= -161.284245758348    
 DIIS: error= 3.63D-02 at cycle   1 NSaved=   1.
 NSaved= 1 IEnMin= 1 EnMin= -161.284245758348     IErMin= 1 ErrMin= 3.63D-02
 ErrMax= 3.63D-02  0.00D+00 EMaxC= 1.00D-01 BMatC= 4.04D-02 BMatP= 4.04D-02
 IDIUse=3 WtCom= 6.37D-01 WtEn= 3.63D-01
 Coeff-Com:  0.100D+01
 Coeff-En:   0.100D+01
 Coeff:      0.100D+01
 Gap=     0.190 Goal=   None    Shift=    0.000
 Gap=     1.497 Goal=   None    Shift=    0.000
 GapD=    0.190 DampG=1.000 DampE=0.500 DampFc=0.5000 IDamp=-1.
 Damping current iteration by 5.00D-01
 RMSDP=1.23D-02 MaxDP=1.62D-01              OVMax= 2.35D-02

 Cycle   2  Pass 1  IDiag  1:
 E= -161.293144999211     Delta-E=       -0.008899240863 Rises=F Damp=T
 DIIS: error= 2.41D-02 at cycle   2 NSaved=   2.
 NSaved= 2 IEnMin= 2 EnMin= -161.293144999211     IErMin= 2 ErrMin= 2.41D-02
 ErrMax= 2.41D-02  0.00D+00 EMaxC= 1.00D-01 BMatC= 1.42D-02 BMatP= 4.04D-02
 IDIUse=3 WtCom= 7.59D-01 WtEn= 2.41D-01
 Coeff-Com: -0.136D+01 0.236D+01
 Coeff-En:   0.000D+00 0.100D+01
 Coeff:     -0.103D+01 0.203D+01
 Gap=     0.182 Goal=   None    Shift=    0.000
 Gap=     1.464 Goal=   None    Shift=    0.000
 RMSDP=9.59D-03 MaxDP=1.38D-01 DE=-8.90D-03 OVMax= 3.30D-03

 Cycle   3  Pass 1  IDiag  1:
 E= -161.305647934159     Delta-E=       -0.012502934948 Rises=F Damp=F
 DIIS: error= 3.82D-03 at cycle   3 NSaved=   3.
 NSaved= 3 IEnMin= 3 EnMin= -161.305647934159     IErMin= 3 ErrMin= 3.82D-03
 ErrMax= 3.82D-03  0.00D+00 EMaxC= 1.00D-01 BMatC= 2.06D-04 BMatP= 1.42D-02
 IDIUse=3 WtCom= 9.62D-01 WtEn= 3.82D-02
 Coeff-Com:  0.599D+00-0.115D+01 0.155D+01
 Coeff-En:   0.000D+00 0.000D+00 0.100D+01
 Coeff:      0.576D+00-0.110D+01 0.153D+01
 Gap=     0.183 Goal=   None    Shift=    0.000
 Gap=     1.467 Goal=   None    Shift=    0.000
 RMSDP=2.06D-03 MaxDP=2.77D-02 DE=-1.25D-02 OVMax= 9.77D-04

 Cycle   4  Pass 1  IDiag  1:
 E= -161.305854794789     Delta-E=       -0.000206860631 Rises=F Damp=F
 DIIS: error= 1.97D-04 at cycle   4 NSaved=   4.
 NSaved= 4 IEnMin= 4 EnMin= -161.305854794789     IErMin= 4 ErrMin= 1.97D-04
 ErrMax= 1.97D-04  0.00D+00 EMaxC= 1.00D-01 BMatC= 7.17D-07 BMatP= 2.06D-04
 IDIUse=3 WtCom= 9.98D-01 WtEn= 1.97D-03
 Coeff-Com: -0.808D-01 0.157D+00-0.252D+00 0.118D+01
 Coeff-En:   0.000D+00 0.000D+00 0.000D+00 0.100D+01
 Coeff:     -0.807D-01 0.157D+00-0.252D+00 0.118D+01
 Gap=     0.183 Goal=   None    Shift=    0.000
 Gap=     1.467 Goal=   None    Shift=    0.000
 RMSDP=3.08D-04 MaxDP=3.68D-03 DE=-2.07D-04 OVMax= 4.19D-05

 Cycle   5  Pass 1  IDiag  1:
 E= -161.305857123462     Delta-E=       -0.000002328673 Rises=F Damp=F
 DIIS: error= 7.99D-05 at cycle   5 NSaved=   5.
 NSaved= 5 IEnMin= 5 EnMin= -161.305857123462     IErMin= 5 ErrMin= 7.99D-05
 ErrMax= 7.99D-05  0.00D+00 EMaxC= 1.00D-01 BMatC= 1.09D-07 BMatP= 7.17D-07
 IDIUse=1 WtCom= 1.00D+00 WtEn= 0.00D+00
 Coeff-Com:  0.450D-01-0.882D-01 0.152D+00-0.997D+00 0.189D+01
 Coeff:      0.450D-01-0.882D-01 0.152D+00-0.997D+00 0.189D+01
 Gap=     0.183 Goal=   None    Shift=    0.000
 Gap=     1.467 Goal=   None    Shift=    0.000
 RMSDP=2.21D-04 MaxDP=2.63D-03 DE=-2.33D-06 OVMax= 7.78D-06

 Cycle   6  Pass 1  IDiag  1:
 E= -161.305857684746     Delta-E=       -0.000000561284 Rises=F Damp=F
 DIIS: error= 9.32D-06 at cycle   6 NSaved=   6.
 NSaved= 6 IEnMin= 6 EnMin= -161.305857684746     IErMin= 6 ErrMin= 9.32D-06
 ErrMax= 9.32D-06  0.00D+00 EMaxC= 1.00D-01 BMatC= 1.46D-09 BMatP= 1.09D-07
 IDIUse=1 WtCom= 1.00D+00 WtEn= 0.00D+00
 Coeff-Com: -0.451D-02 0.900D-02-0.170D-01 0.137D+00-0.372D+00 0.125D+01
 Coeff:     -0.451D-02 0.900D-02-0.170D-01 0.137D+00-0.372D+00 0.125D+01
 Gap=     0.183 Goal=   None    Shift=    0.000
 Gap=     1.467 Goal=   None    Shift=    0.000
 RMSDP=2.32D-05 MaxDP=2.56D-04 DE=-5.61D-07 OVMax= 3.30D-06

 Cycle   7  Pass 1  IDiag  1:
 E= -161.305857690746     Delta-E=       -0.000000006001 Rises=F Damp=F
 DIIS: error= 1.03D-06 at cycle   7 NSaved=   7.
 NSaved= 7 IEnMin= 7 EnMin= -161.305857690746     IErMin= 7 ErrMin= 1.03D-06
 ErrMax= 1.03D-06  0.00D+00 EMaxC= 1.00D-01 BMatC= 1.70D-11 BMatP= 1.46D-09
 IDIUse=1 WtCom= 1.00D+00 WtEn= 0.00D+00
 Coeff-Com:  0.137D-02-0.273D-02 0.498D-02-0.379D-01 0.107D+00-0.378D+00
 Coeff-Com:  0.130D+01
 Coeff:      0.137D-02-0.273D-02 0.498D-02-0.379D-01 0.107D+00-0.378D+00
 Coeff:      0.130D+01
 Gap=     0.183 Goal=   None    Shift=    0.000
 Gap=     1.467 Goal=   None    Shift=    0.000
 RMSDP=1.90D-06 MaxDP=2.49D-05 DE=-6.00D-09 OVMax= 3.17D-07

 Cycle   8  Pass 1  IDiag  1:
 E= -161.305857690785     Delta-E=       -0.000000000039 Rises=F Damp=F
 DIIS: error= 3.01D-07 at cycle   8 NSaved=   8.
 NSaved= 8 IEnMin= 8 EnMin= -161.305857690785     IErMin= 8 ErrMin= 3.01D-07
 ErrMax= 3.01D-07  0.00D+00 EMaxC= 1.00D-01 BMatC= 1.56D-12 BMatP= 1.70D-11
 IDIUse=1 WtCom= 1.00D+00 WtEn= 0.00D+00
 Coeff-Com: -0.318D-03 0.636D-03-0.116D-02 0.863D-02-0.282D-01 0.110D+00
 Coeff-Com: -0.664D+00 0.157D+01
 Coeff:     -0.318D-03 0.636D-03-0.116D-02 0.863D-02-0.282D-01 0.110D+00
 Coeff:     -0.664D+00 0.157D+01
 Gap=     0.183 Goal=   None    Shift=    0.000
 Gap=     1.467 Goal=   None    Shift=    0.000
 RMSDP=6.87D-07 MaxDP=7.31D-06 DE=-3.92D-11 OVMax= 4.04D-08

 Cycle   9  Pass 1  IDiag  1:
 E= -161.305857690790     Delta-E=       -0.000000000005 Rises=F Damp=F
 DIIS: error= 4.62D-08 at cycle   9 NSaved=   9.
 NSaved= 9 IEnMin= 9 EnMin= -161.305857690790     IErMin= 9 ErrMin= 4.62D-08
 ErrMax= 4.62D-08  0.00D+00 EMaxC= 1.00D-01 BMatC= 4.55D-14 BMatP= 1.56D-12
 IDIUse=1 WtCom= 1.00D+00 WtEn= 0.00D+00
 Coeff-Com: -0.301D-06 0.254D-08-0.408D-05 0.134D-03 0.636D-03-0.398D-02
 Coeff-Com:  0.897D-01-0.359D+00 0.127D+01
 Coeff:     -0.301D-06 0.254D-08-0.408D-05 0.134D-03 0.636D-03-0.398D-02
 Coeff:      0.897D-01-0.359D+00 0.127D+01
 Gap=     0.183 Goal=   None    Shift=    0.000
 Gap=     1.467 Goal=   None    Shift=    0.000
 RMSDP=1.23D-07 MaxDP=1.55D-06 DE=-5.03D-12 OVMax= 1.35D-08

 Cycle  10  Pass 1  IDiag  1:
 E= -161.305857690791     Delta-E=       -0.000000000000 Rises=F Damp=F
 DIIS: error= 1.40D-08 at cycle  10 NSaved=  10.
 NSaved=10 IEnMin=10 EnMin= -161.305857690791     IErMin=10 ErrMin= 1.40D-08
 ErrMax= 1.40D-08  0.00D+00 EMaxC= 1.00D-01 BMatC= 2.23D-15 BMatP= 4.55D-14
 IDIUse=1 WtCom= 1.00D+00 WtEn= 0.00D+00
 Coeff-Com: -0.822D-05 0.164D-04-0.269D-04 0.134D-03-0.659D-03 0.239D-02
 Coeff-Com: -0.327D-01 0.122D+00-0.554D+00 0.146D+01
 Coeff:     -0.822D-05 0.164D-04-0.269D-04 0.134D-03-0.659D-03 0.239D-02
 Coeff:     -0.327D-01 0.122D+00-0.554D+00 0.146D+01
 Gap=     0.183 Goal=   None    Shift=    0.000
 Gap=     1.467 Goal=   None    Shift=    0.000
 RMSDP=2.40D-08 MaxDP=1.70D-07 DE=-1.42D-13 OVMax= 2.15D-09

 Cycle  11  Pass 1  IDiag  1:
 E= -161.305857690791     Delta-E=        0.000000000000 Rises=F Damp=F
 DIIS: error= 1.18D-09 at cycle  11 NSaved=  11.
 NSaved=11 IEnMin=10 EnMin= -161.305857690791     IErMin=11 ErrMin= 1.18D-09
 ErrMax= 1.18D-09  0.00D+00 EMaxC= 1.00D-01 BMatC= 2.89D-17 BMatP= 2.23D-15
 IDIUse=1 WtCom= 1.00D+00 WtEn= 0.00D+00
 Coeff-Com: -0.210D-06 0.403D-06-0.143D-05 0.267D-04-0.974D-05 0.367D-04
 Coeff-Com:  0.524D-02-0.232D-01 0.134D+00-0.439D+00 0.132D+01
 Coeff:     -0.210D-06 0.403D-06-0.143D-05 0.267D-04-0.974D-05 0.367D-04
 Coeff:      0.524D-02-0.232D-01 0.134D+00-0.439D+00 0.132D+01
 Gap=     0.183 Goal=   None    Shift=    0.000
 Gap=     1.467 Goal=   None    Shift=    0.000
 RMSDP=1.51D-09 MaxDP=1.15D-08 DE= 0.00D+00 OVMax= 1.73D-10

 SCF Done:  E(UHF) =  -161.305857691     A.U. after   11 cycles
            NFock= 11  Conv=0.15D-08     -V/T= 2.0022
 <Sx>= 0.0000 <Sy>= 0.0000 <Sz>= 1.0000 <S**2>= 2.0000 S= 1.0000
 <L.S>= 0.000000000000E+00
 KE= 1.609554939814D+02 PE=-3.939287946200D+02 EE= 6.860378541094D+01
 Annihilation of the first spin contaminant:
 S**2 before annihilation     2.0000,   after     2.0000
 Leave Link  502 at Mon Mar 28 14:24:40 2022, MaxMem=  9663676416 cpu:               3.7 elap:               0.1
 (Enter /nopt/nrel/apps/gaussian/g16C_1/g16/l801.exe)
 Windowed orbitals will be sorted by symmetry type.
 ExpMin= 2.44D-02 ExpMax= 5.48D+02 ExpMxC= 5.48D+02 IAcc=3 IRadAn=         5 AccDes= 0.00D+00
 HarFok:  IExCor=  205 AccDes= 0.00D+00 IRadAn=         5 IDoV=-2 UseB2=F ITyADJ=14
 ICtDFT= 12500011 ScaDFX=  1.000000  1.000000  1.000000  1.000000
 Largest valence mixing into a core orbital is  3.20D-04
 Largest core mixing into a valence orbital is  1.23D-04
 Range of M.O.s used for correlation:     6    14
 NBasis=    14 NAE=     7 NBE=     5 NFC=     5 NFV=     0
 NROrb=      9 NOA=     2 NOB=     0 NVA=     7 NVB=     9
 Leave Link  801 at Mon Mar 28 14:24:40 2022, MaxMem=  9663676416 cpu:               2.4 elap:               0.1
 (Enter /nopt/nrel/apps/gaussian/g16C_1/g16/l804.exe)
 Open-shell transformation, MDV=  9663676416 ITran=4 ISComp=2.
 Unit  1 TFree=         14304 TCopy=        117515.
 Semi-Direct transformation.
 ModeAB=           2 MOrb=             2 LenV=    9663555338
 LASXX=          158 LTotXX=         158 LenRXX=         158
 LTotAB=         269 MaxLAS=        1890 LenRXY=        1890
 NonZer=        2214 LenScr=      785920 LnRSAI=           0
 LnScr1=           0 LExtra=      220902 Total=      1008870
 MaxDsk= 34359738368 SrtSym=           F ITran=            4
 DoSDTr:  NPSUse= 36
 JobTyp=1 Pass  1:  I=   1 to   2.
 (rs|ai) integrals will be sorted in core.
 Complete sort for first half transformation.
 First half transformation complete.
 Complete sort for second half transformation.
 Second half transformation complete.
 Spin components of T(2) and E(2):
     alpha-alpha T2 =       0.2022850327D-04 E2=     -0.2050611623D-04
     alpha-beta  T2 =       0.0000000000D+00 E2=      0.0000000000D+00
     beta-beta   T2 =       0.0000000000D+00 E2=      0.0000000000D+00
 ANorm=    0.1000010114D+01
 E2 =    -0.2050611623D-04 EUMP2 =    -0.16130587819691D+03
 Leave Link  804 at Mon Mar 28 14:24:40 2022, MaxMem=  9663676416 cpu:               2.6 elap:               0.1
 (Enter /nopt/nrel/apps/gaussian/g16C_1/g16/l913.exe)
 CIDS:  MDV=  9663676416.
 Frozen-core window:  NFC=   5 NFV=   0.
 IFCWin=0 IBDFC=1 NFBD=     0     0 NFCmp=     0     0 NFFFC=     0     0
 Using original routines for 1st iteration.
 Using DD4UQ or CC4UQ for 2nd and later iterations.
 Keep R2 and R3 ints in memory in symmetry-blocked form, NReq=7215603.
 FoFCou: FMM=F IPFlag=           0 FMFlag=           0 FMFlg1=           0
         NFxFlg=           0 DoJE=F BraDBF=F KetDBF=F FulRan=T
         wScrn=  0.000000 ICntrl=       600 IOpCl=  0 I1Cent=           0 NGrid=           0
         NMat0=    1 NMatS0=    105 NMatT0=    0 NMatD0=    1 NMtDS0=    0 NMtDT0=    0
 Petite list used in FoFCou.
 CIDS: In Core Option IDoMem=           1.
 Coupled Cluster theory with single and double substitutions
 ===========================================================
 Iterations= 200 Convergence= 0.100D-06
 Produce multiple copies of IABC intergrals
 Iteration Nr.   1
 **********************
 DD1Dir will call FoFMem   1 times, MxPair=         2
 NAB=     0 NAA=     1 NBB=     0.
 MP4(R+Q)=  0.41480804D-09
 Maximum subspace dimension=  5
 A-vector RMS=  4.2545192D-04 Max=  8.5994465D-04 conv= 1.00D-05.
 RLE energy=       -0.0000313403
 E3=       -0.70892132D-05        EUMP3=      -0.16130588529D+03
 E4(DQ)=   -0.24645063D-05        UMP4(DQ)=   -0.16130588775D+03
 E4(SDQ)=  -0.25254366D-05        UMP4(SDQ)=  -0.16130588781D+03
 VARIATIONAL ENERGIES WITH THE FIRST-ORDER WAVEFUNCTION:
 DE(Corr)= -0.27594996E-04 E(Corr)=     -161.30588529    
 NORM(A)=   0.10000237D+01
 Iteration Nr.   2
 **********************
 DD1Dir will call FoFMem   1 times, MxPair=         2
 NAB=     0 NAA=     1 NBB=     0.
 A-vector RMS=  5.9553000D-05 Max=  1.2577274D-04 conv= 1.00D-05.
 RLE energy=       -0.0000315781
 DE(Corr)= -0.31454648E-04 E(CORR)=     -161.30588915     Delta=-3.86D-06
 NORM(A)=   0.10000242D+01
 Iteration Nr.   3
 **********************
 DD1Dir will call FoFMem   1 times, MxPair=         2
 NAB=     0 NAA=     1 NBB=     0.
 A-vector RMS=  1.7962463D-05 Max=  5.3414202D-05 conv= 1.00D-05.
 RLE energy=       -0.0000315871
 DE(Corr)= -0.31578252E-04 E(CORR)=     -161.30588927     Delta=-1.24D-07
 NORM(A)=   0.10000242D+01
 Iteration Nr.   4
 **********************
 DD1Dir will call FoFMem   1 times, MxPair=         2
 NAB=     0 NAA=     1 NBB=     0.
 A-vector RMS=  3.9391948D-06 Max=  1.1904484D-05 conv= 1.00D-05.
 RLE energy=       -0.0000315874
 DE(Corr)= -0.31587063E-04 E(CORR)=     -161.30588928     Delta=-8.81D-09
 NORM(A)=   0.10000242D+01
 Iteration Nr.   5
 **********************
 DD1Dir will call FoFMem   1 times, MxPair=         2
 NAB=     0 NAA=     1 NBB=     0.
 A-vector RMS=  2.3288379D-07 Max=  4.5204613D-07 conv= 1.00D-05.
 RLE energy=       -0.0000315874
 DE(Corr)= -0.31587390E-04 E(CORR)=     -161.30588928     Delta=-3.27D-10
 NORM(A)=   0.10000242D+01
 CI/CC converged in    5 iterations to DelEn=-3.27D-10 Conv= 1.00D-07 ErrA1= 2.33D-07 Conv= 1.00D-05
 Wavefunction amplitudes converged. E(Corr)=     -161.30588928    
 Largest amplitude= 3.85D-03
 Discarding MO integrals.
 Leave Link  913 at Mon Mar 28 14:24:40 2022, MaxMem=  9663676416 cpu:               3.5 elap:               0.1
 (Enter /nopt/nrel/apps/gaussian/g16C_1/g16/l601.exe)
 Copying SCF densities to generalized density rwf, IOpCl= 1 IROHF=0.

 **********************************************************************

            Population analysis using the SCF Density.

 **********************************************************************

 Orbital symmetries:
 Alpha Orbitals:
       Occupied  (SG) (SG) (SG) (PI) (PI) (SG) (SG)
       Virtual   (PI) (PI) (SG) (SG) (PI) (PI) (SG)
 Beta  Orbitals:
       Occupied  (SG) (SG) (PI) (PI) (SG)
       Virtual   (SG) (PI) (PI) (SG) (SG) (PI) (PI) (SG) (SG)
 The electronic state is 3-SG.
 Alpha  occ. eigenvalues --  -40.22692  -2.78616  -1.50575  -1.50046  -1.50046
 Alpha  occ. eigenvalues --   -0.59042  -0.15814
 Alpha virt. eigenvalues --    0.02437   0.02437   0.04957   0.12924   0.14962
 Alpha virt. eigenvalues --    0.14962   0.26332
  Beta  occ. eigenvalues --  -40.22418  -2.77915  -1.49820  -1.49820  -1.49768
  Beta virt. eigenvalues --   -0.03019   0.04757   0.04757   0.05964   0.09874
  Beta virt. eigenvalues --    0.17849   0.17849   0.18624   0.44078
          Condensed to atoms (all electrons):
               1          2
     1  H    0.800297   0.073185
     2  Na   0.073185  11.053333
          Atomic-Atomic Spin Densities.
               1          2
     1  H    0.800244   0.072838
     2  Na   0.072838   1.054079
 Mulliken charges and spin densities:
               1          2
     1  H    0.126518   0.873083
     2  Na  -0.126518   1.126917
 Sum of Mulliken charges =  -0.00000   2.00000
 Mulliken charges and spin densities with hydrogens summed into heavy atoms:
               1          2
     2  Na  -0.000000   2.000000
 N-N= 3.063657536905D+00 E-N=-3.939287946256D+02  KE= 1.609554939814D+02
 Symmetry A1   KE= 1.378873825037D+02
 Symmetry A2   KE= 0.000000000000D+00
 Symmetry B1   KE= 1.153405573888D+01
 Symmetry B2   KE= 1.153405573888D+01
 Symmetry A1   SP= 2.000000000000D+00
 Symmetry A2   SP= 0.000000000000D+00
 Symmetry B1   SP= 7.122788251331D-16
 Symmetry B2   SP=-6.305280118633D-16

 Atomic contributions to Alpha molecular orbitals:
 Alpha occ 1 OE=-40.227 is Na2-s=1.0000
 Alpha occ 2 OE=-2.786 is Na2-s=0.9999
 Alpha occ 3 OE=-1.506 is Na2-p=0.9984
 Alpha occ 4 OE=-1.500 is Na2-p=1.0000
 Alpha occ 5 OE=-1.500 is Na2-p=1.0000
 Alpha occ 6 OE=-0.590 is H1-s=0.8593
 Alpha occ 7 OE=-0.158 is Na2-s=0.7888 Na2-p=0.1986
 Alpha vir 8 OE=0.024 is Na2-p=1.0000
 Alpha vir 9 OE=0.024 is Na2-p=1.0000
 Alpha vir 10 OE=0.050 is Na2-p=0.7596 Na2-s=0.2271
 Alpha vir 11 OE=0.129 is Na2-s=0.7917 Na2-p=0.2051
 Alpha vir 12 OE=0.150 is Na2-p=1.0000
 Alpha vir 13 OE=0.150 is Na2-p=1.0000
 Alpha vir 14 OE=0.263 is Na2-p=0.7637 Na2-s=0.1262 H1-s=0.1102

 Atomic contributions to Beta  molecular orbitals:
 Beta  occ 1 OE=-40.224 is Na2-s=1.0000
 Beta  occ 2 OE=-2.779 is Na2-s=1.0000
 Beta  occ 3 OE=-1.498 is Na2-p=1.0000
 Beta  occ 4 OE=-1.498 is Na2-p=1.0000
 Beta  occ 5 OE=-1.498 is Na2-p=0.9995
 Beta  vir 6 OE=-0.030 is Na2-s=0.5779 Na2-p=0.2451 H1-s=0.1770
 Beta  vir 7 OE=0.048 is Na2-p=1.0000
 Beta  vir 8 OE=0.048 is Na2-p=1.0000
 Beta  vir 9 OE=0.060 is Na2-p=0.7230 Na2-s=0.2712
 Beta  vir 10 OE=0.099 is Na2-s=0.5315 Na2-p=0.3304 H1-s=0.1381
 Beta  vir 11 OE=0.178 is Na2-p=1.0000
 Beta  vir 12 OE=0.178 is Na2-p=1.0000
 Beta  vir 13 OE=0.186 is Na2-s=0.5609 Na2-p=0.4091
 Beta  vir 14 OE=0.441 is H1-s=0.6490 Na2-p=0.2926
 
 Leave Link  601 at Mon Mar 28 14:24:40 2022, MaxMem=  9663676416 cpu:               1.7 elap:               0.1
 (Enter /nopt/nrel/apps/gaussian/g16C_1/g16/l9999.exe)

 Test job not archived.
 1\1\GINC-R102U34\SP\UCCSD-FC\Gen\H1Na1(3)\USER\28-Mar-2022\0\\#P C
 CSD(MaxCyc=200,SaveAmplitudes,ReadAmplitudes)/GEN sp pop=AllOrbitals i
 op(3/33=1,3/36=-1)\\test\\0,3\H,0,0.,0.,0.\Na,0,0.,0.,1.9\\Version=ES6
 4L-G16RevC.01\State=3-SG\HF=-161.3058577\MP2=-161.3058782\MP3=-161.305
 8853\MP4D=-161.3058878\MP4DQ=-161.3058878\MP4SDQ=-161.3058878\CCSD=-16
 1.3058893\S2=2.000022\S2-1=0.\S2A=2.\RMSD=1.505e-09\PG=C*V [C*(H1Na1)]
 \\@


 The arm of the moral universe is long, but it bends toward justice.
 -- Martin Luther King, Jr.
 Job cpu time:       0 days  0 hours  0 minutes 33.1 seconds.
 Elapsed time:       0 days  0 hours  0 minutes  1.3 seconds.
 File lengths (MBytes):  RWF=     13 Int=      0 D2E=      0 Chk=      1 Scr=      1
 Normal termination of Gaussian 16 at Mon Mar 28 14:24:40 2022.
