 Entering Gaussian System, Link 0=g16
 Initial command:
 /nopt/nrel/apps/gaussian/g16C_1/g16/l1.exe "/lustre/eaglefs/scratch/user/qc/lih-dissc/lih-1-ccsd-3.1-321g/Gau-1536.inp" -scrdir="/lustre/eaglefs/scratch/user/qc/lih-dissc/lih-1-ccsd-3.1-321g/"
 Default is to use a total of  36 processors:
                               36 via shared-memory
                                1 via Linda
 Entering Link 1 = /nopt/nrel/apps/gaussian/g16C_1/g16/l1.exe PID=      1537.
  
 Copyright (c) 1988-2019, Gaussian, Inc.  All Rights Reserved.
  
 This is part of the Gaussian(R) 16 program.  It is based on
 the Gaussian(R) 09 system (copyright 2009, Gaussian, Inc.),
 the Gaussian(R) 03 system (copyright 2003, Gaussian, Inc.),
 the Gaussian(R) 98 system (copyright 1998, Gaussian, Inc.),
 the Gaussian(R) 94 system (copyright 1995, Gaussian, Inc.),
 the Gaussian 92(TM) system (copyright 1992, Gaussian, Inc.),
 the Gaussian 90(TM) system (copyright 1990, Gaussian, Inc.),
 the Gaussian 88(TM) system (copyright 1988, Gaussian, Inc.),
 the Gaussian 86(TM) system (copyright 1986, Carnegie Mellon
 University), and the Gaussian 82(TM) system (copyright 1983,
 Carnegie Mellon University). Gaussian is a federally registered
 trademark of Gaussian, Inc.
  
 This software contains proprietary and confidential information,
 including trade secrets, belonging to Gaussian, Inc.
  
 This software is provided under written license and may be
 used, copied, transmitted, or stored only in accord with that
 written license.
  
 The following legend is applicable only to US Government
 contracts under FAR:
  
                    RESTRICTED RIGHTS LEGEND
  
 Use, reproduction and disclosure by the US Government is
 subject to restrictions as set forth in subparagraphs (a)
 and (c) of the Commercial Computer Software - Restricted
 Rights clause in FAR 52.227-19.
  
 Gaussian, Inc.
 340 Quinnipiac St., Bldg. 40, Wallingford CT 06492
  
  
 ---------------------------------------------------------------
 Warning -- This program may not be used in any manner that
 competes with the business of Gaussian, Inc. or will provide
 assistance to any competitor of Gaussian, Inc.  The licensee
 of this program is prohibited from giving any competitor of
 Gaussian, Inc. access to this program.  By using this program,
 the user acknowledges that Gaussian, Inc. is engaged in the
 business of creating and licensing software in the field of
 computational chemistry and represents and warrants to the
 licensee that it is not a competitor of Gaussian, Inc. and that
 it will not use this program in any manner prohibited above.
 ---------------------------------------------------------------
  

 Cite this work as:
 Gaussian 16, Revision C.01,
 M. J. Frisch, G. W. Trucks, H. B. Schlegel, G. E. Scuseria, 
 M. A. Robb, J. R. Cheeseman, G. Scalmani, V. Barone, 
 G. A. Petersson, H. Nakatsuji, X. Li, M. Caricato, A. V. Marenich, 
 J. Bloino, B. G. Janesko, R. Gomperts, B. Mennucci, H. P. Hratchian, 
 J. V. Ortiz, A. F. Izmaylov, J. L. Sonnenberg, D. Williams-Young, 
 F. Ding, F. Lipparini, F. Egidi, J. Goings, B. Peng, A. Petrone, 
 T. Henderson, D. Ranasinghe, V. G. Zakrzewski, J. Gao, N. Rega, 
 G. Zheng, W. Liang, M. Hada, M. Ehara, K. Toyota, R. Fukuda, 
 J. Hasegawa, M. Ishida, T. Nakajima, Y. Honda, O. Kitao, H. Nakai, 
 T. Vreven, K. Throssell, J. A. Montgomery, Jr., J. E. Peralta, 
 F. Ogliaro, M. J. Bearpark, J. J. Heyd, E. N. Brothers, K. N. Kudin, 
 V. N. Staroverov, T. A. Keith, R. Kobayashi, J. Normand, 
 K. Raghavachari, A. P. Rendell, J. C. Burant, S. S. Iyengar, 
 J. Tomasi, M. Cossi, J. M. Millam, M. Klene, C. Adamo, R. Cammi, 
 J. W. Ochterski, R. L. Martin, K. Morokuma, O. Farkas, 
 J. B. Foresman, and D. J. Fox, Gaussian, Inc., Wallingford CT, 2019.
 
 ******************************************
 Gaussian 16:  ES64L-G16RevC.01  3-Jul-2019
                28-Mar-2022 
 ******************************************
 %chk=molecule
 Default route: CacheSize=180224 MaxDisk=256GB
 ----------------------------------------------------------------------
 #P CCSD(MaxCyc=200,SaveAmplitudes,ReadAmplitudes)/GEN sp pop=AllOrbita
 ls iop(3/33=1,3/36=-1)
 ----------------------------------------------------------------------
 1/4=180224,38=1,172=1/1;
 2/4=180224,12=2,17=6,18=5,40=1/2;
 3/4=180224,5=7,11=9,25=1,30=1,33=1,36=-1/1,2,3;
 4/4=180224/1;
 5/4=180224,5=2,38=5/2;
 8/4=180224,6=4,9=120000,10=1,24=1/1,4;
 9/4=180224,5=7,6=200,77=1/13;
 6/4=180224,7=2,8=2,9=2,10=2,96=-1/1;
 99/4=180224,5=1,9=1/99;
 Leave Link    1 at Mon Mar 28 14:00:25 2022, MaxMem=           0 cpu:               2.1 elap:               0.1
 (Enter /nopt/nrel/apps/gaussian/g16C_1/g16/l101.exe)
 ----
 test
 ----
 Symbolic Z-matrix:
 Charge =  0 Multiplicity = 1
 H                     0.        0.        0. 
 Li                    0.        0.        3.1 
 
 ITRead=  0  0
 MicOpt= -1 -1
 NAtoms=      2 NQM=        2 NQMF=       0 NMMI=      0 NMMIF=      0
                NMic=       0 NMicF=      0.
                    Isotopes and Nuclear Properties:
 (Nuclear quadrupole moments (NQMom) in fm**2, nuclear magnetic moments (NMagM)
  in nuclear magnetons)

  Atom         1           2
 IAtWgt=           1           7
 AtmWgt=   1.0078250   7.0160045
 NucSpn=           1           3
 AtZEff=  -0.0000000  -0.0000000
 NQMom=    0.0000000  -4.0100000
 NMagM=    2.7928460   3.2564240
 AtZNuc=   1.0000000   3.0000000
 Leave Link  101 at Mon Mar 28 14:00:25 2022, MaxMem=  9663676416 cpu:               3.2 elap:               0.1
 (Enter /nopt/nrel/apps/gaussian/g16C_1/g16/l202.exe)
                          Input orientation:                          
 ---------------------------------------------------------------------
 Center     Atomic      Atomic             Coordinates (Angstroms)
 Number     Number       Type             X           Y           Z
 ---------------------------------------------------------------------
      1          1           0        0.000000    0.000000    0.000000
      2          3           0        0.000000    0.000000    3.100000
 ---------------------------------------------------------------------
 Stoichiometry    HLi
 Framework group  C*V[C*(HLi)]
 Deg. of freedom     1
 Full point group                 C*V     NOp   4
 Largest Abelian subgroup         C2V     NOp   4
 Largest concise Abelian subgroup C1      NOp   1
                         Standard orientation:                         
 ---------------------------------------------------------------------
 Center     Atomic      Atomic             Coordinates (Angstroms)
 Number     Number       Type             X           Y           Z
 ---------------------------------------------------------------------
      1          1           0        0.000000    0.000000   -2.325000
      2          3           0        0.000000    0.000000    0.775000
 ---------------------------------------------------------------------
 Rotational constants (GHZ):           0.0000000          59.6761097          59.6761097
 Leave Link  202 at Mon Mar 28 14:00:25 2022, MaxMem=  9663676416 cpu:               0.5 elap:               0.0
 (Enter /nopt/nrel/apps/gaussian/g16C_1/g16/l301.exe)
 General basis read from cards:  (5D, 7F)
                         Coordinates in L301:                         
 ---------------------------------------------------------------------
 Center     Atomic      Atomic             Coordinates (Angstroms)
 Number     Number       Type             X           Y           Z
 ---------------------------------------------------------------------
      1          1           0        0.000000    0.000000   -2.325000
      2          3           0        0.000000    0.000000    0.775000
 ---------------------------------------------------------------------
 Centers:       1
 STO-3G
 ****
 Centers:       2
 3-21G
 ****
 FixB: optimizing general contractions.
 Ernie: Thresh=  0.10000D-02 Tol=  0.10000D-05 Strict=F.
 IA=     1 ShT= 0 ShC= 0 NL=   1 NS=   0.
 IA=     1 L=0 SC=0 ISt=    0 NBk=    0 NP=    0 IndPr=    0.
 IA=     2 ShT= 0 ShC= 0 NL=   1 NS=   0.
 IA=     2 L=0 SC=0 ISt=    0 NBk=    0 NP=    0 IndPr=    0.
 IA=     2 ShT= 1 ShC= 0 NL=   2 NS=   1.
 IA=     2 L=1 SC=0 ISt=    0 NBk=    0 NP=    0 IndPr=    0.
 LdAtmC:  AtmChg=     1.000000     3.000000
 AtZEff=     -1.0000000     -1.3500000
 NEqShl: 
              1            2            3            4
     1            1            1            1            1
     2            2            2            2            2
     3            3            3            3            3
     4            4            4            4            4
 NEqBas: 
              1            2            3            4
     1            1            1            1            1
     2            2            2            2            2
     3            3            3            3            3
     4            4           -4           -4            4
     5            5           -5            5           -5
     6            6            6            6            6
     7            7            7            7            7
     8            8           -8           -8            8
     9            9           -9            9           -9
    10           10           10           10           10
 There are     6 symmetry adapted cartesian basis functions of A1  symmetry.
   1         1   1   1   1
   2         2   2   2   2
   3         3   3   3   3
   4         6   6   6   6
   5         7   7   7   7
   6        10  10  10  10
 There are     0 symmetry adapted cartesian basis functions of A2  symmetry.
 There are     2 symmetry adapted cartesian basis functions of B1  symmetry.
   7         4   4   4   4
   8         8   8   8   8
 There are     2 symmetry adapted cartesian basis functions of B2  symmetry.
   9         5   5   5   5
  10         9   9   9   9
 Order= 1 2 4 3
 Reordered character table:
              1            2            3            4            5
     1            1            1            1            1            1
     2            2            1            1           -1           -1
     3            4            1           -1           -1            1
     4            3            1           -1            1           -1
 NEqShl: 
              1            2            3            4
     1            1            1            1            1
     2            2            2            2            2
     3            3            3            3            3
     4            4            4            4            4
 NEqBas: 
              1            2            3            4
     1            1            1            1            1
     2            2            2            2            2
     3            3            3            3            3
     4            4           -4           -4            4
     5            5           -5            5           -5
     6            6            6            6            6
     7            7            7            7            7
     8            8           -8           -8            8
     9            9           -9            9           -9
    10           10           10           10           10
 There are     6 symmetry adapted basis functions of A1  symmetry.
   1         1   1   1   1
   2         2   2   2   2
   3         3   3   3   3
   4         6   6   6   6
   5         7   7   7   7
   6        10  10  10  10
 There are     0 symmetry adapted basis functions of A2  symmetry.
 There are     2 symmetry adapted basis functions of B1  symmetry.
   7         4   4   4   4
   8         8   8   8   8
 There are     2 symmetry adapted basis functions of B2  symmetry.
   9         5   5   5   5
  10         9   9   9   9
 Order= 1 2 4 3
 Reordered character table:
              1            2            3            4            5
     1            1            1            1            1            1
     2            2            1            1           -1           -1
     3            4            1           -1           -1            1
     4            3            1           -1            1           -1
    10 basis functions,    18 primitive gaussians,    10 cartesian basis functions
     2 alpha electrons        2 beta electrons
       nuclear repulsion energy         0.5121069783 Hartrees.
 IS=     1 IAt=     1 ISR=     1 T=0 IP=      1 IndIP=      1 IndIPD=      0 C=  2.769344D-01  0.000000D+00                             NZ=T
 IS=     1 IAt=     1 ISR=     1 T=0 IP=      2 IndIP=      2 IndIPD=      1 C=  2.678389D-01  0.000000D+00                             NZ=T
 IS=     1 IAt=     1 ISR=     1 T=0 IP=      3 IndIP=      3 IndIPD=      2 C=  8.347367D-02  0.000000D+00                             NZ=T
 IS=     2 IAt=     2 ISR=     1 T=0 IP=      1 IndIP=      4 IndIPD=      0 C=  7.424571D-01  0.000000D+00                             NZ=T
 IS=     2 IAt=     2 ISR=     1 T=0 IP=      2 IndIP=      5 IndIPD=      1 C=  9.736824D-01  0.000000D+00                             NZ=T
 IS=     2 IAt=     2 ISR=     1 T=0 IP=      3 IndIP=      6 IndIPD=      2 C=  5.265692D-01  0.000000D+00                             NZ=T
 IS=     3 IAt=     2 ISR=     2 T=1 IP=      1 IndIP=      7 IndIPD=      0 C= -1.181663D-01  1.066435D-01                             NZ=T
 IS=     3 IAt=     2 ISR=     2 T=1 IP=      2 IndIP=      8 IndIPD=      1 C=  1.473557D-01  7.547122D-02                             NZ=T
 IS=     4 IAt=     2 ISR=     3 T=1 IP=      1 IndIP=      9 IndIPD=      0 C=  4.951993D-02  1.673876D-02                             NZ=T
 IExCor=    0 DFT=F Ex=HF Corr=None ExCW=0 ScaHFX=  1.000000
 ScaDFX=  1.000000  1.000000  1.000000  1.000000 ScalE2=  1.000000  1.000000
 IRadAn=      5 IRanWt=     -1 IRanGd=            0 ICorTp=0 IEmpDi=  4
 NAtoms=    2 NActive=    2 NUniq=    2 SFac= 1.00D+00 NAtFMM=   60 NAOKFM=F Big=F
 Integral buffers will be    131072 words long.
 Raffenetti 1 integral format.
 Two-electron integral symmetry is turned on.
 Leave Link  301 at Mon Mar 28 14:00:25 2022, MaxMem=  9663676416 cpu:               2.0 elap:               0.1
 (Enter /nopt/nrel/apps/gaussian/g16C_1/g16/l302.exe)
 NPDir=0 NMtPBC=     1 NCelOv=     1 NCel=       1 NClECP=     1 NCelD=      1
         NCelK=      1 NCelE2=     1 NClLst=     1 CellRange=     0.0.
 One-electron integrals computed using PRISM.
 One-electron integral symmetry used in STVInt
 Entering OneElI...
 Calculate overlap and kinetic energy integrals
    NBasis =  10  MinDer = 0  MaxDer = 0
 Requested accuracy = 0.1000D-12
 Symmetry will be used
 PrmmSu-InSpLW:  IPartL=    0 NPrtUS=   36 NPrtUL=    1 DoSpLW=F IThBeg=    0 IThEnd=   35 NThAct=   36.
 PrSmSu:  IncTry=   512 NBBP=             10 NTPThr=   100 NPartT=   36 Incr=           1 LDynOK=F GPUOK=F.
 PrsmSu:  NPrtUS=  36 ThrOK=T IAlg=1 LenDen=           0 ISkipM=0 DoSpLW=F IThBeg=    0 IThEnd=   35.
 Prism:   IPart=     0 DynPar=F LinDyn=F Incr=           1.
 PRISM was handed   268434316 working-precision words and    10 shell-pairs
 PRISM was handed   268434316 working-precision words and    10 shell-pairs
 PRISM was handed   268434316 working-precision words and    10 shell-pairs
 PRISM was handed   268434316 working-precision words and    10 shell-pairs
 PRISM was handed   268434316 working-precision words and    10 shell-pairs
 PRISM was handed   268434316 working-precision words and    10 shell-pairs
 PRISM was handed   268434316 working-precision words and    10 shell-pairs
 PRISM was handed   268434316 working-precision words and    10 shell-pairs
 PRISM was handed   268434316 working-precision words and    10 shell-pairs
 PRISM was handed   268434316 working-precision words and    10 shell-pairs
 PRISM was handed   268434316 working-precision words and    10 shell-pairs
 IPart= 16 NShTot=           0 NBatch=           0 AvBLen=         0.0
 IPart= 27 NShTot=           0 NBatch=           0 AvBLen=         0.0
 IPart= 22 NShTot=           0 NBatch=           0 AvBLen=         0.0
 IPart=  3 NShTot=           0 NBatch=           0 AvBLen=         0.0
 IPart=  6 NShTot=           0 NBatch=           0 AvBLen=         0.0
 IPart= 33 NShTot=           0 NBatch=           0 AvBLen=         0.0
 IPart=  7 NShTot=           0 NBatch=           0 AvBLen=         0.0
 IPart=  5 NShTot=           0 NBatch=           0 AvBLen=         0.0
 PRISM was handed   268434316 working-precision words and    10 shell-pairs
 IPart= 13 NShTot=           0 NBatch=           0 AvBLen=         0.0
 PRISM was handed   268434316 working-precision words and    10 shell-pairs
 PRISM was handed   268434316 working-precision words and    10 shell-pairs
 PRISM was handed   268434316 working-precision words and    10 shell-pairs
 PRISM was handed   268434316 working-precision words and    10 shell-pairs
 IPart=  1 NShTot=           3 NBatch=           3 AvBLen=         1.0
 IPart= 35 NShTot=           0 NBatch=           0 AvBLen=         0.0
 PRISM was handed   268434316 working-precision words and    10 shell-pairs
 IPart= 24 NShTot=           0 NBatch=           0 AvBLen=         0.0
 IPart=  0 NShTot=           7 NBatch=           7 AvBLen=         1.0
 IPart= 11 NShTot=           0 NBatch=           0 AvBLen=         0.0
 IPart= 34 NShTot=           0 NBatch=           0 AvBLen=         0.0
 IPart= 21 NShTot=           0 NBatch=           0 AvBLen=         0.0
 PRISM was handed   268434316 working-precision words and    10 shell-pairs
 PRISM was handed   268434316 working-precision words and    10 shell-pairs
 IPart= 14 NShTot=           0 NBatch=           0 AvBLen=         0.0
 PRISM was handed   268434316 working-precision words and    10 shell-pairs
 IPart= 10 NShTot=           0 NBatch=           0 AvBLen=         0.0
 IPart= 29 NShTot=           0 NBatch=           0 AvBLen=         0.0
 PRISM was handed   268434316 working-precision words and    10 shell-pairs
 PRISM was handed   268434316 working-precision words and    10 shell-pairs
 PRISM was handed   268434316 working-precision words and    10 shell-pairs
 PRISM was handed   268434316 working-precision words and    10 shell-pairs
 IPart= 18 NShTot=           0 NBatch=           0 AvBLen=         0.0
 PRISM was handed   268434316 working-precision words and    10 shell-pairs
 PRISM was handed   268434316 working-precision words and    10 shell-pairs
 PRISM was handed   268434316 working-precision words and    10 shell-pairs
 PRISM was handed   268434316 working-precision words and    10 shell-pairs
 PRISM was handed   268434316 working-precision words and    10 shell-pairs
 PRISM was handed   268434316 working-precision words and    10 shell-pairs
 PRISM was handed   268434316 working-precision words and    10 shell-pairs
 PRISM was handed   268434316 working-precision words and    10 shell-pairs
 PRISM was handed   268434316 working-precision words and    10 shell-pairs
 IPart= 25 NShTot=           0 NBatch=           0 AvBLen=         0.0
 IPart= 28 NShTot=           0 NBatch=           0 AvBLen=         0.0
 IPart= 15 NShTot=           0 NBatch=           0 AvBLen=         0.0
 IPart= 30 NShTot=           0 NBatch=           0 AvBLen=         0.0
 IPart= 20 NShTot=           0 NBatch=           0 AvBLen=         0.0
 IPart= 32 NShTot=           0 NBatch=           0 AvBLen=         0.0
 PRISM was handed   268434316 working-precision words and    10 shell-pairs
 PRISM was handed   268434316 working-precision words and    10 shell-pairs
 IPart= 19 NShTot=           0 NBatch=           0 AvBLen=         0.0
 IPart= 23 NShTot=           0 NBatch=           0 AvBLen=         0.0
 PRISM was handed   268434316 working-precision words and    10 shell-pairs
 IPart=  4 NShTot=           0 NBatch=           0 AvBLen=         0.0
 IPart= 12 NShTot=           0 NBatch=           0 AvBLen=         0.0
 IPart=  8 NShTot=           0 NBatch=           0 AvBLen=         0.0
 IPart=  2 NShTot=           0 NBatch=           0 AvBLen=         0.0
 IPart= 31 NShTot=           0 NBatch=           0 AvBLen=         0.0
 IPart= 17 NShTot=           0 NBatch=           0 AvBLen=         0.0
 IPart=  9 NShTot=           0 NBatch=           0 AvBLen=         0.0
 IPart= 26 NShTot=           0 NBatch=           0 AvBLen=         0.0
 PrSmSu:  NxtVal=             37.
 *** Overlap *** 
                1             2             3             4             5 
      1  0.100000D+01
      2  0.122772D-02  0.100000D+01
      3  0.719750D-01  0.177215D+00  0.100000D+01
      4  0.000000D+00  0.000000D+00  0.000000D+00  0.100000D+01
      5  0.000000D+00  0.000000D+00  0.000000D+00  0.000000D+00  0.100000D+01
      6 -0.151552D+00  0.000000D+00  0.000000D+00  0.000000D+00  0.000000D+00
      7  0.172842D+00  0.140674D+00  0.782781D+00  0.000000D+00  0.000000D+00
      8  0.000000D+00  0.000000D+00  0.000000D+00  0.588593D+00  0.000000D+00
      9  0.000000D+00  0.000000D+00  0.000000D+00  0.000000D+00  0.588593D+00
     10 -0.304919D+00  0.000000D+00  0.000000D+00  0.000000D+00  0.000000D+00
                6             7             8             9            10 
      6  0.100000D+01
      7  0.000000D+00  0.100000D+01
      8  0.000000D+00  0.000000D+00  0.100000D+01
      9  0.000000D+00  0.000000D+00  0.000000D+00  0.100000D+01
     10  0.588593D+00  0.000000D+00  0.000000D+00  0.000000D+00  0.100000D+01
 *** Kinetic Energy *** 
                1             2             3             4             5 
      1  0.760032D+00
      2 -0.131500D-02  0.365490D+01
      3 -0.896247D-02 -0.135538D+00  0.159492D+00
      4  0.000000D+00  0.000000D+00  0.000000D+00  0.307817D+00
      5  0.000000D+00  0.000000D+00  0.000000D+00  0.000000D+00  0.307817D+00
      6  0.135185D-02  0.000000D+00  0.000000D+00  0.000000D+00  0.000000D+00
      7  0.548912D-02  0.117904D-01  0.513380D-01  0.000000D+00  0.000000D+00
      8  0.000000D+00  0.000000D+00  0.000000D+00  0.661980D-01  0.000000D+00
      9  0.000000D+00  0.000000D+00  0.000000D+00  0.000000D+00  0.661980D-01
     10 -0.252374D-01  0.000000D+00  0.000000D+00  0.000000D+00  0.000000D+00
                6             7             8             9            10 
      6  0.307817D+00
      7  0.000000D+00  0.428467D-01
      8  0.000000D+00  0.000000D+00  0.714113D-01
      9  0.000000D+00  0.000000D+00  0.000000D+00  0.714113D-01
     10  0.661980D-01  0.000000D+00  0.000000D+00  0.000000D+00  0.714113D-01
 Entering OneElI...
 Calculate potential energy integrals
    NBasis =  10  MinDer = 0  MaxDer = 0
 Requested accuracy = 0.1000D-12
 Symmetry will be used
 PrmmSu-InSpLW:  IPartL=    0 NPrtUS=   36 NPrtUL=    1 DoSpLW=F IThBeg=    0 IThEnd=   35 NThAct=   36.
 PrSmSu:  IncTry=   512 NBBP=             20 NTPThr=   100 NPartT=   36 Incr=           1 LDynOK=F GPUOK=F.
 PrsmSu:  NPrtUS=  36 ThrOK=T IAlg=1 LenDen=           0 ISkipM=0 DoSpLW=F IThBeg=    0 IThEnd=   35.
 Prism:   IPart=     0 DynPar=F LinDyn=F Incr=           1.
 PRISM was handed   268434358 working-precision words and    10 shell-pairs
 PRISM was handed   268434358 working-precision words and    10 shell-pairs
 PRISM was handed   268434358 working-precision words and    10 shell-pairs
 PRISM was handed   268434358 working-precision words and    10 shell-pairs
 PRISM was handed   268434358 working-precision words and    10 shell-pairs
 PRISM was handed   268434358 working-precision words and    10 shell-pairs
 PRISM was handed   268434358 working-precision words and    10 shell-pairs
 PRISM was handed   268434358 working-precision words and    10 shell-pairs
 PRISM was handed   268434358 working-precision words and    10 shell-pairs
 PRISM was handed   268434358 working-precision words and    10 shell-pairs
 PRISM was handed   268434358 working-precision words and    10 shell-pairs
 PRISM was handed   268434358 working-precision words and    10 shell-pairs
 PRISM was handed   268434358 working-precision words and    10 shell-pairs
 PRISM was handed   268434358 working-precision words and    10 shell-pairs
 PRISM was handed   268434358 working-precision words and    10 shell-pairs
 PRISM was handed   268434358 working-precision words and    10 shell-pairs
 PRISM was handed   268434358 working-precision words and    10 shell-pairs
 PRISM was handed   268434358 working-precision words and    10 shell-pairs
 PRISM was handed   268434358 working-precision words and    10 shell-pairs
 PRISM was handed   268434358 working-precision words and    10 shell-pairs
 PRISM was handed   268434358 working-precision words and    10 shell-pairs
 PRISM was handed   268434358 working-precision words and    10 shell-pairs
 PRISM was handed   268434358 working-precision words and    10 shell-pairs
 PRISM was handed   268434358 working-precision words and    10 shell-pairs
 PRISM was handed   268434358 working-precision words and    10 shell-pairs
 PRISM was handed   268434358 working-precision words and    10 shell-pairs
 PRISM was handed   268434358 working-precision words and    10 shell-pairs
 PRISM was handed   268434358 working-precision words and    10 shell-pairs
 PRISM was handed   268434358 working-precision words and    10 shell-pairs
 PRISM was handed   268434358 working-precision words and    10 shell-pairs
 PRISM was handed   268434358 working-precision words and    10 shell-pairs
 PRISM was handed   268434358 working-precision words and    10 shell-pairs
 PRISM was handed   268434358 working-precision words and    10 shell-pairs
 PRISM was handed   268434358 working-precision words and    10 shell-pairs
 PRISM was handed   268434358 working-precision words and    10 shell-pairs
 PRISM was handed   268434358 working-precision words and    10 shell-pairs
 IPart=  1 NShTot=           6 NBatch=           3 AvBLen=         2.0
 IPart=  0 NShTot=          14 NBatch=           7 AvBLen=         2.0
 IPart= 21 NShTot=           0 NBatch=           0 AvBLen=         0.0
 IPart= 11 NShTot=           0 NBatch=           0 AvBLen=         0.0
 IPart=  2 NShTot=           0 NBatch=           0 AvBLen=         0.0
 IPart= 13 NShTot=           0 NBatch=           0 AvBLen=         0.0
 IPart= 23 NShTot=           0 NBatch=           0 AvBLen=         0.0
 IPart= 19 NShTot=           0 NBatch=           0 AvBLen=         0.0
 IPart= 28 NShTot=           0 NBatch=           0 AvBLen=         0.0
 IPart= 14 NShTot=           0 NBatch=           0 AvBLen=         0.0
 IPart= 16 NShTot=           0 NBatch=           0 AvBLen=         0.0
 IPart= 15 NShTot=           0 NBatch=           0 AvBLen=         0.0
 IPart= 12 NShTot=           0 NBatch=           0 AvBLen=         0.0
 IPart= 24 NShTot=           0 NBatch=           0 AvBLen=         0.0
 IPart= 29 NShTot=           0 NBatch=           0 AvBLen=         0.0
 IPart= 30 NShTot=           0 NBatch=           0 AvBLen=         0.0
 IPart= 27 NShTot=           0 NBatch=           0 AvBLen=         0.0
 IPart= 34 NShTot=           0 NBatch=           0 AvBLen=         0.0
 IPart=  9 NShTot=           0 NBatch=           0 AvBLen=         0.0
 IPart=  4 NShTot=           0 NBatch=           0 AvBLen=         0.0
 IPart= 22 NShTot=           0 NBatch=           0 AvBLen=         0.0
 IPart= 10 NShTot=           0 NBatch=           0 AvBLen=         0.0
 IPart= 31 NShTot=           0 NBatch=           0 AvBLen=         0.0
 IPart=  5 NShTot=           0 NBatch=           0 AvBLen=         0.0
 IPart= 26 NShTot=           0 NBatch=           0 AvBLen=         0.0
 IPart= 33 NShTot=           0 NBatch=           0 AvBLen=         0.0
 IPart= 17 NShTot=           0 NBatch=           0 AvBLen=         0.0
 IPart=  7 NShTot=           0 NBatch=           0 AvBLen=         0.0
 IPart= 32 NShTot=           0 NBatch=           0 AvBLen=         0.0
 IPart=  6 NShTot=           0 NBatch=           0 AvBLen=         0.0
 IPart=  3 NShTot=           0 NBatch=           0 AvBLen=         0.0
 IPart= 35 NShTot=           0 NBatch=           0 AvBLen=         0.0
 IPart= 20 NShTot=           0 NBatch=           0 AvBLen=         0.0
 IPart= 25 NShTot=           0 NBatch=           0 AvBLen=         0.0
 IPart= 18 NShTot=           0 NBatch=           0 AvBLen=         0.0
 IPart=  8 NShTot=           0 NBatch=           0 AvBLen=         0.0
 PrSmSu:  NxtVal=             37.
 ***** Potential Energy ***** 
                1             2             3             4             5 
      1  0.173872D+01
      2  0.461689D-02  0.825227D+01
      3  0.918888D-01  0.659944D+00  0.139386D+01
      4  0.000000D+00  0.000000D+00  0.000000D+00  0.132186D+01
      5  0.000000D+00  0.000000D+00  0.000000D+00  0.000000D+00  0.132186D+01
      6 -0.195370D+00 -0.345202D-02 -0.483897D-01  0.000000D+00  0.000000D+00
      7  0.212571D+00  0.638212D+00  0.990714D+00  0.000000D+00  0.000000D+00
      8  0.000000D+00  0.000000D+00  0.000000D+00  0.588117D+00  0.000000D+00
      9  0.000000D+00  0.000000D+00  0.000000D+00  0.000000D+00  0.588117D+00
     10 -0.372614D+00 -0.531942D-03 -0.307145D-01  0.000000D+00  0.000000D+00
                6             7             8             9            10 
      6  0.135374D+01
      7 -0.492915D-01  0.971667D+00
      8  0.000000D+00  0.000000D+00  0.670190D+00
      9  0.000000D+00  0.000000D+00  0.000000D+00  0.670190D+00
     10  0.617231D+00 -0.629205D-01  0.000000D+00  0.000000D+00  0.727547D+00
 ****** Core Hamiltonian ****** 
                1             2             3             4             5 
      1 -0.978689D+00
      2 -0.593189D-02 -0.459737D+01
      3 -0.100851D+00 -0.795482D+00 -0.123437D+01
      4  0.000000D+00  0.000000D+00  0.000000D+00 -0.101405D+01
      5  0.000000D+00  0.000000D+00  0.000000D+00  0.000000D+00 -0.101405D+01
      6  0.196722D+00  0.345202D-02  0.483897D-01  0.000000D+00  0.000000D+00
      7 -0.207082D+00 -0.626421D+00 -0.939376D+00  0.000000D+00  0.000000D+00
      8  0.000000D+00  0.000000D+00  0.000000D+00 -0.521919D+00  0.000000D+00
      9  0.000000D+00  0.000000D+00  0.000000D+00  0.000000D+00 -0.521919D+00
     10  0.347377D+00  0.531942D-03  0.307145D-01  0.000000D+00  0.000000D+00
                6             7             8             9            10 
      6 -0.104592D+01
      7  0.492915D-01 -0.928820D+00
      8  0.000000D+00  0.000000D+00 -0.598779D+00
      9  0.000000D+00  0.000000D+00  0.000000D+00 -0.598779D+00
     10 -0.551033D+00  0.629205D-01  0.000000D+00  0.000000D+00 -0.656136D+00
 SVDSVc IOpt=   1 NormSV=T IR=1
 SVDSVc V= 1.89D+00 1.71D+00 9.58D-01 8.45D-01 3.89D-01 2.09D-01
 SVDSVc IOpt=   1 NormSV=T IR=3
 SVDSVc V= 1.59D+00 4.11D-01
 SVDSVc IOpt=   1 NormSV=T IR=4
 SVDSVc V= 1.59D+00 4.11D-01
 TstOVc:  Largest diagonal error= 1.55D-15 IB=1 I=    6.
 TstOVc:  Largest same sym error= 6.51D-16 IB=1 I=    4 J=    3.
 TstOVc:  Largest diff sym error= 0.00D+00 IB=0 JB=0 I=    0 J=    0.
 Orthogonalized basis functions: 
                 1             2             3             4             5 
      1   0.204874D+00 -0.240327D+00 -0.342661D+00  0.882287D+00  0.319904D+00
      2   0.161551D+00  0.888957D-01  0.924575D+00  0.372734D+00  0.206902D-01
      3   0.449900D+00  0.206309D+00 -0.811041D-01 -0.238365D+00 -0.122074D+00
      4   0.000000D+00  0.000000D+00  0.000000D+00  0.000000D+00  0.000000D+00
      5   0.000000D+00  0.000000D+00  0.000000D+00  0.000000D+00  0.000000D+00
      6  -0.142261D+00  0.456144D+00 -0.172054D+00  0.426843D+00 -0.104379D+01
      7   0.458701D+00  0.187835D+00 -0.173417D+00 -0.118288D+00  0.611549D-01
      8   0.000000D+00  0.000000D+00  0.000000D+00  0.000000D+00  0.000000D+00
      9   0.000000D+00  0.000000D+00  0.000000D+00  0.000000D+00  0.000000D+00
     10  -0.163447D+00  0.484632D+00 -0.758394D-01  0.114720D+00  0.116554D+01
                 6             7             8             9            10 
      1  -0.239899D+00  0.000000D+00  0.000000D+00  0.000000D+00  0.000000D+00
      2   0.664501D-01  0.000000D+00  0.000000D+00  0.000000D+00  0.000000D+00
      3  -0.152318D+01  0.000000D+00  0.000000D+00  0.000000D+00  0.000000D+00
      4   0.000000D+00  0.561020D+00  0.110243D+01  0.000000D+00  0.000000D+00
      5   0.000000D+00  0.000000D+00  0.000000D+00  0.561020D+00  0.110243D+01
      6   0.510095D-01  0.000000D+00  0.000000D+00  0.000000D+00  0.000000D+00
      7   0.154707D+01  0.000000D+00  0.000000D+00  0.000000D+00  0.000000D+00
      8   0.000000D+00  0.561020D+00 -0.110243D+01  0.000000D+00  0.000000D+00
      9   0.000000D+00  0.000000D+00  0.000000D+00  0.561020D+00 -0.110243D+01
     10  -0.130360D+00  0.000000D+00  0.000000D+00  0.000000D+00  0.000000D+00
 NBasis=    10 RedAO= T EigKep=  2.09D-01  NBF=     6     0     2     2
 NBsUse=    10 1.00D-06 EigRej= -1.00D+00 NBFU=     6     0     2     2
 Leave Link  302 at Mon Mar 28 14:00:25 2022, MaxMem=  9663676416 cpu:               3.5 elap:               0.1
 (Enter /nopt/nrel/apps/gaussian/g16C_1/g16/l303.exe)
 DipDrv will not compute anything.
 Fermi contact integrals: 
                 1             2 
      1   0.628247D+00  0.254047D-03
      2   0.000000D+00  0.224271D+01
      3   0.440909D-02  0.291894D-01
      4   0.000000D+00  0.000000D+00
      5   0.000000D+00  0.000000D+00
      6  -0.132289D-01  0.000000D+00
      7   0.185803D-01  0.495199D-01
      8   0.000000D+00  0.000000D+00
      9   0.000000D+00  0.000000D+00
     10  -0.367922D-01  0.000000D+00
 Leave Link  303 at Mon Mar 28 14:00:25 2022, MaxMem=  9663676416 cpu:               1.3 elap:               0.1
 (Enter /nopt/nrel/apps/gaussian/g16C_1/g16/l401.exe)
 ExpMin= 2.86D-02 ExpMax= 3.68D+01 ExpMxC= 3.68D+01 IAcc=3 IRadAn=         5 AccDes= 0.00D+00
 Harris functional with IExCor=  205 and IRadAn=       5 diagonalized for initial guess.
 HarFok:  IExCor=  205 AccDes= 0.00D+00 IRadAn=         5 IDoV= 1 UseB2=F ITyADJ=14
 ICtDFT=  3500011 ScaDFX=  1.000000  1.000000  1.000000  1.000000
 FoFCou: FMM=F IPFlag=           0 FMFlag=      100000 FMFlg1=           0
         NFxFlg=           0 DoJE=T BraDBF=F KetDBF=T FulRan=T
         wScrn=  0.000000 ICntrl=       500 IOpCl=  0 I1Cent=   200000004 NGrid=           0
         NMat0=    1 NMatS0=      1 NMatT0=    0 NMatD0=    1 NMtDS0=    0 NMtDT0=    0
 Petite list used in FoFCou.
 Harris En= -7.87723844473026    
 JPrj=0 DoOrth=F DoCkMO=F.
 Initial guess orbital symmetries:
       Occupied  (SG) (SG)
       Virtual   (SG) (PI) (PI) (SG) (PI) (PI) (SG) (SG)
 The electronic state of the initial guess is 1-SG.
 Leave Link  401 at Mon Mar 28 14:00:25 2022, MaxMem=  9663676416 cpu:               3.6 elap:               0.1
 (Enter /nopt/nrel/apps/gaussian/g16C_1/g16/l502.exe)
 Keep R1 ints in memory in symmetry-blocked form, NReq=7206198.
 FoFCou: FMM=F IPFlag=           0 FMFlag=           0 FMFlg1=           0
         NFxFlg=           0 DoJE=F BraDBF=F KetDBF=F FulRan=T
         wScrn=  0.000000 ICntrl=       600 IOpCl=  0 I1Cent=           0 NGrid=           0
         NMat0=    1 NMatS0=     55 NMatT0=    0 NMatD0=    1 NMtDS0=    0 NMtDT0=    0
 Petite list used in FoFCou.
 Closed shell SCF:
 Using DIIS extrapolation, IDIIS=  1040.
 NGot=  9663676416 LenX=  9663673310 LenY=  9663672428
 Requested convergence on RMS density matrix=1.00D-08 within 128 cycles.
 Requested convergence on MAX density matrix=1.00D-06.
 Requested convergence on             energy=1.00D-06.
 No special actions if energy rises.

 Cycle   1  Pass 1  IDiag  1:
 E= -7.74997700055505    
 DIIS: error= 3.08D-02 at cycle   1 NSaved=   1.
 NSaved= 1 IEnMin= 1 EnMin= -7.74997700055505     IErMin= 1 ErrMin= 3.08D-02
 ErrMax= 3.08D-02  0.00D+00 EMaxC= 1.00D-01 BMatC= 1.58D-02 BMatP= 1.58D-02
 IDIUse=3 WtCom= 6.92D-01 WtEn= 3.08D-01
 Coeff-Com:  0.100D+01
 Coeff-En:   0.100D+01
 Coeff:      0.100D+01
 Gap=     0.087 Goal=   None    Shift=    0.000
 GapD=    0.087 DampG=0.500 DampE=0.500 DampFc=0.2500 IDamp=-1.
 Damping current iteration by 2.50D-01
 RMSDP=4.49D-02 MaxDP=3.41D-01              OVMax= 3.14D-01

 Cycle   2  Pass 1  IDiag  1:
 E= -7.76816577592959     Delta-E=       -0.018188775375 Rises=F Damp=T
 DIIS: error= 2.11D-02 at cycle   2 NSaved=   2.
 NSaved= 2 IEnMin= 2 EnMin= -7.76816577592959     IErMin= 2 ErrMin= 2.11D-02
 ErrMax= 2.11D-02  0.00D+00 EMaxC= 1.00D-01 BMatC= 8.00D-03 BMatP= 1.58D-02
 IDIUse=3 WtCom= 7.89D-01 WtEn= 2.11D-01
 Coeff-Com: -0.241D+01 0.341D+01
 Coeff-En:   0.000D+00 0.100D+01
 Coeff:     -0.190D+01 0.290D+01
 Gap=     0.189 Goal=   None    Shift=    0.000
 RMSDP=2.65D-02 MaxDP=2.01D-01 DE=-1.82D-02 OVMax= 2.86D-02

 Cycle   3  Pass 1  IDiag  1:
 E= -7.81479315172100     Delta-E=       -0.046627375791 Rises=F Damp=F
 DIIS: error= 1.36D-03 at cycle   3 NSaved=   3.
 NSaved= 3 IEnMin= 3 EnMin= -7.81479315172100     IErMin= 3 ErrMin= 1.36D-03
 ErrMax= 1.36D-03  0.00D+00 EMaxC= 1.00D-01 BMatC= 1.39D-05 BMatP= 8.00D-03
 IDIUse=3 WtCom= 9.86D-01 WtEn= 1.36D-02
 Coeff-Com:  0.502D+00-0.684D+00 0.118D+01
 Coeff-En:   0.000D+00 0.000D+00 0.100D+01
 Coeff:      0.495D+00-0.674D+00 0.118D+01
 Gap=     0.203 Goal=   None    Shift=    0.000
 RMSDP=9.52D-04 MaxDP=6.16D-03 DE=-4.66D-02 OVMax= 3.87D-03

 Cycle   4  Pass 1  IDiag  1:
 E= -7.81483411743941     Delta-E=       -0.000040965718 Rises=F Damp=F
 DIIS: error= 4.91D-05 at cycle   4 NSaved=   4.
 NSaved= 4 IEnMin= 4 EnMin= -7.81483411743941     IErMin= 4 ErrMin= 4.91D-05
 ErrMax= 4.91D-05  0.00D+00 EMaxC= 1.00D-01 BMatC= 4.12D-08 BMatP= 1.39D-05
 IDIUse=1 WtCom= 1.00D+00 WtEn= 0.00D+00
 Coeff-Com:  0.205D-01-0.290D-01-0.179D-01 0.103D+01
 Coeff:      0.205D-01-0.290D-01-0.179D-01 0.103D+01
 Gap=     0.203 Goal=   None    Shift=    0.000
 RMSDP=7.47D-05 MaxDP=3.25D-04 DE=-4.10D-05 OVMax= 2.82D-04

 Cycle   5  Pass 1  IDiag  1:
 E= -7.81483429633178     Delta-E=       -0.000000178892 Rises=F Damp=F
 DIIS: error= 1.43D-05 at cycle   5 NSaved=   5.
 NSaved= 5 IEnMin= 5 EnMin= -7.81483429633178     IErMin= 5 ErrMin= 1.43D-05
 ErrMax= 1.43D-05  0.00D+00 EMaxC= 1.00D-01 BMatC= 2.84D-09 BMatP= 4.12D-08
 IDIUse=1 WtCom= 1.00D+00 WtEn= 0.00D+00
 Coeff-Com:  0.500D-02-0.623D-02 0.242D-01-0.449D+00 0.143D+01
 Coeff:      0.500D-02-0.623D-02 0.242D-01-0.449D+00 0.143D+01
 Gap=     0.203 Goal=   None    Shift=    0.000
 RMSDP=3.26D-05 MaxDP=1.55D-04 DE=-1.79D-07 OVMax= 2.03D-04

 Cycle   6  Pass 1  IDiag  1:
 E= -7.81483432410259     Delta-E=       -0.000000027771 Rises=F Damp=F
 DIIS: error= 4.64D-06 at cycle   6 NSaved=   6.
 NSaved= 6 IEnMin= 6 EnMin= -7.81483432410259     IErMin= 6 ErrMin= 4.64D-06
 ErrMax= 4.64D-06  0.00D+00 EMaxC= 1.00D-01 BMatC= 1.98D-10 BMatP= 2.84D-09
 IDIUse=1 WtCom= 1.00D+00 WtEn= 0.00D+00
 Coeff-Com:  0.268D-02-0.388D-02-0.443D-02 0.194D+00-0.623D+00 0.143D+01
 Coeff:      0.268D-02-0.388D-02-0.443D-02 0.194D+00-0.623D+00 0.143D+01
 Gap=     0.203 Goal=   None    Shift=    0.000
 RMSDP=7.34D-06 MaxDP=3.06D-05 DE=-2.78D-08 OVMax= 6.97D-05

 Cycle   7  Pass 1  IDiag  1:
 E= -7.81483432670936     Delta-E=       -0.000000002607 Rises=F Damp=F
 DIIS: error= 1.79D-06 at cycle   7 NSaved=   7.
 NSaved= 7 IEnMin= 7 EnMin= -7.81483432670936     IErMin= 7 ErrMin= 1.79D-06
 ErrMax= 1.79D-06  0.00D+00 EMaxC= 1.00D-01 BMatC= 2.87D-11 BMatP= 1.98D-10
 IDIUse=1 WtCom= 1.00D+00 WtEn= 0.00D+00
 Coeff-Com: -0.180D-04 0.516D-04 0.981D-03-0.231D-01 0.104D+00-0.857D+00
 Coeff-Com:  0.177D+01
 Coeff:     -0.180D-04 0.516D-04 0.981D-03-0.231D-01 0.104D+00-0.857D+00
 Coeff:      0.177D+01
 Gap=     0.203 Goal=   None    Shift=    0.000
 RMSDP=4.54D-06 MaxDP=1.69D-05 DE=-2.61D-09 OVMax= 4.41D-05

 Cycle   8  Pass 1  IDiag  1:
 E= -7.81483432717158     Delta-E=       -0.000000000462 Rises=F Damp=F
 DIIS: error= 2.98D-08 at cycle   8 NSaved=   8.
 NSaved= 8 IEnMin= 8 EnMin= -7.81483432717158     IErMin= 8 ErrMin= 2.98D-08
 ErrMax= 2.98D-08  0.00D+00 EMaxC= 1.00D-01 BMatC= 9.61D-15 BMatP= 2.87D-11
 IDIUse=1 WtCom= 1.00D+00 WtEn= 0.00D+00
 Coeff-Com:  0.283D-05-0.419D-05-0.298D-04 0.489D-03-0.610D-02 0.940D-01
 Coeff-Com: -0.214D+00 0.113D+01
 Coeff:      0.283D-05-0.419D-05-0.298D-04 0.489D-03-0.610D-02 0.940D-01
 Coeff:     -0.214D+00 0.113D+01
 Gap=     0.203 Goal=   None    Shift=    0.000
 RMSDP=4.64D-08 MaxDP=2.21D-07 DE=-4.62D-10 OVMax= 3.54D-07

 Cycle   9  Pass 1  IDiag  1:
 E= -7.81483432717163     Delta-E=       -0.000000000000 Rises=F Damp=F
 DIIS: error= 1.67D-09 at cycle   9 NSaved=   9.
 NSaved= 9 IEnMin= 9 EnMin= -7.81483432717163     IErMin= 9 ErrMin= 1.67D-09
 ErrMax= 1.67D-09  0.00D+00 EMaxC= 1.00D-01 BMatC= 2.52D-17 BMatP= 9.61D-15
 IDIUse=1 WtCom= 1.00D+00 WtEn= 0.00D+00
 Coeff-Com:  0.174D-07-0.214D-07 0.177D-05-0.180D-04 0.377D-03-0.659D-02
 Coeff-Com:  0.143D-01-0.822D-01 0.107D+01
 Coeff:      0.174D-07-0.214D-07 0.177D-05-0.180D-04 0.377D-03-0.659D-02
 Coeff:      0.143D-01-0.822D-01 0.107D+01
 Gap=     0.203 Goal=   None    Shift=    0.000
 RMSDP=4.17D-09 MaxDP=1.57D-08 DE=-5.68D-14 OVMax= 4.04D-08

 SCF Done:  E(RHF) =  -7.81483432717     A.U. after    9 cycles
            NFock=  9  Conv=0.42D-08     -V/T= 2.0037
 KE= 7.786049260711D+00 PE=-1.894322735479D+01 EE= 2.830236788598D+00
 Leave Link  502 at Mon Mar 28 14:00:25 2022, MaxMem=  9663676416 cpu:               4.7 elap:               0.2
 (Enter /nopt/nrel/apps/gaussian/g16C_1/g16/l801.exe)
 Windowed orbitals will be sorted by symmetry type.
 ExpMin= 2.86D-02 ExpMax= 3.68D+01 ExpMxC= 3.68D+01 IAcc=3 IRadAn=         5 AccDes= 0.00D+00
 HarFok:  IExCor=  205 AccDes= 0.00D+00 IRadAn=         5 IDoV=-2 UseB2=F ITyADJ=14
 ICtDFT= 12500011 ScaDFX=  1.000000  1.000000  1.000000  1.000000
 Largest valence mixing into a core orbital is  5.35D-04
 Largest core mixing into a valence orbital is  5.67D-05
 Range of M.O.s used for correlation:     2    10
 NBasis=    10 NAE=     2 NBE=     2 NFC=     1 NFV=     0
 NROrb=      9 NOA=     1 NOB=     1 NVA=     8 NVB=     8
 Leave Link  801 at Mon Mar 28 14:00:26 2022, MaxMem=  9663676416 cpu:               1.9 elap:               0.1
 (Enter /nopt/nrel/apps/gaussian/g16C_1/g16/l804.exe)
 Closed-shell transformation, MDV=  9663676416 ITran=4 ISComp=2.
 Unit  1 TFree=          4817 TCopy=        115370.
 Semi-Direct transformation.
 ModeAB=           2 MOrb=             1 LenV=    9663556755
 LASXX=           88 LTotXX=          88 LenRXX=          88
 LTotAB=         141 MaxLAS=         495 LenRXY=         495
 NonZer=         603 LenScr=      785920 LnRSAI=           0
 LnScr1=           0 LExtra=      218791 Total=      1005294
 MaxDsk= 34359738368 SrtSym=           F ITran=            4
 DoSDTr:  NPSUse= 36
 JobTyp=0 Pass  1:  I=   1 to   1.
 (rs|ai) integrals will be sorted in core.
 Complete sort for first half transformation.
 First half transformation complete.
 Complete sort for second half transformation.
 Second half transformation complete.
 Spin components of T(2) and E(2):
     alpha-alpha T2 =       0.0000000000D+00 E2=      0.0000000000D+00
     alpha-beta  T2 =       0.4054153851D-01 E2=     -0.2979419296D-01
     beta-beta   T2 =       0.0000000000D+00 E2=      0.0000000000D+00
 ANorm=    0.1020069379D+01
 E2 =    -0.2979419296D-01 EUMP2 =    -0.78446285201303D+01
 Leave Link  804 at Mon Mar 28 14:00:26 2022, MaxMem=  9663676416 cpu:               1.9 elap:               0.1
 (Enter /nopt/nrel/apps/gaussian/g16C_1/g16/l913.exe)
 CIDS:  MDV=  9663676416.
 Frozen-core window:  NFC=   1 NFV=   0.
 IFCWin=0 IBDFC=1 NFBD=     0     0 NFCmp=     0     0 NFFFC=     0     0
 Using DD3R+UMP44R for 1st iteration.
 Using DD4RQ for 2nd and later iterations.
 Keep R2 and R3 ints in memory in symmetry-blocked form, NReq=7208580.
 FoFCou: FMM=F IPFlag=           0 FMFlag=           0 FMFlg1=           0
         NFxFlg=           0 DoJE=F BraDBF=F KetDBF=F FulRan=T
         wScrn=  0.000000 ICntrl=       600 IOpCl=  0 I1Cent=           0 NGrid=           0
         NMat0=    1 NMatS0=     55 NMatT0=    0 NMatD0=    1 NMtDS0=    0 NMtDT0=    0
 Petite list used in FoFCou.
 CIDS: In Core Option IDoMem=           1.
 Coupled Cluster theory with single and double substitutions
 ===========================================================
 Iterations= 200 Convergence= 0.100D-06
 Produce multiple copies of IABC intergrals
 Iteration Nr.   1
 **********************
 DD1Dir will call FoFMem   1 times, MxPair=         2
 NAB=     1 NAA=     0 NBB=     0.
 MP4(R+Q)=  0.12079024D-02
 Maximum subspace dimension=  5
 A-vector RMS=  3.5964345D-02 Max=  3.0913059D-02 conv= 1.00D-05.
 RLE energy=       -0.0535223861
 E3=       -0.14427913D-01        EUMP3=      -0.78590564332D+01
 E4(DQ)=   -0.66340772D-02        UMP4(DQ)=   -0.78656905105D+01
 E4(SDQ)=  -0.72498389D-02        UMP4(SDQ)=  -0.78663062721D+01
 VARIATIONAL ENERGIES WITH THE FIRST-ORDER WAVEFUNCTION:
 DE(Corr)= -0.43002923E-01 E(Corr)=     -7.8578372507    
 NORM(A)=   0.10687116D+01
 Iteration Nr.   2
 **********************
 DD1Dir will call FoFMem   1 times, MxPair=         2
 NAB=     1 NAA=     0 NBB=     0.
 A-vector RMS=  1.8923403D-02 Max=  3.1763311D-02 conv= 1.00D-05.
 RLE energy=       -0.0556293552
 DE(Corr)= -0.54484097E-01 E(CORR)=     -7.8693184240     Delta=-1.15D-02
 NORM(A)=   0.10808895D+01
 Iteration Nr.   3
 **********************
 DD1Dir will call FoFMem   1 times, MxPair=         2
 NAB=     1 NAA=     0 NBB=     0.
 A-vector RMS=  2.0857625D-02 Max=  2.5140307D-02 conv= 1.00D-05.
 RLE energy=       -0.0571046099
 DE(Corr)= -0.55738278E-01 E(CORR)=     -7.8705726051     Delta=-1.25D-03
 NORM(A)=   0.11067208D+01
 Iteration Nr.   4
 **********************
 DD1Dir will call FoFMem   1 times, MxPair=         2
 NAB=     1 NAA=     0 NBB=     0.
 A-vector RMS=  7.3589862D-03 Max=  2.1380513D-02 conv= 1.00D-05.
 RLE energy=       -0.0604468022
 DE(Corr)= -0.57875707E-01 E(CORR)=     -7.8727100337     Delta=-2.14D-03
 NORM(A)=   0.11445599D+01
 Iteration Nr.   5
 **********************
 DD1Dir will call FoFMem   1 times, MxPair=         2
 NAB=     1 NAA=     0 NBB=     0.
 A-vector RMS=  4.1493039D-03 Max=  4.2423327D-03 conv= 1.00D-05.
 RLE energy=       -0.0586782941
 DE(Corr)= -0.59954092E-01 E(CORR)=     -7.8747884187     Delta=-2.08D-03
 NORM(A)=   0.11332428D+01
 Iteration Nr.   6
 **********************
 DD1Dir will call FoFMem   1 times, MxPair=         2
 NAB=     1 NAA=     0 NBB=     0.
 A-vector RMS=  4.2073850D-03 Max=  4.8931605D-03 conv= 1.00D-05.
 RLE energy=       -0.0600885643
 DE(Corr)= -0.58907574E-01 E(CORR)=     -7.8737419010     Delta= 1.05D-03
 NORM(A)=   0.11513962D+01
 Iteration Nr.   7
 **********************
 DD1Dir will call FoFMem   1 times, MxPair=         2
 NAB=     1 NAA=     0 NBB=     0.
 A-vector RMS=  3.7830087D-03 Max=  5.6463012D-03 conv= 1.00D-05.
 RLE energy=       -0.0594287100
 DE(Corr)= -0.59944981E-01 E(CORR)=     -7.8747793082     Delta=-1.04D-03
 NORM(A)=   0.11438959D+01
 Iteration Nr.   8
 **********************
 DD1Dir will call FoFMem   1 times, MxPair=         2
 NAB=     1 NAA=     0 NBB=     0.
 A-vector RMS=  6.1266743D-04 Max=  1.1930861D-03 conv= 1.00D-05.
 RLE energy=       -0.0594952045
 DE(Corr)= -0.59441355E-01 E(CORR)=     -7.8742756826     Delta= 5.04D-04
 NORM(A)=   0.11446203D+01
 Iteration Nr.   9
 **********************
 DD1Dir will call FoFMem   1 times, MxPair=         2
 NAB=     1 NAA=     0 NBB=     0.
 A-vector RMS=  7.5571970D-05 Max=  8.2416243D-05 conv= 1.00D-05.
 RLE energy=       -0.0594970926
 DE(Corr)= -0.59494077E-01 E(CORR)=     -7.8743284046     Delta=-5.27D-05
 NORM(A)=   0.11447129D+01
 Iteration Nr.  10
 **********************
 DD1Dir will call FoFMem   1 times, MxPair=         2
 NAB=     1 NAA=     0 NBB=     0.
 A-vector RMS=  1.4774868D-05 Max=  1.4448058D-05 conv= 1.00D-05.
 RLE energy=       -0.0595013376
 DE(Corr)= -0.59499187E-01 E(CORR)=     -7.8743335139     Delta=-5.11D-06
 NORM(A)=   0.11447465D+01
 Iteration Nr.  11
 **********************
 DD1Dir will call FoFMem   1 times, MxPair=         2
 NAB=     1 NAA=     0 NBB=     0.
 A-vector RMS=  4.8784883D-06 Max=  6.0059694D-06 conv= 1.00D-05.
 RLE energy=       -0.0595007243
 DE(Corr)= -0.59501009E-01 E(CORR)=     -7.8743353358     Delta=-1.82D-06
 NORM(A)=   0.11447440D+01
 Iteration Nr.  12
 **********************
 DD1Dir will call FoFMem   1 times, MxPair=         2
 NAB=     1 NAA=     0 NBB=     0.
 A-vector RMS=  2.8654055D-06 Max=  2.3669888D-06 conv= 1.00D-05.
 RLE energy=       -0.0595009621
 DE(Corr)= -0.59500778E-01 E(CORR)=     -7.8743351048     Delta= 2.31D-07
 NORM(A)=   0.11447445D+01
 Iteration Nr.  13
 **********************
 DD1Dir will call FoFMem   1 times, MxPair=         2
 NAB=     1 NAA=     0 NBB=     0.
 A-vector RMS=  9.1532276D-07 Max=  1.0982727D-06 conv= 1.00D-05.
 RLE energy=       -0.0595007297
 DE(Corr)= -0.59500884E-01 E(CORR)=     -7.8743352110     Delta=-1.06D-07
 NORM(A)=   0.11447416D+01
 Iteration Nr.  14
 **********************
 DD1Dir will call FoFMem   1 times, MxPair=         2
 NAB=     1 NAA=     0 NBB=     0.
 A-vector RMS=  3.5384617D-08 Max=  6.4976083D-08 conv= 1.00D-05.
 RLE energy=       -0.0595007386
 DE(Corr)= -0.59500736E-01 E(CORR)=     -7.8743350631     Delta= 1.48D-07
 NORM(A)=   0.11447416D+01
 Iteration Nr.  15
 **********************
 DD1Dir will call FoFMem   1 times, MxPair=         2
 NAB=     1 NAA=     0 NBB=     0.
 A-vector RMS=  1.6995246D-08 Max=  1.7311617D-08 conv= 1.00D-05.
 RLE energy=       -0.0595007411
 DE(Corr)= -0.59500740E-01 E(CORR)=     -7.8743350674     Delta=-4.35D-09
 NORM(A)=   0.11447416D+01
 CI/CC converged in   15 iterations to DelEn=-4.35D-09 Conv= 1.00D-07 ErrA1= 1.70D-08 Conv= 1.00D-05
 Wavefunction amplitudes converged. E(Corr)=     -7.8743350674    
 Dominant configurations:
 ***********************
 Spin Case        I    J    A    B          Value
    AA            2         3            0.195170D+00
   ABAB           2    2    3    3      -0.198680D+00
   ABAB           2    2    3    6      -0.145259D+00
   ABAB           2    2    3    7       0.147917D+00
   ABAB           2    2    3   10      -0.103510D+00
   ABAB           2    2    6    3      -0.145259D+00
   ABAB           2    2    6    6      -0.107130D+00
   ABAB           2    2    6    7       0.111987D+00
   ABAB           2    2    7    3       0.147917D+00
   ABAB           2    2    7    6       0.111987D+00
   ABAB           2    2    7    7      -0.120412D+00
   ABAB           2    2   10    3      -0.103510D+00
 Largest amplitude= 1.99D-01
 Discarding MO integrals.
 Leave Link  913 at Mon Mar 28 14:00:26 2022, MaxMem=  9663676416 cpu:               4.4 elap:               0.2
 (Enter /nopt/nrel/apps/gaussian/g16C_1/g16/l601.exe)
 Copying SCF densities to generalized density rwf, IOpCl= 0 IROHF=0.

 **********************************************************************

            Population analysis using the SCF Density.

 **********************************************************************

 Orbital symmetries:
       Occupied  (SG) (SG)
       Virtual   (SG) (PI) (PI) (SG) (SG) (PI) (PI) (SG)
 The electronic state is 1-SG.
 Alpha  occ. eigenvalues --   -2.52214  -0.22621
 Alpha virt. eigenvalues --   -0.02331   0.03036   0.03036   0.14353   0.17719
 Alpha virt. eigenvalues --    0.18343   0.18343   0.22915
          Condensed to atoms (all electrons):
               1          2
     1  H    0.654583   0.236761
     2  Li   0.236761   2.871895
 Mulliken charges:
               1
     1  H    0.108656
     2  Li  -0.108656
 Sum of Mulliken charges =  -0.00000
 Mulliken charges with hydrogens summed into heavy atoms:
               1
     2  Li  -0.000000
 N-N= 5.121069783097D-01 E-N=-1.894322736239D+01  KE= 7.786049260711D+00
 Symmetry A1   KE= 7.786049260711D+00
 Symmetry A2   KE= 0.000000000000D+00
 Symmetry B1   KE= 0.000000000000D+00
 Symmetry B2   KE= 0.000000000000D+00

 Atomic contributions to Alpha molecular orbitals:
 Alpha occ 1 OE=-2.522 is Li2-s=1.0000
 Alpha occ 2 OE=-0.226 is H1-s=0.4457 Li2-s=0.3224 Li2-p=0.2319
 Alpha vir 3 OE=-0.023 is Li2-s=0.5751 Li2-p=0.3877
 Alpha vir 4 OE=0.030 is Li2-p=1.0000
 Alpha vir 5 OE=0.030 is Li2-p=1.0000
 Alpha vir 6 OE=0.144 is Li2-s=0.6357 Li2-p=0.2402 H1-s=0.1241
 Alpha vir 7 OE=0.177 is Li2-p=0.7980 H1-s=0.1647
 Alpha vir 8 OE=0.183 is Li2-p=1.0000
 Alpha vir 9 OE=0.183 is Li2-p=1.0000
 Alpha vir 10 OE=0.229 is Li2-s=0.4295 Li2-p=0.3422 H1-s=0.2283
 
 Leave Link  601 at Mon Mar 28 14:00:26 2022, MaxMem=  9663676416 cpu:               3.0 elap:               0.1
 (Enter /nopt/nrel/apps/gaussian/g16C_1/g16/l9999.exe)

 Test job not archived.
 1\1\GINC-R102U34\SP\RCCSD-FC\Gen\H1Li1\USER\28-Mar-2022\0\\#P CCSD
 (MaxCyc=200,SaveAmplitudes,ReadAmplitudes)/GEN sp pop=AllOrbitals iop(
 3/33=1,3/36=-1)\\test\\0,1\H,0,0.,0.,0.\Li,0,0.,0.,3.1\\Version=ES64L-
 G16RevC.01\State=1-SG\HF=-7.8148343\MP2=-7.8446285\MP3=-7.8590564\MP4D
 =-7.8668984\MP4DQ=-7.8656905\MP4SDQ=-7.8663063\CCSD=-7.8743351\RMSD=4.
 172e-09\PG=C*V [C*(H1Li1)]\\@


 IF MATHEMATICALLY YOU END UP WITH THE INCORRECT ANSWER,
 TRY MULTIPLYING BY THE PAGE NUMBER.
 Job cpu time:       0 days  0 hours  0 minutes 33.4 seconds.
 Elapsed time:       0 days  0 hours  0 minutes  1.3 seconds.
 File lengths (MBytes):  RWF=     13 Int=      0 D2E=      0 Chk=      1 Scr=      1
 Normal termination of Gaussian 16 at Mon Mar 28 14:00:26 2022.
