 Entering Gaussian System, Link 0=g16
 Initial command:
 /nopt/nrel/apps/gaussian/g16C_1/g16/l1.exe "/lustre/eaglefs/scratch/user/qc/nah-dissc/nah-3-ccsd-1.9-ccd/Gau-32380.inp" -scrdir="/lustre/eaglefs/scratch/user/qc/nah-dissc/nah-3-ccsd-1.9-ccd/"
 Default is to use a total of  36 processors:
                               36 via shared-memory
                                1 via Linda
 Entering Link 1 = /nopt/nrel/apps/gaussian/g16C_1/g16/l1.exe PID=     32381.
  
 Copyright (c) 1988-2019, Gaussian, Inc.  All Rights Reserved.
  
 This is part of the Gaussian(R) 16 program.  It is based on
 the Gaussian(R) 09 system (copyright 2009, Gaussian, Inc.),
 the Gaussian(R) 03 system (copyright 2003, Gaussian, Inc.),
 the Gaussian(R) 98 system (copyright 1998, Gaussian, Inc.),
 the Gaussian(R) 94 system (copyright 1995, Gaussian, Inc.),
 the Gaussian 92(TM) system (copyright 1992, Gaussian, Inc.),
 the Gaussian 90(TM) system (copyright 1990, Gaussian, Inc.),
 the Gaussian 88(TM) system (copyright 1988, Gaussian, Inc.),
 the Gaussian 86(TM) system (copyright 1986, Carnegie Mellon
 University), and the Gaussian 82(TM) system (copyright 1983,
 Carnegie Mellon University). Gaussian is a federally registered
 trademark of Gaussian, Inc.
  
 This software contains proprietary and confidential information,
 including trade secrets, belonging to Gaussian, Inc.
  
 This software is provided under written license and may be
 used, copied, transmitted, or stored only in accord with that
 written license.
  
 The following legend is applicable only to US Government
 contracts under FAR:
  
                    RESTRICTED RIGHTS LEGEND
  
 Use, reproduction and disclosure by the US Government is
 subject to restrictions as set forth in subparagraphs (a)
 and (c) of the Commercial Computer Software - Restricted
 Rights clause in FAR 52.227-19.
  
 Gaussian, Inc.
 340 Quinnipiac St., Bldg. 40, Wallingford CT 06492
  
  
 ---------------------------------------------------------------
 Warning -- This program may not be used in any manner that
 competes with the business of Gaussian, Inc. or will provide
 assistance to any competitor of Gaussian, Inc.  The licensee
 of this program is prohibited from giving any competitor of
 Gaussian, Inc. access to this program.  By using this program,
 the user acknowledges that Gaussian, Inc. is engaged in the
 business of creating and licensing software in the field of
 computational chemistry and represents and warrants to the
 licensee that it is not a competitor of Gaussian, Inc. and that
 it will not use this program in any manner prohibited above.
 ---------------------------------------------------------------
  

 Cite this work as:
 Gaussian 16, Revision C.01,
 M. J. Frisch, G. W. Trucks, H. B. Schlegel, G. E. Scuseria, 
 M. A. Robb, J. R. Cheeseman, G. Scalmani, V. Barone, 
 G. A. Petersson, H. Nakatsuji, X. Li, M. Caricato, A. V. Marenich, 
 J. Bloino, B. G. Janesko, R. Gomperts, B. Mennucci, H. P. Hratchian, 
 J. V. Ortiz, A. F. Izmaylov, J. L. Sonnenberg, D. Williams-Young, 
 F. Ding, F. Lipparini, F. Egidi, J. Goings, B. Peng, A. Petrone, 
 T. Henderson, D. Ranasinghe, V. G. Zakrzewski, J. Gao, N. Rega, 
 G. Zheng, W. Liang, M. Hada, M. Ehara, K. Toyota, R. Fukuda, 
 J. Hasegawa, M. Ishida, T. Nakajima, Y. Honda, O. Kitao, H. Nakai, 
 T. Vreven, K. Throssell, J. A. Montgomery, Jr., J. E. Peralta, 
 F. Ogliaro, M. J. Bearpark, J. J. Heyd, E. N. Brothers, K. N. Kudin, 
 V. N. Staroverov, T. A. Keith, R. Kobayashi, J. Normand, 
 K. Raghavachari, A. P. Rendell, J. C. Burant, S. S. Iyengar, 
 J. Tomasi, M. Cossi, J. M. Millam, M. Klene, C. Adamo, R. Cammi, 
 J. W. Ochterski, R. L. Martin, K. Morokuma, O. Farkas, 
 J. B. Foresman, and D. J. Fox, Gaussian, Inc., Wallingford CT, 2019.
 
 ******************************************
 Gaussian 16:  ES64L-G16RevC.01  3-Jul-2019
                28-Mar-2022 
 ******************************************
 %chk=molecule
 Default route: CacheSize=180224 MaxDisk=256GB
 ----------------------------------------------------------------------
 #P CCSD(MaxCyc=200,SaveAmplitudes,ReadAmplitudes)/GEN sp pop=AllOrbita
 ls iop(3/33=1,3/36=-1)
 ----------------------------------------------------------------------
 1/4=180224,38=1,172=1/1;
 2/4=180224,12=2,17=6,18=5,40=1/2;
 3/4=180224,5=7,11=9,25=1,30=1,33=1,36=-1/1,2,3;
 4/4=180224/1;
 5/4=180224,5=2,38=5/2;
 8/4=180224,6=4,9=120000,10=1,24=1/1,4;
 9/4=180224,5=7,6=200,77=1/13;
 6/4=180224,7=2,8=2,9=2,10=2,96=-1/1;
 99/4=180224,5=1,9=1/99;
 Leave Link    1 at Mon Mar 28 14:26:16 2022, MaxMem=           0 cpu:               2.5 elap:               0.1
 (Enter /nopt/nrel/apps/gaussian/g16C_1/g16/l101.exe)
 ----
 test
 ----
 Symbolic Z-matrix:
 Charge =  0 Multiplicity = 3
 H                     0.        0.        0. 
 Na                    0.        0.        1.9 
 
 ITRead=  0  0
 MicOpt= -1 -1
 NAtoms=      2 NQM=        2 NQMF=       0 NMMI=      0 NMMIF=      0
                NMic=       0 NMicF=      0.
                    Isotopes and Nuclear Properties:
 (Nuclear quadrupole moments (NQMom) in fm**2, nuclear magnetic moments (NMagM)
  in nuclear magnetons)

  Atom         1           2
 IAtWgt=           1          23
 AtmWgt=   1.0078250  22.9897697
 NucSpn=           1           3
 AtZEff=  -0.0000000  -0.0000000
 NQMom=    0.0000000  10.4000000
 NMagM=    2.7928460   2.2175200
 AtZNuc=   1.0000000  11.0000000
 Leave Link  101 at Mon Mar 28 14:26:17 2022, MaxMem=  9663676416 cpu:               2.8 elap:               0.1
 (Enter /nopt/nrel/apps/gaussian/g16C_1/g16/l202.exe)
                          Input orientation:                          
 ---------------------------------------------------------------------
 Center     Atomic      Atomic             Coordinates (Angstroms)
 Number     Number       Type             X           Y           Z
 ---------------------------------------------------------------------
      1          1           0        0.000000    0.000000    0.000000
      2         11           0        0.000000    0.000000    1.900000
 ---------------------------------------------------------------------
 Stoichiometry    HNa(3)
 Framework group  C*V[C*(HNa)]
 Deg. of freedom     1
 Full point group                 C*V     NOp   4
 Largest Abelian subgroup         C2V     NOp   4
 Largest concise Abelian subgroup C1      NOp   1
                         Standard orientation:                         
 ---------------------------------------------------------------------
 Center     Atomic      Atomic             Coordinates (Angstroms)
 Number     Number       Type             X           Y           Z
 ---------------------------------------------------------------------
      1          1           0        0.000000    0.000000   -1.741667
      2         11           0        0.000000    0.000000    0.158333
 ---------------------------------------------------------------------
 Rotational constants (GHZ):           0.0000000         144.9966434         144.9966434
 Leave Link  202 at Mon Mar 28 14:26:17 2022, MaxMem=  9663676416 cpu:               0.5 elap:               0.0
 (Enter /nopt/nrel/apps/gaussian/g16C_1/g16/l301.exe)
 General basis read from cards:  (5D, 7F)
                         Coordinates in L301:                         
 ---------------------------------------------------------------------
 Center     Atomic      Atomic             Coordinates (Angstroms)
 Number     Number       Type             X           Y           Z
 ---------------------------------------------------------------------
      1          1           0        0.000000    0.000000   -1.741667
      2         11           0        0.000000    0.000000    0.158333
 ---------------------------------------------------------------------
 Centers:       1
 STO-3G
 ****
 Centers:       2
 cc-pVDZ
 ****
 FixB: optimizing general contractions.
 Ernie: Thresh=  0.10000D-02 Tol=  0.10000D-05 Strict=F.
 IA=     1 ShT= 0 ShC= 0 NL=   1 NS=   0.
 IA=     1 L=0 SC=0 ISt=    0 NBk=    0 NP=    0 IndPr=    0.
 IA=     2 ShT= 0 ShC= 0 NL=   4 NS=   1.
 IA=     2 L=0 SC=0 ISt=    1 NBk=    3 NP=   11 IndPr=    0.
 DoElim1:  L=0 select primitive    2 from    2 using    1 C= 3.55D-03
 DoElim1:  L=0 select primitive    2 from    3 using    1 C= 3.55D-03
 DoElim1:  L=0 select primitive    5 from    3 using    2 C=-6.14D-03
 DoElim2:  L=0 select primitive   11 from    2 using    3 C= 6.58D-01
 DoElim2:  L=0 select primitive   11 from    1 using    3 C= 6.58D-01
 DoElim2:  L=0 select primitive    9 from    1 using    2 C= 6.03D-01
 Delete L=0 primitive    5 from    3 C=  6.52D-20.
 Delete L=0 primitive    2 from    3 C=  2.06D-20.
 Delete L=0 primitive    1 from    3 C=  1.41D-07.
 Delete L=0 primitive   11 from    2 C=  1.18D-19.
 Delete L=0 primitive    2 from    2 C=  4.53D-20.
 Delete L=0 primitive    1 from    2 C=  7.82D-08.
 Delete L=0 primitive   11 from    1 C=  5.55D-21.
 Delete L=0 primitive    9 from    1 C=  4.94D-19.
 IA=     2 L=0 SC=0 ISt=    0 NBk=    0 NP=    0 IndPr=   25.
 IA=     2 ShT= 1 ShC= 1 NL=   3 NS=   1.
 IA=     2 L=1 SC=1 ISt=    1 NBk=    2 NP=    7 IndPr=    0.
 DoElim1:  L=1 select primitive    1 from    2 using    1 C= 5.80D-03
 DoElim2:  L=1 select primitive    7 from    1 using    2 C= 4.35D-01
 Delete L=1 primitive    1 from    2 C=  1.56D-20.
 Delete L=1 primitive    7 from    1 C=  1.56D-19.
 IA=     2 L=1 SC=1 ISt=    0 NBk=    0 NP=    0 IndPr=   12.
 IA=     2 ShT= 2 ShC= 2 NL=   1 NS=   1.
 IA=     2 L=2 SC=2 ISt=    0 NBk=    0 NP=    0 IndPr=    0.
 Ernie:  10 primitive shells out of 53 were deleted.
 LdAtmC:  AtmChg=     1.000000    11.000000
 AtZEff=     -1.0000000    -10.0400000
 NEqShl: 
              1            2            3            4
     1            1            1            1            1
     2            2            2            2            2
     3            3            3            3            3
     4            4            4            4            4
     5            5            5            5            5
     6            6            6            6            6
     7            7            7            7            7
     8            8            8            8            8
     9            9            9            9            9
 NEqBas: 
              1            2            3            4
     1            1            1            1            1
     2            2            2            2            2
     3            3            3            3            3
     4            4            4            4            4
     5            5            5            5            5
     6            6           -6           -6            6
     7            7           -7            7           -7
     8            8            8            8            8
     9            9           -9           -9            9
    10           10          -10           10          -10
    11           11           11           11           11
    12           12          -12          -12           12
    13           13          -13           13          -13
    14           14           14           14           14
    15           15           15           15           15
    16           16           16           16           16
    17           17           17           17           17
    18           18           18          -18          -18
    19           19          -19          -19           19
    20           20          -20           20          -20
 There are    11 symmetry adapted cartesian basis functions of A1  symmetry.
   1         1   1   1   1
   2         2   2   2   2
   3         3   3   3   3
   4         4   4   4   4
   5         5   5   5   5
   6         8   8   8   8
   7        11  11  11  11
   8        14  14  14  14
   9        15  15  15  15
  10        16  16  16  16
  11        17  17  17  17
 There are     1 symmetry adapted cartesian basis functions of A2  symmetry.
  12        18  18  18  18
 There are     4 symmetry adapted cartesian basis functions of B1  symmetry.
  13         6   6   6   6
  14         9   9   9   9
  15        12  12  12  12
  16        19  19  19  19
 There are     4 symmetry adapted cartesian basis functions of B2  symmetry.
  17         7   7   7   7
  18        10  10  10  10
  19        13  13  13  13
  20        20  20  20  20
 Order= 1 2 4 3
 Reordered character table:
              1            2            3            4            5
     1            1            1            1            1            1
     2            2            1            1           -1           -1
     3            4            1           -1           -1            1
     4            3            1           -1            1           -1
 NEqShl: 
              1            2            3            4
     1            1            1            1            1
     2            2            2            2            2
     3            3            3            3            3
     4            4            4            4            4
     5            5            5            5            5
     6            6            6            6            6
     7            7            7            7            7
     8            8            8            8            8
     9            9            9            9            9
 NEqBas: 
              1            2            3            4
     1            1            1            1            1
     2            2            2            2            2
     3            3            3            3            3
     4            4            4            4            4
     5            5            5            5            5
     6            6           -6           -6            6
     7            7           -7            7           -7
     8            8            8            8            8
     9            9           -9           -9            9
    10           10          -10           10          -10
    11           11           11           11           11
    12           12          -12          -12           12
    13           13          -13           13          -13
    14           14           14           14           14
    15           15           15           15           15
    16           16          -16          -16           16
    17           17          -17           17          -17
    18           18           18           18           18
    19           19           19          -19          -19
 There are    10 symmetry adapted basis functions of A1  symmetry.
   1         1   1   1   1
   2         2   2   2   2
   3         3   3   3   3
   4         4   4   4   4
   5         5   5   5   5
   6         8   8   8   8
   7        11  11  11  11
   8        14  14  14  14
   9        15  15  15  15
  10        18  18  18  18
 There are     1 symmetry adapted basis functions of A2  symmetry.
  11        19  19  19  19
 There are     4 symmetry adapted basis functions of B1  symmetry.
  12         6   6   6   6
  13         9   9   9   9
  14        12  12  12  12
  15        16  16  16  16
 There are     4 symmetry adapted basis functions of B2  symmetry.
  16         7   7   7   7
  17        10  10  10  10
  18        13  13  13  13
  19        17  17  17  17
 Order= 1 2 4 3
 Reordered character table:
              1            2            3            4            5
     1            1            1            1            1            1
     2            2            1            1           -1           -1
     3            4            1           -1           -1            1
     4            3            1           -1            1           -1
    19 basis functions,    74 primitive gaussians,    20 cartesian basis functions
     7 alpha electrons        5 beta electrons
       nuclear repulsion energy         3.0636575369 Hartrees.
 IS=     1 IAt=     1 ISR=     1 T=0 IP=      1 IndIP=      1 IndIPD=      0 C=  2.769344D-01  0.000000D+00                             NZ=T
 IS=     1 IAt=     1 ISR=     1 T=0 IP=      2 IndIP=      2 IndIPD=      1 C=  2.678389D-01  0.000000D+00                             NZ=T
 IS=     1 IAt=     1 ISR=     1 T=0 IP=      3 IndIP=      3 IndIPD=      2 C=  8.347367D-02  0.000000D+00                             NZ=T
 IS=     2 IAt=     2 ISR=     1 T=0 IP=      1 IndIP=      4 IndIPD=      0 C=  7.749657D-01  0.000000D+00                             NZ=T
 IS=     2 IAt=     2 ISR=     1 T=0 IP=      2 IndIP=      5 IndIPD=      1 C=  1.445329D+00  0.000000D+00                             NZ=T
 IS=     2 IAt=     2 ISR=     1 T=0 IP=      3 IndIP=      6 IndIPD=      2 C=  2.449022D+00  0.000000D+00                             NZ=T
 IS=     2 IAt=     2 ISR=     1 T=0 IP=      4 IndIP=      7 IndIPD=      3 C=  3.730568D+00  0.000000D+00                             NZ=T
 IS=     2 IAt=     2 ISR=     1 T=0 IP=      5 IndIP=      8 IndIPD=      4 C=  4.755208D+00  0.000000D+00                             NZ=T
 IS=     2 IAt=     2 ISR=     1 T=0 IP=      6 IndIP=      9 IndIPD=      5 C=  4.291841D+00  0.000000D+00                             NZ=T
 IS=     2 IAt=     2 ISR=     1 T=0 IP=      7 IndIP=     10 IndIPD=      6 C=  1.841498D+00  0.000000D+00                             NZ=T
 IS=     2 IAt=     2 ISR=     1 T=0 IP=      8 IndIP=     11 IndIPD=      7 C=  1.370586D-01  0.000000D+00                             NZ=T
 IS=     2 IAt=     2 ISR=     1 T=0 IP=      9 IndIP=     12 IndIPD=      8 C=  3.324917D-03  0.000000D+00                             NZ=T
 IS=     3 IAt=     2 ISR=     2 T=0 IP=      1 IndIP=     13 IndIPD=      0 C= -6.085686D-03  0.000000D+00                             NZ=T
 IS=     3 IAt=     2 ISR=     2 T=0 IP=      2 IndIP=     14 IndIPD=      1 C= -3.114138D-02  0.000000D+00                             NZ=T
 IS=     3 IAt=     2 ISR=     2 T=0 IP=      3 IndIP=     15 IndIPD=      2 C= -1.340760D-01  0.000000D+00                             NZ=T
 IS=     3 IAt=     2 ISR=     2 T=0 IP=      4 IndIP=     16 IndIPD=      3 C= -3.604805D-01  0.000000D+00                             NZ=T
 IS=     3 IAt=     2 ISR=     2 T=0 IP=      5 IndIP=     17 IndIPD=      4 C= -4.954545D-01  0.000000D+00                             NZ=T
 IS=     3 IAt=     2 ISR=     2 T=0 IP=      6 IndIP=     18 IndIPD=      5 C=  2.126614D-01  0.000000D+00                             NZ=T
 IS=     3 IAt=     2 ISR=     2 T=0 IP=      7 IndIP=     19 IndIPD=      6 C=  6.152727D-01  0.000000D+00                             NZ=T
 IS=     3 IAt=     2 ISR=     2 T=0 IP=      8 IndIP=     20 IndIPD=      7 C=  2.071440D-01  0.000000D+00                             NZ=T
 IS=     4 IAt=     2 ISR=     3 T=0 IP=      1 IndIP=     21 IndIPD=      0 C=  1.521098D-03  0.000000D+00                             NZ=T
 IS=     4 IAt=     2 ISR=     3 T=0 IP=      2 IndIP=     22 IndIPD=      1 C= -2.379509D-03  0.000000D+00                             NZ=T
 IS=     4 IAt=     2 ISR=     3 T=0 IP=      3 IndIP=     23 IndIPD=      2 C= -1.988937D-02  0.000000D+00                             NZ=T
 IS=     4 IAt=     2 ISR=     3 T=0 IP=      4 IndIP=     24 IndIPD=      3 C= -6.775799D-03  0.000000D+00                             NZ=T
 IS=     4 IAt=     2 ISR=     3 T=0 IP=      5 IndIP=     25 IndIPD=      4 C= -9.360493D-03  0.000000D+00                             NZ=T
 IS=     4 IAt=     2 ISR=     3 T=0 IP=      6 IndIP=     26 IndIPD=      5 C=  1.615288D-02  0.000000D+00                             NZ=T
 IS=     4 IAt=     2 ISR=     3 T=0 IP=      7 IndIP=     27 IndIPD=      6 C= -9.059148D-02  0.000000D+00                             NZ=T
 IS=     4 IAt=     2 ISR=     3 T=0 IP=      8 IndIP=     28 IndIPD=      7 C=  8.779692D-02  0.000000D+00                             NZ=T
 IS=     5 IAt=     2 ISR=     4 T=0 IP=      1 IndIP=     29 IndIPD=      0 C=  4.218867D-02  0.000000D+00                             NZ=T
 IS=     6 IAt=     2 ISR=     5 T=1 IP=      1 IndIP=     30 IndIPD=      0 C=  0.000000D+00  3.916140D+00                             NZ=T
 IS=     6 IAt=     2 ISR=     5 T=1 IP=      2 IndIP=     31 IndIPD=      1 C=  0.000000D+00  4.557958D+00                             NZ=T
 IS=     6 IAt=     2 ISR=     5 T=1 IP=      3 IndIP=     32 IndIPD=      2 C=  0.000000D+00  4.125852D+00                             NZ=T
 IS=     6 IAt=     2 ISR=     5 T=1 IP=      4 IndIP=     33 IndIPD=      3 C=  0.000000D+00  2.441280D+00                             NZ=T
 IS=     6 IAt=     2 ISR=     5 T=1 IP=      5 IndIP=     34 IndIPD=      4 C=  0.000000D+00  8.329269D-01                             NZ=T
 IS=     6 IAt=     2 ISR=     5 T=1 IP=      6 IndIP=     35 IndIPD=      5 C=  0.000000D+00  1.089733D-01                             NZ=T
 IS=     7 IAt=     2 ISR=     6 T=1 IP=      1 IndIP=     36 IndIPD=      0 C=  0.000000D+00  2.457740D-02                             NZ=T
 IS=     7 IAt=     2 ISR=     6 T=1 IP=      2 IndIP=     37 IndIPD=      1 C=  0.000000D+00 -2.625009D-02                             NZ=T
 IS=     7 IAt=     2 ISR=     6 T=1 IP=      3 IndIP=     38 IndIPD=      2 C=  0.000000D+00  1.134429D-02                             NZ=T
 IS=     7 IAt=     2 ISR=     6 T=1 IP=      4 IndIP=     39 IndIPD=      3 C=  0.000000D+00 -2.983152D-02                             NZ=T
 IS=     7 IAt=     2 ISR=     6 T=1 IP=      5 IndIP=     40 IndIPD=      4 C=  0.000000D+00  6.561456D-03                             NZ=T
 IS=     7 IAt=     2 ISR=     6 T=1 IP=      6 IndIP=     41 IndIPD=      5 C=  0.000000D+00  4.674178D-02                             NZ=T
 IS=     8 IAt=     2 ISR=     7 T=1 IP=      1 IndIP=     42 IndIPD=      0 C=  0.000000D+00  1.107711D-02                             NZ=T
 IS=     9 IAt=     2 ISR=     8 T=2 IP=      1 IndIP=     43 IndIPD=      1 C=  0.000000D+00  0.000000D+00  2.790017D-02  0.000000D+00 NZ=T
 IExCor=    0 DFT=F Ex=HF Corr=None ExCW=0 ScaHFX=  1.000000
 ScaDFX=  1.000000  1.000000  1.000000  1.000000 ScalE2=  1.000000  1.000000
 IRadAn=      5 IRanWt=     -1 IRanGd=            0 ICorTp=0 IEmpDi=  4
 NAtoms=    2 NActive=    2 NUniq=    2 SFac= 1.00D+00 NAtFMM=   60 NAOKFM=F Big=F
 Integral buffers will be    131072 words long.
 Raffenetti 2 integral format.
 Two-electron integral symmetry is turned on.
 Leave Link  301 at Mon Mar 28 14:26:17 2022, MaxMem=  9663676416 cpu:               2.2 elap:               0.1
 (Enter /nopt/nrel/apps/gaussian/g16C_1/g16/l302.exe)
 NPDir=0 NMtPBC=     1 NCelOv=     1 NCel=       1 NClECP=     1 NCelD=      1
         NCelK=      1 NCelE2=     1 NClLst=     1 CellRange=     0.0.
 One-electron integrals computed using PRISM.
 One-electron integral symmetry used in STVInt
 Entering OneElI...
 Calculate overlap and kinetic energy integrals
    NBasis =  19  MinDer = 0  MaxDer = 0
 Requested accuracy = 0.1000D-12
 Symmetry will be used
 PrmmSu-InSpLW:  IPartL=    0 NPrtUS=   36 NPrtUL=    1 DoSpLW=F IThBeg=    0 IThEnd=   35 NThAct=   36.
 PrSmSu:  IncTry=   512 NBBP=             45 NTPThr=   100 NPartT=   36 Incr=           1 LDynOK=F GPUOK=F.
 PrsmSu:  NPrtUS=  36 ThrOK=T IAlg=1 LenDen=           0 ISkipM=0 DoSpLW=F IThBeg=    0 IThEnd=   35.
 Prism:   IPart=     0 DynPar=F LinDyn=F Incr=           1.
 PRISM was handed   268425507 working-precision words and    45 shell-pairs
 PRISM was handed   268425507 working-precision words and    45 shell-pairs
 PRISM was handed   268425507 working-precision words and    45 shell-pairs
 PRISM was handed   268425507 working-precision words and    45 shell-pairs
 PRISM was handed   268425507 working-precision words and    45 shell-pairs
 PRISM was handed   268425507 working-precision words and    45 shell-pairs
 PRISM was handed   268425507 working-precision words and    45 shell-pairs
 PRISM was handed   268425507 working-precision words and    45 shell-pairs
 PRISM was handed   268425507 working-precision words and    45 shell-pairs
 PRISM was handed   268425507 working-precision words and    45 shell-pairs
 PRISM was handed   268425507 working-precision words and    45 shell-pairs
 PRISM was handed   268425507 working-precision words and    45 shell-pairs
 PRISM was handed   268425507 working-precision words and    45 shell-pairs
 PRISM was handed   268425507 working-precision words and    45 shell-pairs
 PRISM was handed   268425507 working-precision words and    45 shell-pairs
 PRISM was handed   268425507 working-precision words and    45 shell-pairs
 IPart=  8 NShTot=           0 NBatch=           0 AvBLen=         0.0
 IPart= 24 NShTot=           0 NBatch=           0 AvBLen=         0.0
 IPart= 34 NShTot=           0 NBatch=           0 AvBLen=         0.0
 IPart= 16 NShTot=           0 NBatch=           0 AvBLen=         0.0
 IPart= 25 NShTot=           0 NBatch=           0 AvBLen=         0.0
 PRISM was handed   268425507 working-precision words and    45 shell-pairs
 IPart=  7 NShTot=           0 NBatch=           0 AvBLen=         0.0
 PRISM was handed   268425507 working-precision words and    45 shell-pairs
 IPart= 19 NShTot=           0 NBatch=           0 AvBLen=         0.0
 PRISM was handed   268425507 working-precision words and    45 shell-pairs
 IPart= 31 NShTot=           0 NBatch=           0 AvBLen=         0.0
 IPart= 29 NShTot=           0 NBatch=           0 AvBLen=         0.0
 IPart= 10 NShTot=           0 NBatch=           0 AvBLen=         0.0
 IPart= 21 NShTot=           0 NBatch=           0 AvBLen=         0.0
 PRISM was handed   268425507 working-precision words and    45 shell-pairs
 PRISM was handed   268425507 working-precision words and    45 shell-pairs
 IPart= 15 NShTot=           0 NBatch=           0 AvBLen=         0.0
 IPart= 32 NShTot=           0 NBatch=           0 AvBLen=         0.0
 PRISM was handed   268425507 working-precision words and    45 shell-pairs
 IPart= 20 NShTot=           0 NBatch=           0 AvBLen=         0.0
 IPart=  9 NShTot=           0 NBatch=           0 AvBLen=         0.0
 IPart= 13 NShTot=           0 NBatch=           0 AvBLen=         0.0
 IPart= 30 NShTot=           0 NBatch=           0 AvBLen=         0.0
 IPart=  4 NShTot=           0 NBatch=           0 AvBLen=         0.0
 PRISM was handed   268425507 working-precision words and    45 shell-pairs
 IPart=  3 NShTot=           1 NBatch=           1 AvBLen=         1.0
 PRISM was handed   268425507 working-precision words and    45 shell-pairs
 PRISM was handed   268425507 working-precision words and    45 shell-pairs
 IPart=  1 NShTot=          14 NBatch=          14 AvBLen=         1.0
 PRISM was handed   268425507 working-precision words and    45 shell-pairs
 PRISM was handed   268425507 working-precision words and    45 shell-pairs
 IPart=  5 NShTot=           0 NBatch=           0 AvBLen=         0.0
 PRISM was handed   268425507 working-precision words and    45 shell-pairs
 IPart= 26 NShTot=           0 NBatch=           0 AvBLen=         0.0
 PRISM was handed   268425507 working-precision words and    45 shell-pairs
 IPart= 12 NShTot=           0 NBatch=           0 AvBLen=         0.0
 IPart=  2 NShTot=           3 NBatch=           3 AvBLen=         1.0
 IPart= 27 NShTot=           0 NBatch=           0 AvBLen=         0.0
 IPart= 14 NShTot=           0 NBatch=           0 AvBLen=         0.0
 PRISM was handed   268425507 working-precision words and    45 shell-pairs
 PRISM was handed   268425507 working-precision words and    45 shell-pairs
 PRISM was handed   268425507 working-precision words and    45 shell-pairs
 IPart= 28 NShTot=           0 NBatch=           0 AvBLen=         0.0
 IPart= 18 NShTot=           0 NBatch=           0 AvBLen=         0.0
 PRISM was handed   268425507 working-precision words and    45 shell-pairs
 PRISM was handed   268425507 working-precision words and    45 shell-pairs
 PRISM was handed   268425507 working-precision words and    45 shell-pairs
 PRISM was handed   268425507 working-precision words and    45 shell-pairs
 IPart= 11 NShTot=           0 NBatch=           0 AvBLen=         0.0
 IPart= 23 NShTot=           0 NBatch=           0 AvBLen=         0.0
 IPart= 33 NShTot=           0 NBatch=           0 AvBLen=         0.0
 IPart=  0 NShTot=          27 NBatch=          27 AvBLen=         1.0
 IPart=  6 NShTot=           0 NBatch=           0 AvBLen=         0.0
 IPart= 17 NShTot=           0 NBatch=           0 AvBLen=         0.0
 IPart= 35 NShTot=           0 NBatch=           0 AvBLen=         0.0
 IPart= 22 NShTot=           0 NBatch=           0 AvBLen=         0.0
 PrSmSu:  NxtVal=             37.
 *** Overlap *** 
                1             2             3             4             5 
      1  0.100000D+01
      2  0.475308D-02  0.100000D+01
      3  0.487734D-01  0.247971D+00  0.100000D+01
      4  0.337854D+00  0.318917D-02  0.166761D+00  0.100000D+01
      5  0.277851D+00  0.200816D-01  0.169469D+00  0.877618D+00  0.100000D+01
      6  0.000000D+00  0.000000D+00  0.000000D+00  0.000000D+00  0.000000D+00
      7  0.000000D+00  0.000000D+00  0.000000D+00  0.000000D+00  0.000000D+00
      8 -0.602758D-01  0.000000D+00  0.000000D+00  0.000000D+00  0.000000D+00
      9  0.000000D+00  0.000000D+00  0.000000D+00  0.000000D+00  0.000000D+00
     10  0.000000D+00  0.000000D+00  0.000000D+00  0.000000D+00  0.000000D+00
     11 -0.475386D+00  0.000000D+00  0.000000D+00  0.000000D+00  0.000000D+00
     12  0.000000D+00  0.000000D+00  0.000000D+00  0.000000D+00  0.000000D+00
     13  0.000000D+00  0.000000D+00  0.000000D+00  0.000000D+00  0.000000D+00
     14 -0.251190D+00  0.000000D+00  0.000000D+00  0.000000D+00  0.000000D+00
     15  0.465998D+00  0.000000D+00  0.000000D+00  0.000000D+00  0.000000D+00
     16  0.000000D+00  0.000000D+00  0.000000D+00  0.000000D+00  0.000000D+00
     17  0.000000D+00  0.000000D+00  0.000000D+00  0.000000D+00  0.000000D+00
     18  0.000000D+00  0.000000D+00  0.000000D+00  0.000000D+00  0.000000D+00
     19  0.000000D+00  0.000000D+00  0.000000D+00  0.000000D+00  0.000000D+00
                6             7             8             9            10 
      6  0.100000D+01
      7  0.000000D+00  0.100000D+01
      8  0.000000D+00  0.000000D+00  0.100000D+01
      9  0.154548D+00  0.000000D+00  0.000000D+00  0.100000D+01
     10  0.000000D+00  0.154548D+00  0.000000D+00  0.000000D+00  0.100000D+01
     11  0.000000D+00  0.000000D+00  0.154548D+00  0.000000D+00  0.000000D+00
     12  0.447959D-01  0.000000D+00  0.000000D+00  0.672325D+00  0.000000D+00
     13  0.000000D+00  0.447959D-01  0.000000D+00  0.000000D+00  0.672325D+00
     14  0.000000D+00  0.000000D+00  0.447959D-01  0.000000D+00  0.000000D+00
     15  0.000000D+00  0.000000D+00  0.000000D+00  0.000000D+00  0.000000D+00
     16  0.000000D+00  0.000000D+00  0.000000D+00  0.000000D+00  0.000000D+00
     17  0.000000D+00  0.000000D+00  0.000000D+00  0.000000D+00  0.000000D+00
     18  0.000000D+00  0.000000D+00  0.000000D+00  0.000000D+00  0.000000D+00
     19  0.000000D+00  0.000000D+00  0.000000D+00  0.000000D+00  0.000000D+00
               11            12            13            14            15 
     11  0.100000D+01
     12  0.000000D+00  0.100000D+01
     13  0.000000D+00  0.000000D+00  0.100000D+01
     14  0.672325D+00  0.000000D+00  0.000000D+00  0.100000D+01
     15  0.000000D+00  0.000000D+00  0.000000D+00  0.000000D+00  0.100000D+01
     16  0.000000D+00  0.000000D+00  0.000000D+00  0.000000D+00  0.000000D+00
     17  0.000000D+00  0.000000D+00  0.000000D+00  0.000000D+00  0.000000D+00
     18  0.000000D+00  0.000000D+00  0.000000D+00  0.000000D+00  0.000000D+00
     19  0.000000D+00  0.000000D+00  0.000000D+00  0.000000D+00  0.000000D+00
               16            17            18            19 
     16  0.100000D+01
     17  0.000000D+00  0.100000D+01
     18  0.000000D+00  0.000000D+00  0.100000D+01
     19  0.000000D+00  0.000000D+00  0.000000D+00  0.100000D+01
 *** Kinetic Energy *** 
                1             2             3             4             5 
      1  0.760032D+00
      2 -0.142009D-02  0.559245D+02
      3 -0.139273D-01 -0.270711D+01  0.198850D+01
      4  0.326600D-01 -0.186861D+00 -0.113978D+00  0.981361D-01
      5  0.143415D-01  0.138303D-02  0.114008D-01  0.423571D-01  0.346050D-01
      6  0.000000D+00  0.000000D+00  0.000000D+00  0.000000D+00  0.000000D+00
      7  0.000000D+00  0.000000D+00  0.000000D+00  0.000000D+00  0.000000D+00
      8  0.505431D-02  0.000000D+00  0.000000D+00  0.000000D+00  0.000000D+00
      9  0.000000D+00  0.000000D+00  0.000000D+00  0.000000D+00  0.000000D+00
     10  0.000000D+00  0.000000D+00  0.000000D+00  0.000000D+00  0.000000D+00
     11 -0.901290D-01  0.000000D+00  0.000000D+00  0.000000D+00  0.000000D+00
     12  0.000000D+00  0.000000D+00  0.000000D+00  0.000000D+00  0.000000D+00
     13  0.000000D+00  0.000000D+00  0.000000D+00  0.000000D+00  0.000000D+00
     14 -0.214233D-01  0.000000D+00  0.000000D+00  0.000000D+00  0.000000D+00
     15  0.173959D+00  0.000000D+00  0.000000D+00  0.000000D+00  0.000000D+00
     16  0.000000D+00  0.000000D+00  0.000000D+00  0.000000D+00  0.000000D+00
     17  0.000000D+00  0.000000D+00  0.000000D+00  0.000000D+00  0.000000D+00
     18  0.000000D+00  0.000000D+00  0.000000D+00  0.000000D+00  0.000000D+00
     19  0.000000D+00  0.000000D+00  0.000000D+00  0.000000D+00  0.000000D+00
                6             7             8             9            10 
      6  0.590429D+01
      7  0.000000D+00  0.590429D+01
      8  0.000000D+00  0.000000D+00  0.590429D+01
      9  0.132596D-01  0.000000D+00  0.000000D+00  0.163902D+00
     10  0.000000D+00  0.132596D-01  0.000000D+00  0.000000D+00  0.163902D+00
     11  0.000000D+00  0.000000D+00  0.132596D-01  0.000000D+00  0.000000D+00
     12  0.444443D-02  0.000000D+00  0.000000D+00  0.524934D-01  0.000000D+00
     13  0.000000D+00  0.444443D-02  0.000000D+00  0.000000D+00  0.524934D-01
     14  0.000000D+00  0.000000D+00  0.444443D-02  0.000000D+00  0.000000D+00
     15  0.000000D+00  0.000000D+00  0.000000D+00  0.000000D+00  0.000000D+00
     16  0.000000D+00  0.000000D+00  0.000000D+00  0.000000D+00  0.000000D+00
     17  0.000000D+00  0.000000D+00  0.000000D+00  0.000000D+00  0.000000D+00
     18  0.000000D+00  0.000000D+00  0.000000D+00  0.000000D+00  0.000000D+00
     19  0.000000D+00  0.000000D+00  0.000000D+00  0.000000D+00  0.000000D+00
               11            12            13            14            15 
     11  0.163902D+00
     12  0.000000D+00  0.513250D-01
     13  0.000000D+00  0.000000D+00  0.513250D-01
     14  0.524934D-01  0.000000D+00  0.000000D+00  0.513250D-01
     15  0.000000D+00  0.000000D+00  0.000000D+00  0.000000D+00  0.340550D+00
     16  0.000000D+00  0.000000D+00  0.000000D+00  0.000000D+00  0.000000D+00
     17  0.000000D+00  0.000000D+00  0.000000D+00  0.000000D+00  0.000000D+00
     18  0.000000D+00  0.000000D+00  0.000000D+00  0.000000D+00  0.000000D+00
     19  0.000000D+00  0.000000D+00  0.000000D+00  0.000000D+00  0.000000D+00
               16            17            18            19 
     16  0.340550D+00
     17  0.000000D+00  0.340550D+00
     18  0.000000D+00  0.000000D+00  0.340550D+00
     19  0.000000D+00  0.000000D+00  0.000000D+00  0.340550D+00
 Entering OneElI...
 Calculate potential energy integrals
    NBasis =  19  MinDer = 0  MaxDer = 0
 Requested accuracy = 0.1000D-12
 Symmetry will be used
 PrmmSu-InSpLW:  IPartL=    0 NPrtUS=   36 NPrtUL=    1 DoSpLW=F IThBeg=    0 IThEnd=   35 NThAct=   36.
 PrSmSu:  IncTry=   512 NBBP=             90 NTPThr=   100 NPartT=   36 Incr=           1 LDynOK=F GPUOK=F.
 PrsmSu:  NPrtUS=  36 ThrOK=T IAlg=1 LenDen=           0 ISkipM=0 DoSpLW=F IThBeg=    0 IThEnd=   35.
 Prism:   IPart=     0 DynPar=F LinDyn=F Incr=           1.
 PRISM was handed   268425871 working-precision words and    45 shell-pairs
 PRISM was handed   268425871 working-precision words and    45 shell-pairs
 PRISM was handed   268425871 working-precision words and    45 shell-pairs
 PRISM was handed   268425871 working-precision words and    45 shell-pairs
 PRISM was handed   268425871 working-precision words and    45 shell-pairs
 PRISM was handed   268425871 working-precision words and    45 shell-pairs
 PRISM was handed   268425871 working-precision words and    45 shell-pairs
 PRISM was handed   268425871 working-precision words and    45 shell-pairs
 PRISM was handed   268425871 working-precision words and    45 shell-pairs
 PRISM was handed   268425871 working-precision words and    45 shell-pairs
 PRISM was handed   268425871 working-precision words and    45 shell-pairs
 PRISM was handed   268425871 working-precision words and    45 shell-pairs
 PRISM was handed   268425871 working-precision words and    45 shell-pairs
 PRISM was handed   268425871 working-precision words and    45 shell-pairs
 PRISM was handed   268425871 working-precision words and    45 shell-pairs
 PRISM was handed   268425871 working-precision words and    45 shell-pairs
 PRISM was handed   268425871 working-precision words and    45 shell-pairs
 PRISM was handed   268425871 working-precision words and    45 shell-pairs
 PRISM was handed   268425871 working-precision words and    45 shell-pairs
 PRISM was handed   268425871 working-precision words and    45 shell-pairs
 PRISM was handed   268425871 working-precision words and    45 shell-pairs
 PRISM was handed   268425871 working-precision words and    45 shell-pairs
 PRISM was handed   268425871 working-precision words and    45 shell-pairs
 PRISM was handed   268425871 working-precision words and    45 shell-pairs
 PRISM was handed   268425871 working-precision words and    45 shell-pairs
 PRISM was handed   268425871 working-precision words and    45 shell-pairs
 PRISM was handed   268425871 working-precision words and    45 shell-pairs
 PRISM was handed   268425871 working-precision words and    45 shell-pairs
 PRISM was handed   268425871 working-precision words and    45 shell-pairs
 PRISM was handed   268425871 working-precision words and    45 shell-pairs
 PRISM was handed   268425871 working-precision words and    45 shell-pairs
 PRISM was handed   268425871 working-precision words and    45 shell-pairs
 PRISM was handed   268425871 working-precision words and    45 shell-pairs
 PRISM was handed   268425871 working-precision words and    45 shell-pairs
 PRISM was handed   268425871 working-precision words and    45 shell-pairs
 PRISM was handed   268425871 working-precision words and    45 shell-pairs
 IPart= 11 NShTot=           0 NBatch=           0 AvBLen=         0.0
 IPart= 22 NShTot=           0 NBatch=           0 AvBLen=         0.0
 IPart=  8 NShTot=           0 NBatch=           0 AvBLen=         0.0
 IPart= 27 NShTot=           0 NBatch=           0 AvBLen=         0.0
 IPart= 14 NShTot=           0 NBatch=           0 AvBLen=         0.0
 IPart= 10 NShTot=           0 NBatch=           0 AvBLen=         0.0
 IPart= 20 NShTot=           0 NBatch=           0 AvBLen=         0.0
 IPart= 24 NShTot=           0 NBatch=           0 AvBLen=         0.0
 IPart= 25 NShTot=           0 NBatch=           0 AvBLen=         0.0
 IPart= 33 NShTot=           0 NBatch=           0 AvBLen=         0.0
 IPart= 29 NShTot=           0 NBatch=           0 AvBLen=         0.0
 IPart= 35 NShTot=           0 NBatch=           0 AvBLen=         0.0
 IPart= 12 NShTot=           0 NBatch=           0 AvBLen=         0.0
 IPart= 32 NShTot=           0 NBatch=           0 AvBLen=         0.0
 IPart=  7 NShTot=           0 NBatch=           0 AvBLen=         0.0
 IPart= 15 NShTot=           0 NBatch=           0 AvBLen=         0.0
 IPart= 31 NShTot=           0 NBatch=           0 AvBLen=         0.0
 IPart=  6 NShTot=           0 NBatch=           0 AvBLen=         0.0
 IPart=  4 NShTot=           0 NBatch=           0 AvBLen=         0.0
 IPart= 17 NShTot=           0 NBatch=           0 AvBLen=         0.0
 IPart= 21 NShTot=           0 NBatch=           0 AvBLen=         0.0
 IPart= 34 NShTot=           0 NBatch=           0 AvBLen=         0.0
 IPart=  5 NShTot=           0 NBatch=           0 AvBLen=         0.0
 IPart= 13 NShTot=           0 NBatch=           0 AvBLen=         0.0
 IPart= 16 NShTot=           0 NBatch=           0 AvBLen=         0.0
 IPart= 26 NShTot=           0 NBatch=           0 AvBLen=         0.0
 IPart= 19 NShTot=           0 NBatch=           0 AvBLen=         0.0
 IPart= 23 NShTot=           0 NBatch=           0 AvBLen=         0.0
 IPart= 18 NShTot=           0 NBatch=           0 AvBLen=         0.0
 IPart= 30 NShTot=           0 NBatch=           0 AvBLen=         0.0
 IPart=  9 NShTot=           0 NBatch=           0 AvBLen=         0.0
 IPart= 28 NShTot=           0 NBatch=           0 AvBLen=         0.0
 IPart=  3 NShTot=           2 NBatch=           1 AvBLen=         2.0
 IPart=  2 NShTot=           6 NBatch=           3 AvBLen=         2.0
 IPart=  1 NShTot=          26 NBatch=          13 AvBLen=         2.0
 IPart=  0 NShTot=          56 NBatch=          28 AvBLen=         2.0
 PrSmSu:  NxtVal=             37.
 ***** Potential Energy ***** 
                1             2             3             4             5 
      1  0.428834D+01
      2  0.240588D+00  0.116580D+03
      3  0.553195D+00  0.108152D+02  0.181196D+02
      4  0.139268D+01 -0.127108D+00  0.154843D+01  0.377596D+01
      5  0.109095D+01  0.105040D+01  0.208821D+01  0.301353D+01  0.286797D+01
      6  0.000000D+00  0.000000D+00  0.000000D+00  0.000000D+00  0.000000D+00
      7  0.000000D+00  0.000000D+00  0.000000D+00  0.000000D+00  0.000000D+00
      8 -0.462493D+00 -0.417481D-02 -0.344375D-01 -0.168327D-01 -0.130223D-01
      9  0.000000D+00  0.000000D+00  0.000000D+00  0.000000D+00  0.000000D+00
     10  0.000000D+00  0.000000D+00  0.000000D+00  0.000000D+00  0.000000D+00
     11 -0.184222D+01 -0.144562D-03 -0.751052D-02 -0.106083D+00 -0.892511D-01
     12  0.000000D+00  0.000000D+00  0.000000D+00  0.000000D+00  0.000000D+00
     13  0.000000D+00  0.000000D+00  0.000000D+00  0.000000D+00  0.000000D+00
     14 -0.865286D+00 -0.437116D-04 -0.211004D-02 -0.535365D-01 -0.581645D-01
     15  0.181741D+01  0.335339D-04  0.215287D-02  0.682812D-01  0.554577D-01
     16  0.000000D+00  0.000000D+00  0.000000D+00  0.000000D+00  0.000000D+00
     17  0.000000D+00  0.000000D+00  0.000000D+00  0.000000D+00  0.000000D+00
     18  0.000000D+00  0.000000D+00  0.000000D+00  0.000000D+00  0.000000D+00
     19  0.000000D+00  0.000000D+00  0.000000D+00  0.000000D+00  0.000000D+00
                6             7             8             9            10 
      6  0.189600D+02
      7  0.000000D+00  0.189600D+02
      8  0.000000D+00  0.000000D+00  0.189706D+02
      9  0.122776D+01  0.000000D+00  0.000000D+00  0.319691D+01
     10  0.000000D+00  0.122776D+01  0.000000D+00  0.000000D+00  0.319691D+01
     11  0.000000D+00  0.000000D+00  0.123505D+01  0.000000D+00  0.000000D+00
     12  0.354618D+00  0.000000D+00  0.000000D+00  0.175148D+01  0.000000D+00
     13  0.000000D+00  0.354618D+00  0.000000D+00  0.000000D+00  0.175148D+01
     14  0.000000D+00  0.000000D+00  0.356894D+00  0.000000D+00  0.000000D+00
     15  0.000000D+00  0.000000D+00 -0.110126D-01  0.000000D+00  0.000000D+00
     16 -0.611100D-02  0.000000D+00  0.000000D+00 -0.589963D-01  0.000000D+00
     17  0.000000D+00 -0.611100D-02  0.000000D+00  0.000000D+00 -0.589963D-01
     18  0.000000D+00  0.000000D+00  0.000000D+00  0.000000D+00  0.000000D+00
     19  0.000000D+00  0.000000D+00  0.000000D+00  0.000000D+00  0.000000D+00
               11            12            13            14            15 
     11  0.328525D+01
     12  0.000000D+00  0.181470D+01
     13  0.000000D+00  0.000000D+00  0.181470D+01
     14  0.179739D+01  0.000000D+00  0.000000D+00  0.184809D+01
     15 -0.139024D+00  0.000000D+00  0.000000D+00 -0.718835D-01  0.323834D+01
     16  0.000000D+00 -0.321310D-01  0.000000D+00  0.000000D+00  0.000000D+00
     17  0.000000D+00  0.000000D+00 -0.321310D-01  0.000000D+00  0.000000D+00
     18  0.000000D+00  0.000000D+00  0.000000D+00  0.000000D+00  0.000000D+00
     19  0.000000D+00  0.000000D+00  0.000000D+00  0.000000D+00  0.000000D+00
               16            17            18            19 
     16  0.315997D+01
     17  0.000000D+00  0.315997D+01
     18  0.000000D+00  0.000000D+00  0.311913D+01
     19  0.000000D+00  0.000000D+00  0.000000D+00  0.311913D+01
 ****** Core Hamiltonian ****** 
                1             2             3             4             5 
      1 -0.352831D+01
      2 -0.242008D+00 -0.606559D+02
      3 -0.567122D+00 -0.135223D+02 -0.161311D+02
      4 -0.136002D+01 -0.597527D-01 -0.166241D+01 -0.367782D+01
      5 -0.107661D+01 -0.104902D+01 -0.207680D+01 -0.297117D+01 -0.283337D+01
      6  0.000000D+00  0.000000D+00  0.000000D+00  0.000000D+00  0.000000D+00
      7  0.000000D+00  0.000000D+00  0.000000D+00  0.000000D+00  0.000000D+00
      8  0.467547D+00  0.417481D-02  0.344375D-01  0.168327D-01  0.130223D-01
      9  0.000000D+00  0.000000D+00  0.000000D+00  0.000000D+00  0.000000D+00
     10  0.000000D+00  0.000000D+00  0.000000D+00  0.000000D+00  0.000000D+00
     11  0.175209D+01  0.144562D-03  0.751052D-02  0.106083D+00  0.892511D-01
     12  0.000000D+00  0.000000D+00  0.000000D+00  0.000000D+00  0.000000D+00
     13  0.000000D+00  0.000000D+00  0.000000D+00  0.000000D+00  0.000000D+00
     14  0.843863D+00  0.437116D-04  0.211004D-02  0.535365D-01  0.581645D-01
     15 -0.164345D+01 -0.335339D-04 -0.215287D-02 -0.682812D-01 -0.554577D-01
     16  0.000000D+00  0.000000D+00  0.000000D+00  0.000000D+00  0.000000D+00
     17  0.000000D+00  0.000000D+00  0.000000D+00  0.000000D+00  0.000000D+00
     18  0.000000D+00  0.000000D+00  0.000000D+00  0.000000D+00  0.000000D+00
     19  0.000000D+00  0.000000D+00  0.000000D+00  0.000000D+00  0.000000D+00
                6             7             8             9            10 
      6 -0.130557D+02
      7  0.000000D+00 -0.130557D+02
      8  0.000000D+00  0.000000D+00 -0.130663D+02
      9 -0.121450D+01  0.000000D+00  0.000000D+00 -0.303301D+01
     10  0.000000D+00 -0.121450D+01  0.000000D+00  0.000000D+00 -0.303301D+01
     11  0.000000D+00  0.000000D+00 -0.122179D+01  0.000000D+00  0.000000D+00
     12 -0.350173D+00  0.000000D+00  0.000000D+00 -0.169899D+01  0.000000D+00
     13  0.000000D+00 -0.350173D+00  0.000000D+00  0.000000D+00 -0.169899D+01
     14  0.000000D+00  0.000000D+00 -0.352450D+00  0.000000D+00  0.000000D+00
     15  0.000000D+00  0.000000D+00  0.110126D-01  0.000000D+00  0.000000D+00
     16  0.611100D-02  0.000000D+00  0.000000D+00  0.589963D-01  0.000000D+00
     17  0.000000D+00  0.611100D-02  0.000000D+00  0.000000D+00  0.589963D-01
     18  0.000000D+00  0.000000D+00  0.000000D+00  0.000000D+00  0.000000D+00
     19  0.000000D+00  0.000000D+00  0.000000D+00  0.000000D+00  0.000000D+00
               11            12            13            14            15 
     11 -0.312135D+01
     12  0.000000D+00 -0.176337D+01
     13  0.000000D+00  0.000000D+00 -0.176337D+01
     14 -0.174490D+01  0.000000D+00  0.000000D+00 -0.179676D+01
     15  0.139024D+00  0.000000D+00  0.000000D+00  0.718835D-01 -0.289779D+01
     16  0.000000D+00  0.321310D-01  0.000000D+00  0.000000D+00  0.000000D+00
     17  0.000000D+00  0.000000D+00  0.321310D-01  0.000000D+00  0.000000D+00
     18  0.000000D+00  0.000000D+00  0.000000D+00  0.000000D+00  0.000000D+00
     19  0.000000D+00  0.000000D+00  0.000000D+00  0.000000D+00  0.000000D+00
               16            17            18            19 
     16 -0.281942D+01
     17  0.000000D+00 -0.281942D+01
     18  0.000000D+00  0.000000D+00 -0.277858D+01
     19  0.000000D+00  0.000000D+00  0.000000D+00 -0.277858D+01
 SVDSVc IOpt=   1 NormSV=T IR=1
 SVDSVc V= 2.26D+00 1.83D+00 1.24D+00 1.18D+00 1.00D+00 9.81D-01 7.30D-01 4.50D-01 2.14D-01 1.15D-01
 SVDSVc IOpt=   1 NormSV=T IR=2
 SVDSVc V= 1.00D+00
 SVDSVc IOpt=   1 NormSV=T IR=3
 SVDSVc V= 1.70D+00 1.00D+00 9.81D-01 3.19D-01
 SVDSVc IOpt=   1 NormSV=T IR=4
 SVDSVc V= 1.70D+00 1.00D+00 9.81D-01 3.19D-01
 TstOVc:  Largest diagonal error= 2.22D-15 IB=1 I=    4.
 TstOVc:  Largest same sym error= 5.20D-16 IB=1 I=    9 J=    4.
 TstOVc:  Largest diff sym error= 0.00D+00 IB=0 JB=0 I=    0 J=    0.
 Orthogonalized basis functions: 
                 1             2             3             4             5 
      1   0.337930D+00 -0.131542D+00  0.277670D+00  0.193311D+00  0.000000D+00
      2   0.274438D-01  0.502724D-01 -0.416126D+00  0.533073D+00  0.000000D+00
      3   0.103414D+00  0.139491D+00 -0.403572D+00  0.411891D+00  0.000000D+00
      4   0.322897D+00  0.322397D+00 -0.893059D-02 -0.194101D+00  0.000000D+00
      5   0.313759D+00  0.327747D+00 -0.311277D-01 -0.195493D+00  0.000000D+00
      6   0.000000D+00  0.000000D+00  0.000000D+00  0.000000D+00  0.000000D+00
      7   0.000000D+00  0.000000D+00  0.000000D+00  0.000000D+00  0.000000D+00
      8  -0.524563D-01  0.101661D+00  0.931533D-01  0.653859D-01  0.000000D+00
      9   0.000000D+00  0.000000D+00  0.000000D+00  0.000000D+00  0.000000D+00
     10   0.000000D+00  0.000000D+00  0.000000D+00  0.000000D+00  0.000000D+00
     11  -0.238874D+00  0.388060D+00  0.182761D+00  0.109585D+00  0.000000D+00
     12   0.000000D+00  0.000000D+00  0.000000D+00  0.000000D+00  0.000000D+00
     13   0.000000D+00  0.000000D+00  0.000000D+00  0.000000D+00  0.000000D+00
     14  -0.196687D+00  0.360949D+00  0.239859D+00  0.151777D+00  0.000000D+00
     15   0.124976D+00 -0.741228D-01  0.541648D+00  0.487464D+00  0.000000D+00
     16   0.000000D+00  0.000000D+00  0.000000D+00  0.000000D+00  0.000000D+00
     17   0.000000D+00  0.000000D+00  0.000000D+00  0.000000D+00  0.000000D+00
     18   0.000000D+00  0.000000D+00  0.000000D+00  0.000000D+00  0.100000D+01
     19   0.000000D+00  0.000000D+00  0.000000D+00  0.000000D+00  0.000000D+00
                 6             7             8             9            10 
      1   0.214529D-02 -0.368957D-01  0.803914D+00  0.108123D+01 -0.501417D+00
      2   0.585115D-03 -0.777986D+00 -0.179910D-01  0.615072D-03  0.422501D-01
      3  -0.126975D-04  0.856952D+00  0.463316D-01  0.204018D-01 -0.115893D-01
      4  -0.672169D-03 -0.100715D+00 -0.104606D+00  0.151726D+00  0.211299D+01
      5  -0.810690D-03 -0.114871D+00 -0.252605D+00 -0.556012D+00 -0.193621D+01
      6   0.000000D+00  0.000000D+00  0.000000D+00  0.000000D+00  0.000000D+00
      7   0.000000D+00  0.000000D+00  0.000000D+00  0.000000D+00  0.000000D+00
      8   0.981973D+00 -0.195142D-02  0.140525D+00 -0.146635D+00  0.261408D-01
      9   0.000000D+00  0.000000D+00  0.000000D+00  0.000000D+00  0.000000D+00
     10   0.000000D+00  0.000000D+00  0.000000D+00  0.000000D+00  0.000000D+00
     11  -0.581910D-01 -0.402221D-02 -0.448932D+00  0.141596D+01 -0.389384D+00
     12   0.000000D+00  0.000000D+00  0.000000D+00  0.000000D+00  0.000000D+00
     13   0.000000D+00  0.000000D+00  0.000000D+00  0.000000D+00  0.000000D+00
     14  -0.222528D+00 -0.240270D-01  0.903699D+00 -0.857233D+00  0.152133D+00
     15  -0.514212D-01  0.637884D-01 -0.680539D+00 -0.640998D+00  0.263957D+00
     16   0.000000D+00  0.000000D+00  0.000000D+00  0.000000D+00  0.000000D+00
     17   0.000000D+00  0.000000D+00  0.000000D+00  0.000000D+00  0.000000D+00
     18   0.000000D+00  0.000000D+00  0.000000D+00  0.000000D+00  0.000000D+00
     19   0.000000D+00  0.000000D+00  0.000000D+00  0.000000D+00  0.000000D+00
                11            12            13            14            15 
      1   0.000000D+00  0.000000D+00  0.000000D+00  0.000000D+00  0.000000D+00
      2   0.000000D+00  0.000000D+00  0.000000D+00  0.000000D+00  0.000000D+00
      3   0.000000D+00  0.000000D+00  0.000000D+00  0.000000D+00  0.000000D+00
      4   0.000000D+00  0.000000D+00  0.000000D+00  0.000000D+00  0.000000D+00
      5   0.000000D+00  0.000000D+00  0.000000D+00  0.000000D+00  0.000000D+00
      6   0.000000D+00  0.152093D+00  0.000000D+00  0.982915D+00 -0.204821D+00
      7   0.000000D+00  0.000000D+00  0.000000D+00  0.000000D+00  0.000000D+00
      8   0.000000D+00  0.000000D+00  0.000000D+00  0.000000D+00  0.000000D+00
      9   0.000000D+00  0.537460D+00  0.000000D+00 -0.589883D-01  0.125925D+01
     10   0.000000D+00  0.000000D+00  0.000000D+00  0.000000D+00  0.000000D+00
     11   0.000000D+00  0.000000D+00  0.000000D+00  0.000000D+00  0.000000D+00
     12   0.000000D+00  0.525304D+00  0.000000D+00 -0.224234D+00 -0.122909D+01
     13   0.000000D+00  0.000000D+00  0.000000D+00  0.000000D+00  0.000000D+00
     14   0.000000D+00  0.000000D+00  0.000000D+00  0.000000D+00  0.000000D+00
     15   0.000000D+00  0.000000D+00  0.000000D+00  0.000000D+00  0.000000D+00
     16   0.000000D+00  0.000000D+00  0.100000D+01  0.000000D+00  0.000000D+00
     17   0.000000D+00  0.000000D+00  0.000000D+00  0.000000D+00  0.000000D+00
     18   0.000000D+00  0.000000D+00  0.000000D+00  0.000000D+00  0.000000D+00
     19   0.100000D+01  0.000000D+00  0.000000D+00  0.000000D+00  0.000000D+00
                16            17            18            19 
      1   0.000000D+00  0.000000D+00  0.000000D+00  0.000000D+00
      2   0.000000D+00  0.000000D+00  0.000000D+00  0.000000D+00
      3   0.000000D+00  0.000000D+00  0.000000D+00  0.000000D+00
      4   0.000000D+00  0.000000D+00  0.000000D+00  0.000000D+00
      5   0.000000D+00  0.000000D+00  0.000000D+00  0.000000D+00
      6   0.000000D+00  0.000000D+00  0.000000D+00  0.000000D+00
      7   0.152093D+00  0.000000D+00  0.982915D+00 -0.204821D+00
      8   0.000000D+00  0.000000D+00  0.000000D+00  0.000000D+00
      9   0.000000D+00  0.000000D+00  0.000000D+00  0.000000D+00
     10   0.537460D+00  0.000000D+00 -0.589883D-01  0.125925D+01
     11   0.000000D+00  0.000000D+00  0.000000D+00  0.000000D+00
     12   0.000000D+00  0.000000D+00  0.000000D+00  0.000000D+00
     13   0.525304D+00  0.000000D+00 -0.224234D+00 -0.122909D+01
     14   0.000000D+00  0.000000D+00  0.000000D+00  0.000000D+00
     15   0.000000D+00  0.000000D+00  0.000000D+00  0.000000D+00
     16   0.000000D+00  0.000000D+00  0.000000D+00  0.000000D+00
     17   0.000000D+00  0.100000D+01  0.000000D+00  0.000000D+00
     18   0.000000D+00  0.000000D+00  0.000000D+00  0.000000D+00
     19   0.000000D+00  0.000000D+00  0.000000D+00  0.000000D+00
 NBasis=    19 RedAO= T EigKep=  1.15D-01  NBF=    10     1     4     4
 NBsUse=    19 1.00D-06 EigRej= -1.00D+00 NBFU=    10     1     4     4
 Leave Link  302 at Mon Mar 28 14:26:17 2022, MaxMem=  9663676416 cpu:               3.4 elap:               0.1
 (Enter /nopt/nrel/apps/gaussian/g16C_1/g16/l303.exe)
 DipDrv will not compute anything.
 Fermi contact integrals: 
                 1             2 
      1   0.628247D+00  0.955222D-02
      2   0.167761D-05  0.194288D+02
      3   0.104516D-03  0.784000D-02
      4   0.423880D-01 -0.235257D-01
      5   0.313353D-01  0.421887D-01
      6   0.000000D+00  0.000000D+00
      7   0.000000D+00  0.000000D+00
      8  -0.179464D-02  0.000000D+00
      9   0.000000D+00  0.000000D+00
     10   0.000000D+00  0.000000D+00
     11  -0.725871D-01  0.000000D+00
     12   0.000000D+00  0.000000D+00
     13   0.000000D+00  0.000000D+00
     14  -0.305237D-01  0.000000D+00
     15   0.102602D+00  0.000000D+00
     16   0.000000D+00  0.000000D+00
     17   0.000000D+00  0.000000D+00
     18   0.000000D+00  0.000000D+00
     19   0.000000D+00  0.000000D+00
 Leave Link  303 at Mon Mar 28 14:26:17 2022, MaxMem=  9663676416 cpu:               0.9 elap:               0.0
 (Enter /nopt/nrel/apps/gaussian/g16C_1/g16/l401.exe)
 ExpMin= 2.05D-02 ExpMax= 3.17D+04 ExpMxC= 1.08D+03 IAcc=3 IRadAn=         5 AccDes= 0.00D+00
 Harris functional with IExCor=  205 and IRadAn=       5 diagonalized for initial guess.
 HarFok:  IExCor=  205 AccDes= 0.00D+00 IRadAn=         5 IDoV= 1 UseB2=F ITyADJ=14
 ICtDFT=  3500011 ScaDFX=  1.000000  1.000000  1.000000  1.000000
 FoFCou: FMM=F IPFlag=           0 FMFlag=      100000 FMFlg1=           0
         NFxFlg=           0 DoJE=T BraDBF=F KetDBF=T FulRan=T
         wScrn=  0.000000 ICntrl=       500 IOpCl=  0 I1Cent=   200000004 NGrid=           0
         NMat0=    1 NMatS0=      1 NMatT0=    0 NMatD0=    1 NMtDS0=    0 NMtDT0=    0
 Petite list used in FoFCou.
 Harris En= -162.054841521389    
 JPrj=0 DoOrth=F DoCkMO=F.
 Initial guess orbital symmetries:
 Alpha Orbitals:
       Occupied  (SG) (SG) (SG) (PI) (PI) (SG) (SG)
       Virtual   (PI) (PI) (SG) (SG) (PI) (PI) (SG) (PI) (PI) (DLTA)
                 (DLTA) (SG)
 Beta  Orbitals:
       Occupied  (SG) (SG) (SG) (PI) (PI)
       Virtual   (SG) (SG) (PI) (PI) (SG) (SG) (PI) (PI) (SG) (PI)
                 (PI) (DLTA) (DLTA) (SG)
 The electronic state of the initial guess is 3-SG.
 Initial guess <Sx>= 0.0000 <Sy>= 0.0000 <Sz>= 1.0000 <S**2>= 2.0000 S= 1.0000
 Leave Link  401 at Mon Mar 28 14:26:17 2022, MaxMem=  9663676416 cpu:               6.0 elap:               0.2
 (Enter /nopt/nrel/apps/gaussian/g16C_1/g16/l502.exe)
 Keep R1 and R2 ints in memory in symmetry-blocked form, NReq=7462749.
 FoFCou: FMM=F IPFlag=           0 FMFlag=           0 FMFlg1=           0
         NFxFlg=           0 DoJE=F BraDBF=F KetDBF=F FulRan=T
         wScrn=  0.000000 ICntrl=       600 IOpCl=  0 I1Cent=           0 NGrid=           0
         NMat0=    1 NMatS0=    190 NMatT0=    0 NMatD0=    1 NMtDS0=    0 NMtDT0=    0
 Petite list used in FoFCou.
 UHF open shell SCF:
 Using DIIS extrapolation, IDIIS=  1040.
 NGot=  9663676416 LenX=  9663662649 LenY=  9663661767
 Requested convergence on RMS density matrix=1.00D-08 within 128 cycles.
 Requested convergence on MAX density matrix=1.00D-06.
 Requested convergence on             energy=1.00D-06.
 No special actions if energy rises.

 Cycle   1  Pass 1  IDiag  1:
 E= -162.298800538721    
 DIIS: error= 2.05D-02 at cycle   1 NSaved=   1.
 NSaved= 1 IEnMin= 1 EnMin= -162.298800538721     IErMin= 1 ErrMin= 2.05D-02
 ErrMax= 2.05D-02  0.00D+00 EMaxC= 1.00D-01 BMatC= 2.73D-02 BMatP= 2.73D-02
 IDIUse=3 WtCom= 7.95D-01 WtEn= 2.05D-01
 Coeff-Com:  0.100D+01
 Coeff-En:   0.100D+01
 Coeff:      0.100D+01
 Gap=     0.191 Goal=   None    Shift=    0.000
 Gap=     1.514 Goal=   None    Shift=    0.000
 GapD=    0.191 DampG=1.000 DampE=0.500 DampFc=0.5000 IDamp=-1.
 Damping current iteration by 5.00D-01
 RMSDP=7.11D-03 MaxDP=1.33D-01              OVMax= 1.87D-02

 Cycle   2  Pass 1  IDiag  1:
 E= -162.304594345889     Delta-E=       -0.005793807169 Rises=F Damp=T
 DIIS: error= 1.42D-02 at cycle   2 NSaved=   2.
 NSaved= 2 IEnMin= 2 EnMin= -162.304594345889     IErMin= 2 ErrMin= 1.42D-02
 ErrMax= 1.42D-02  0.00D+00 EMaxC= 1.00D-01 BMatC= 9.95D-03 BMatP= 2.73D-02
 IDIUse=3 WtCom= 8.58D-01 WtEn= 1.42D-01
 Coeff-Com: -0.142D+01 0.242D+01
 Coeff-En:   0.000D+00 0.100D+01
 Coeff:     -0.122D+01 0.222D+01
 Gap=     0.182 Goal=   None    Shift=    0.000
 Gap=     1.488 Goal=   None    Shift=    0.000
 RMSDP=6.01D-03 MaxDP=1.22D-01 DE=-5.79D-03 OVMax= 3.63D-03

 Cycle   3  Pass 1  IDiag  1:
 E= -162.312963482985     Delta-E=       -0.008369137096 Rises=F Damp=F
 DIIS: error= 2.33D-03 at cycle   3 NSaved=   3.
 NSaved= 3 IEnMin= 3 EnMin= -162.312963482985     IErMin= 3 ErrMin= 2.33D-03
 ErrMax= 2.33D-03  0.00D+00 EMaxC= 1.00D-01 BMatC= 1.25D-04 BMatP= 9.95D-03
 IDIUse=3 WtCom= 9.77D-01 WtEn= 2.33D-02
 Coeff-Com:  0.524D+00-0.983D+00 0.146D+01
 Coeff-En:   0.000D+00 0.000D+00 0.100D+01
 Coeff:      0.512D+00-0.960D+00 0.145D+01
 Gap=     0.182 Goal=   None    Shift=    0.000
 Gap=     1.492 Goal=   None    Shift=    0.000
 RMSDP=1.14D-03 MaxDP=2.22D-02 DE=-8.37D-03 OVMax= 7.26D-04

 Cycle   4  Pass 1  IDiag  1:
 E= -162.313076894621     Delta-E=       -0.000113411636 Rises=F Damp=F
 DIIS: error= 1.42D-04 at cycle   4 NSaved=   4.
 NSaved= 4 IEnMin= 4 EnMin= -162.313076894621     IErMin= 4 ErrMin= 1.42D-04
 ErrMax= 1.42D-04  0.00D+00 EMaxC= 1.00D-01 BMatC= 7.04D-07 BMatP= 1.25D-04
 IDIUse=3 WtCom= 9.99D-01 WtEn= 1.42D-03
 Coeff-Com: -0.735D-01 0.140D+00-0.249D+00 0.118D+01
 Coeff-En:   0.000D+00 0.000D+00 0.000D+00 0.100D+01
 Coeff:     -0.734D-01 0.140D+00-0.249D+00 0.118D+01
 Gap=     0.182 Goal=   None    Shift=    0.000
 Gap=     1.492 Goal=   None    Shift=    0.000
 RMSDP=1.63D-04 MaxDP=2.23D-03 DE=-1.13D-04 OVMax= 6.30D-05

 Cycle   5  Pass 1  IDiag  1:
 E= -162.313079239028     Delta-E=       -0.000002344407 Rises=F Damp=F
 DIIS: error= 7.42D-05 at cycle   5 NSaved=   5.
 NSaved= 5 IEnMin= 5 EnMin= -162.313079239028     IErMin= 5 ErrMin= 7.42D-05
 ErrMax= 7.42D-05  0.00D+00 EMaxC= 1.00D-01 BMatC= 1.49D-07 BMatP= 7.04D-07
 IDIUse=1 WtCom= 1.00D+00 WtEn= 0.00D+00
 Coeff-Com:  0.426D-01-0.824D-01 0.160D+00-0.117D+01 0.205D+01
 Coeff:      0.426D-01-0.824D-01 0.160D+00-0.117D+01 0.205D+01
 Gap=     0.182 Goal=   None    Shift=    0.000
 Gap=     1.493 Goal=   None    Shift=    0.000
 RMSDP=1.38D-04 MaxDP=1.85D-03 DE=-2.34D-06 OVMax= 2.07D-05

 Cycle   6  Pass 1  IDiag  1:
 E= -162.313080011657     Delta-E=       -0.000000772629 Rises=F Damp=F
 DIIS: error= 1.10D-05 at cycle   6 NSaved=   6.
 NSaved= 6 IEnMin= 6 EnMin= -162.313080011657     IErMin= 6 ErrMin= 1.10D-05
 ErrMax= 1.10D-05  0.00D+00 EMaxC= 1.00D-01 BMatC= 3.04D-09 BMatP= 1.49D-07
 IDIUse=1 WtCom= 1.00D+00 WtEn= 0.00D+00
 Coeff-Com: -0.625D-02 0.123D-01-0.261D-01 0.225D+00-0.525D+00 0.132D+01
 Coeff:     -0.625D-02 0.123D-01-0.261D-01 0.225D+00-0.525D+00 0.132D+01
 Gap=     0.182 Goal=   None    Shift=    0.000
 Gap=     1.493 Goal=   None    Shift=    0.000
 RMSDP=1.48D-05 MaxDP=1.59D-04 DE=-7.73D-07 OVMax= 6.75D-06

 Cycle   7  Pass 1  IDiag  1:
 E= -162.313080022739     Delta-E=       -0.000000011082 Rises=F Damp=F
 DIIS: error= 1.86D-06 at cycle   7 NSaved=   7.
 NSaved= 7 IEnMin= 7 EnMin= -162.313080022739     IErMin= 7 ErrMin= 1.86D-06
 ErrMax= 1.86D-06  0.00D+00 EMaxC= 1.00D-01 BMatC= 8.64D-11 BMatP= 3.04D-09
 IDIUse=1 WtCom= 1.00D+00 WtEn= 0.00D+00
 Coeff-Com:  0.240D-02-0.472D-02 0.102D-01-0.916D-01 0.231D+00-0.665D+00
 Coeff-Com:  0.152D+01
 Coeff:      0.240D-02-0.472D-02 0.102D-01-0.916D-01 0.231D+00-0.665D+00
 Coeff:      0.152D+01
 Gap=     0.182 Goal=   None    Shift=    0.000
 Gap=     1.493 Goal=   None    Shift=    0.000
 RMSDP=3.61D-06 MaxDP=5.49D-05 DE=-1.11D-08 OVMax= 7.06D-07

 Cycle   8  Pass 1  IDiag  1:
 E= -162.313080023006     Delta-E=       -0.000000000268 Rises=F Damp=F
 DIIS: error= 4.81D-07 at cycle   8 NSaved=   8.
 NSaved= 8 IEnMin= 8 EnMin= -162.313080023006     IErMin= 8 ErrMin= 4.81D-07
 ErrMax= 4.81D-07  0.00D+00 EMaxC= 1.00D-01 BMatC= 4.00D-12 BMatP= 8.64D-11
 IDIUse=1 WtCom= 1.00D+00 WtEn= 0.00D+00
 Coeff-Com: -0.359D-03 0.712D-03-0.158D-02 0.143D-01-0.403D-01 0.132D+00
 Coeff-Com: -0.500D+00 0.140D+01
 Coeff:     -0.359D-03 0.712D-03-0.158D-02 0.143D-01-0.403D-01 0.132D+00
 Coeff:     -0.500D+00 0.140D+01
 Gap=     0.182 Goal=   None    Shift=    0.000
 Gap=     1.493 Goal=   None    Shift=    0.000
 RMSDP=8.93D-07 MaxDP=1.42D-05 DE=-2.68D-10 OVMax= 1.78D-07

 Cycle   9  Pass 1  IDiag  1:
 E= -162.313080023019     Delta-E=       -0.000000000012 Rises=F Damp=F
 DIIS: error= 6.97D-08 at cycle   9 NSaved=   9.
 NSaved= 9 IEnMin= 9 EnMin= -162.313080023019     IErMin= 9 ErrMin= 6.97D-08
 ErrMax= 6.97D-08  0.00D+00 EMaxC= 1.00D-01 BMatC= 6.20D-14 BMatP= 4.00D-12
 IDIUse=1 WtCom= 1.00D+00 WtEn= 0.00D+00
 Coeff-Com:  0.671D-04-0.133D-03 0.287D-03-0.247D-02 0.712D-02-0.232D-01
 Coeff-Com:  0.928D-01-0.315D+00 0.124D+01
 Coeff:      0.671D-04-0.133D-03 0.287D-03-0.247D-02 0.712D-02-0.232D-01
 Coeff:      0.928D-01-0.315D+00 0.124D+01
 Gap=     0.182 Goal=   None    Shift=    0.000
 Gap=     1.493 Goal=   None    Shift=    0.000
 RMSDP=1.05D-07 MaxDP=1.66D-06 DE=-1.24D-11 OVMax= 1.26D-08

 Cycle  10  Pass 1  IDiag  1:
 E= -162.313080023019     Delta-E=       -0.000000000000 Rises=F Damp=F
 DIIS: error= 1.48D-08 at cycle  10 NSaved=  10.
 NSaved=10 IEnMin=10 EnMin= -162.313080023019     IErMin=10 ErrMin= 1.48D-08
 ErrMax= 1.48D-08  0.00D+00 EMaxC= 1.00D-01 BMatC= 6.73D-15 BMatP= 6.20D-14
 IDIUse=1 WtCom= 1.00D+00 WtEn= 0.00D+00
 Coeff-Com: -0.156D-04 0.309D-04-0.651D-04 0.495D-03-0.160D-02 0.533D-02
 Coeff-Com: -0.252D-01 0.107D+00-0.747D+00 0.166D+01
 Coeff:     -0.156D-04 0.309D-04-0.651D-04 0.495D-03-0.160D-02 0.533D-02
 Coeff:     -0.252D-01 0.107D+00-0.747D+00 0.166D+01
 Gap=     0.182 Goal=   None    Shift=    0.000
 Gap=     1.493 Goal=   None    Shift=    0.000
 RMSDP=3.61D-08 MaxDP=5.06D-07 DE=-2.56D-13 OVMax= 6.67D-09

 Cycle  11  Pass 1  IDiag  1:
 E= -162.313080023019     Delta-E=        0.000000000000 Rises=F Damp=F
 DIIS: error= 2.44D-09 at cycle  11 NSaved=  11.
 NSaved=11 IEnMin=10 EnMin= -162.313080023019     IErMin=11 ErrMin= 2.44D-09
 ErrMax= 2.44D-09  0.00D+00 EMaxC= 1.00D-01 BMatC= 1.06D-16 BMatP= 6.73D-15
 IDIUse=1 WtCom= 1.00D+00 WtEn= 0.00D+00
 Coeff-Com: -0.977D-07 0.163D-06-0.797D-06 0.255D-04 0.197D-05-0.906D-04
 Coeff-Com:  0.184D-02-0.136D-01 0.160D+00-0.473D+00 0.132D+01
 Coeff:     -0.977D-07 0.163D-06-0.797D-06 0.255D-04 0.197D-05-0.906D-04
 Coeff:      0.184D-02-0.136D-01 0.160D+00-0.473D+00 0.132D+01
 Gap=     0.182 Goal=   None    Shift=    0.000
 Gap=     1.493 Goal=   None    Shift=    0.000
 RMSDP=3.68D-09 MaxDP=4.78D-08 DE= 1.14D-13 OVMax= 7.13D-10

 SCF Done:  E(UHF) =  -162.313080023     A.U. after   11 cycles
            NFock= 11  Conv=0.37D-08     -V/T= 1.9990
 <Sx>= 0.0000 <Sy>= 0.0000 <Sz>= 1.0000 <S**2>= 2.0000 S= 1.0000
 <L.S>= 0.000000000000E+00
 KE= 1.624754583092D+02 PE=-3.967215036014D+02 EE= 6.886930773228D+01
 Annihilation of the first spin contaminant:
 S**2 before annihilation     2.0000,   after     2.0000
 Leave Link  502 at Mon Mar 28 14:26:17 2022, MaxMem=  9663676416 cpu:               5.5 elap:               0.2
 (Enter /nopt/nrel/apps/gaussian/g16C_1/g16/l801.exe)
 Windowed orbitals will be sorted by symmetry type.
 ExpMin= 2.05D-02 ExpMax= 3.17D+04 ExpMxC= 1.08D+03 IAcc=3 IRadAn=         5 AccDes= 0.00D+00
 HarFok:  IExCor=  205 AccDes= 0.00D+00 IRadAn=         5 IDoV=-2 UseB2=F ITyADJ=14
 ICtDFT= 12500011 ScaDFX=  1.000000  1.000000  1.000000  1.000000
 Largest valence mixing into a core orbital is  2.81D-04
 Largest core mixing into a valence orbital is  1.86D-04
 Range of M.O.s used for correlation:     6    19
 NBasis=    19 NAE=     7 NBE=     5 NFC=     5 NFV=     0
 NROrb=     14 NOA=     2 NOB=     0 NVA=    12 NVB=    14
 Leave Link  801 at Mon Mar 28 14:26:17 2022, MaxMem=  9663676416 cpu:               2.4 elap:               0.1
 (Enter /nopt/nrel/apps/gaussian/g16C_1/g16/l804.exe)
 Open-shell transformation, MDV=  9663676416 ITran=4 ISComp=2.
 Unit  1 TFree=         24747 TCopy=        223312.
 Semi-Direct transformation.
 ModeAB=           2 MOrb=             2 LenV=    9663483022
 LASXX=          607 LTotXX=         607 LenRXX=         607
 LTotAB=         853 MaxLAS=        5880 LenRXY=        5880
 NonZer=        6552 LenScr=      785920 LnRSAI=           0
 LnScr1=           0 LExtra=      224307 Total=      1016714
 MaxDsk= 34359738368 SrtSym=           F ITran=            4
 DoSDTr:  NPSUse= 36
 JobTyp=1 Pass  1:  I=   1 to   2.
 (rs|ai) integrals will be sorted in core.
 Complete sort for first half transformation.
 First half transformation complete.
 Complete sort for second half transformation.
 Second half transformation complete.
 Spin components of T(2) and E(2):
     alpha-alpha T2 =       0.1438369327D-03 E2=     -0.1530874476D-03
     alpha-beta  T2 =       0.0000000000D+00 E2=      0.0000000000D+00
     beta-beta   T2 =       0.0000000000D+00 E2=      0.0000000000D+00
 ANorm=    0.1000071916D+01
 E2 =    -0.1530874476D-03 EUMP2 =    -0.16231323311047D+03
 Leave Link  804 at Mon Mar 28 14:26:17 2022, MaxMem=  9663676416 cpu:               2.4 elap:               0.1
 (Enter /nopt/nrel/apps/gaussian/g16C_1/g16/l913.exe)
 CIDS:  MDV=  9663676416.
 Frozen-core window:  NFC=   5 NFV=   0.
 IFCWin=0 IBDFC=1 NFBD=     0     0 NFCmp=     0     0 NFFFC=     0     0
 Using original routines for 1st iteration.
 Using DD4UQ or CC4UQ for 2nd and later iterations.
 Keep R2 and R3 ints in memory in symmetry-blocked form, NReq=7465201.
 FoFCou: FMM=F IPFlag=           0 FMFlag=           0 FMFlg1=           0
         NFxFlg=           0 DoJE=F BraDBF=F KetDBF=F FulRan=T
         wScrn=  0.000000 ICntrl=       600 IOpCl=  0 I1Cent=           0 NGrid=           0
         NMat0=    1 NMatS0=    190 NMatT0=    0 NMatD0=    1 NMtDS0=    0 NMtDT0=    0
 Petite list used in FoFCou.
 CIDS: In Core Option IDoMem=           1.
 Coupled Cluster theory with single and double substitutions
 ===========================================================
 Iterations= 200 Convergence= 0.100D-06
 Produce multiple copies of IABC intergrals
 Iteration Nr.   1
 **********************
 DD1Dir will call FoFMem   1 times, MxPair=         2
 NAB=     0 NAA=     1 NBB=     0.
 MP4(R+Q)=  0.22019629D-07
 Maximum subspace dimension=  5
 A-vector RMS=  6.9102210D-04 Max=  2.2794326D-03 conv= 1.00D-05.
 RLE energy=       -0.0002479702
 E3=       -0.58598964D-04        EUMP3=      -0.16231329171D+03
 E4(DQ)=   -0.22559007D-04        UMP4(DQ)=   -0.16231331427D+03
 E4(SDQ)=  -0.22810473D-04        UMP4(SDQ)=  -0.16231331452D+03
 VARIATIONAL ENERGIES WITH THE FIRST-ORDER WAVEFUNCTION:
 DE(Corr)= -0.21166447E-03 E(Corr)=     -162.31329169    
 NORM(A)=   0.10001895D+01
 Iteration Nr.   2
 **********************
 DD1Dir will call FoFMem   1 times, MxPair=         2
 NAB=     0 NAA=     1 NBB=     0.
 A-vector RMS=  8.5326334D-05 Max=  1.7331792D-04 conv= 1.00D-05.
 RLE energy=       -0.0002494137
 DE(Corr)= -0.24859897E-03 E(CORR)=     -162.31332862     Delta=-3.69D-05
 NORM(A)=   0.10001925D+01
 Iteration Nr.   3
 **********************
 DD1Dir will call FoFMem   1 times, MxPair=         2
 NAB=     0 NAA=     1 NBB=     0.
 A-vector RMS=  1.4743763D-05 Max=  4.2991425D-05 conv= 1.00D-05.
 RLE energy=       -0.0002494580
 DE(Corr)= -0.24942246E-03 E(CORR)=     -162.31332945     Delta=-8.23D-07
 NORM(A)=   0.10001927D+01
 Iteration Nr.   4
 **********************
 DD1Dir will call FoFMem   1 times, MxPair=         2
 NAB=     0 NAA=     1 NBB=     0.
 A-vector RMS=  4.6022138D-06 Max=  1.2795622D-05 conv= 1.00D-05.
 RLE energy=       -0.0002494492
 DE(Corr)= -0.24945461E-03 E(CORR)=     -162.31332948     Delta=-3.21D-08
 NORM(A)=   0.10001927D+01
 Iteration Nr.   5
 **********************
 DD1Dir will call FoFMem   1 times, MxPair=         2
 NAB=     0 NAA=     1 NBB=     0.
 A-vector RMS=  7.8506067D-07 Max=  3.3385236D-06 conv= 1.00D-05.
 RLE energy=       -0.0002494553
 DE(Corr)= -0.24945189E-03 E(CORR)=     -162.31332947     Delta= 2.72D-09
 NORM(A)=   0.10001927D+01
 CI/CC converged in    5 iterations to DelEn= 2.72D-09 Conv= 1.00D-07 ErrA1= 7.85D-07 Conv= 1.00D-05
 Wavefunction amplitudes converged. E(Corr)=     -162.31332947    
 Largest amplitude= 9.48D-03
 Discarding MO integrals.
 Leave Link  913 at Mon Mar 28 14:26:18 2022, MaxMem=  9663676416 cpu:               4.5 elap:               0.1
 (Enter /nopt/nrel/apps/gaussian/g16C_1/g16/l601.exe)
 Copying SCF densities to generalized density rwf, IOpCl= 1 IROHF=0.

 **********************************************************************

            Population analysis using the SCF Density.

 **********************************************************************

 Orbital symmetries:
 Alpha Orbitals:
       Occupied  (SG) (SG) (SG) (PI) (PI) (SG) (SG)
       Virtual   (PI) (PI) (SG) (SG) (PI) (PI) (SG) (PI) (PI) (DLTA)
                 (DLTA) (SG)
 Beta  Orbitals:
       Occupied  (SG) (SG) (SG) (PI) (PI)
       Virtual   (SG) (PI) (PI) (SG) (SG) (SG) (PI) (PI) (SG) (DLTA)
                 (DLTA) (PI) (PI) (SG)
 The electronic state is 3-SG.
 Alpha  occ. eigenvalues --  -40.48616  -2.81092  -1.53482  -1.52860  -1.52860
 Alpha  occ. eigenvalues --   -0.59220  -0.16108
 Alpha virt. eigenvalues --    0.02074   0.02074   0.04163   0.11191   0.13926
 Alpha virt. eigenvalues --    0.13926   0.19675   0.24450   0.24450   0.26128
 Alpha virt. eigenvalues --    0.26128   0.53024
  Beta  occ. eigenvalues --  -40.48328  -2.80348  -1.52633  -1.52597  -1.52597
  Beta virt. eigenvalues --   -0.03343   0.04228   0.04228   0.05000   0.08217
  Beta virt. eigenvalues --    0.16409   0.17006   0.17006   0.25780   0.28494
  Beta virt. eigenvalues --    0.28494   0.28505   0.28505   0.69091
          Condensed to atoms (all electrons):
               1          2
     1  H    0.660727   0.132651
     2  Na   0.132651  11.073971
          Atomic-Atomic Spin Densities.
               1          2
     1  H    0.660693   0.132094
     2  Na   0.132094   1.075120
 Mulliken charges and spin densities:
               1          2
     1  H    0.206622   0.792786
     2  Na  -0.206622   1.207214
 Sum of Mulliken charges =   0.00000   2.00000
 Mulliken charges and spin densities with hydrogens summed into heavy atoms:
               1          2
     2  Na   0.000000   2.000000
 N-N= 3.063657536905D+00 E-N=-3.967215036615D+02  KE= 1.624754583092D+02
 Symmetry A1   KE= 1.389146049136D+02
 Symmetry A2   KE= 1.238359326251D-51
 Symmetry B1   KE= 1.178042669780D+01
 Symmetry B2   KE= 1.178042669780D+01
 Symmetry A1   SP= 2.000000000000D+00
 Symmetry A2   SP= 3.635717737082D-51
 Symmetry B1   SP= 4.003214932515D-15
 Symmetry B2   SP= 5.295150241249D-15

 Atomic contributions to Alpha molecular orbitals:
 Alpha occ 1 OE=-40.486 is Na2-s=1.0000
 Alpha occ 2 OE=-2.811 is Na2-s=0.9998
 Alpha occ 3 OE=-1.535 is Na2-p=0.9984
 Alpha occ 4 OE=-1.529 is Na2-p=1.0000
 Alpha occ 5 OE=-1.529 is Na2-p=1.0000
 Alpha occ 6 OE=-0.592 is H1-s=0.7818
 Alpha occ 7 OE=-0.161 is Na2-s=0.8053 Na2-p=0.1709
 Alpha vir 8 OE=0.021 is Na2-p=0.9987
 Alpha vir 9 OE=0.021 is Na2-p=0.9987
 Alpha vir 10 OE=0.042 is Na2-p=0.7969 Na2-s=0.1744
 Alpha vir 11 OE=0.112 is Na2-s=0.8468 Na2-p=0.1359
 Alpha vir 12 OE=0.139 is Na2-p=0.9827
 Alpha vir 13 OE=0.139 is Na2-p=0.9827
 Alpha vir 14 OE=0.197 is Na2-p=0.5962 Na2-d=0.3584
 Alpha vir 15 OE=0.245 is Na2-d=0.9813
 Alpha vir 16 OE=0.245 is Na2-d=0.9813
 Alpha vir 17 OE=0.261 is Na2-d=1.0000
 Alpha vir 18 OE=0.261 is Na2-d=1.0000
 Alpha vir 19 OE=0.530 is Na2-d=0.5382 Na2-p=0.2099 H1-s=0.1805

 Atomic contributions to Beta  molecular orbitals:
 Beta  occ 1 OE=-40.483 is Na2-s=1.0000
 Beta  occ 2 OE=-2.803 is Na2-s=0.9999
 Beta  occ 3 OE=-1.526 is Na2-p=0.9996
 Beta  occ 4 OE=-1.526 is Na2-p=1.0000
 Beta  occ 5 OE=-1.526 is Na2-p=1.0000
 Beta  vir 6 OE=-0.033 is Na2-s=0.5247 Na2-p=0.2556 H1-s=0.1931
 Beta  vir 7 OE=0.042 is Na2-p=0.9969
 Beta  vir 8 OE=0.042 is Na2-p=0.9969
 Beta  vir 9 OE=0.050 is Na2-p=0.6822 Na2-s=0.3072
 Beta  vir 10 OE=0.082 is Na2-s=0.4641 Na2-p=0.3514 H1-s=0.1258
 Beta  vir 11 OE=0.164 is Na2-s=0.6572 Na2-p=0.2507
 Beta  vir 12 OE=0.170 is Na2-p=0.9582
 Beta  vir 13 OE=0.170 is Na2-p=0.9582
 Beta  vir 14 OE=0.258 is Na2-d=0.5977 Na2-p=0.3486
 Beta  vir 15 OE=0.285 is Na2-d=1.0000
 Beta  vir 16 OE=0.285 is Na2-d=1.0000
 Beta  vir 17 OE=0.285 is Na2-d=0.9551
 Beta  vir 18 OE=0.285 is Na2-d=0.9551
 Beta  vir 19 OE=0.691 is H1-s=0.5981 Na2-d=0.2443 Na2-p=0.1119
 
 Leave Link  601 at Mon Mar 28 14:26:18 2022, MaxMem=  9663676416 cpu:               1.1 elap:               0.1
 (Enter /nopt/nrel/apps/gaussian/g16C_1/g16/l9999.exe)

 Test job not archived.
 1\1\GINC-R102U34\SP\UCCSD-FC\Gen\H1Na1(3)\USER\28-Mar-2022\0\\#P C
 CSD(MaxCyc=200,SaveAmplitudes,ReadAmplitudes)/GEN sp pop=AllOrbitals i
 op(3/33=1,3/36=-1)\\test\\0,3\H,0,0.,0.,0.\Na,0,0.,0.,1.9\\Version=ES6
 4L-G16RevC.01\State=3-SG\HF=-162.31308\MP2=-162.3132331\MP3=-162.31329
 17\MP4D=-162.3133143\MP4DQ=-162.3133143\MP4SDQ=-162.3133145\CCSD=-162.
 3133295\S2=2.000034\S2-1=0.\S2A=2.\RMSD=3.680e-09\PG=C*V [C*(H1Na1)]\\
 @


 THE FIRST AND LAST THING REQUIRED OF GENIUS IS THE LOVE OF TRUTH.

                          -- GOETHE
 Job cpu time:       0 days  0 hours  0 minutes 35.8 seconds.
 Elapsed time:       0 days  0 hours  0 minutes  1.3 seconds.
 File lengths (MBytes):  RWF=     13 Int=      0 D2E=      0 Chk=      1 Scr=      1
 Normal termination of Gaussian 16 at Mon Mar 28 14:26:18 2022.
