 Entering Gaussian System, Link 0=g16
 Initial command:
 /nopt/nrel/apps/gaussian/g16C_1/g16/l1.exe "/lustre/eaglefs/scratch/user/qc/tih-dissc-sto3g/tih-6-ccsd-2.9-321g/Gau-265285.inp" -scrdir="/lustre/eaglefs/scratch/user/qc/tih-dissc-sto3g/tih-6-ccsd-2.9-321g/"
 Default is to use a total of  36 processors:
                               36 via shared-memory
                                1 via Linda
 Entering Link 1 = /nopt/nrel/apps/gaussian/g16C_1/g16/l1.exe PID=    265286.
  
 Copyright (c) 1988-2019, Gaussian, Inc.  All Rights Reserved.
  
 This is part of the Gaussian(R) 16 program.  It is based on
 the Gaussian(R) 09 system (copyright 2009, Gaussian, Inc.),
 the Gaussian(R) 03 system (copyright 2003, Gaussian, Inc.),
 the Gaussian(R) 98 system (copyright 1998, Gaussian, Inc.),
 the Gaussian(R) 94 system (copyright 1995, Gaussian, Inc.),
 the Gaussian 92(TM) system (copyright 1992, Gaussian, Inc.),
 the Gaussian 90(TM) system (copyright 1990, Gaussian, Inc.),
 the Gaussian 88(TM) system (copyright 1988, Gaussian, Inc.),
 the Gaussian 86(TM) system (copyright 1986, Carnegie Mellon
 University), and the Gaussian 82(TM) system (copyright 1983,
 Carnegie Mellon University). Gaussian is a federally registered
 trademark of Gaussian, Inc.
  
 This software contains proprietary and confidential information,
 including trade secrets, belonging to Gaussian, Inc.
  
 This software is provided under written license and may be
 used, copied, transmitted, or stored only in accord with that
 written license.
  
 The following legend is applicable only to US Government
 contracts under FAR:
  
                    RESTRICTED RIGHTS LEGEND
  
 Use, reproduction and disclosure by the US Government is
 subject to restrictions as set forth in subparagraphs (a)
 and (c) of the Commercial Computer Software - Restricted
 Rights clause in FAR 52.227-19.
  
 Gaussian, Inc.
 340 Quinnipiac St., Bldg. 40, Wallingford CT 06492
  
  
 ---------------------------------------------------------------
 Warning -- This program may not be used in any manner that
 competes with the business of Gaussian, Inc. or will provide
 assistance to any competitor of Gaussian, Inc.  The licensee
 of this program is prohibited from giving any competitor of
 Gaussian, Inc. access to this program.  By using this program,
 the user acknowledges that Gaussian, Inc. is engaged in the
 business of creating and licensing software in the field of
 computational chemistry and represents and warrants to the
 licensee that it is not a competitor of Gaussian, Inc. and that
 it will not use this program in any manner prohibited above.
 ---------------------------------------------------------------
  

 Cite this work as:
 Gaussian 16, Revision C.01,
 M. J. Frisch, G. W. Trucks, H. B. Schlegel, G. E. Scuseria, 
 M. A. Robb, J. R. Cheeseman, G. Scalmani, V. Barone, 
 G. A. Petersson, H. Nakatsuji, X. Li, M. Caricato, A. V. Marenich, 
 J. Bloino, B. G. Janesko, R. Gomperts, B. Mennucci, H. P. Hratchian, 
 J. V. Ortiz, A. F. Izmaylov, J. L. Sonnenberg, D. Williams-Young, 
 F. Ding, F. Lipparini, F. Egidi, J. Goings, B. Peng, A. Petrone, 
 T. Henderson, D. Ranasinghe, V. G. Zakrzewski, J. Gao, N. Rega, 
 G. Zheng, W. Liang, M. Hada, M. Ehara, K. Toyota, R. Fukuda, 
 J. Hasegawa, M. Ishida, T. Nakajima, Y. Honda, O. Kitao, H. Nakai, 
 T. Vreven, K. Throssell, J. A. Montgomery, Jr., J. E. Peralta, 
 F. Ogliaro, M. J. Bearpark, J. J. Heyd, E. N. Brothers, K. N. Kudin, 
 V. N. Staroverov, T. A. Keith, R. Kobayashi, J. Normand, 
 K. Raghavachari, A. P. Rendell, J. C. Burant, S. S. Iyengar, 
 J. Tomasi, M. Cossi, J. M. Millam, M. Klene, C. Adamo, R. Cammi, 
 J. W. Ochterski, R. L. Martin, K. Morokuma, O. Farkas, 
 J. B. Foresman, and D. J. Fox, Gaussian, Inc., Wallingford CT, 2019.
 
 ******************************************
 Gaussian 16:  ES64L-G16RevC.01  3-Jul-2019
                28-Mar-2022 
 ******************************************
 %chk=molecule
 Default route: CacheSize=180224 MaxDisk=256GB
 ----------------------------------------------------------------------
 #P CCSD(MaxCyc=300,SaveAmplitudes,ReadAmplitudes)/GEN sp pop=AllOrbita
 ls iop(3/33=1,3/36=-1)
 ----------------------------------------------------------------------
 1/4=180224,38=1,172=1/1;
 2/4=180224,12=2,17=6,18=5,40=1/2;
 3/4=180224,5=7,11=9,25=1,30=1,33=1,36=-1/1,2,3;
 4/4=180224/1;
 5/4=180224,5=2,38=5/2;
 8/4=180224,6=4,9=120000,10=1,24=1/1,4;
 9/4=180224,5=7,6=300,77=1/13;
 6/4=180224,7=2,8=2,9=2,10=2,96=-1/1;
 99/4=180224,5=1,9=1/99;
 Leave Link    1 at Mon Mar 28 12:47:08 2022, MaxMem=           0 cpu:               2.5 elap:               0.1
 (Enter /nopt/nrel/apps/gaussian/g16C_1/g16/l101.exe)
 ----
 test
 ----
 Symbolic Z-matrix:
 Charge =  0 Multiplicity = 6
 H                     0.        0.        0. 
 Ti                    0.        0.        2.9 
 
 ITRead=  0  0
 MicOpt= -1 -1
 NAtoms=      2 NQM=        2 NQMF=       0 NMMI=      0 NMMIF=      0
                NMic=       0 NMicF=      0.
                    Isotopes and Nuclear Properties:
 (Nuclear quadrupole moments (NQMom) in fm**2, nuclear magnetic moments (NMagM)
  in nuclear magnetons)

  Atom         1           2
 IAtWgt=           1          48
 AtmWgt=   1.0078250  47.9479467
 NucSpn=           1           0
 AtZEff=  -0.0000000  -0.0000000
 NQMom=    0.0000000   0.0000000
 NMagM=    2.7928460   0.0000000
 AtZNuc=   1.0000000  22.0000000
 Leave Link  101 at Mon Mar 28 12:47:08 2022, MaxMem=  9663676416 cpu:               3.4 elap:               0.1
 (Enter /nopt/nrel/apps/gaussian/g16C_1/g16/l202.exe)
                          Input orientation:                          
 ---------------------------------------------------------------------
 Center     Atomic      Atomic             Coordinates (Angstroms)
 Number     Number       Type             X           Y           Z
 ---------------------------------------------------------------------
      1          1           0        0.000000    0.000000    0.000000
      2         22           0        0.000000    0.000000    2.900000
 ---------------------------------------------------------------------
 Stoichiometry    HTi(6)
 Framework group  C*V[C*(HTi)]
 Deg. of freedom     1
 Full point group                 C*V     NOp   4
 Largest Abelian subgroup         C2V     NOp   4
 Largest concise Abelian subgroup C1      NOp   1
                         Standard orientation:                         
 ---------------------------------------------------------------------
 Center     Atomic      Atomic             Coordinates (Angstroms)
 Number     Number       Type             X           Y           Z
 ---------------------------------------------------------------------
      1          1           0        0.000000    0.000000   -2.773913
      2         22           0        0.000000    0.000000    0.126087
 ---------------------------------------------------------------------
 Rotational constants (GHZ):           0.0000000          60.8793417          60.8793417
 Leave Link  202 at Mon Mar 28 12:47:08 2022, MaxMem=  9663676416 cpu:               0.8 elap:               0.0
 (Enter /nopt/nrel/apps/gaussian/g16C_1/g16/l301.exe)
 General basis read from cards:  (5D, 7F)
                         Coordinates in L301:                         
 ---------------------------------------------------------------------
 Center     Atomic      Atomic             Coordinates (Angstroms)
 Number     Number       Type             X           Y           Z
 ---------------------------------------------------------------------
      1          1           0        0.000000    0.000000   -2.773913
      2         22           0        0.000000    0.000000    0.126087
 ---------------------------------------------------------------------
 Centers:       1
 STO-3G
 ****
 Centers:       2
 3-21G
 ****
 FixB: optimizing general contractions.
 Ernie: Thresh=  0.10000D-02 Tol=  0.10000D-05 Strict=F.
 IA=     1 ShT= 0 ShC= 0 NL=   1 NS=   0.
 IA=     1 L=0 SC=0 ISt=    0 NBk=    0 NP=    0 IndPr=    0.
 IA=     2 ShT= 0 ShC= 0 NL=   1 NS=   0.
 IA=     2 L=0 SC=0 ISt=    0 NBk=    0 NP=    0 IndPr=    0.
 IA=     2 ShT= 1 ShC= 0 NL=   4 NS=   1.
 IA=     2 L=1 SC=0 ISt=    1 NBk=    3 NP=    8 IndPr=    0.
 DoElim1:  L=1 select primitive    1 from    2 using    1 C=-1.09D-01
 DoElim1:  L=1 select primitive    1 from    3 using    1 C=-1.09D-01
 DoElim1:  L=1 select primitive    4 from    3 using    2 C=-2.86D-01
 DoElim2:  L=1 select primitive    8 from    2 using    3 C= 1.10D+00
 DoElim2:  L=1 select primitive    8 from    1 using    3 C= 1.10D+00
 DoElim2:  L=1 select primitive    6 from    1 using    2 C= 8.60D-01
 DoElim1:  L=1 select primitive    1 from    2 using    1 C= 1.37D-01
 DoElim1:  L=1 select primitive    1 from    3 using    1 C= 1.37D-01
 DoElim1:  L=1 select primitive    4 from    3 using    2 C= 1.92D-02
 DoElim2:  L=1 select primitive    8 from    2 using    3 C= 1.00D+00
 DoElim2:  L=1 select primitive    8 from    1 using    3 C= 1.00D+00
 DoElim2:  L=1 select primitive    6 from    1 using    2 C= 6.36D-01
 Delete L=1 primitive    6 from    3 C=  0.00D+00.
 Delete L=1 primitive    5 from    3 C=  0.00D+00.
 Delete L=1 primitive    4 from    3 C=  0.00D+00.
 Delete L=1 primitive    3 from    3 C=  0.00D+00.
 Delete L=1 primitive    2 from    3 C=  0.00D+00.
 Delete L=1 primitive    1 from    3 C=  0.00D+00.
 Delete L=1 primitive    8 from    2 C=  0.00D+00.
 Delete L=1 primitive    7 from    2 C=  0.00D+00.
 Delete L=1 primitive    3 from    2 C=  0.00D+00.
 Delete L=1 primitive    2 from    2 C=  0.00D+00.
 Delete L=1 primitive    1 from    2 C=  0.00D+00.
 Delete L=1 primitive    8 from    1 C=  0.00D+00.
 Delete L=1 primitive    7 from    1 C=  0.00D+00.
 Delete L=1 primitive    6 from    1 C=  0.00D+00.
 Delete L=1 primitive    5 from    1 C=  0.00D+00.
 Delete L=1 primitive    4 from    1 C=  0.00D+00.
 IA=     2 L=1 SC=0 ISt=    0 NBk=    0 NP=    0 IndPr=    8.
 IA=     2 ShT= 2 ShC= 2 NL=   2 NS=   1.
 IA=     2 L=2 SC=2 ISt=    0 NBk=    0 NP=    0 IndPr=    0.
 LdAtmC:  AtmChg=     1.000000    22.000000
 AtZEff=     -1.0000000    -23.9800000
 NEqShl: 
              1            2            3            4
     1            1            1            1            1
     2            2            2            2            2
     3            3            3            3            3
     4            4            4            4            4
     5            5            5            5            5
     6            6            6            6            6
     7            7            7            7            7
     8            8            8            8            8
 NEqBas: 
              1            2            3            4
     1            1            1            1            1
     2            2            2            2            2
     3            3            3            3            3
     4            4           -4           -4            4
     5            5           -5            5           -5
     6            6            6            6            6
     7            7            7            7            7
     8            8           -8           -8            8
     9            9           -9            9           -9
    10           10           10           10           10
    11           11           11           11           11
    12           12          -12          -12           12
    13           13          -13           13          -13
    14           14           14           14           14
    15           15           15           15           15
    16           16          -16          -16           16
    17           17          -17           17          -17
    18           18           18           18           18
    19           19           19           19           19
    20           20           20           20           20
    21           21           21           21           21
    22           22           22          -22          -22
    23           23          -23          -23           23
    24           24          -24           24          -24
    25           25           25           25           25
    26           26           26           26           26
    27           27           27           27           27
    28           28           28          -28          -28
    29           29          -29          -29           29
    30           30          -30           30          -30
 There are    16 symmetry adapted cartesian basis functions of A1  symmetry.
   1         1   1   1   1
   2         2   2   2   2
   3         3   3   3   3
   4         6   6   6   6
   5         7   7   7   7
   6        10  10  10  10
   7        11  11  11  11
   8        14  14  14  14
   9        15  15  15  15
  10        18  18  18  18
  11        19  19  19  19
  12        20  20  20  20
  13        21  21  21  21
  14        25  25  25  25
  15        26  26  26  26
  16        27  27  27  27
 There are     2 symmetry adapted cartesian basis functions of A2  symmetry.
  17        22  22  22  22
  18        28  28  28  28
 There are     6 symmetry adapted cartesian basis functions of B1  symmetry.
  19         4   4   4   4
  20         8   8   8   8
  21        12  12  12  12
  22        16  16  16  16
  23        23  23  23  23
  24        29  29  29  29
 There are     6 symmetry adapted cartesian basis functions of B2  symmetry.
  25         5   5   5   5
  26         9   9   9   9
  27        13  13  13  13
  28        17  17  17  17
  29        24  24  24  24
  30        30  30  30  30
 Order= 1 2 4 3
 Reordered character table:
              1            2            3            4            5
     1            1            1            1            1            1
     2            2            1            1           -1           -1
     3            4            1           -1           -1            1
     4            3            1           -1            1           -1
 NEqShl: 
              1            2            3            4
     1            1            1            1            1
     2            2            2            2            2
     3            3            3            3            3
     4            4            4            4            4
     5            5            5            5            5
     6            6            6            6            6
     7            7            7            7            7
     8            8            8            8            8
 NEqBas: 
              1            2            3            4
     1            1            1            1            1
     2            2            2            2            2
     3            3            3            3            3
     4            4           -4           -4            4
     5            5           -5            5           -5
     6            6            6            6            6
     7            7            7            7            7
     8            8           -8           -8            8
     9            9           -9            9           -9
    10           10           10           10           10
    11           11           11           11           11
    12           12          -12          -12           12
    13           13          -13           13          -13
    14           14           14           14           14
    15           15           15           15           15
    16           16          -16          -16           16
    17           17          -17           17          -17
    18           18           18           18           18
    19           19           19           19           19
    20           20          -20          -20           20
    21           21          -21           21          -21
    22           22           22           22           22
    23           23           23          -23          -23
    24           24           24           24           24
    25           25          -25          -25           25
    26           26          -26           26          -26
    27           27           27           27           27
    28           28           28          -28          -28
 There are    14 symmetry adapted basis functions of A1  symmetry.
   1         1   1   1   1
   2         2   2   2   2
   3         3   3   3   3
   4         6   6   6   6
   5         7   7   7   7
   6        10  10  10  10
   7        11  11  11  11
   8        14  14  14  14
   9        15  15  15  15
  10        18  18  18  18
  11        19  19  19  19
  12        22  22  22  22
  13        24  24  24  24
  14        27  27  27  27
 There are     2 symmetry adapted basis functions of A2  symmetry.
  15        23  23  23  23
  16        28  28  28  28
 There are     6 symmetry adapted basis functions of B1  symmetry.
  17         4   4   4   4
  18         8   8   8   8
  19        12  12  12  12
  20        16  16  16  16
  21        20  20  20  20
  22        25  25  25  25
 There are     6 symmetry adapted basis functions of B2  symmetry.
  23         5   5   5   5
  24         9   9   9   9
  25        13  13  13  13
  26        17  17  17  17
  27        21  21  21  21
  28        26  26  26  26
 Order= 1 2 4 3
 Reordered character table:
              1            2            3            4            5
     1            1            1            1            1            1
     2            2            1            1           -1           -1
     3            4            1           -1           -1            1
     4            3            1           -1            1           -1
    28 basis functions,    60 primitive gaussians,    30 cartesian basis functions
    14 alpha electrons        9 beta electrons
       nuclear repulsion energy         4.0144478070 Hartrees.
 IS=     1 IAt=     1 ISR=     1 T=0 IP=      1 IndIP=      1 IndIPD=      0 C=  2.769344D-01  0.000000D+00                             NZ=T
 IS=     1 IAt=     1 ISR=     1 T=0 IP=      2 IndIP=      2 IndIPD=      1 C=  2.678389D-01  0.000000D+00                             NZ=T
 IS=     1 IAt=     1 ISR=     1 T=0 IP=      3 IndIP=      3 IndIPD=      2 C=  8.347367D-02  0.000000D+00                             NZ=T
 IS=     2 IAt=     2 ISR=     1 T=0 IP=      1 IndIP=      4 IndIPD=      0 C=  1.537359D+01  0.000000D+00                             NZ=T
 IS=     2 IAt=     2 ISR=     1 T=0 IP=      2 IndIP=      5 IndIPD=      1 C=  2.196579D+01  0.000000D+00                             NZ=T
 IS=     2 IAt=     2 ISR=     1 T=0 IP=      3 IndIP=      6 IndIPD=      2 C=  1.259884D+01  0.000000D+00                             NZ=T
 IS=     3 IAt=     2 ISR=     2 T=1 IP=      1 IndIP=      7 IndIPD=      0 C= -2.459358D+00  6.155759D+01                             NZ=T
 IS=     3 IAt=     2 ISR=     2 T=1 IP=      2 IndIP=      8 IndIPD=      1 C=  7.266107D-01  3.612099D+01                             NZ=T
 IS=     3 IAt=     2 ISR=     2 T=1 IP=      3 IndIP=      9 IndIPD=      2 C=  2.742121D+00  7.115701D+00                             NZ=T
 IS=     4 IAt=     2 ISR=     3 T=1 IP=      1 IndIP=     10 IndIPD=      0 C= -8.049761D-01  2.703339D-01                             NZ=T
 IS=     4 IAt=     2 ISR=     3 T=1 IP=      2 IndIP=     11 IndIPD=      1 C=  3.851869D-01  1.489563D+00                             NZ=T
 IS=     4 IAt=     2 ISR=     3 T=1 IP=      3 IndIP=     12 IndIPD=      2 C=  4.416753D-01  5.252178D-01                             NZ=T
 IS=     5 IAt=     2 ISR=     4 T=1 IP=      1 IndIP=     13 IndIPD=      0 C= -1.138440D-01  2.076393D-04                             NZ=T
 IS=     5 IAt=     2 ISR=     4 T=1 IP=      2 IndIP=     14 IndIPD=      1 C=  1.102445D-01  5.419267D-02                             NZ=T
 IS=     6 IAt=     2 ISR=     5 T=1 IP=      1 IndIP=     15 IndIPD=      0 C=  4.686088D-02  1.526772D-02                             NZ=T
 IS=     7 IAt=     2 ISR=     6 T=2 IP=      1 IndIP=     16 IndIPD=      1 C=  0.000000D+00  0.000000D+00  1.331025D+01  0.000000D+00 NZ=T
 IS=     7 IAt=     2 ISR=     6 T=2 IP=      2 IndIP=     17 IndIPD=      2 C=  0.000000D+00  0.000000D+00  3.600378D+00  0.000000D+00 NZ=T
 IS=     8 IAt=     2 ISR=     7 T=2 IP=      1 IndIP=     18 IndIPD=      3 C=  0.000000D+00  0.000000D+00  3.518721D-01  0.000000D+00 NZ=T
 IExCor=    0 DFT=F Ex=HF Corr=None ExCW=0 ScaHFX=  1.000000
 ScaDFX=  1.000000  1.000000  1.000000  1.000000 ScalE2=  1.000000  1.000000
 IRadAn=      5 IRanWt=     -1 IRanGd=            0 ICorTp=0 IEmpDi=  4
 NAtoms=    2 NActive=    2 NUniq=    2 SFac= 1.00D+00 NAtFMM=   60 NAOKFM=F Big=F
 Integral buffers will be    131072 words long.
 Raffenetti 2 integral format.
 Two-electron integral symmetry is turned on.
 Leave Link  301 at Mon Mar 28 12:47:08 2022, MaxMem=  9663676416 cpu:               1.8 elap:               0.1
 (Enter /nopt/nrel/apps/gaussian/g16C_1/g16/l302.exe)
 NPDir=0 NMtPBC=     1 NCelOv=     1 NCel=       1 NClECP=     1 NCelD=      1
         NCelK=      1 NCelE2=     1 NClLst=     1 CellRange=     0.0.
 One-electron integrals computed using PRISM.
 One-electron integral symmetry used in STVInt
 Entering OneElI...
 Calculate overlap and kinetic energy integrals
    NBasis =  28  MinDer = 0  MaxDer = 0
 Requested accuracy = 0.1000D-12
 Symmetry will be used
 PrmmSu-InSpLW:  IPartL=    0 NPrtUS=   36 NPrtUL=    1 DoSpLW=F IThBeg=    0 IThEnd=   35 NThAct=   36.
 PrSmSu:  IncTry=   512 NBBP=             36 NTPThr=   100 NPartT=   36 Incr=           1 LDynOK=F GPUOK=F.
 PrsmSu:  NPrtUS=  36 ThrOK=T IAlg=1 LenDen=           0 ISkipM=0 DoSpLW=F IThBeg=    0 IThEnd=   35.
 Prism:   IPart=     0 DynPar=F LinDyn=F Incr=           1.
 PRISM was handed   268432204 working-precision words and    36 shell-pairs
 PRISM was handed   268432204 working-precision words and    36 shell-pairs
 PRISM was handed   268432204 working-precision words and    36 shell-pairs
 PRISM was handed   268432204 working-precision words and    36 shell-pairs
 PRISM was handed   268432204 working-precision words and    36 shell-pairs
 PRISM was handed   268432204 working-precision words and    36 shell-pairs
 PRISM was handed   268432204 working-precision words and    36 shell-pairs
 PRISM was handed   268432204 working-precision words and    36 shell-pairs
 IPart=  6 NShTot=           0 NBatch=           0 AvBLen=         0.0
 IPart= 22 NShTot=           0 NBatch=           0 AvBLen=         0.0
 IPart= 21 NShTot=           0 NBatch=           0 AvBLen=         0.0
 IPart= 10 NShTot=           0 NBatch=           0 AvBLen=         0.0
 IPart= 12 NShTot=           0 NBatch=           0 AvBLen=         0.0
 PRISM was handed   268432204 working-precision words and    36 shell-pairs
 IPart= 24 NShTot=           0 NBatch=           0 AvBLen=         0.0
 PRISM was handed   268432204 working-precision words and    36 shell-pairs
 PRISM was handed   268432204 working-precision words and    36 shell-pairs
 PRISM was handed   268432204 working-precision words and    36 shell-pairs
 PRISM was handed   268432204 working-precision words and    36 shell-pairs
 IPart=  4 NShTot=           0 NBatch=           0 AvBLen=         0.0
 PRISM was handed   268432204 working-precision words and    36 shell-pairs
 IPart= 18 NShTot=           0 NBatch=           0 AvBLen=         0.0
 IPart= 32 NShTot=           0 NBatch=           0 AvBLen=         0.0
 IPart= 27 NShTot=           0 NBatch=           0 AvBLen=         0.0
 IPart= 34 NShTot=           0 NBatch=           0 AvBLen=         0.0
 PRISM was handed   268432204 working-precision words and    36 shell-pairs
 IPart=  9 NShTot=           0 NBatch=           0 AvBLen=         0.0
 IPart= 13 NShTot=           0 NBatch=           0 AvBLen=         0.0
 PRISM was handed   268432204 working-precision words and    36 shell-pairs
 PRISM was handed   268432204 working-precision words and    36 shell-pairs
 IPart=  0 NShTot=          23 NBatch=          23 AvBLen=         1.0
 IPart=  8 NShTot=           0 NBatch=           0 AvBLen=         0.0
 PRISM was handed   268432204 working-precision words and    36 shell-pairs
 PRISM was handed   268432204 working-precision words and    36 shell-pairs
 IPart= 31 NShTot=           0 NBatch=           0 AvBLen=         0.0
 PRISM was handed   268432204 working-precision words and    36 shell-pairs
 PRISM was handed   268432204 working-precision words and    36 shell-pairs
 PRISM was handed   268432204 working-precision words and    36 shell-pairs
 PRISM was handed   268432204 working-precision words and    36 shell-pairs
 IPart= 17 NShTot=           0 NBatch=           0 AvBLen=         0.0
 PRISM was handed   268432204 working-precision words and    36 shell-pairs
 IPart=  7 NShTot=           0 NBatch=           0 AvBLen=         0.0
 IPart= 20 NShTot=           0 NBatch=           0 AvBLen=         0.0
 IPart= 11 NShTot=           0 NBatch=           0 AvBLen=         0.0
 IPart= 35 NShTot=           0 NBatch=           0 AvBLen=         0.0
 IPart=  1 NShTot=          11 NBatch=          11 AvBLen=         1.0
 PRISM was handed   268432204 working-precision words and    36 shell-pairs
 IPart= 29 NShTot=           0 NBatch=           0 AvBLen=         0.0
 IPart= 14 NShTot=           0 NBatch=           0 AvBLen=         0.0
 PRISM was handed   268432204 working-precision words and    36 shell-pairs
 PRISM was handed   268432204 working-precision words and    36 shell-pairs
 IPart= 33 NShTot=           0 NBatch=           0 AvBLen=         0.0
 PRISM was handed   268432204 working-precision words and    36 shell-pairs
 IPart= 26 NShTot=           0 NBatch=           0 AvBLen=         0.0
 IPart= 15 NShTot=           0 NBatch=           0 AvBLen=         0.0
 PRISM was handed   268432204 working-precision words and    36 shell-pairs
 PRISM was handed   268432204 working-precision words and    36 shell-pairs
 PRISM was handed   268432204 working-precision words and    36 shell-pairs
 IPart=  3 NShTot=           0 NBatch=           0 AvBLen=         0.0
 PRISM was handed   268432204 working-precision words and    36 shell-pairs
 PRISM was handed   268432204 working-precision words and    36 shell-pairs
 IPart= 28 NShTot=           0 NBatch=           0 AvBLen=         0.0
 PRISM was handed   268432204 working-precision words and    36 shell-pairs
 IPart= 19 NShTot=           0 NBatch=           0 AvBLen=         0.0
 PRISM was handed   268432204 working-precision words and    36 shell-pairs
 PRISM was handed   268432204 working-precision words and    36 shell-pairs
 IPart=  5 NShTot=           0 NBatch=           0 AvBLen=         0.0
 IPart= 30 NShTot=           0 NBatch=           0 AvBLen=         0.0
 IPart= 25 NShTot=           0 NBatch=           0 AvBLen=         0.0
 IPart= 23 NShTot=           0 NBatch=           0 AvBLen=         0.0
 IPart= 16 NShTot=           0 NBatch=           0 AvBLen=         0.0
 IPart=  2 NShTot=           2 NBatch=           2 AvBLen=         1.0
 PrSmSu:  NxtVal=             37.
 *** Overlap *** 
                1             2             3             4             5 
      1  0.100000D+01
      2  0.648219D-04  0.100000D+01
      3  0.553858D-03  0.261907D+00  0.100000D+01
      4  0.000000D+00  0.000000D+00  0.000000D+00  0.100000D+01
      5  0.000000D+00  0.000000D+00  0.000000D+00  0.000000D+00  0.100000D+01
      6 -0.244583D-03  0.000000D+00  0.000000D+00  0.000000D+00  0.000000D+00
      7  0.539301D-02  0.101215D-01  0.334950D+00  0.000000D+00  0.000000D+00
      8  0.000000D+00  0.000000D+00  0.000000D+00  0.320730D+00  0.000000D+00
      9  0.000000D+00  0.000000D+00  0.000000D+00  0.000000D+00  0.320730D+00
     10 -0.773051D-02  0.000000D+00  0.000000D+00  0.000000D+00  0.000000D+00
     11  0.133934D+00 -0.323625D-03  0.781293D-02  0.000000D+00  0.000000D+00
     12  0.000000D+00  0.000000D+00  0.000000D+00  0.126594D-01  0.000000D+00
     13  0.000000D+00  0.000000D+00  0.000000D+00  0.000000D+00  0.126594D-01
     14 -0.278232D+00  0.000000D+00  0.000000D+00  0.000000D+00  0.000000D+00
     15  0.193783D+00  0.575699D-02  0.450232D-01  0.000000D+00  0.000000D+00
     16  0.000000D+00  0.000000D+00  0.000000D+00  0.361007D-02  0.000000D+00
     17  0.000000D+00  0.000000D+00  0.000000D+00  0.000000D+00  0.361007D-02
     18 -0.310699D+00  0.000000D+00  0.000000D+00  0.000000D+00  0.000000D+00
     19  0.160130D-02  0.000000D+00  0.000000D+00  0.000000D+00  0.000000D+00
     20  0.000000D+00  0.000000D+00  0.000000D+00  0.000000D+00  0.000000D+00
     21  0.000000D+00  0.000000D+00  0.000000D+00  0.000000D+00  0.000000D+00
     22  0.000000D+00  0.000000D+00  0.000000D+00  0.000000D+00  0.000000D+00
     23  0.000000D+00  0.000000D+00  0.000000D+00  0.000000D+00  0.000000D+00
     24  0.283140D-01  0.000000D+00  0.000000D+00  0.000000D+00  0.000000D+00
     25  0.000000D+00  0.000000D+00  0.000000D+00  0.000000D+00  0.000000D+00
     26  0.000000D+00  0.000000D+00  0.000000D+00  0.000000D+00  0.000000D+00
     27  0.000000D+00  0.000000D+00  0.000000D+00  0.000000D+00  0.000000D+00
     28  0.000000D+00  0.000000D+00  0.000000D+00  0.000000D+00  0.000000D+00
                6             7             8             9            10 
      6  0.100000D+01
      7  0.000000D+00  0.100000D+01
      8  0.000000D+00  0.000000D+00  0.100000D+01
      9  0.000000D+00  0.000000D+00  0.000000D+00  0.100000D+01
     10  0.320730D+00  0.000000D+00  0.000000D+00  0.000000D+00  0.100000D+01
     11  0.000000D+00  0.254017D+00  0.000000D+00  0.000000D+00  0.000000D+00
     12  0.000000D+00  0.000000D+00  0.217564D+00  0.000000D+00  0.000000D+00
     13  0.000000D+00  0.000000D+00  0.000000D+00  0.217564D+00  0.000000D+00
     14  0.126594D-01  0.000000D+00  0.000000D+00  0.000000D+00  0.217564D+00
     15  0.000000D+00  0.230277D+00  0.000000D+00  0.000000D+00  0.000000D+00
     16  0.000000D+00  0.000000D+00  0.710789D-01  0.000000D+00  0.000000D+00
     17  0.000000D+00  0.000000D+00  0.000000D+00  0.710789D-01  0.000000D+00
     18  0.361007D-02  0.000000D+00  0.000000D+00  0.000000D+00  0.710789D-01
     19  0.000000D+00  0.000000D+00  0.000000D+00  0.000000D+00  0.000000D+00
     20  0.000000D+00  0.000000D+00  0.000000D+00  0.000000D+00  0.000000D+00
     21  0.000000D+00  0.000000D+00  0.000000D+00  0.000000D+00  0.000000D+00
     22  0.000000D+00  0.000000D+00  0.000000D+00  0.000000D+00  0.000000D+00
     23  0.000000D+00  0.000000D+00  0.000000D+00  0.000000D+00  0.000000D+00
     24  0.000000D+00  0.000000D+00  0.000000D+00  0.000000D+00  0.000000D+00
     25  0.000000D+00  0.000000D+00  0.000000D+00  0.000000D+00  0.000000D+00
     26  0.000000D+00  0.000000D+00  0.000000D+00  0.000000D+00  0.000000D+00
     27  0.000000D+00  0.000000D+00  0.000000D+00  0.000000D+00  0.000000D+00
     28  0.000000D+00  0.000000D+00  0.000000D+00  0.000000D+00  0.000000D+00
               11            12            13            14            15 
     11  0.100000D+01
     12  0.000000D+00  0.100000D+01
     13  0.000000D+00  0.000000D+00  0.100000D+01
     14  0.000000D+00  0.000000D+00  0.000000D+00  0.100000D+01
     15  0.850437D+00  0.000000D+00  0.000000D+00  0.000000D+00  0.100000D+01
     16  0.000000D+00  0.734775D+00  0.000000D+00  0.000000D+00  0.000000D+00
     17  0.000000D+00  0.000000D+00  0.734775D+00  0.000000D+00  0.000000D+00
     18  0.000000D+00  0.000000D+00  0.000000D+00  0.734775D+00  0.000000D+00
     19  0.000000D+00  0.000000D+00  0.000000D+00  0.000000D+00  0.000000D+00
     20  0.000000D+00  0.000000D+00  0.000000D+00  0.000000D+00  0.000000D+00
     21  0.000000D+00  0.000000D+00  0.000000D+00  0.000000D+00  0.000000D+00
     22  0.000000D+00  0.000000D+00  0.000000D+00  0.000000D+00  0.000000D+00
     23  0.000000D+00  0.000000D+00  0.000000D+00  0.000000D+00  0.000000D+00
     24  0.000000D+00  0.000000D+00  0.000000D+00  0.000000D+00  0.000000D+00
     25  0.000000D+00  0.000000D+00  0.000000D+00  0.000000D+00  0.000000D+00
     26  0.000000D+00  0.000000D+00  0.000000D+00  0.000000D+00  0.000000D+00
     27  0.000000D+00  0.000000D+00  0.000000D+00  0.000000D+00  0.000000D+00
     28  0.000000D+00  0.000000D+00  0.000000D+00  0.000000D+00  0.000000D+00
               16            17            18            19            20 
     16  0.100000D+01
     17  0.000000D+00  0.100000D+01
     18  0.000000D+00  0.000000D+00  0.100000D+01
     19  0.000000D+00  0.000000D+00  0.000000D+00  0.100000D+01
     20  0.000000D+00  0.000000D+00  0.000000D+00  0.000000D+00  0.100000D+01
     21  0.000000D+00  0.000000D+00  0.000000D+00  0.000000D+00  0.000000D+00
     22  0.000000D+00  0.000000D+00  0.000000D+00  0.000000D+00  0.000000D+00
     23  0.000000D+00  0.000000D+00  0.000000D+00  0.000000D+00  0.000000D+00
     24  0.000000D+00  0.000000D+00  0.000000D+00  0.395959D+00  0.000000D+00
     25  0.000000D+00  0.000000D+00  0.000000D+00  0.000000D+00  0.395959D+00
     26  0.000000D+00  0.000000D+00  0.000000D+00  0.000000D+00  0.000000D+00
     27  0.000000D+00  0.000000D+00  0.000000D+00  0.000000D+00  0.000000D+00
     28  0.000000D+00  0.000000D+00  0.000000D+00  0.000000D+00  0.000000D+00
               21            22            23            24            25 
     21  0.100000D+01
     22  0.000000D+00  0.100000D+01
     23  0.000000D+00  0.000000D+00  0.100000D+01
     24  0.000000D+00  0.000000D+00  0.000000D+00  0.100000D+01
     25  0.000000D+00  0.000000D+00  0.000000D+00  0.000000D+00  0.100000D+01
     26  0.395959D+00  0.000000D+00  0.000000D+00  0.000000D+00  0.000000D+00
     27  0.000000D+00  0.395959D+00  0.000000D+00  0.000000D+00  0.000000D+00
     28  0.000000D+00  0.000000D+00  0.395959D+00  0.000000D+00  0.000000D+00
               26            27            28 
     26  0.100000D+01
     27  0.000000D+00  0.100000D+01
     28  0.000000D+00  0.000000D+00  0.100000D+01
 *** Kinetic Energy *** 
                1             2             3             4             5 
      1  0.760032D+00
      2 -0.778198D-04  0.238140D+03
      3 -0.627881D-03 -0.849715D+01  0.110812D+02
      4  0.000000D+00  0.000000D+00  0.000000D+00  0.405624D+02
      5  0.000000D+00  0.000000D+00  0.000000D+00  0.000000D+00  0.405624D+02
      6  0.198828D-03  0.000000D+00  0.000000D+00  0.000000D+00  0.000000D+00
      7 -0.387771D-02 -0.119187D+01 -0.935732D+00  0.000000D+00  0.000000D+00
      8  0.000000D+00  0.000000D+00  0.000000D+00  0.225504D+01  0.000000D+00
      9  0.000000D+00  0.000000D+00  0.000000D+00  0.000000D+00  0.225504D+01
     10  0.382256D-02  0.000000D+00  0.000000D+00  0.000000D+00  0.000000D+00
     11 -0.188928D-02 -0.207112D-01 -0.130608D+00  0.000000D+00  0.000000D+00
     12  0.000000D+00  0.000000D+00  0.000000D+00  0.467897D-02  0.000000D+00
     13  0.000000D+00  0.000000D+00  0.000000D+00  0.000000D+00  0.467897D-02
     14 -0.243355D-01  0.000000D+00  0.000000D+00  0.000000D+00  0.000000D+00
     15  0.722589D-02  0.458197D-03  0.356994D-02  0.000000D+00  0.000000D+00
     16  0.000000D+00  0.000000D+00  0.000000D+00  0.477331D-03  0.000000D+00
     17  0.000000D+00  0.000000D+00  0.000000D+00  0.000000D+00  0.477331D-03
     18 -0.264354D-01  0.000000D+00  0.000000D+00  0.000000D+00  0.000000D+00
     19 -0.585792D-03  0.000000D+00  0.000000D+00  0.000000D+00  0.000000D+00
     20  0.000000D+00  0.000000D+00  0.000000D+00  0.000000D+00  0.000000D+00
     21  0.000000D+00  0.000000D+00  0.000000D+00  0.000000D+00  0.000000D+00
     22  0.000000D+00  0.000000D+00  0.000000D+00  0.000000D+00  0.000000D+00
     23  0.000000D+00  0.000000D+00  0.000000D+00  0.000000D+00  0.000000D+00
     24 -0.680607D-02  0.000000D+00  0.000000D+00  0.000000D+00  0.000000D+00
     25  0.000000D+00  0.000000D+00  0.000000D+00  0.000000D+00  0.000000D+00
     26  0.000000D+00  0.000000D+00  0.000000D+00  0.000000D+00  0.000000D+00
     27  0.000000D+00  0.000000D+00  0.000000D+00  0.000000D+00  0.000000D+00
     28  0.000000D+00  0.000000D+00  0.000000D+00  0.000000D+00  0.000000D+00
                6             7             8             9            10 
      6  0.405624D+02
      7  0.000000D+00  0.139068D+01
      8  0.000000D+00  0.000000D+00  0.266954D+01
      9  0.000000D+00  0.000000D+00  0.000000D+00  0.266954D+01
     10  0.225504D+01  0.000000D+00  0.000000D+00  0.000000D+00  0.266954D+01
     11  0.000000D+00 -0.125868D+00  0.000000D+00  0.000000D+00  0.000000D+00
     12  0.000000D+00  0.000000D+00  0.727335D-01  0.000000D+00  0.000000D+00
     13  0.000000D+00  0.000000D+00  0.000000D+00  0.727335D-01  0.000000D+00
     14  0.467897D-02  0.000000D+00  0.000000D+00  0.000000D+00  0.727335D-01
     15  0.000000D+00  0.176460D-01  0.000000D+00  0.000000D+00  0.000000D+00
     16  0.000000D+00  0.000000D+00  0.909809D-02  0.000000D+00  0.000000D+00
     17  0.000000D+00  0.000000D+00  0.000000D+00  0.909809D-02  0.000000D+00
     18  0.477331D-03  0.000000D+00  0.000000D+00  0.000000D+00  0.909809D-02
     19  0.000000D+00  0.000000D+00  0.000000D+00  0.000000D+00  0.000000D+00
     20  0.000000D+00  0.000000D+00  0.000000D+00  0.000000D+00  0.000000D+00
     21  0.000000D+00  0.000000D+00  0.000000D+00  0.000000D+00  0.000000D+00
     22  0.000000D+00  0.000000D+00  0.000000D+00  0.000000D+00  0.000000D+00
     23  0.000000D+00  0.000000D+00  0.000000D+00  0.000000D+00  0.000000D+00
     24  0.000000D+00  0.000000D+00  0.000000D+00  0.000000D+00  0.000000D+00
     25  0.000000D+00  0.000000D+00  0.000000D+00  0.000000D+00  0.000000D+00
     26  0.000000D+00  0.000000D+00  0.000000D+00  0.000000D+00  0.000000D+00
     27  0.000000D+00  0.000000D+00  0.000000D+00  0.000000D+00  0.000000D+00
     28  0.000000D+00  0.000000D+00  0.000000D+00  0.000000D+00  0.000000D+00
               11            12            13            14            15 
     11  0.130956D+00
     12  0.000000D+00  0.182825D+00
     13  0.000000D+00  0.000000D+00  0.182825D+00
     14  0.000000D+00  0.000000D+00  0.000000D+00  0.182825D+00
     15  0.485464D-01  0.000000D+00  0.000000D+00  0.000000D+00  0.398069D-01
     16  0.000000D+00  0.715354D-01  0.000000D+00  0.000000D+00  0.000000D+00
     17  0.000000D+00  0.000000D+00  0.715354D-01  0.000000D+00  0.000000D+00
     18  0.000000D+00  0.000000D+00  0.000000D+00  0.715354D-01  0.000000D+00
     19  0.000000D+00  0.000000D+00  0.000000D+00  0.000000D+00  0.000000D+00
     20  0.000000D+00  0.000000D+00  0.000000D+00  0.000000D+00  0.000000D+00
     21  0.000000D+00  0.000000D+00  0.000000D+00  0.000000D+00  0.000000D+00
     22  0.000000D+00  0.000000D+00  0.000000D+00  0.000000D+00  0.000000D+00
     23  0.000000D+00  0.000000D+00  0.000000D+00  0.000000D+00  0.000000D+00
     24  0.000000D+00  0.000000D+00  0.000000D+00  0.000000D+00  0.000000D+00
     25  0.000000D+00  0.000000D+00  0.000000D+00  0.000000D+00  0.000000D+00
     26  0.000000D+00  0.000000D+00  0.000000D+00  0.000000D+00  0.000000D+00
     27  0.000000D+00  0.000000D+00  0.000000D+00  0.000000D+00  0.000000D+00
     28  0.000000D+00  0.000000D+00  0.000000D+00  0.000000D+00  0.000000D+00
               16            17            18            19            20 
     16  0.663448D-01
     17  0.000000D+00  0.663448D-01
     18  0.000000D+00  0.000000D+00  0.663448D-01
     19  0.000000D+00  0.000000D+00  0.000000D+00  0.800995D+01
     20  0.000000D+00  0.000000D+00  0.000000D+00  0.000000D+00  0.800995D+01
     21  0.000000D+00  0.000000D+00  0.000000D+00  0.000000D+00  0.000000D+00
     22  0.000000D+00  0.000000D+00  0.000000D+00  0.000000D+00  0.000000D+00
     23  0.000000D+00  0.000000D+00  0.000000D+00  0.000000D+00  0.000000D+00
     24  0.000000D+00  0.000000D+00  0.000000D+00  0.930872D+00  0.000000D+00
     25  0.000000D+00  0.000000D+00  0.000000D+00  0.000000D+00  0.930872D+00
     26  0.000000D+00  0.000000D+00  0.000000D+00  0.000000D+00  0.000000D+00
     27  0.000000D+00  0.000000D+00  0.000000D+00  0.000000D+00  0.000000D+00
     28  0.000000D+00  0.000000D+00  0.000000D+00  0.000000D+00  0.000000D+00
               21            22            23            24            25 
     21  0.800995D+01
     22  0.000000D+00  0.800995D+01
     23  0.000000D+00  0.000000D+00  0.800995D+01
     24  0.000000D+00  0.000000D+00  0.000000D+00  0.144943D+01
     25  0.000000D+00  0.000000D+00  0.000000D+00  0.000000D+00  0.144943D+01
     26  0.930872D+00  0.000000D+00  0.000000D+00  0.000000D+00  0.000000D+00
     27  0.000000D+00  0.930872D+00  0.000000D+00  0.000000D+00  0.000000D+00
     28  0.000000D+00  0.000000D+00  0.930872D+00  0.000000D+00  0.000000D+00
               26            27            28 
     26  0.144943D+01
     27  0.000000D+00  0.144943D+01
     28  0.000000D+00  0.000000D+00  0.144943D+01
 Entering OneElI...
 Calculate potential energy integrals
    NBasis =  28  MinDer = 0  MaxDer = 0
 Requested accuracy = 0.1000D-12
 Symmetry will be used
 PrmmSu-InSpLW:  IPartL=    0 NPrtUS=   36 NPrtUL=    1 DoSpLW=F IThBeg=    0 IThEnd=   35 NThAct=   36.
 PrSmSu:  IncTry=   512 NBBP=             72 NTPThr=   100 NPartT=   36 Incr=           1 LDynOK=F GPUOK=F.
 PrsmSu:  NPrtUS=  36 ThrOK=T IAlg=1 LenDen=           0 ISkipM=0 DoSpLW=F IThBeg=    0 IThEnd=   35.
 Prism:   IPart=     0 DynPar=F LinDyn=F Incr=           1.
 PRISM was handed   268432653 working-precision words and    36 shell-pairs
 PRISM was handed   268432653 working-precision words and    36 shell-pairs
 PRISM was handed   268432653 working-precision words and    36 shell-pairs
 PRISM was handed   268432653 working-precision words and    36 shell-pairs
 PRISM was handed   268432653 working-precision words and    36 shell-pairs
 PRISM was handed   268432653 working-precision words and    36 shell-pairs
 PRISM was handed   268432653 working-precision words and    36 shell-pairs
 PRISM was handed   268432653 working-precision words and    36 shell-pairs
 PRISM was handed   268432653 working-precision words and    36 shell-pairs
 PRISM was handed   268432653 working-precision words and    36 shell-pairs
 PRISM was handed   268432653 working-precision words and    36 shell-pairs
 PRISM was handed   268432653 working-precision words and    36 shell-pairs
 PRISM was handed   268432653 working-precision words and    36 shell-pairs
 PRISM was handed   268432653 working-precision words and    36 shell-pairs
 PRISM was handed   268432653 working-precision words and    36 shell-pairs
 PRISM was handed   268432653 working-precision words and    36 shell-pairs
 PRISM was handed   268432653 working-precision words and    36 shell-pairs
 PRISM was handed   268432653 working-precision words and    36 shell-pairs
 PRISM was handed   268432653 working-precision words and    36 shell-pairs
 PRISM was handed   268432653 working-precision words and    36 shell-pairs
 PRISM was handed   268432653 working-precision words and    36 shell-pairs
 PRISM was handed   268432653 working-precision words and    36 shell-pairs
 PRISM was handed   268432653 working-precision words and    36 shell-pairs
 PRISM was handed   268432653 working-precision words and    36 shell-pairs
 PRISM was handed   268432653 working-precision words and    36 shell-pairs
 PRISM was handed   268432653 working-precision words and    36 shell-pairs
 PRISM was handed   268432653 working-precision words and    36 shell-pairs
 PRISM was handed   268432653 working-precision words and    36 shell-pairs
 PRISM was handed   268432653 working-precision words and    36 shell-pairs
 PRISM was handed   268432653 working-precision words and    36 shell-pairs
 PRISM was handed   268432653 working-precision words and    36 shell-pairs
 PRISM was handed   268432653 working-precision words and    36 shell-pairs
 PRISM was handed   268432653 working-precision words and    36 shell-pairs
 PRISM was handed   268432653 working-precision words and    36 shell-pairs
 PRISM was handed   268432653 working-precision words and    36 shell-pairs
 PRISM was handed   268432653 working-precision words and    36 shell-pairs
 IPart= 30 NShTot=           0 NBatch=           0 AvBLen=         0.0
 IPart= 12 NShTot=           0 NBatch=           0 AvBLen=         0.0
 IPart= 32 NShTot=           0 NBatch=           0 AvBLen=         0.0
 IPart=  5 NShTot=           0 NBatch=           0 AvBLen=         0.0
 IPart=  4 NShTot=           0 NBatch=           0 AvBLen=         0.0
 IPart= 24 NShTot=           0 NBatch=           0 AvBLen=         0.0
 IPart= 17 NShTot=           0 NBatch=           0 AvBLen=         0.0
 IPart= 26 NShTot=           0 NBatch=           0 AvBLen=         0.0
 IPart= 16 NShTot=           0 NBatch=           0 AvBLen=         0.0
 IPart= 20 NShTot=           0 NBatch=           0 AvBLen=         0.0
 IPart= 35 NShTot=           0 NBatch=           0 AvBLen=         0.0
 IPart= 13 NShTot=           0 NBatch=           0 AvBLen=         0.0
 IPart= 29 NShTot=           0 NBatch=           0 AvBLen=         0.0
 IPart= 11 NShTot=           0 NBatch=           0 AvBLen=         0.0
 IPart= 34 NShTot=           0 NBatch=           0 AvBLen=         0.0
 IPart= 28 NShTot=           0 NBatch=           0 AvBLen=         0.0
 IPart=  7 NShTot=           0 NBatch=           0 AvBLen=         0.0
 IPart= 19 NShTot=           0 NBatch=           0 AvBLen=         0.0
 IPart=  6 NShTot=           0 NBatch=           0 AvBLen=         0.0
 IPart= 31 NShTot=           0 NBatch=           0 AvBLen=         0.0
 IPart=  1 NShTot=          22 NBatch=          11 AvBLen=         2.0
 IPart=  0 NShTot=          46 NBatch=          23 AvBLen=         2.0
 IPart= 33 NShTot=           0 NBatch=           0 AvBLen=         0.0
 IPart= 10 NShTot=           0 NBatch=           0 AvBLen=         0.0
 IPart= 23 NShTot=           0 NBatch=           0 AvBLen=         0.0
 IPart= 25 NShTot=           0 NBatch=           0 AvBLen=         0.0
 IPart= 18 NShTot=           0 NBatch=           0 AvBLen=         0.0
 IPart=  8 NShTot=           0 NBatch=           0 AvBLen=         0.0
 IPart=  3 NShTot=           0 NBatch=           0 AvBLen=         0.0
 IPart= 15 NShTot=           0 NBatch=           0 AvBLen=         0.0
 IPart= 21 NShTot=           0 NBatch=           0 AvBLen=         0.0
 IPart= 22 NShTot=           0 NBatch=           0 AvBLen=         0.0
 IPart=  2 NShTot=           4 NBatch=           2 AvBLen=         2.0
 IPart= 27 NShTot=           0 NBatch=           0 AvBLen=         0.0
 IPart= 14 NShTot=           0 NBatch=           0 AvBLen=         0.0
 IPart=  9 NShTot=           0 NBatch=           0 AvBLen=         0.0
 PrSmSu:  NxtVal=             37.
 ***** Potential Energy ***** 
                1             2             3             4             5 
      1  0.524106D+01
      2  0.168986D-01  0.478819D+03
      3  0.337136D-01  0.593945D+02  0.851300D+02
      4  0.000000D+00  0.000000D+00  0.000000D+00  0.989925D+02
      5  0.000000D+00  0.000000D+00  0.000000D+00  0.000000D+00  0.989925D+02
      6 -0.120024D-01 -0.803200D-03 -0.567669D-02  0.000000D+00  0.000000D+00
      7  0.911113D-01  0.186044D+01  0.175483D+02  0.000000D+00  0.000000D+00
      8  0.000000D+00  0.000000D+00  0.000000D+00  0.184282D+02  0.000000D+00
      9  0.000000D+00  0.000000D+00  0.000000D+00  0.000000D+00  0.184282D+02
     10 -0.106338D+00 -0.497896D-04 -0.302676D-02  0.000000D+00  0.000000D+00
     11  0.777933D+00 -0.975914D-01  0.272845D+00  0.000000D+00  0.000000D+00
     12  0.000000D+00  0.000000D+00  0.000000D+00  0.635130D+00  0.000000D+00
     13  0.000000D+00  0.000000D+00  0.000000D+00  0.000000D+00  0.635130D+00
     14 -0.150548D+01 -0.126355D-05 -0.130500D-03  0.000000D+00  0.000000D+00
     15  0.994272D+00  0.150539D+01  0.282435D+01  0.000000D+00  0.000000D+00
     16  0.000000D+00  0.000000D+00  0.000000D+00  0.180301D+00  0.000000D+00
     17  0.000000D+00  0.000000D+00  0.000000D+00  0.000000D+00  0.180301D+00
     18 -0.148829D+01  0.000000D+00 -0.373097D-04  0.000000D+00  0.000000D+00
     19  0.283406D-01  0.105483D-05  0.269421D-03  0.000000D+00  0.000000D+00
     20  0.000000D+00  0.000000D+00  0.000000D+00 -0.266192D-02  0.000000D+00
     21  0.000000D+00  0.000000D+00  0.000000D+00  0.000000D+00 -0.266192D-02
     22  0.000000D+00  0.000000D+00  0.000000D+00  0.000000D+00  0.000000D+00
     23  0.000000D+00  0.000000D+00  0.000000D+00  0.000000D+00  0.000000D+00
     24  0.241356D+00  0.000000D+00  0.295605D-04  0.000000D+00  0.000000D+00
     25  0.000000D+00  0.000000D+00  0.000000D+00 -0.260569D-03  0.000000D+00
     26  0.000000D+00  0.000000D+00  0.000000D+00  0.000000D+00 -0.260569D-03
     27  0.000000D+00  0.000000D+00  0.000000D+00  0.000000D+00  0.000000D+00
     28  0.000000D+00  0.000000D+00  0.000000D+00  0.000000D+00  0.000000D+00
                6             7             8             9            10 
      6  0.989928D+02
      7 -0.296672D-02  0.264656D+02
      8  0.000000D+00  0.000000D+00  0.253674D+02
      9  0.000000D+00  0.000000D+00  0.000000D+00  0.253674D+02
     10  0.184285D+02 -0.192231D-01  0.000000D+00  0.000000D+00  0.253720D+02
     11 -0.100659D-03  0.409519D+01  0.000000D+00  0.000000D+00 -0.983646D-02
     12  0.000000D+00  0.000000D+00  0.346272D+01  0.000000D+00  0.000000D+00
     13  0.000000D+00  0.000000D+00  0.000000D+00  0.346272D+01  0.000000D+00
     14  0.635146D+00 -0.533082D-02  0.000000D+00  0.000000D+00  0.346517D+01
     15 -0.368942D-03  0.469420D+01  0.000000D+00  0.000000D+00 -0.726413D-02
     16  0.000000D+00  0.000000D+00  0.108936D+01  0.000000D+00  0.000000D+00
     17  0.000000D+00  0.000000D+00  0.000000D+00  0.108936D+01  0.000000D+00
     18  0.180305D+00 -0.176437D-02  0.000000D+00  0.000000D+00  0.109023D+01
     19 -0.310923D-02  0.245938D-02  0.000000D+00  0.000000D+00 -0.156213D-01
     20  0.000000D+00  0.000000D+00 -0.129617D-01  0.000000D+00  0.000000D+00
     21  0.000000D+00  0.000000D+00  0.000000D+00 -0.129617D-01  0.000000D+00
     22  0.000000D+00  0.000000D+00  0.000000D+00  0.000000D+00  0.000000D+00
     23  0.000000D+00  0.000000D+00  0.000000D+00  0.000000D+00  0.000000D+00
     24 -0.306117D-03  0.335823D-02  0.000000D+00  0.000000D+00 -0.172452D-01
     25  0.000000D+00  0.000000D+00 -0.134126D-01  0.000000D+00  0.000000D+00
     26  0.000000D+00  0.000000D+00  0.000000D+00 -0.134126D-01  0.000000D+00
     27  0.000000D+00  0.000000D+00  0.000000D+00  0.000000D+00  0.000000D+00
     28  0.000000D+00  0.000000D+00  0.000000D+00  0.000000D+00  0.000000D+00
               11            12            13            14            15 
     11  0.786476D+01
     12  0.000000D+00  0.649187D+01
     13  0.000000D+00  0.000000D+00  0.649187D+01
     14 -0.638381D-01  0.000000D+00  0.000000D+00  0.654683D+01
     15  0.608909D+01  0.000000D+00  0.000000D+00 -0.666604D-01  0.588802D+01
     16  0.000000D+00  0.395131D+01  0.000000D+00  0.000000D+00  0.000000D+00
     17  0.000000D+00  0.000000D+00  0.395131D+01  0.000000D+00  0.000000D+00
     18 -0.436018D-01  0.000000D+00  0.000000D+00  0.399783D+01 -0.650455D-01
     19  0.759786D-03  0.000000D+00  0.000000D+00 -0.256452D-02  0.637352D-03
     20  0.000000D+00 -0.207470D-02  0.000000D+00  0.000000D+00  0.000000D+00
     21  0.000000D+00  0.000000D+00 -0.207470D-02  0.000000D+00  0.000000D+00
     22  0.000000D+00  0.000000D+00  0.000000D+00  0.000000D+00  0.000000D+00
     23  0.000000D+00  0.000000D+00  0.000000D+00  0.000000D+00  0.000000D+00
     24  0.111280D-01  0.000000D+00  0.000000D+00 -0.252670D-01  0.736538D-02
     25  0.000000D+00 -0.170228D-01  0.000000D+00  0.000000D+00  0.000000D+00
     26  0.000000D+00  0.000000D+00 -0.170228D-01  0.000000D+00  0.000000D+00
     27  0.000000D+00  0.000000D+00  0.000000D+00  0.000000D+00  0.000000D+00
     28  0.000000D+00  0.000000D+00  0.000000D+00  0.000000D+00  0.000000D+00
               16            17            18            19            20 
     16  0.394523D+01
     17  0.000000D+00  0.394523D+01
     18  0.000000D+00  0.000000D+00  0.400172D+01
     19  0.000000D+00  0.000000D+00 -0.790759D-03  0.293522D+02
     20 -0.638490D-03  0.000000D+00  0.000000D+00  0.000000D+00  0.293514D+02
     21  0.000000D+00 -0.638490D-03  0.000000D+00  0.000000D+00  0.000000D+00
     22  0.000000D+00  0.000000D+00  0.000000D+00  0.000000D+00  0.000000D+00
     23  0.000000D+00  0.000000D+00  0.000000D+00  0.000000D+00  0.000000D+00
     24  0.000000D+00  0.000000D+00 -0.102575D-01  0.800056D+01  0.000000D+00
     25 -0.673260D-02  0.000000D+00  0.000000D+00  0.000000D+00  0.799989D+01
     26  0.000000D+00 -0.673260D-02  0.000000D+00  0.000000D+00  0.000000D+00
     27  0.000000D+00  0.000000D+00  0.000000D+00  0.000000D+00  0.000000D+00
     28  0.000000D+00  0.000000D+00  0.000000D+00  0.000000D+00  0.000000D+00
               21            22            23            24            25 
     21  0.293514D+02
     22  0.000000D+00  0.293492D+02
     23  0.000000D+00  0.000000D+00  0.293492D+02
     24  0.000000D+00  0.000000D+00  0.000000D+00  0.122403D+02
     25  0.000000D+00  0.000000D+00  0.000000D+00  0.000000D+00  0.122344D+02
     26  0.799989D+01  0.000000D+00  0.000000D+00  0.000000D+00  0.000000D+00
     27  0.000000D+00  0.799830D+01  0.000000D+00  0.000000D+00  0.000000D+00
     28  0.000000D+00  0.000000D+00  0.799830D+01  0.000000D+00  0.000000D+00
               26            27            28 
     26  0.122344D+02
     27  0.000000D+00  0.122245D+02
     28  0.000000D+00  0.000000D+00  0.122245D+02
 ****** Core Hamiltonian ****** 
                1             2             3             4             5 
      1 -0.448102D+01
      2 -0.169764D-01 -0.240680D+03
      3 -0.343414D-01 -0.678916D+02 -0.740489D+02
      4  0.000000D+00  0.000000D+00  0.000000D+00 -0.584301D+02
      5  0.000000D+00  0.000000D+00  0.000000D+00  0.000000D+00 -0.584301D+02
      6  0.122012D-01  0.803200D-03  0.567669D-02  0.000000D+00  0.000000D+00
      7 -0.949890D-01 -0.305231D+01 -0.184840D+02  0.000000D+00  0.000000D+00
      8  0.000000D+00  0.000000D+00  0.000000D+00 -0.161731D+02  0.000000D+00
      9  0.000000D+00  0.000000D+00  0.000000D+00  0.000000D+00 -0.161731D+02
     10  0.110160D+00  0.497896D-04  0.302676D-02  0.000000D+00  0.000000D+00
     11 -0.779822D+00  0.768802D-01 -0.403453D+00  0.000000D+00  0.000000D+00
     12  0.000000D+00  0.000000D+00  0.000000D+00 -0.630451D+00  0.000000D+00
     13  0.000000D+00  0.000000D+00  0.000000D+00  0.000000D+00 -0.630451D+00
     14  0.148115D+01  0.126355D-05  0.130500D-03  0.000000D+00  0.000000D+00
     15 -0.987046D+00 -0.150494D+01 -0.282078D+01  0.000000D+00  0.000000D+00
     16  0.000000D+00  0.000000D+00  0.000000D+00 -0.179824D+00  0.000000D+00
     17  0.000000D+00  0.000000D+00  0.000000D+00  0.000000D+00 -0.179824D+00
     18  0.146185D+01  0.000000D+00  0.373097D-04  0.000000D+00  0.000000D+00
     19 -0.289264D-01 -0.105483D-05 -0.269421D-03  0.000000D+00  0.000000D+00
     20  0.000000D+00  0.000000D+00  0.000000D+00  0.266192D-02  0.000000D+00
     21  0.000000D+00  0.000000D+00  0.000000D+00  0.000000D+00  0.266192D-02
     22  0.000000D+00  0.000000D+00  0.000000D+00  0.000000D+00  0.000000D+00
     23  0.000000D+00  0.000000D+00  0.000000D+00  0.000000D+00  0.000000D+00
     24 -0.248162D+00  0.000000D+00 -0.295605D-04  0.000000D+00  0.000000D+00
     25  0.000000D+00  0.000000D+00  0.000000D+00  0.260569D-03  0.000000D+00
     26  0.000000D+00  0.000000D+00  0.000000D+00  0.000000D+00  0.260569D-03
     27  0.000000D+00  0.000000D+00  0.000000D+00  0.000000D+00  0.000000D+00
     28  0.000000D+00  0.000000D+00  0.000000D+00  0.000000D+00  0.000000D+00
                6             7             8             9            10 
      6 -0.584304D+02
      7  0.296672D-02 -0.250749D+02
      8  0.000000D+00  0.000000D+00 -0.226978D+02
      9  0.000000D+00  0.000000D+00  0.000000D+00 -0.226978D+02
     10 -0.161734D+02  0.192231D-01  0.000000D+00  0.000000D+00 -0.227024D+02
     11  0.100659D-03 -0.422106D+01  0.000000D+00  0.000000D+00  0.983646D-02
     12  0.000000D+00  0.000000D+00 -0.338998D+01  0.000000D+00  0.000000D+00
     13  0.000000D+00  0.000000D+00  0.000000D+00 -0.338998D+01  0.000000D+00
     14 -0.630467D+00  0.533082D-02  0.000000D+00  0.000000D+00 -0.339243D+01
     15  0.368942D-03 -0.467655D+01  0.000000D+00  0.000000D+00  0.726413D-02
     16  0.000000D+00  0.000000D+00 -0.108027D+01  0.000000D+00  0.000000D+00
     17  0.000000D+00  0.000000D+00  0.000000D+00 -0.108027D+01  0.000000D+00
     18 -0.179828D+00  0.176437D-02  0.000000D+00  0.000000D+00 -0.108113D+01
     19  0.310923D-02 -0.245938D-02  0.000000D+00  0.000000D+00  0.156213D-01
     20  0.000000D+00  0.000000D+00  0.129617D-01  0.000000D+00  0.000000D+00
     21  0.000000D+00  0.000000D+00  0.000000D+00  0.129617D-01  0.000000D+00
     22  0.000000D+00  0.000000D+00  0.000000D+00  0.000000D+00  0.000000D+00
     23  0.000000D+00  0.000000D+00  0.000000D+00  0.000000D+00  0.000000D+00
     24  0.306117D-03 -0.335823D-02  0.000000D+00  0.000000D+00  0.172452D-01
     25  0.000000D+00  0.000000D+00  0.134126D-01  0.000000D+00  0.000000D+00
     26  0.000000D+00  0.000000D+00  0.000000D+00  0.134126D-01  0.000000D+00
     27  0.000000D+00  0.000000D+00  0.000000D+00  0.000000D+00  0.000000D+00
     28  0.000000D+00  0.000000D+00  0.000000D+00  0.000000D+00  0.000000D+00
               11            12            13            14            15 
     11 -0.773381D+01
     12  0.000000D+00 -0.630905D+01
     13  0.000000D+00  0.000000D+00 -0.630905D+01
     14  0.638381D-01  0.000000D+00  0.000000D+00 -0.636401D+01
     15 -0.604054D+01  0.000000D+00  0.000000D+00  0.666604D-01 -0.584821D+01
     16  0.000000D+00 -0.387977D+01  0.000000D+00  0.000000D+00  0.000000D+00
     17  0.000000D+00  0.000000D+00 -0.387977D+01  0.000000D+00  0.000000D+00
     18  0.436018D-01  0.000000D+00  0.000000D+00 -0.392630D+01  0.650455D-01
     19 -0.759786D-03  0.000000D+00  0.000000D+00  0.256452D-02 -0.637352D-03
     20  0.000000D+00  0.207470D-02  0.000000D+00  0.000000D+00  0.000000D+00
     21  0.000000D+00  0.000000D+00  0.207470D-02  0.000000D+00  0.000000D+00
     22  0.000000D+00  0.000000D+00  0.000000D+00  0.000000D+00  0.000000D+00
     23  0.000000D+00  0.000000D+00  0.000000D+00  0.000000D+00  0.000000D+00
     24 -0.111280D-01  0.000000D+00  0.000000D+00  0.252670D-01 -0.736538D-02
     25  0.000000D+00  0.170228D-01  0.000000D+00  0.000000D+00  0.000000D+00
     26  0.000000D+00  0.000000D+00  0.170228D-01  0.000000D+00  0.000000D+00
     27  0.000000D+00  0.000000D+00  0.000000D+00  0.000000D+00  0.000000D+00
     28  0.000000D+00  0.000000D+00  0.000000D+00  0.000000D+00  0.000000D+00
               16            17            18            19            20 
     16 -0.387889D+01
     17  0.000000D+00 -0.387889D+01
     18  0.000000D+00  0.000000D+00 -0.393538D+01
     19  0.000000D+00  0.000000D+00  0.790759D-03 -0.213422D+02
     20  0.638490D-03  0.000000D+00  0.000000D+00  0.000000D+00 -0.213414D+02
     21  0.000000D+00  0.638490D-03  0.000000D+00  0.000000D+00  0.000000D+00
     22  0.000000D+00  0.000000D+00  0.000000D+00  0.000000D+00  0.000000D+00
     23  0.000000D+00  0.000000D+00  0.000000D+00  0.000000D+00  0.000000D+00
     24  0.000000D+00  0.000000D+00  0.102575D-01 -0.706969D+01  0.000000D+00
     25  0.673260D-02  0.000000D+00  0.000000D+00  0.000000D+00 -0.706901D+01
     26  0.000000D+00  0.673260D-02  0.000000D+00  0.000000D+00  0.000000D+00
     27  0.000000D+00  0.000000D+00  0.000000D+00  0.000000D+00  0.000000D+00
     28  0.000000D+00  0.000000D+00  0.000000D+00  0.000000D+00  0.000000D+00
               21            22            23            24            25 
     21 -0.213414D+02
     22  0.000000D+00 -0.213393D+02
     23  0.000000D+00  0.000000D+00 -0.213393D+02
     24  0.000000D+00  0.000000D+00  0.000000D+00 -0.107908D+02
     25  0.000000D+00  0.000000D+00  0.000000D+00  0.000000D+00 -0.107850D+02
     26 -0.706901D+01  0.000000D+00  0.000000D+00  0.000000D+00  0.000000D+00
     27  0.000000D+00 -0.706743D+01  0.000000D+00  0.000000D+00  0.000000D+00
     28  0.000000D+00  0.000000D+00 -0.706743D+01  0.000000D+00  0.000000D+00
               26            27            28 
     26 -0.107850D+02
     27  0.000000D+00 -0.107751D+02
     28  0.000000D+00  0.000000D+00 -0.107751D+02
 SVDSVc IOpt=   1 NormSV=T IR=1
 SVDSVc V= 2.09D+00 1.91D+00 1.40D+00 1.40D+00 1.36D+00 1.30D+00 9.53D-01 7.86D-01 6.56D-01 6.04D-01
 SVDSVc V= 6.02D-01 5.53D-01 2.48D-01 1.45D-01
 SVDSVc IOpt=   1 NormSV=T IR=2
 SVDSVc V= 1.40D+00 6.04D-01
 SVDSVc IOpt=   1 NormSV=T IR=3
 SVDSVc V= 1.80D+00 1.40D+00 1.28D+00 6.73D-01 6.04D-01 2.48D-01
 SVDSVc IOpt=   1 NormSV=T IR=4
 SVDSVc V= 1.80D+00 1.40D+00 1.28D+00 6.73D-01 6.04D-01 2.48D-01
 TstOVc:  Largest diagonal error= 2.78D-15 IB=1 I=    1.
 TstOVc:  Largest same sym error= 1.40D-15 IB=1 I=    5 J=    3.
 TstOVc:  Largest diff sym error= 0.00D+00 IB=0 JB=0 I=    0 J=    0.
 Orthogonalized basis functions: 
                 1             2             3             4             5 
      1   0.235531D+00 -0.162168D+00  0.295884D-01  0.000000D+00 -0.932770D-01
      2   0.236253D-01  0.271284D-01 -0.252671D-01  0.000000D+00  0.430125D+00
      3   0.828387D-01  0.829115D-01 -0.374108D-01  0.000000D+00  0.588636D+00
      4   0.000000D+00  0.000000D+00  0.000000D+00  0.000000D+00  0.000000D+00
      5   0.000000D+00  0.000000D+00  0.000000D+00  0.000000D+00  0.000000D+00
      6  -0.237381D-01  0.587649D-01  0.240599D-01  0.000000D+00 -0.100623D+00
      7   0.191311D+00  0.164982D+00 -0.254619D-01  0.000000D+00  0.329571D+00
      8   0.000000D+00  0.000000D+00  0.000000D+00  0.000000D+00  0.000000D+00
      9   0.000000D+00  0.000000D+00  0.000000D+00  0.000000D+00  0.000000D+00
     10  -0.687703D-01  0.146933D+00  0.290652D-01  0.000000D+00 -0.112623D+00
     11   0.365718D+00  0.257352D+00  0.489989D-02  0.000000D+00 -0.171626D+00
     12   0.000000D+00  0.000000D+00  0.000000D+00  0.000000D+00  0.000000D+00
     13   0.000000D+00  0.000000D+00  0.000000D+00  0.000000D+00  0.000000D+00
     14  -0.226575D+00  0.397079D+00  0.151873D-01  0.000000D+00 -0.373421D-01
     15   0.372315D+00  0.251466D+00  0.556509D-02  0.000000D+00 -0.162476D+00
     16   0.000000D+00  0.000000D+00  0.000000D+00  0.000000D+00  0.000000D+00
     17   0.000000D+00  0.000000D+00  0.000000D+00  0.000000D+00  0.000000D+00
     18  -0.225124D+00  0.386883D+00  0.103830D-01  0.000000D+00 -0.187449D-01
     19   0.297876D-02 -0.304515D-02  0.595569D+00  0.000000D+00  0.454627D-01
     20   0.000000D+00  0.000000D+00  0.000000D+00  0.000000D+00  0.000000D+00
     21   0.000000D+00  0.000000D+00  0.000000D+00  0.000000D+00  0.000000D+00
     22   0.000000D+00  0.000000D+00  0.000000D+00  0.598479D+00  0.000000D+00
     23   0.000000D+00  0.000000D+00  0.000000D+00  0.000000D+00  0.000000D+00
     24   0.722237D-02 -0.635735D-02  0.596566D+00  0.000000D+00  0.421845D-01
     25   0.000000D+00  0.000000D+00  0.000000D+00  0.000000D+00  0.000000D+00
     26   0.000000D+00  0.000000D+00  0.000000D+00  0.000000D+00  0.000000D+00
     27   0.000000D+00  0.000000D+00  0.000000D+00  0.598479D+00  0.000000D+00
     28   0.000000D+00  0.000000D+00  0.000000D+00  0.000000D+00  0.000000D+00
                 6             7             8             9            10 
      1   0.136582D+00  0.220315D+00  0.889907D+00 -0.380128D+00  0.000000D+00
      2   0.953613D-01  0.760379D+00 -0.216300D+00  0.822589D-01  0.000000D+00
      3   0.108392D+00 -0.117647D+00  0.175627D+00 -0.109926D+00  0.000000D+00
      4   0.000000D+00  0.000000D+00  0.000000D+00  0.000000D+00  0.000000D+00
      5   0.000000D+00  0.000000D+00  0.000000D+00  0.000000D+00  0.000000D+00
      6   0.608550D+00 -0.723638D-01 -0.386223D+00 -0.749049D+00  0.000000D+00
      7   0.304325D-01 -0.599511D+00  0.755687D-01  0.449900D-01  0.000000D+00
      8   0.000000D+00  0.000000D+00  0.000000D+00  0.000000D+00  0.000000D+00
      9   0.000000D+00  0.000000D+00  0.000000D+00  0.000000D+00  0.000000D+00
     10   0.569631D+00  0.654136D-02  0.244114D+00  0.809450D+00  0.000000D+00
     11  -0.647522D-01  0.105405D+00 -0.202543D+00  0.723277D-01  0.000000D+00
     12   0.000000D+00  0.000000D+00  0.000000D+00  0.000000D+00  0.000000D+00
     13   0.000000D+00  0.000000D+00  0.000000D+00  0.000000D+00  0.000000D+00
     14  -0.622517D-01  0.879044D-01  0.301126D+00 -0.792724D-01  0.000000D+00
     15  -0.542464D-01  0.139857D+00 -0.113512D+00  0.182323D-01  0.000000D+00
     16   0.000000D+00  0.000000D+00  0.000000D+00  0.000000D+00  0.000000D+00
     17   0.000000D+00  0.000000D+00  0.000000D+00  0.000000D+00  0.000000D+00
     18  -0.152675D+00  0.770559D-01  0.183752D+00 -0.333622D+00  0.000000D+00
     19  -0.234761D-01 -0.158755D-01 -0.870618D-01  0.104969D+00  0.000000D+00
     20   0.000000D+00  0.000000D+00  0.000000D+00  0.000000D+00  0.000000D+00
     21   0.000000D+00  0.000000D+00  0.000000D+00  0.000000D+00  0.000000D+00
     22   0.000000D+00  0.000000D+00  0.000000D+00  0.000000D+00  0.909812D+00
     23   0.000000D+00  0.000000D+00  0.000000D+00  0.000000D+00  0.000000D+00
     24  -0.182184D-01  0.101229D-02  0.433981D-01 -0.895962D-01  0.000000D+00
     25   0.000000D+00  0.000000D+00  0.000000D+00  0.000000D+00  0.000000D+00
     26   0.000000D+00  0.000000D+00  0.000000D+00  0.000000D+00  0.000000D+00
     27   0.000000D+00  0.000000D+00  0.000000D+00  0.000000D+00 -0.909812D+00
     28   0.000000D+00  0.000000D+00  0.000000D+00  0.000000D+00  0.000000D+00
                11            12            13            14            15 
      1  -0.126736D+00 -0.187253D+00 -0.476220D-01 -0.151279D+00  0.000000D+00
      2   0.448744D-01 -0.501683D+00 -0.826602D-03  0.247431D-01  0.000000D+00
      3  -0.698889D-01  0.884108D+00  0.277233D-02 -0.127570D+00  0.000000D+00
      4   0.000000D+00  0.000000D+00  0.000000D+00  0.000000D+00  0.000000D+00
      5   0.000000D+00  0.000000D+00  0.000000D+00  0.000000D+00  0.000000D+00
      6  -0.523593D-01 -0.407461D-01  0.125319D+00 -0.198400D-02  0.000000D+00
      7   0.481184D-01 -0.818503D+00 -0.488588D-02  0.100763D+00  0.000000D+00
      8   0.000000D+00  0.000000D+00  0.000000D+00  0.000000D+00  0.000000D+00
      9   0.000000D+00  0.000000D+00  0.000000D+00  0.000000D+00  0.000000D+00
     10   0.667170D-01  0.592945D-01 -0.334620D+00  0.614793D-02  0.000000D+00
     11   0.208964D-01  0.112198D+00  0.190135D-01 -0.184631D+01  0.000000D+00
     12   0.000000D+00  0.000000D+00  0.000000D+00  0.000000D+00  0.000000D+00
     13   0.000000D+00  0.000000D+00  0.000000D+00  0.000000D+00  0.000000D+00
     14  -0.333815D-01 -0.497126D-01  0.142026D+01 -0.117857D-01  0.000000D+00
     15  -0.352925D-02  0.206641D+00 -0.788933D-02  0.185064D+01  0.000000D+00
     16   0.000000D+00  0.000000D+00  0.000000D+00  0.000000D+00  0.000000D+00
     17   0.000000D+00  0.000000D+00  0.000000D+00  0.000000D+00  0.000000D+00
     18  -0.487686D-01 -0.574965D-01 -0.137555D+01 -0.453594D-01  0.000000D+00
     19  -0.898794D+00 -0.453766D-01 -0.116393D-02 -0.259463D-02  0.000000D+00
     20   0.000000D+00  0.000000D+00  0.000000D+00  0.000000D+00  0.000000D+00
     21   0.000000D+00  0.000000D+00  0.000000D+00  0.000000D+00  0.000000D+00
     22   0.000000D+00  0.000000D+00  0.000000D+00  0.000000D+00  0.000000D+00
     23   0.000000D+00  0.000000D+00  0.000000D+00  0.000000D+00  0.598479D+00
     24   0.903570D+00  0.520194D-01  0.240445D-02  0.621295D-02  0.000000D+00
     25   0.000000D+00  0.000000D+00  0.000000D+00  0.000000D+00  0.000000D+00
     26   0.000000D+00  0.000000D+00  0.000000D+00  0.000000D+00  0.000000D+00
     27   0.000000D+00  0.000000D+00  0.000000D+00  0.000000D+00  0.000000D+00
     28   0.000000D+00  0.000000D+00  0.000000D+00  0.000000D+00  0.598479D+00
                16            17            18            19            20 
      1   0.000000D+00  0.000000D+00  0.000000D+00  0.000000D+00  0.000000D+00
      2   0.000000D+00  0.000000D+00  0.000000D+00  0.000000D+00  0.000000D+00
      3   0.000000D+00  0.000000D+00  0.000000D+00  0.000000D+00  0.000000D+00
      4   0.000000D+00  0.989007D-01  0.000000D+00  0.631613D+00 -0.834101D+00
      5   0.000000D+00  0.000000D+00  0.000000D+00  0.000000D+00  0.000000D+00
      6   0.000000D+00  0.000000D+00  0.000000D+00  0.000000D+00  0.000000D+00
      7   0.000000D+00  0.000000D+00  0.000000D+00  0.000000D+00  0.000000D+00
      8   0.000000D+00  0.221260D+00  0.000000D+00  0.556385D+00  0.851114D+00
      9   0.000000D+00  0.000000D+00  0.000000D+00  0.000000D+00  0.000000D+00
     10   0.000000D+00  0.000000D+00  0.000000D+00  0.000000D+00  0.000000D+00
     11   0.000000D+00  0.000000D+00  0.000000D+00  0.000000D+00  0.000000D+00
     12   0.000000D+00  0.509061D+00  0.000000D+00 -0.144130D+00  0.341821D-01
     13   0.000000D+00  0.000000D+00  0.000000D+00  0.000000D+00  0.000000D+00
     14   0.000000D+00  0.000000D+00  0.000000D+00  0.000000D+00  0.000000D+00
     15   0.000000D+00  0.000000D+00  0.000000D+00  0.000000D+00  0.000000D+00
     16   0.000000D+00  0.487367D+00  0.000000D+00 -0.230220D+00 -0.252838D+00
     17   0.000000D+00  0.000000D+00  0.000000D+00  0.000000D+00  0.000000D+00
     18   0.000000D+00  0.000000D+00  0.000000D+00  0.000000D+00  0.000000D+00
     19   0.000000D+00  0.000000D+00  0.000000D+00  0.000000D+00  0.000000D+00
     20   0.000000D+00  0.000000D+00  0.598479D+00  0.000000D+00  0.000000D+00
     21   0.000000D+00  0.000000D+00  0.000000D+00  0.000000D+00  0.000000D+00
     22   0.000000D+00  0.000000D+00  0.000000D+00  0.000000D+00  0.000000D+00
     23   0.909812D+00  0.000000D+00  0.000000D+00  0.000000D+00  0.000000D+00
     24   0.000000D+00  0.000000D+00  0.000000D+00  0.000000D+00  0.000000D+00
     25   0.000000D+00  0.000000D+00  0.598479D+00  0.000000D+00  0.000000D+00
     26   0.000000D+00  0.000000D+00  0.000000D+00  0.000000D+00  0.000000D+00
     27   0.000000D+00  0.000000D+00  0.000000D+00  0.000000D+00  0.000000D+00
     28  -0.909812D+00  0.000000D+00  0.000000D+00  0.000000D+00  0.000000D+00
                21            22            23            24            25 
      1   0.000000D+00  0.000000D+00  0.000000D+00  0.000000D+00  0.000000D+00
      2   0.000000D+00  0.000000D+00  0.000000D+00  0.000000D+00  0.000000D+00
      3   0.000000D+00  0.000000D+00  0.000000D+00  0.000000D+00  0.000000D+00
      4   0.000000D+00  0.126826D+00  0.000000D+00  0.000000D+00  0.000000D+00
      5   0.000000D+00  0.000000D+00  0.989007D-01  0.000000D+00  0.631613D+00
      6   0.000000D+00  0.000000D+00  0.000000D+00  0.000000D+00  0.000000D+00
      7   0.000000D+00  0.000000D+00  0.000000D+00  0.000000D+00  0.000000D+00
      8   0.000000D+00 -0.338446D+00  0.000000D+00  0.000000D+00  0.000000D+00
      9   0.000000D+00  0.000000D+00  0.221260D+00  0.000000D+00  0.556385D+00
     10   0.000000D+00  0.000000D+00  0.000000D+00  0.000000D+00  0.000000D+00
     11   0.000000D+00  0.000000D+00  0.000000D+00  0.000000D+00  0.000000D+00
     12   0.000000D+00  0.142883D+01  0.000000D+00  0.000000D+00  0.000000D+00
     13   0.000000D+00  0.000000D+00  0.509061D+00  0.000000D+00 -0.144130D+00
     14   0.000000D+00  0.000000D+00  0.000000D+00  0.000000D+00  0.000000D+00
     15   0.000000D+00  0.000000D+00  0.000000D+00  0.000000D+00  0.000000D+00
     16   0.000000D+00 -0.136452D+01  0.000000D+00  0.000000D+00  0.000000D+00
     17   0.000000D+00  0.000000D+00  0.487367D+00  0.000000D+00 -0.230220D+00
     18   0.000000D+00  0.000000D+00  0.000000D+00  0.000000D+00  0.000000D+00
     19   0.000000D+00  0.000000D+00  0.000000D+00  0.000000D+00  0.000000D+00
     20   0.909812D+00  0.000000D+00  0.000000D+00  0.000000D+00  0.000000D+00
     21   0.000000D+00  0.000000D+00  0.000000D+00  0.598479D+00  0.000000D+00
     22   0.000000D+00  0.000000D+00  0.000000D+00  0.000000D+00  0.000000D+00
     23   0.000000D+00  0.000000D+00  0.000000D+00  0.000000D+00  0.000000D+00
     24   0.000000D+00  0.000000D+00  0.000000D+00  0.000000D+00  0.000000D+00
     25  -0.909812D+00  0.000000D+00  0.000000D+00  0.000000D+00  0.000000D+00
     26   0.000000D+00  0.000000D+00  0.000000D+00  0.598479D+00  0.000000D+00
     27   0.000000D+00  0.000000D+00  0.000000D+00  0.000000D+00  0.000000D+00
     28   0.000000D+00  0.000000D+00  0.000000D+00  0.000000D+00  0.000000D+00
                26            27            28 
      1   0.000000D+00  0.000000D+00  0.000000D+00
      2   0.000000D+00  0.000000D+00  0.000000D+00
      3   0.000000D+00  0.000000D+00  0.000000D+00
      4   0.000000D+00  0.000000D+00  0.000000D+00
      5  -0.834101D+00  0.000000D+00  0.126826D+00
      6   0.000000D+00  0.000000D+00  0.000000D+00
      7   0.000000D+00  0.000000D+00  0.000000D+00
      8   0.000000D+00  0.000000D+00  0.000000D+00
      9   0.851114D+00  0.000000D+00 -0.338446D+00
     10   0.000000D+00  0.000000D+00  0.000000D+00
     11   0.000000D+00  0.000000D+00  0.000000D+00
     12   0.000000D+00  0.000000D+00  0.000000D+00
     13   0.341821D-01  0.000000D+00  0.142883D+01
     14   0.000000D+00  0.000000D+00  0.000000D+00
     15   0.000000D+00  0.000000D+00  0.000000D+00
     16   0.000000D+00  0.000000D+00  0.000000D+00
     17  -0.252838D+00  0.000000D+00 -0.136452D+01
     18   0.000000D+00  0.000000D+00  0.000000D+00
     19   0.000000D+00  0.000000D+00  0.000000D+00
     20   0.000000D+00  0.000000D+00  0.000000D+00
     21   0.000000D+00  0.909812D+00  0.000000D+00
     22   0.000000D+00  0.000000D+00  0.000000D+00
     23   0.000000D+00  0.000000D+00  0.000000D+00
     24   0.000000D+00  0.000000D+00  0.000000D+00
     25   0.000000D+00  0.000000D+00  0.000000D+00
     26   0.000000D+00 -0.909812D+00  0.000000D+00
     27   0.000000D+00  0.000000D+00  0.000000D+00
     28   0.000000D+00  0.000000D+00  0.000000D+00
 NBasis=    28 RedAO= T EigKep=  1.45D-01  NBF=    14     2     6     6
 NBsUse=    28 1.00D-06 EigRej= -1.00D+00 NBFU=    14     2     6     6
 Leave Link  302 at Mon Mar 28 12:47:08 2022, MaxMem=  9663676416 cpu:               4.8 elap:               0.2
 (Enter /nopt/nrel/apps/gaussian/g16C_1/g16/l303.exe)
 DipDrv will not compute anything.
 Fermi contact integrals: 
                 1             2 
      1   0.628247D+00  0.523802D-03
      2   0.000000D+00  0.499382D+02
      3   0.000000D+00  0.100937D+01
      4   0.000000D+00  0.000000D+00
      5   0.000000D+00  0.000000D+00
      6   0.000000D+00  0.000000D+00
      7   0.000000D+00  0.218861D-01
      8   0.000000D+00  0.000000D+00
      9   0.000000D+00  0.000000D+00
     10   0.000000D+00  0.000000D+00
     11   0.122648D-01 -0.359953D-02
     12   0.000000D+00  0.000000D+00
     13   0.000000D+00  0.000000D+00
     14  -0.330400D-01  0.000000D+00
     15   0.211191D-01  0.468609D-01
     16   0.000000D+00  0.000000D+00
     17   0.000000D+00  0.000000D+00
     18  -0.377082D-01  0.000000D+00
     19   0.000000D+00  0.000000D+00
     20   0.000000D+00  0.000000D+00
     21   0.000000D+00  0.000000D+00
     22   0.000000D+00  0.000000D+00
     23   0.000000D+00  0.000000D+00
     24   0.419346D-04  0.000000D+00
     25   0.000000D+00  0.000000D+00
     26   0.000000D+00  0.000000D+00
     27   0.000000D+00  0.000000D+00
     28   0.000000D+00  0.000000D+00
 Leave Link  303 at Mon Mar 28 12:47:08 2022, MaxMem=  9663676416 cpu:               1.0 elap:               0.1
 (Enter /nopt/nrel/apps/gaussian/g16C_1/g16/l401.exe)
 ExpMin= 2.65D-02 ExpMax= 2.34D+03 ExpMxC= 2.34D+03 IAcc=3 IRadAn=         5 AccDes= 0.00D+00
 Harris functional with IExCor=  205 and IRadAn=       5 diagonalized for initial guess.
 HarFok:  IExCor=  205 AccDes= 0.00D+00 IRadAn=         5 IDoV= 1 UseB2=F ITyADJ=14
 ICtDFT=  3500011 ScaDFX=  1.000000  1.000000  1.000000  1.000000
 FoFCou: FMM=F IPFlag=           0 FMFlag=      100000 FMFlg1=           0
         NFxFlg=           0 DoJE=T BraDBF=F KetDBF=T FulRan=T
         wScrn=  0.000000 ICntrl=       500 IOpCl=  0 I1Cent=   200000004 NGrid=           0
         NMat0=    1 NMatS0=      1 NMatT0=    0 NMatD0=    1 NMtDS0=    0 NMtDT0=    0
 Petite list used in FoFCou.
 Harris En= -843.851276571840    
 JPrj=0 DoOrth=F DoCkMO=F.
 Initial guess orbital symmetries:
 Alpha Orbitals:
       Occupied  (SG) (SG) (SG) (PI) (PI) (SG) (SG) (PI) (PI) (SG)
                 (SG) (PI) (PI) (DLTA)
       Virtual   (DLTA) (SG) (PI) (PI) (SG) (SG) (SG) (PI) (PI)
                 (PI) (PI) (DLTA) (DLTA) (SG)
 Beta  Orbitals:
       Occupied  (SG) (SG) (SG) (PI) (PI) (SG) (SG) (PI) (PI)
       Virtual   (SG) (SG) (PI) (PI) (DLTA) (DLTA) (SG) (PI) (PI)
                 (SG) (SG) (SG) (PI) (PI) (PI) (PI) (DLTA) (DLTA)
                 (SG)
 Initial guess <Sx>= 0.0000 <Sy>= 0.0000 <Sz>= 2.5000 <S**2>= 8.7500 S= 2.5000
 Leave Link  401 at Mon Mar 28 12:47:08 2022, MaxMem=  9663676416 cpu:               4.2 elap:               0.1
 (Enter /nopt/nrel/apps/gaussian/g16C_1/g16/l502.exe)
 Keep R1 and R2 ints in memory in symmetry-blocked form, NReq=7478207.
 FoFCou: FMM=F IPFlag=           0 FMFlag=           0 FMFlg1=           0
         NFxFlg=           0 DoJE=F BraDBF=F KetDBF=F FulRan=T
         wScrn=  0.000000 ICntrl=       600 IOpCl=  0 I1Cent=           0 NGrid=           0
         NMat0=    1 NMatS0=    406 NMatT0=    0 NMatD0=    1 NMtDS0=    0 NMtDT0=    0
 Petite list used in FoFCou.
 UHF open shell SCF:
 Using DIIS extrapolation, IDIIS=  1040.
 NGot=  9663676416 LenX=  9663625622 LenY=  9663624281
 Requested convergence on RMS density matrix=1.00D-08 within 128 cycles.
 Requested convergence on MAX density matrix=1.00D-06.
 Requested convergence on             energy=1.00D-06.
 No special actions if energy rises.

 Cycle   1  Pass 1  IDiag  1:
 E= -844.538440309843    
 DIIS: error= 4.72D-02 at cycle   1 NSaved=   1.
 NSaved= 1 IEnMin= 1 EnMin= -844.538440309843     IErMin= 1 ErrMin= 4.72D-02
 ErrMax= 4.72D-02  0.00D+00 EMaxC= 1.00D-01 BMatC= 1.34D-01 BMatP= 1.34D-01
 IDIUse=3 WtCom= 5.28D-01 WtEn= 4.72D-01
 Coeff-Com:  0.100D+01
 Coeff-En:   0.100D+01
 Coeff:      0.100D+01
 Gap=     0.161 Goal=   None    Shift=    0.000
 Gap=     1.309 Goal=   None    Shift=    0.000
 GapD=    0.161 DampG=1.000 DampE=0.250 DampFc=0.2500 IDamp=-1.
 Damping current iteration by 2.50D-01
 RMSDP=1.67D-02 MaxDP=4.25D-01              OVMax= 1.34D-02

 Cycle   2  Pass 1  IDiag  1:
 E= -844.552252427748     Delta-E=       -0.013812117905 Rises=F Damp=T
 DIIS: error= 3.43D-02 at cycle   2 NSaved=   2.
 NSaved= 2 IEnMin= 2 EnMin= -844.552252427748     IErMin= 2 ErrMin= 3.43D-02
 ErrMax= 3.43D-02  0.00D+00 EMaxC= 1.00D-01 BMatC= 7.71D-02 BMatP= 1.34D-01
 IDIUse=3 WtCom= 6.57D-01 WtEn= 3.43D-01
 Coeff-Com: -0.295D+01 0.395D+01
 Coeff-En:   0.000D+00 0.100D+01
 Coeff:     -0.194D+01 0.294D+01
 Gap=     0.178 Goal=   None    Shift=    0.000
 Gap=     1.358 Goal=   None    Shift=    0.000
 RMSDP=1.58D-02 MaxDP=4.05D-01 DE=-1.38D-02 OVMax= 5.48D-03

 Cycle   3  Pass 1  IDiag  1:
 E= -844.604718356789     Delta-E=       -0.052465929041 Rises=F Damp=F
 DIIS: error= 5.45D-03 at cycle   3 NSaved=   3.
 NSaved= 3 IEnMin= 3 EnMin= -844.604718356789     IErMin= 3 ErrMin= 5.45D-03
 ErrMax= 5.45D-03  0.00D+00 EMaxC= 1.00D-01 BMatC= 1.34D-03 BMatP= 7.71D-02
 IDIUse=3 WtCom= 9.45D-01 WtEn= 5.45D-02
 Coeff-Com:  0.221D+01-0.299D+01 0.178D+01
 Coeff-En:   0.000D+00 0.000D+00 0.100D+01
 Coeff:      0.209D+01-0.282D+01 0.174D+01
 Gap=     0.201 Goal=   None    Shift=    0.000
 Gap=     1.398 Goal=   None    Shift=    0.000
 RMSDP=4.58D-03 MaxDP=1.09D-01 DE=-5.25D-02 OVMax= 2.96D-03

 Cycle   4  Pass 1  IDiag  1:
 E= -844.606605651778     Delta-E=       -0.001887294990 Rises=F Damp=F
 DIIS: error= 9.38D-04 at cycle   4 NSaved=   4.
[...]
 Rare condition: small coef for last iteration:  0.000D+00
 Coeff-Com:  0.474D+00 0.191D+00-0.490D+00 0.449D+01-0.129D+01-0.237D+01
 Coeff-En:   0.000D+00 0.000D+00 0.000D+00 0.000D+00 0.000D+00 0.100D+01
 Coeff:      0.474D+00 0.191D+00-0.490D+00 0.449D+01-0.129D+01-0.237D+01
 Gap=     0.199 Goal=   None    Shift=    0.000
 Gap=     1.409 Goal=   None    Shift=    0.000
 RMSDP=1.13D-03 MaxDP=1.32D-02 DE= 9.68D-05 OVMax= 5.75D-04

 Cycle 109  Pass 1  IDiag  1:
 E= -844.606113021756     Delta-E=       -0.000039829910 Rises=F Damp=F
 DIIS: error= 9.02D-04 at cycle 109 NSaved=   7.
 NSaved= 7 IEnMin= 3 EnMin= -844.606480905548     IErMin= 1 ErrMin= 6.36D-04
 ErrMax= 9.02D-04  0.00D+00 EMaxC= 1.00D-01 BMatC= 2.09D-05 BMatP= 1.10D-05
 IDIUse=3 WtCom= 9.94D-01 WtEn= 5.78D-03
 Coeff-Com:  0.583D+00 0.171D+00-0.495D+00 0.595D+01-0.111D+01-0.286D+01
 Coeff-Com: -0.124D+01
 Coeff-En:   0.000D+00 0.000D+00 0.000D+00 0.000D+00 0.000D+00 0.000D+00
 Coeff-En:   0.100D+01
 Coeff:      0.580D+00 0.170D+00-0.492D+00 0.592D+01-0.110D+01-0.284D+01
 Coeff:     -0.123D+01
 Gap=     0.198 Goal=   None    Shift=    0.000
 Gap=     1.405 Goal=   None    Shift=    0.000
 RMSDP=1.08D-03 MaxDP=1.37D-02 DE=-3.98D-05 OVMax= 5.79D-04

 Cycle 110  Pass 1  IDiag  1:
 E= -844.606144777937     Delta-E=       -0.000031756181 Rises=F Damp=F
 DIIS: error= 1.10D-03 at cycle 110 NSaved=   8.
 NSaved= 8 IEnMin= 3 EnMin= -844.606480905548     IErMin= 1 ErrMin= 6.36D-04
 ErrMax= 1.10D-03  0.00D+00 EMaxC= 1.00D-01 BMatC= 3.09D-05 BMatP= 1.10D-05
 IDIUse=3 WtCom= 9.94D-01 WtEn= 5.78D-03
 Coeff-Com:  0.604D+00 0.180D+00-0.523D+00 0.522D+01-0.156D+01-0.264D+01
 Coeff-Com: -0.177D+01 0.149D+01
 Coeff-En:   0.000D+00 0.000D+00 0.000D+00 0.000D+00 0.000D+00 0.000D+00
 Coeff-En:   0.000D+00 0.100D+01
 Coeff:      0.601D+00 0.179D+00-0.520D+00 0.519D+01-0.155D+01-0.263D+01
 Coeff:     -0.176D+01 0.149D+01
 Gap=     0.197 Goal=   None    Shift=    0.000
 Gap=     1.403 Goal=   None    Shift=    0.000
 RMSDP=2.96D-04 MaxDP=3.71D-03 DE=-3.18D-05 OVMax= 1.58D-04

 Cycle 111  Pass 1  IDiag  1:
 E= -844.606153851006     Delta-E=       -0.000009073069 Rises=F Damp=F
 DIIS: error= 1.17D-03 at cycle 111 NSaved=   9.
 NSaved= 9 IEnMin= 3 EnMin= -844.606480905548     IErMin= 1 ErrMin= 6.36D-04
 ErrMax= 1.17D-03  0.00D+00 EMaxC= 1.00D-01 BMatC= 3.50D-05 BMatP= 1.10D-05
 IDIUse=3 WtCom= 9.94D-01 WtEn= 5.78D-03
 Large coefficients: NSaved=  9 BigCof=   48.83 CofMax=   10.00 Det=-5.73D-13
 Inversion failed.  Reducing to  8 matrices.
 Large coefficients: NSaved=  8 BigCof=   46.19 CofMax=   10.00 Det=-2.43D-12
 Inversion failed.  Reducing to  7 matrices.
 Large coefficients: NSaved=  7 BigCof=   27.64 CofMax=   10.00 Det=-3.28D-12
 Inversion failed.  Reducing to  6 matrices.
 Coeff-Com:  0.643D+00 0.316D+00-0.701D+00-0.205D+01 0.503D+01-0.223D+01
 Coeff-En:   0.000D+00 0.000D+00 0.000D+00 0.000D+00 0.000D+00 0.100D+01
 Coeff:      0.640D+00 0.314D+00-0.697D+00-0.204D+01 0.500D+01-0.221D+01
 Gap=     0.203 Goal=   None    Shift=    0.000
 Gap=     1.421 Goal=   None    Shift=    0.000
 RMSDP=3.85D-03 MaxDP=4.75D-02 DE=-9.07D-06 OVMax= 2.06D-03

 Cycle 112  Pass 1  IDiag  1:
 E= -844.606021196437     Delta-E=        0.000132654569 Rises=F Damp=F
 DIIS: error= 1.03D-03 at cycle 112 NSaved=   7.
 NSaved= 7 IEnMin= 3 EnMin= -844.606480905548     IErMin= 1 ErrMin= 6.36D-04
 ErrMax= 1.03D-03  0.00D+00 EMaxC= 1.00D-01 BMatC= 2.78D-05 BMatP= 1.10D-05
 IDIUse=3 WtCom= 9.94D-01 WtEn= 5.78D-03
 Rare condition: small coef for last iteration:  0.000D+00
 Coeff-Com:  0.583D+00 0.123D+00-0.354D+00-0.858D+00 0.828D+01-0.583D+01
 Coeff-Com: -0.942D+00
 Coeff-En:   0.000D+00 0.000D+00 0.000D+00 0.000D+00 0.000D+00 0.000D+00
 Coeff-En:   0.100D+01
 Coeff:      0.583D+00 0.123D+00-0.354D+00-0.858D+00 0.828D+01-0.583D+01
 Coeff:     -0.942D+00
 Gap=     0.196 Goal=   None    Shift=    0.000
 Gap=     1.404 Goal=   None    Shift=    0.000
 RMSDP=3.70D-03 MaxDP=4.51D-02 DE= 1.33D-04 OVMax= 1.96D-03

 Cycle 113  Pass 1  IDiag  1:
 E= -844.606150424463     Delta-E=       -0.000129228027 Rises=F Damp=F
 DIIS: error= 1.09D-03 at cycle 113 NSaved=   8.
 NSaved= 8 IEnMin= 3 EnMin= -844.606480905548     IErMin= 1 ErrMin= 6.36D-04
 ErrMax= 1.09D-03  0.00D+00 EMaxC= 1.00D-01 BMatC= 3.03D-05 BMatP= 1.10D-05
 IDIUse=3 WtCom= 9.94D-01 WtEn= 5.78D-03
 Coeff-Com:  0.548D+00 0.126D+00-0.353D+00-0.535D+00 0.888D+01-0.757D+01
 Coeff-Com: -0.911D+00 0.816D+00
 Coeff-En:   0.000D+00 0.000D+00 0.000D+00 0.000D+00 0.000D+00 0.000D+00
 Coeff-En:   0.000D+00 0.100D+01
 Coeff:      0.545D+00 0.126D+00-0.351D+00-0.532D+00 0.883D+01-0.753D+01
 Coeff:     -0.906D+00 0.817D+00
 Gap=     0.198 Goal=   None    Shift=    0.000
 Gap=     1.405 Goal=   None    Shift=    0.000
 RMSDP=2.09D-04 MaxDP=2.71D-03 DE=-1.29D-04 OVMax= 1.15D-04

 Cycle 114  Pass 1  IDiag  1:
 E= -844.606144330685     Delta-E=        0.000006093779 Rises=F Damp=F
 DIIS: error= 1.03D-03 at cycle 114 NSaved=   9.
 NSaved= 9 IEnMin= 3 EnMin= -844.606480905548     IErMin= 1 ErrMin= 6.36D-04
 ErrMax= 1.03D-03  0.00D+00 EMaxC= 1.00D-01 BMatC= 2.71D-05 BMatP= 1.10D-05
 IDIUse=3 WtCom= 9.94D-01 WtEn= 5.78D-03
 Rare condition: small coef for last iteration:  0.000D+00
 Coeff-Com:  0.238D-01 0.687D-01-0.135D+00-0.106D+01 0.749D+01-0.580D+01
 Coeff-Com: -0.979D+00-0.579D+01 0.719D+01
 Coeff-En:   0.000D+00 0.000D+00 0.000D+00 0.000D+00 0.000D+00 0.000D+00
 Coeff-En:   0.000D+00 0.000D+00 0.100D+01
 Coeff:      0.238D-01 0.687D-01-0.135D+00-0.106D+01 0.749D+01-0.580D+01
 Coeff:     -0.979D+00-0.579D+01 0.719D+01
 Gap=     0.199 Goal=   None    Shift=    0.000
 Gap=     1.408 Goal=   None    Shift=    0.000
 RMSDP=5.97D-04 MaxDP=7.94D-03 DE= 6.09D-06 OVMax= 3.32D-04

 Cycle 115  Pass 1  IDiag  1:
 E= -844.606127616223     Delta-E=        0.000016714462 Rises=F Damp=F
 DIIS: error= 8.62D-04 at cycle 115 NSaved=  10.
 NSaved=10 IEnMin= 3 EnMin= -844.606480905548     IErMin= 1 ErrMin= 6.36D-04
 ErrMax= 8.62D-04  0.00D+00 EMaxC= 1.00D-01 BMatC= 1.92D-05 BMatP= 1.10D-05
 IDIUse=3 WtCom= 9.94D-01 WtEn= 5.78D-03
 Rare condition: small coef for last iteration:  0.000D+00
 Coeff-Com:  0.338D-01 0.659D-01-0.117D+00-0.831D+00 0.933D+01-0.708D+01
 Coeff-Com: -0.978D+00-0.466D+01 0.444D+01 0.795D+00
 Coeff-En:   0.000D+00 0.000D+00 0.000D+00 0.000D+00 0.000D+00 0.000D+00
 Coeff-En:   0.000D+00 0.000D+00 0.000D+00 0.100D+01
 Coeff:      0.338D-01 0.659D-01-0.117D+00-0.831D+00 0.933D+01-0.708D+01
 Coeff:     -0.978D+00-0.466D+01 0.444D+01 0.795D+00
 Gap=     0.199 Goal=   None    Shift=    0.000
 Gap=     1.409 Goal=   None    Shift=    0.000
 RMSDP=2.66D-04 MaxDP=3.31D-03 DE= 1.67D-05 OVMax= 1.42D-04

 Cycle 116  Pass 1  IDiag  1:
 E= -844.606119564174     Delta-E=        0.000008052048 Rises=F Damp=F
 DIIS: error= 8.25D-04 at cycle 116 NSaved=  11.
 NSaved=11 IEnMin= 3 EnMin= -844.606480905548     IErMin= 1 ErrMin= 6.36D-04
 ErrMax= 8.25D-04  0.00D+00 EMaxC= 1.00D-01 BMatC= 1.76D-05 BMatP= 1.10D-05
 IDIUse=3 WtCom= 9.94D-01 WtEn= 5.78D-03
 Large coefficients: NSaved= 11 BigCof=   10.30 CofMax=   10.00 Det=-8.95D-13
 Inversion failed.  Reducing to 10 matrices.
 Large coefficients: NSaved= 10 BigCof=   39.40 CofMax=   10.00 Det=-1.35D-12
 Inversion failed.  Reducing to  9 matrices.
 Large coefficients: NSaved=  9 BigCof=   28.85 CofMax=   10.00 Det=-2.11D-12
 Inversion failed.  Reducing to  8 matrices.
 Large coefficients: NSaved=  8 BigCof=   10.38 CofMax=   10.00 Det=-3.26D-12
 Inversion failed.  Reducing to  7 matrices.
 Rare condition: small coef for last iteration:  0.000D+00
 Coeff-Com:  0.760D+00 0.326D+00-0.808D+00-0.236D+01 0.210D+01 0.867D+01
 Coeff-Com: -0.768D+01
 Coeff-En:   0.000D+00 0.000D+00 0.000D+00 0.000D+00 0.000D+00 0.000D+00
 Coeff-En:   0.100D+01
 Coeff:      0.760D+00 0.326D+00-0.808D+00-0.236D+01 0.210D+01 0.867D+01
 Coeff:     -0.768D+01
 Gap=     0.201 Goal=   None    Shift=    0.000
 Gap=     1.412 Goal=   None    Shift=    0.000
 RMSDP=7.86D-04 MaxDP=9.35D-03 DE= 8.05D-06 OVMax= 3.97D-04

 Cycle 117  Pass 1  IDiag  1:
 E= -844.606093079523     Delta-E=        0.000026484652 Rises=F Damp=F
 DIIS: error= 8.61D-04 at cycle 117 NSaved=   8.
 NSaved= 8 IEnMin= 3 EnMin= -844.606480905548     IErMin= 1 ErrMin= 6.36D-04
 ErrMax= 8.61D-04  0.00D+00 EMaxC= 1.00D-01 BMatC= 1.92D-05 BMatP= 1.10D-05
 IDIUse=3 WtCom= 9.94D-01 WtEn= 5.78D-03
 Large coefficients: NSaved=  8 BigCof=   12.68 CofMax=   10.00 Det=-6.30D-12
 Inversion failed.  Reducing to  7 matrices.
 Rare condition: small coef for last iteration:  0.000D+00
 Coeff-Com:  0.689D+00 0.294D+00-0.791D+00-0.279D+01 0.436D+01 0.156D+01
 Coeff-Com: -0.232D+01
 Coeff-En:   0.000D+00 0.000D+00 0.000D+00 0.000D+00 0.000D+00 0.000D+00
 Coeff-En:   0.100D+01
 Coeff:      0.689D+00 0.294D+00-0.791D+00-0.279D+01 0.436D+01 0.156D+01
 Coeff:     -0.232D+01
 Gap=     0.198 Goal=   None    Shift=    0.000
 Gap=     1.407 Goal=   None    Shift=    0.000
 RMSDP=1.21D-03 MaxDP=1.54D-02 DE= 2.65D-05 OVMax= 6.53D-04

 Cycle 118  Pass 1  IDiag  1:
 E= -844.606129072894     Delta-E=       -0.000035993372 Rises=F Damp=F
 DIIS: error= 1.01D-03 at cycle 118 NSaved=   8.
 NSaved= 8 IEnMin= 3 EnMin= -844.606480905548     IErMin= 1 ErrMin= 6.36D-04
 ErrMax= 1.01D-03  0.00D+00 EMaxC= 1.00D-01 BMatC= 2.63D-05 BMatP= 1.10D-05
 IDIUse=3 WtCom= 9.94D-01 WtEn= 5.78D-03
 Coeff-Com:  0.705D+00 0.291D+00-0.851D+00-0.261D+01 0.528D+01 0.237D+01
 Coeff-Com: -0.306D+01-0.112D+01
 Coeff-En:   0.000D+00 0.000D+00 0.000D+00 0.000D+00 0.000D+00 0.000D+00
 Coeff-En:   0.000D+00 0.100D+01
 Coeff:      0.701D+00 0.290D+00-0.846D+00-0.260D+01 0.525D+01 0.235D+01
 Coeff:     -0.304D+01-0.111D+01
 Gap=     0.197 Goal=   None    Shift=    0.000
 Gap=     1.402 Goal=   None    Shift=    0.000
 RMSDP=1.12D-03 MaxDP=1.43D-02 DE=-3.60D-05 OVMax= 6.05D-04

 Cycle 119  Pass 1  IDiag  1:
 E= -844.606162445394     Delta-E=       -0.000033372500 Rises=F Damp=F
 DIIS: error= 1.30D-03 at cycle 119 NSaved=   9.
 NSaved= 9 IEnMin= 3 EnMin= -844.606480905548     IErMin= 1 ErrMin= 6.36D-04
 ErrMax= 1.30D-03  0.00D+00 EMaxC= 1.00D-01 BMatC= 4.29D-05 BMatP= 1.10D-05
 IDIUse=3 WtCom= 9.94D-01 WtEn= 5.78D-03
 Coeff-Com:  0.686D+00 0.290D+00-0.846D+00-0.245D+01 0.527D+01 0.245D+01
 Coeff-Com: -0.308D+01-0.110D+01-0.221D+00
 Coeff-En:   0.000D+00 0.000D+00 0.000D+00 0.000D+00 0.000D+00 0.000D+00
 Coeff-En:   0.000D+00 0.000D+00 0.100D+01
 Coeff:      0.682D+00 0.288D+00-0.841D+00-0.243D+01 0.524D+01 0.243D+01
 Coeff:     -0.306D+01-0.109D+01-0.214D+00
 Gap=     0.197 Goal=   None    Shift=    0.000
 Gap=     1.402 Goal=   None    Shift=    0.000
 RMSDP=3.34D-05 MaxDP=4.28D-04 DE=-3.34D-05 OVMax= 1.84D-05

 Cycle 120  Pass 1  IDiag  1:
 E= -844.606161442667     Delta-E=        0.000001002727 Rises=F Damp=F
 DIIS: error= 1.29D-03 at cycle 120 NSaved=  10.
 NSaved=10 IEnMin= 3 EnMin= -844.606480905548     IErMin= 1 ErrMin= 6.36D-04
 ErrMax= 1.29D-03  0.00D+00 EMaxC= 1.00D-01 BMatC= 4.21D-05 BMatP= 1.10D-05
 IDIUse=3 WtCom= 9.94D-01 WtEn= 5.78D-03
 Rare condition: small coef for last iteration:  0.000D+00
 Coeff-Com:  0.596D+00 0.282D+00-0.811D+00-0.254D+01 0.537D+01 0.257D+01
 Coeff-Com: -0.310D+01-0.114D+01-0.372D+01 0.350D+01
 Coeff-En:   0.000D+00 0.000D+00 0.000D+00 0.000D+00 0.000D+00 0.000D+00
 Coeff-En:   0.000D+00 0.000D+00 0.000D+00 0.100D+01
 Coeff:      0.596D+00 0.282D+00-0.811D+00-0.254D+01 0.537D+01 0.257D+01
 Coeff:     -0.310D+01-0.114D+01-0.372D+01 0.350D+01
 Gap=     0.197 Goal=   None    Shift=    0.000
 Gap=     1.402 Goal=   None    Shift=    0.000
 RMSDP=1.25D-04 MaxDP=1.63D-03 DE= 1.00D-06 OVMax= 6.74D-05

 Cycle 121  Pass 1  IDiag  1:
 E= -844.606157661677     Delta-E=        0.000003780990 Rises=F Damp=F
 DIIS: error= 1.25D-03 at cycle 121 NSaved=  11.
 NSaved=11 IEnMin= 3 EnMin= -844.606480905548     IErMin= 1 ErrMin= 6.36D-04
 ErrMax= 1.25D-03  0.00D+00 EMaxC= 1.00D-01 BMatC= 3.97D-05 BMatP= 1.10D-05
 IDIUse=3 WtCom= 9.94D-01 WtEn= 5.78D-03
 Large coefficients: NSaved= 11 BigCof=   69.37 CofMax=   10.00 Det=-3.14D-13
 Inversion failed.  Reducing to 10 matrices.
 Large coefficients: NSaved= 10 BigCof=   78.80 CofMax=   10.00 Det=-3.18D-13
 Inversion failed.  Reducing to  9 matrices.
 Large coefficients: NSaved=  9 BigCof=   64.44 CofMax=   10.00 Det=-3.55D-13
 Inversion failed.  Reducing to  8 matrices.
 Large coefficients: NSaved=  8 BigCof=   63.93 CofMax=   10.00 Det=-3.60D-13
 Inversion failed.  Reducing to  7 matrices.
 Large coefficients: NSaved=  7 BigCof=   64.87 CofMax=   10.00 Det=-3.91D-13
 Inversion failed.  Reducing to  6 matrices.
 Rare condition: small coef for last iteration:  0.000D+00
 Coeff-Com:  0.114D+01 0.359D+00-0.895D+00-0.106D+01-0.545D+01 0.690D+01
 Coeff-En:   0.000D+00 0.000D+00 0.000D+00 0.000D+00 0.000D+00 0.100D+01
 Coeff:      0.114D+01 0.359D+00-0.895D+00-0.106D+01-0.545D+01 0.690D+01
 Gap=     0.202 Goal=   None    Shift=    0.000
 Gap=     1.416 Goal=   None    Shift=    0.000
 RMSDP=3.05D-03 MaxDP=3.79D-02 DE= 3.78D-06 OVMax= 1.63D-03

 Cycle 122  Pass 1  IDiag  1:
 E= -844.606061679912     Delta-E=        0.000095981764 Rises=F Damp=F
 DIIS: error= 9.31D-04 at cycle 122 NSaved=   7.
 NSaved= 7 IEnMin= 3 EnMin= -844.606480905548     IErMin= 1 ErrMin= 6.36D-04
 ErrMax= 9.31D-04  0.00D+00 EMaxC= 1.00D-01 BMatC= 2.26D-05 BMatP= 1.10D-05
 IDIUse=3 WtCom= 9.94D-01 WtEn= 5.78D-03
 Rare condition: small coef for last iteration:  0.000D+00
 Coeff-Com:  0.140D+01 0.279D+00-0.883D+00-0.248D+00-0.496D+01 0.675D+01
 Coeff-Com: -0.134D+01
 Coeff-En:   0.000D+00 0.000D+00 0.000D+00 0.000D+00 0.000D+00 0.000D+00
 Coeff-En:   0.100D+01
 Coeff:      0.140D+01 0.279D+00-0.883D+00-0.248D+00-0.496D+01 0.675D+01
 Coeff:     -0.134D+01
 Gap=     0.194 Goal=   None    Shift=    0.000
 Gap=     1.398 Goal=   None    Shift=    0.000
 RMSDP=3.92D-03 MaxDP=4.92D-02 DE= 9.60D-05 OVMax= 2.11D-03

 Cycle 123  Pass 1  IDiag  1:
 E= -844.606184099041     Delta-E=       -0.000122419129 Rises=F Damp=F
 DIIS: error= 1.58D-03 at cycle 123 NSaved=   8.
 NSaved= 8 IEnMin= 3 EnMin= -844.606480905548     IErMin= 1 ErrMin= 6.36D-04
 ErrMax= 1.58D-03  0.00D+00 EMaxC= 1.00D-01 BMatC= 6.31D-05 BMatP= 1.10D-05
 IDIUse=3 WtCom= 9.94D-01 WtEn= 5.78D-03
 Large coefficients: NSaved=  8 BigCof=   13.17 CofMax=   10.00 Det=-1.52D-11
 Inversion failed.  Reducing to  7 matrices.
 Coeff-Com:  0.155D+01 0.303D+00-0.998D+00-0.874D+00 0.219D+01-0.135D+01
 Coeff-Com:  0.179D+00
 Coeff-En:   0.000D+00 0.000D+00 0.000D+00 0.000D+00 0.000D+00 0.000D+00
 Coeff-En:   0.100D+01
 Coeff:      0.154D+01 0.301D+00-0.993D+00-0.869D+00 0.218D+01-0.135D+01
 Coeff:      0.184D+00
 Gap=     0.195 Goal=   None    Shift=    0.000
 Gap=     1.396 Goal=   None    Shift=    0.000
 RMSDP=3.71D-04 MaxDP=5.28D-03 DE=-1.22D-04 OVMax= 2.10D-04

 Cycle 124  Pass 1  IDiag  1:
 E= -844.606193786570     Delta-E=       -0.000009687529 Rises=F Damp=F
 DIIS: error= 1.77D-03 at cycle 124 NSaved=   8.
 NSaved= 8 IEnMin= 3 EnMin= -844.606480905548     IErMin= 1 ErrMin= 6.36D-04
 ErrMax= 1.77D-03  0.00D+00 EMaxC= 1.00D-01 BMatC= 7.98D-05 BMatP= 1.10D-05
 IDIUse=3 WtCom= 9.94D-01 WtEn= 5.78D-03
 Coeff-Com:  0.627D+00 0.195D+00-0.502D+00 0.111D+01 0.413D+01-0.165D+01
 Coeff-Com:  0.365D+00-0.326D+01
 Coeff-En:   0.000D+00 0.000D+00 0.000D+00 0.000D+00 0.000D+00 0.000D+00
 Coeff-En:   0.000D+00 0.100D+01
 Coeff:      0.624D+00 0.194D+00-0.499D+00 0.110D+01 0.410D+01-0.164D+01
 Coeff:      0.362D+00-0.324D+01
 Gap=     0.196 Goal=   None    Shift=    0.000
 Gap=     1.397 Goal=   None    Shift=    0.000
 RMSDP=1.14D-04 MaxDP=2.91D-03 DE=-9.69D-06 OVMax= 1.10D-04

 Cycle 125  Pass 1  IDiag  1:
 E= -844.606200068543     Delta-E=       -0.000006281973 Rises=F Damp=F
 DIIS: error= 1.56D-03 at cycle 125 NSaved=   9.
 NSaved= 9 IEnMin= 3 EnMin= -844.606480905548     IErMin= 1 ErrMin= 6.36D-04
 ErrMax= 1.56D-03  0.00D+00 EMaxC= 1.00D-01 BMatC= 6.20D-05 BMatP= 1.10D-05
 IDIUse=3 WtCom= 9.94D-01 WtEn= 5.78D-03
 Coeff-Com:  0.770D+00 0.186D+00-0.428D+00-0.722D+00 0.485D+01-0.146D+01
 Coeff-Com:  0.253D+01-0.308D+01-0.165D+01
 Coeff-En:   0.000D+00 0.000D+00 0.000D+00 0.000D+00 0.000D+00 0.000D+00
 Coeff-En:   0.000D+00 0.000D+00 0.100D+01
 Coeff:      0.766D+00 0.185D+00-0.426D+00-0.718D+00 0.482D+01-0.145D+01
 Coeff:      0.252D+01-0.306D+01-0.163D+01
 Gap=     0.196 Goal=   None    Shift=    0.000
 Gap=     1.401 Goal=   None    Shift=    0.000
 RMSDP=7.20D-04 MaxDP=9.12D-03 DE=-6.28D-06 OVMax= 3.89D-04

 Cycle 126  Pass 1  IDiag  1:
 E= -844.606175749978     Delta-E=        0.000024318565 Rises=F Damp=F
 DIIS: error= 1.28D-03 at cycle 126 NSaved=  10.
 NSaved=10 IEnMin= 3 EnMin= -844.606480905548     IErMin= 1 ErrMin= 6.36D-04
 ErrMax= 1.28D-03  0.00D+00 EMaxC= 1.00D-01 BMatC= 4.18D-05 BMatP= 1.10D-05
 IDIUse=3 WtCom= 9.94D-01 WtEn= 5.78D-03
 Rare condition: small coef for last iteration:  0.000D+00
 Coeff-Com:  0.614D+00 0.186D+00-0.447D+00 0.453D+00 0.347D+01-0.155D+01
 Coeff-Com:  0.145D+01-0.289D+01-0.167D+01 0.138D+01
 Coeff-En:   0.000D+00 0.000D+00 0.000D+00 0.000D+00 0.000D+00 0.000D+00
 Coeff-En:   0.000D+00 0.000D+00 0.000D+00 0.100D+01
 Coeff:      0.614D+00 0.186D+00-0.447D+00 0.453D+00 0.347D+01-0.155D+01
 Coeff:      0.145D+01-0.289D+01-0.167D+01 0.138D+01
 Gap=     0.196 Goal=   None    Shift=    0.000
 Gap=     1.399 Goal=   None    Shift=    0.000
 RMSDP=3.64D-04 MaxDP=4.68D-03 DE= 2.43D-05 OVMax= 2.00D-04

 Cycle 127  Pass 1  IDiag  1:
 E= -844.606187489628     Delta-E=       -0.000011739650 Rises=F Damp=F
 DIIS: error= 1.43D-03 at cycle 127 NSaved=  11.
 NSaved=11 IEnMin= 3 EnMin= -844.606480905548     IErMin= 1 ErrMin= 6.36D-04
 ErrMax= 1.43D-03  0.00D+00 EMaxC= 1.00D-01 BMatC= 5.18D-05 BMatP= 1.10D-05
 IDIUse=3 WtCom= 9.94D-01 WtEn= 5.78D-03
 Coeff-Com: -0.245D-01 0.159D+00-0.336D+00 0.148D+01-0.193D+00-0.163D+01
 Coeff-Com:  0.168D+01-0.275D+01-0.210D+01 0.935D+01-0.464D+01
 Coeff-En:   0.000D+00 0.000D+00 0.000D+00 0.000D+00 0.000D+00 0.000D+00
 Coeff-En:   0.000D+00 0.000D+00 0.000D+00 0.000D+00 0.100D+01
 Coeff:     -0.243D-01 0.158D+00-0.334D+00 0.147D+01-0.191D+00-0.162D+01
 Coeff:      0.167D+01-0.273D+01-0.208D+01 0.929D+01-0.461D+01
 Gap=     0.196 Goal=   None    Shift=    0.000
 Gap=     1.398 Goal=   None    Shift=    0.000
 RMSDP=1.98D-04 MaxDP=2.70D-03 DE=-1.17D-05 OVMax= 9.41D-05

 Cycle 128  Pass 1  IDiag  1:
 E= -844.606195910445     Delta-E=       -0.000008420817 Rises=F Damp=F
 DIIS: error= 1.46D-03 at cycle 128 NSaved=  12.
 NSaved=12 IEnMin= 3 EnMin= -844.606480905548     IErMin= 1 ErrMin= 6.36D-04
 ErrMax= 1.46D-03  0.00D+00 EMaxC= 1.00D-01 BMatC= 5.42D-05 BMatP= 1.10D-05
 IDIUse=3 WtCom= 9.94D-01 WtEn= 5.78D-03
 Coeff-Com: -0.463D-01 0.160D+00-0.336D+00 0.178D+01-0.227D+00-0.162D+01
 Coeff-Com:  0.150D+01-0.284D+01-0.226D+01 0.901D+01-0.446D+01 0.333D+00
 Coeff-En:   0.000D+00 0.000D+00 0.000D+00 0.000D+00 0.000D+00 0.000D+00
 Coeff-En:   0.000D+00 0.000D+00 0.000D+00 0.000D+00 0.000D+00 0.100D+01
 Coeff:     -0.460D-01 0.159D+00-0.334D+00 0.177D+01-0.225D+00-0.161D+01
 Coeff:      0.149D+01-0.282D+01-0.225D+01 0.896D+01-0.444D+01 0.337D+00
 Gap=     0.196 Goal=   None    Shift=    0.000
 Gap=     1.398 Goal=   None    Shift=    0.000
 RMSDP=1.96D-05 MaxDP=2.87D-04 DE=-8.42D-06 OVMax= 1.17D-05

 >>>>>>>>>> Convergence criterion not met.
 SCF Done:  E(UHF) =  -844.606195910     A.U. after  129 cycles
            NFock=128  Conv=0.20D-04     -V/T= 1.9982
 <Sx>= 0.0000 <Sy>= 0.0000 <Sz>= 2.5000 <S**2>= 8.7500 S= 2.5000
 <L.S>= 0.000000000000E+00
 KE= 8.461471899366D+02 PE=-2.018560039342D+03 EE= 3.237922056881D+02
 Annihilation of the first spin contaminant:
 S**2 before annihilation     8.7500,   after     8.7500
 Convergence failure -- run terminated.
 Error termination via Lnk1e in /nopt/nrel/apps/gaussian/g16C_1/g16/l502.exe at Mon Mar 28 12:47:09 2022.
 Job cpu time:       0 days  0 hours  0 minutes 34.1 seconds.
 Elapsed time:       0 days  0 hours  0 minutes  1.2 seconds.
 File lengths (MBytes):  RWF=      6 Int=      0 D2E=      0 Chk=      1 Scr=      1
