 Entering Gaussian System, Link 0=g16
 Initial command:
 /nopt/nrel/apps/gaussian/g16C_1/g16/l1.exe "/lustre/eaglefs/scratch/user/qc/lih-dissc/lih-3-ccsd-1.3-321g/Gau-31186.inp" -scrdir="/lustre/eaglefs/scratch/user/qc/lih-dissc/lih-3-ccsd-1.3-321g/"
 Default is to use a total of  36 processors:
                               36 via shared-memory
                                1 via Linda
 Entering Link 1 = /nopt/nrel/apps/gaussian/g16C_1/g16/l1.exe PID=     31187.
  
 Copyright (c) 1988-2019, Gaussian, Inc.  All Rights Reserved.
  
 This is part of the Gaussian(R) 16 program.  It is based on
 the Gaussian(R) 09 system (copyright 2009, Gaussian, Inc.),
 the Gaussian(R) 03 system (copyright 2003, Gaussian, Inc.),
 the Gaussian(R) 98 system (copyright 1998, Gaussian, Inc.),
 the Gaussian(R) 94 system (copyright 1995, Gaussian, Inc.),
 the Gaussian 92(TM) system (copyright 1992, Gaussian, Inc.),
 the Gaussian 90(TM) system (copyright 1990, Gaussian, Inc.),
 the Gaussian 88(TM) system (copyright 1988, Gaussian, Inc.),
 the Gaussian 86(TM) system (copyright 1986, Carnegie Mellon
 University), and the Gaussian 82(TM) system (copyright 1983,
 Carnegie Mellon University). Gaussian is a federally registered
 trademark of Gaussian, Inc.
  
 This software contains proprietary and confidential information,
 including trade secrets, belonging to Gaussian, Inc.
  
 This software is provided under written license and may be
 used, copied, transmitted, or stored only in accord with that
 written license.
  
 The following legend is applicable only to US Government
 contracts under FAR:
  
                    RESTRICTED RIGHTS LEGEND
  
 Use, reproduction and disclosure by the US Government is
 subject to restrictions as set forth in subparagraphs (a)
 and (c) of the Commercial Computer Software - Restricted
 Rights clause in FAR 52.227-19.
  
 Gaussian, Inc.
 340 Quinnipiac St., Bldg. 40, Wallingford CT 06492
  
  
 ---------------------------------------------------------------
 Warning -- This program may not be used in any manner that
 competes with the business of Gaussian, Inc. or will provide
 assistance to any competitor of Gaussian, Inc.  The licensee
 of this program is prohibited from giving any competitor of
 Gaussian, Inc. access to this program.  By using this program,
 the user acknowledges that Gaussian, Inc. is engaged in the
 business of creating and licensing software in the field of
 computational chemistry and represents and warrants to the
 licensee that it is not a competitor of Gaussian, Inc. and that
 it will not use this program in any manner prohibited above.
 ---------------------------------------------------------------
  

 Cite this work as:
 Gaussian 16, Revision C.01,
 M. J. Frisch, G. W. Trucks, H. B. Schlegel, G. E. Scuseria, 
 M. A. Robb, J. R. Cheeseman, G. Scalmani, V. Barone, 
 G. A. Petersson, H. Nakatsuji, X. Li, M. Caricato, A. V. Marenich, 
 J. Bloino, B. G. Janesko, R. Gomperts, B. Mennucci, H. P. Hratchian, 
 J. V. Ortiz, A. F. Izmaylov, J. L. Sonnenberg, D. Williams-Young, 
 F. Ding, F. Lipparini, F. Egidi, J. Goings, B. Peng, A. Petrone, 
 T. Henderson, D. Ranasinghe, V. G. Zakrzewski, J. Gao, N. Rega, 
 G. Zheng, W. Liang, M. Hada, M. Ehara, K. Toyota, R. Fukuda, 
 J. Hasegawa, M. Ishida, T. Nakajima, Y. Honda, O. Kitao, H. Nakai, 
 T. Vreven, K. Throssell, J. A. Montgomery, Jr., J. E. Peralta, 
 F. Ogliaro, M. J. Bearpark, J. J. Heyd, E. N. Brothers, K. N. Kudin, 
 V. N. Staroverov, T. A. Keith, R. Kobayashi, J. Normand, 
 K. Raghavachari, A. P. Rendell, J. C. Burant, S. S. Iyengar, 
 J. Tomasi, M. Cossi, J. M. Millam, M. Klene, C. Adamo, R. Cammi, 
 J. W. Ochterski, R. L. Martin, K. Morokuma, O. Farkas, 
 J. B. Foresman, and D. J. Fox, Gaussian, Inc., Wallingford CT, 2019.
 
 ******************************************
 Gaussian 16:  ES64L-G16RevC.01  3-Jul-2019
                28-Mar-2022 
 ******************************************
 %chk=molecule
 Default route: CacheSize=180224 MaxDisk=256GB
 ----------------------------------------------------------------------
 #P CCSD(MaxCyc=200,SaveAmplitudes,ReadAmplitudes)/GEN sp pop=AllOrbita
 ls iop(3/33=1,3/36=-1)
 ----------------------------------------------------------------------
 1/4=180224,38=1,172=1/1;
 2/4=180224,12=2,17=6,18=5,40=1/2;
 3/4=180224,5=7,11=9,25=1,30=1,33=1,36=-1/1,2,3;
 4/4=180224/1;
 5/4=180224,5=2,38=5/2;
 8/4=180224,6=4,9=120000,10=1,24=1/1,4;
 9/4=180224,5=7,6=200,77=1/13;
 6/4=180224,7=2,8=2,9=2,10=2,96=-1/1;
 99/4=180224,5=1,9=1/99;
 Leave Link    1 at Mon Mar 28 14:04:49 2022, MaxMem=           0 cpu:               2.1 elap:               0.1
 (Enter /nopt/nrel/apps/gaussian/g16C_1/g16/l101.exe)
 ----
 test
 ----
 Symbolic Z-matrix:
 Charge =  0 Multiplicity = 3
 H                     0.        0.        0. 
 Li                    0.        0.        1.3 
 
 ITRead=  0  0
 MicOpt= -1 -1
 NAtoms=      2 NQM=        2 NQMF=       0 NMMI=      0 NMMIF=      0
                NMic=       0 NMicF=      0.
                    Isotopes and Nuclear Properties:
 (Nuclear quadrupole moments (NQMom) in fm**2, nuclear magnetic moments (NMagM)
  in nuclear magnetons)

  Atom         1           2
 IAtWgt=           1           7
 AtmWgt=   1.0078250   7.0160045
 NucSpn=           1           3
 AtZEff=  -0.0000000  -0.0000000
 NQMom=    0.0000000  -4.0100000
 NMagM=    2.7928460   3.2564240
 AtZNuc=   1.0000000   3.0000000
 Leave Link  101 at Mon Mar 28 14:04:49 2022, MaxMem=  9663676416 cpu:               3.3 elap:               0.1
 (Enter /nopt/nrel/apps/gaussian/g16C_1/g16/l202.exe)
                          Input orientation:                          
 ---------------------------------------------------------------------
 Center     Atomic      Atomic             Coordinates (Angstroms)
 Number     Number       Type             X           Y           Z
 ---------------------------------------------------------------------
      1          1           0        0.000000    0.000000    0.000000
      2          3           0        0.000000    0.000000    1.300000
 ---------------------------------------------------------------------
 Stoichiometry    HLi(3)
 Framework group  C*V[C*(HLi)]
 Deg. of freedom     1
 Full point group                 C*V     NOp   4
 Largest Abelian subgroup         C2V     NOp   4
 Largest concise Abelian subgroup C1      NOp   1
                         Standard orientation:                         
 ---------------------------------------------------------------------
 Center     Atomic      Atomic             Coordinates (Angstroms)
 Number     Number       Type             X           Y           Z
 ---------------------------------------------------------------------
      1          1           0        0.000000    0.000000   -0.975000
      2          3           0        0.000000    0.000000    0.325000
 ---------------------------------------------------------------------
 Rotational constants (GHZ):           0.0000000         339.3416652         339.3416652
 Leave Link  202 at Mon Mar 28 14:04:49 2022, MaxMem=  9663676416 cpu:               0.9 elap:               0.0
 (Enter /nopt/nrel/apps/gaussian/g16C_1/g16/l301.exe)
 General basis read from cards:  (5D, 7F)
                         Coordinates in L301:                         
 ---------------------------------------------------------------------
 Center     Atomic      Atomic             Coordinates (Angstroms)
 Number     Number       Type             X           Y           Z
 ---------------------------------------------------------------------
      1          1           0        0.000000    0.000000   -0.975000
      2          3           0        0.000000    0.000000    0.325000
 ---------------------------------------------------------------------
 Centers:       1
 STO-3G
 ****
 Centers:       2
 3-21G
 ****
 FixB: optimizing general contractions.
 Ernie: Thresh=  0.10000D-02 Tol=  0.10000D-05 Strict=F.
 IA=     1 ShT= 0 ShC= 0 NL=   1 NS=   0.
 IA=     1 L=0 SC=0 ISt=    0 NBk=    0 NP=    0 IndPr=    0.
 IA=     2 ShT= 0 ShC= 0 NL=   1 NS=   0.
 IA=     2 L=0 SC=0 ISt=    0 NBk=    0 NP=    0 IndPr=    0.
 IA=     2 ShT= 1 ShC= 0 NL=   2 NS=   1.
 IA=     2 L=1 SC=0 ISt=    0 NBk=    0 NP=    0 IndPr=    0.
 LdAtmC:  AtmChg=     1.000000     3.000000
 AtZEff=     -1.0000000     -1.3500000
 NEqShl: 
              1            2            3            4
     1            1            1            1            1
     2            2            2            2            2
     3            3            3            3            3
     4            4            4            4            4
 NEqBas: 
              1            2            3            4
     1            1            1            1            1
     2            2            2            2            2
     3            3            3            3            3
     4            4           -4           -4            4
     5            5           -5            5           -5
     6            6            6            6            6
     7            7            7            7            7
     8            8           -8           -8            8
     9            9           -9            9           -9
    10           10           10           10           10
 There are     6 symmetry adapted cartesian basis functions of A1  symmetry.
   1         1   1   1   1
   2         2   2   2   2
   3         3   3   3   3
   4         6   6   6   6
   5         7   7   7   7
   6        10  10  10  10
 There are     0 symmetry adapted cartesian basis functions of A2  symmetry.
 There are     2 symmetry adapted cartesian basis functions of B1  symmetry.
   7         4   4   4   4
   8         8   8   8   8
 There are     2 symmetry adapted cartesian basis functions of B2  symmetry.
   9         5   5   5   5
  10         9   9   9   9
 Order= 1 2 4 3
 Reordered character table:
              1            2            3            4            5
     1            1            1            1            1            1
     2            2            1            1           -1           -1
     3            4            1           -1           -1            1
     4            3            1           -1            1           -1
 NEqShl: 
              1            2            3            4
     1            1            1            1            1
     2            2            2            2            2
     3            3            3            3            3
     4            4            4            4            4
 NEqBas: 
              1            2            3            4
     1            1            1            1            1
     2            2            2            2            2
     3            3            3            3            3
     4            4           -4           -4            4
     5            5           -5            5           -5
     6            6            6            6            6
     7            7            7            7            7
     8            8           -8           -8            8
     9            9           -9            9           -9
    10           10           10           10           10
 There are     6 symmetry adapted basis functions of A1  symmetry.
   1         1   1   1   1
   2         2   2   2   2
   3         3   3   3   3
   4         6   6   6   6
   5         7   7   7   7
   6        10  10  10  10
 There are     0 symmetry adapted basis functions of A2  symmetry.
 There are     2 symmetry adapted basis functions of B1  symmetry.
   7         4   4   4   4
   8         8   8   8   8
 There are     2 symmetry adapted basis functions of B2  symmetry.
   9         5   5   5   5
  10         9   9   9   9
 Order= 1 2 4 3
 Reordered character table:
              1            2            3            4            5
     1            1            1            1            1            1
     2            2            1            1           -1           -1
     3            4            1           -1           -1            1
     4            3            1           -1            1           -1
    10 basis functions,    18 primitive gaussians,    10 cartesian basis functions
     3 alpha electrons        1 beta electrons
       nuclear repulsion energy         1.2211781790 Hartrees.
 IS=     1 IAt=     1 ISR=     1 T=0 IP=      1 IndIP=      1 IndIPD=      0 C=  2.769344D-01  0.000000D+00                             NZ=T
 IS=     1 IAt=     1 ISR=     1 T=0 IP=      2 IndIP=      2 IndIPD=      1 C=  2.678389D-01  0.000000D+00                             NZ=T
 IS=     1 IAt=     1 ISR=     1 T=0 IP=      3 IndIP=      3 IndIPD=      2 C=  8.347367D-02  0.000000D+00                             NZ=T
 IS=     2 IAt=     2 ISR=     1 T=0 IP=      1 IndIP=      4 IndIPD=      0 C=  7.424571D-01  0.000000D+00                             NZ=T
 IS=     2 IAt=     2 ISR=     1 T=0 IP=      2 IndIP=      5 IndIPD=      1 C=  9.736824D-01  0.000000D+00                             NZ=T
 IS=     2 IAt=     2 ISR=     1 T=0 IP=      3 IndIP=      6 IndIPD=      2 C=  5.265692D-01  0.000000D+00                             NZ=T
 IS=     3 IAt=     2 ISR=     2 T=1 IP=      1 IndIP=      7 IndIPD=      0 C= -1.181663D-01  1.066435D-01                             NZ=T
 IS=     3 IAt=     2 ISR=     2 T=1 IP=      2 IndIP=      8 IndIPD=      1 C=  1.473557D-01  7.547122D-02                             NZ=T
 IS=     4 IAt=     2 ISR=     3 T=1 IP=      1 IndIP=      9 IndIPD=      0 C=  4.951993D-02  1.673876D-02                             NZ=T
 IExCor=    0 DFT=F Ex=HF Corr=None ExCW=0 ScaHFX=  1.000000
 ScaDFX=  1.000000  1.000000  1.000000  1.000000 ScalE2=  1.000000  1.000000
 IRadAn=      5 IRanWt=     -1 IRanGd=            0 ICorTp=0 IEmpDi=  4
 NAtoms=    2 NActive=    2 NUniq=    2 SFac= 1.00D+00 NAtFMM=   60 NAOKFM=F Big=F
 Integral buffers will be    131072 words long.
 Raffenetti 2 integral format.
 Two-electron integral symmetry is turned on.
 Leave Link  301 at Mon Mar 28 14:04:49 2022, MaxMem=  9663676416 cpu:               2.1 elap:               0.1
 (Enter /nopt/nrel/apps/gaussian/g16C_1/g16/l302.exe)
 NPDir=0 NMtPBC=     1 NCelOv=     1 NCel=       1 NClECP=     1 NCelD=      1
         NCelK=      1 NCelE2=     1 NClLst=     1 CellRange=     0.0.
 One-electron integrals computed using PRISM.
 One-electron integral symmetry used in STVInt
 Entering OneElI...
 Calculate overlap and kinetic energy integrals
    NBasis =  10  MinDer = 0  MaxDer = 0
 Requested accuracy = 0.1000D-12
 Symmetry will be used
 PrmmSu-InSpLW:  IPartL=    0 NPrtUS=   36 NPrtUL=    1 DoSpLW=F IThBeg=    0 IThEnd=   35 NThAct=   36.
 PrSmSu:  IncTry=   512 NBBP=             10 NTPThr=   100 NPartT=   36 Incr=           1 LDynOK=F GPUOK=F.
 PrsmSu:  NPrtUS=  36 ThrOK=T IAlg=1 LenDen=           0 ISkipM=0 DoSpLW=F IThBeg=    0 IThEnd=   35.
 Prism:   IPart=     0 DynPar=F LinDyn=F Incr=           1.
 PRISM was handed   268434300 working-precision words and    10 shell-pairs
 PRISM was handed   268434300 working-precision words and    10 shell-pairs
 PRISM was handed   268434300 working-precision words and    10 shell-pairs
 PRISM was handed   268434300 working-precision words and    10 shell-pairs
 PRISM was handed   268434300 working-precision words and    10 shell-pairs
 PRISM was handed   268434300 working-precision words and    10 shell-pairs
 PRISM was handed   268434300 working-precision words and    10 shell-pairs
 IPart= 27 NShTot=           0 NBatch=           0 AvBLen=         0.0
 PRISM was handed   268434300 working-precision words and    10 shell-pairs
 IPart= 31 NShTot=           0 NBatch=           0 AvBLen=         0.0
 IPart= 30 NShTot=           0 NBatch=           0 AvBLen=         0.0
 PRISM was handed   268434300 working-precision words and    10 shell-pairs
 IPart= 16 NShTot=           0 NBatch=           0 AvBLen=         0.0
 PRISM was handed   268434300 working-precision words and    10 shell-pairs
 IPart= 18 NShTot=           0 NBatch=           0 AvBLen=         0.0
 IPart= 25 NShTot=           0 NBatch=           0 AvBLen=         0.0
 IPart= 22 NShTot=           0 NBatch=           0 AvBLen=         0.0
 PRISM was handed   268434300 working-precision words and    10 shell-pairs
 IPart= 12 NShTot=           0 NBatch=           0 AvBLen=         0.0
 IPart= 17 NShTot=           0 NBatch=           0 AvBLen=         0.0
 PRISM was handed   268434300 working-precision words and    10 shell-pairs
 PRISM was handed   268434300 working-precision words and    10 shell-pairs
 PRISM was handed   268434300 working-precision words and    10 shell-pairs
 PRISM was handed   268434300 working-precision words and    10 shell-pairs
 PRISM was handed   268434300 working-precision words and    10 shell-pairs
 PRISM was handed   268434300 working-precision words and    10 shell-pairs
 PRISM was handed   268434300 working-precision words and    10 shell-pairs
 IPart= 24 NShTot=           0 NBatch=           0 AvBLen=         0.0
 PRISM was handed   268434300 working-precision words and    10 shell-pairs
 IPart= 11 NShTot=           0 NBatch=           0 AvBLen=         0.0
 IPart= 14 NShTot=           0 NBatch=           0 AvBLen=         0.0
 IPart= 32 NShTot=           0 NBatch=           0 AvBLen=         0.0
 IPart=  9 NShTot=           0 NBatch=           0 AvBLen=         0.0
 IPart= 20 NShTot=           0 NBatch=           0 AvBLen=         0.0
 IPart= 10 NShTot=           0 NBatch=           0 AvBLen=         0.0
 IPart= 21 NShTot=           0 NBatch=           0 AvBLen=         0.0
 PRISM was handed   268434300 working-precision words and    10 shell-pairs
 PRISM was handed   268434300 working-precision words and    10 shell-pairs
 IPart= 35 NShTot=           0 NBatch=           0 AvBLen=         0.0
 PRISM was handed   268434300 working-precision words and    10 shell-pairs
 PRISM was handed   268434300 working-precision words and    10 shell-pairs
 PRISM was handed   268434300 working-precision words and    10 shell-pairs
 PRISM was handed   268434300 working-precision words and    10 shell-pairs
 PRISM was handed   268434300 working-precision words and    10 shell-pairs
 IPart=  3 NShTot=           0 NBatch=           0 AvBLen=         0.0
 IPart= 28 NShTot=           0 NBatch=           0 AvBLen=         0.0
 IPart= 34 NShTot=           0 NBatch=           0 AvBLen=         0.0
 IPart=  4 NShTot=           0 NBatch=           0 AvBLen=         0.0
 IPart= 33 NShTot=           0 NBatch=           0 AvBLen=         0.0
 PRISM was handed   268434300 working-precision words and    10 shell-pairs
 IPart=  1 NShTot=           3 NBatch=           3 AvBLen=         1.0
 PRISM was handed   268434300 working-precision words and    10 shell-pairs
 PRISM was handed   268434300 working-precision words and    10 shell-pairs
 PRISM was handed   268434300 working-precision words and    10 shell-pairs
 IPart= 26 NShTot=           0 NBatch=           0 AvBLen=         0.0
 PRISM was handed   268434300 working-precision words and    10 shell-pairs
 PRISM was handed   268434300 working-precision words and    10 shell-pairs
 IPart=  2 NShTot=           1 NBatch=           1 AvBLen=         1.0
 IPart= 13 NShTot=           0 NBatch=           0 AvBLen=         0.0
 IPart=  5 NShTot=           0 NBatch=           0 AvBLen=         0.0
 IPart= 23 NShTot=           0 NBatch=           0 AvBLen=         0.0
 IPart=  6 NShTot=           0 NBatch=           0 AvBLen=         0.0
 PRISM was handed   268434300 working-precision words and    10 shell-pairs
 PRISM was handed   268434300 working-precision words and    10 shell-pairs
 PRISM was handed   268434300 working-precision words and    10 shell-pairs
 IPart=  0 NShTot=           6 NBatch=           6 AvBLen=         1.0
 PRISM was handed   268434300 working-precision words and    10 shell-pairs
 IPart=  7 NShTot=           0 NBatch=           0 AvBLen=         0.0
 IPart= 29 NShTot=           0 NBatch=           0 AvBLen=         0.0
 IPart= 15 NShTot=           0 NBatch=           0 AvBLen=         0.0
 IPart=  8 NShTot=           0 NBatch=           0 AvBLen=         0.0
 IPart= 19 NShTot=           0 NBatch=           0 AvBLen=         0.0
 PrSmSu:  NxtVal=             37.
 *** Overlap *** 
                1             2             3             4             5 
      1  0.100000D+01
      2  0.117318D+00  0.100000D+01
      3  0.490049D+00  0.177215D+00  0.100000D+01
      4  0.000000D+00  0.000000D+00  0.000000D+00  0.100000D+01
      5  0.000000D+00  0.000000D+00  0.000000D+00  0.000000D+00  0.100000D+01
      6 -0.561883D+00  0.000000D+00  0.000000D+00  0.000000D+00  0.000000D+00
      7  0.355290D+00  0.140674D+00  0.782781D+00  0.000000D+00  0.000000D+00
      8  0.000000D+00  0.000000D+00  0.000000D+00  0.588593D+00  0.000000D+00
      9  0.000000D+00  0.000000D+00  0.000000D+00  0.000000D+00  0.588593D+00
     10 -0.263438D+00  0.000000D+00  0.000000D+00  0.000000D+00  0.000000D+00
                6             7             8             9            10 
      6  0.100000D+01
      7  0.000000D+00  0.100000D+01
      8  0.000000D+00  0.000000D+00  0.100000D+01
      9  0.000000D+00  0.000000D+00  0.000000D+00  0.100000D+01
     10  0.588593D+00  0.000000D+00  0.000000D+00  0.000000D+00  0.100000D+01
 *** Kinetic Energy *** 
                1             2             3             4             5 
      1  0.760032D+00
      2 -0.180738D-01  0.365490D+01
      3  0.832472D-01 -0.135538D+00  0.159492D+00
      4  0.000000D+00  0.000000D+00  0.000000D+00  0.307817D+00
      5  0.000000D+00  0.000000D+00  0.000000D+00  0.000000D+00  0.307817D+00
      6 -0.178443D+00  0.000000D+00  0.000000D+00  0.000000D+00  0.000000D+00
      7  0.243871D-01  0.117904D-01  0.513380D-01  0.000000D+00  0.000000D+00
      8  0.000000D+00  0.000000D+00  0.000000D+00  0.661980D-01  0.000000D+00
      9  0.000000D+00  0.000000D+00  0.000000D+00  0.000000D+00  0.661980D-01
     10 -0.316134D-01  0.000000D+00  0.000000D+00  0.000000D+00  0.000000D+00
                6             7             8             9            10 
      6  0.307817D+00
      7  0.000000D+00  0.428467D-01
      8  0.000000D+00  0.000000D+00  0.714113D-01
      9  0.000000D+00  0.000000D+00  0.000000D+00  0.714113D-01
     10  0.661980D-01  0.000000D+00  0.000000D+00  0.000000D+00  0.714113D-01
 Entering OneElI...
 Calculate potential energy integrals
    NBasis =  10  MinDer = 0  MaxDer = 0
 Requested accuracy = 0.1000D-12
 Symmetry will be used
 PrmmSu-InSpLW:  IPartL=    0 NPrtUS=   36 NPrtUL=    1 DoSpLW=F IThBeg=    0 IThEnd=   35 NThAct=   36.
 PrSmSu:  IncTry=   512 NBBP=             20 NTPThr=   100 NPartT=   36 Incr=           1 LDynOK=F GPUOK=F.
 PrsmSu:  NPrtUS=  36 ThrOK=T IAlg=1 LenDen=           0 ISkipM=0 DoSpLW=F IThBeg=    0 IThEnd=   35.
 Prism:   IPart=     0 DynPar=F LinDyn=F Incr=           1.
 PRISM was handed   268434341 working-precision words and    10 shell-pairs
 PRISM was handed   268434341 working-precision words and    10 shell-pairs
 PRISM was handed   268434341 working-precision words and    10 shell-pairs
 PRISM was handed   268434341 working-precision words and    10 shell-pairs
 PRISM was handed   268434341 working-precision words and    10 shell-pairs
 PRISM was handed   268434341 working-precision words and    10 shell-pairs
 PRISM was handed   268434341 working-precision words and    10 shell-pairs
 PRISM was handed   268434341 working-precision words and    10 shell-pairs
 PRISM was handed   268434341 working-precision words and    10 shell-pairs
 PRISM was handed   268434341 working-precision words and    10 shell-pairs
 PRISM was handed   268434341 working-precision words and    10 shell-pairs
 PRISM was handed   268434341 working-precision words and    10 shell-pairs
 PRISM was handed   268434341 working-precision words and    10 shell-pairs
 PRISM was handed   268434341 working-precision words and    10 shell-pairs
 PRISM was handed   268434341 working-precision words and    10 shell-pairs
 PRISM was handed   268434341 working-precision words and    10 shell-pairs
 PRISM was handed   268434341 working-precision words and    10 shell-pairs
 PRISM was handed   268434341 working-precision words and    10 shell-pairs
 PRISM was handed   268434341 working-precision words and    10 shell-pairs
 PRISM was handed   268434341 working-precision words and    10 shell-pairs
 PRISM was handed   268434341 working-precision words and    10 shell-pairs
 PRISM was handed   268434341 working-precision words and    10 shell-pairs
 PRISM was handed   268434341 working-precision words and    10 shell-pairs
 PRISM was handed   268434341 working-precision words and    10 shell-pairs
 PRISM was handed   268434341 working-precision words and    10 shell-pairs
 PRISM was handed   268434341 working-precision words and    10 shell-pairs
 PRISM was handed   268434341 working-precision words and    10 shell-pairs
 PRISM was handed   268434341 working-precision words and    10 shell-pairs
 PRISM was handed   268434341 working-precision words and    10 shell-pairs
 PRISM was handed   268434341 working-precision words and    10 shell-pairs
 PRISM was handed   268434341 working-precision words and    10 shell-pairs
 PRISM was handed   268434341 working-precision words and    10 shell-pairs
 PRISM was handed   268434341 working-precision words and    10 shell-pairs
 PRISM was handed   268434341 working-precision words and    10 shell-pairs
 PRISM was handed   268434341 working-precision words and    10 shell-pairs
 PRISM was handed   268434341 working-precision words and    10 shell-pairs
 IPart= 18 NShTot=           0 NBatch=           0 AvBLen=         0.0
 IPart= 35 NShTot=           0 NBatch=           0 AvBLen=         0.0
 IPart= 34 NShTot=           0 NBatch=           0 AvBLen=         0.0
 IPart= 29 NShTot=           0 NBatch=           0 AvBLen=         0.0
 IPart= 33 NShTot=           0 NBatch=           0 AvBLen=         0.0
 IPart= 21 NShTot=           0 NBatch=           0 AvBLen=         0.0
 IPart=  4 NShTot=           0 NBatch=           0 AvBLen=         0.0
 IPart=  8 NShTot=           0 NBatch=           0 AvBLen=         0.0
 IPart= 25 NShTot=           0 NBatch=           0 AvBLen=         0.0
 IPart=  7 NShTot=           0 NBatch=           0 AvBLen=         0.0
 IPart=  6 NShTot=           0 NBatch=           0 AvBLen=         0.0
 IPart= 20 NShTot=           0 NBatch=           0 AvBLen=         0.0
 IPart= 10 NShTot=           0 NBatch=           0 AvBLen=         0.0
 IPart= 28 NShTot=           0 NBatch=           0 AvBLen=         0.0
 IPart= 11 NShTot=           0 NBatch=           0 AvBLen=         0.0
 IPart= 26 NShTot=           0 NBatch=           0 AvBLen=         0.0
 IPart=  5 NShTot=           0 NBatch=           0 AvBLen=         0.0
 IPart=  3 NShTot=           0 NBatch=           0 AvBLen=         0.0
 IPart= 30 NShTot=           0 NBatch=           0 AvBLen=         0.0
 IPart= 12 NShTot=           0 NBatch=           0 AvBLen=         0.0
 IPart= 24 NShTot=           0 NBatch=           0 AvBLen=         0.0
 IPart= 32 NShTot=           0 NBatch=           0 AvBLen=         0.0
 IPart= 22 NShTot=           0 NBatch=           0 AvBLen=         0.0
 IPart= 14 NShTot=           0 NBatch=           0 AvBLen=         0.0
 IPart=  9 NShTot=           0 NBatch=           0 AvBLen=         0.0
 IPart=  2 NShTot=           2 NBatch=           1 AvBLen=         2.0
 IPart= 19 NShTot=           0 NBatch=           0 AvBLen=         0.0
 IPart= 23 NShTot=           0 NBatch=           0 AvBLen=         0.0
 IPart= 17 NShTot=           0 NBatch=           0 AvBLen=         0.0
 IPart= 13 NShTot=           0 NBatch=           0 AvBLen=         0.0
 IPart= 16 NShTot=           0 NBatch=           0 AvBLen=         0.0
 IPart=  1 NShTot=           6 NBatch=           3 AvBLen=         2.0
 IPart=  0 NShTot=          12 NBatch=           6 AvBLen=         2.0
 IPart= 31 NShTot=           0 NBatch=           0 AvBLen=         0.0
 IPart= 15 NShTot=           0 NBatch=           0 AvBLen=         0.0
 IPart= 27 NShTot=           0 NBatch=           0 AvBLen=         0.0
 PrSmSu:  NxtVal=             37.
 ***** Potential Energy ***** 
                1             2             3             4             5 
      1  0.243640D+01
      2  0.547959D+00  0.848863D+01
      3  0.100076D+01  0.701813D+00  0.156926D+01
      4  0.000000D+00  0.000000D+00  0.000000D+00  0.144975D+01
      5  0.000000D+00  0.000000D+00  0.000000D+00  0.000000D+00  0.144975D+01
      6 -0.115664D+01 -0.196044D-01 -0.144996D+00  0.000000D+00  0.000000D+00
      7  0.667565D+00  0.671451D+00  0.110338D+01  0.000000D+00  0.000000D+00
      8  0.000000D+00  0.000000D+00  0.000000D+00  0.639370D+00  0.000000D+00
      9  0.000000D+00  0.000000D+00  0.000000D+00  0.000000D+00  0.639370D+00
     10 -0.440463D+00 -0.301544D-02 -0.582838D-01  0.000000D+00  0.000000D+00
                6             7             8             9            10 
      6  0.156057D+01
      7 -0.102770D+00  0.105077D+01
      8  0.000000D+00  0.000000D+00  0.707666D+00
      9  0.000000D+00  0.000000D+00  0.000000D+00  0.707666D+00
     10  0.684443D+00 -0.609527D-01  0.000000D+00  0.000000D+00  0.736822D+00
 ****** Core Hamiltonian ****** 
                1             2             3             4             5 
      1 -0.167637D+01
      2 -0.566033D+00 -0.483373D+01
      3 -0.917514D+00 -0.837351D+00 -0.140977D+01
      4  0.000000D+00  0.000000D+00  0.000000D+00 -0.114193D+01
      5  0.000000D+00  0.000000D+00  0.000000D+00  0.000000D+00 -0.114193D+01
      6  0.978194D+00  0.196044D-01  0.144996D+00  0.000000D+00  0.000000D+00
      7 -0.643178D+00 -0.659661D+00 -0.105204D+01  0.000000D+00  0.000000D+00
      8  0.000000D+00  0.000000D+00  0.000000D+00 -0.573172D+00  0.000000D+00
      9  0.000000D+00  0.000000D+00  0.000000D+00  0.000000D+00 -0.573172D+00
     10  0.408850D+00  0.301544D-02  0.582838D-01  0.000000D+00  0.000000D+00
                6             7             8             9            10 
      6 -0.125276D+01
      7  0.102770D+00 -0.100792D+01
      8  0.000000D+00  0.000000D+00 -0.636255D+00
      9  0.000000D+00  0.000000D+00  0.000000D+00 -0.636255D+00
     10 -0.618245D+00  0.609527D-01  0.000000D+00  0.000000D+00 -0.665411D+00
 SVDSVc IOpt=   1 NormSV=T IR=1
 SVDSVc V= 2.30D+00 1.70D+00 9.43D-01 6.05D-01 2.83D-01 1.69D-01
 SVDSVc IOpt=   1 NormSV=T IR=3
 SVDSVc V= 1.59D+00 4.11D-01
 SVDSVc IOpt=   1 NormSV=T IR=4
 SVDSVc V= 1.59D+00 4.11D-01
 TstOVc:  Largest diagonal error= 1.33D-15 IB=1 I=    4.
 TstOVc:  Largest same sym error= 9.78D-16 IB=1 I=    6 J=    5.
 TstOVc:  Largest diff sym error= 0.00D+00 IB=0 JB=0 I=    0 J=    0.
 Orthogonalized basis functions: 
                 1             2             3             4             5 
      1   0.356616D+00 -0.111129D+00 -0.491218D-01  0.760718D+00  0.764066D+00
      2   0.110991D+00  0.124261D+00  0.100050D+01 -0.207025D-01 -0.715129D-01
      3   0.335013D+00  0.309930D+00 -0.143946D+00 -0.138717D+00  0.549257D+00
      4   0.000000D+00  0.000000D+00  0.000000D+00  0.000000D+00  0.000000D+00
      5   0.000000D+00  0.000000D+00  0.000000D+00  0.000000D+00  0.000000D+00
      6  -0.233575D+00  0.440099D+00 -0.175873D-01 -0.268889D+00  0.113295D+01
      7   0.310050D+00  0.316987D+00 -0.185215D+00 -0.401464D+00 -0.964896D+00
      8   0.000000D+00  0.000000D+00  0.000000D+00  0.000000D+00  0.000000D+00
      9   0.000000D+00  0.000000D+00  0.000000D+00  0.000000D+00  0.000000D+00
     10  -0.177364D+00  0.414280D+00 -0.451806D-01  0.906874D+00 -0.649772D+00
                 6             7             8             9            10 
      1  -0.999396D+00  0.000000D+00  0.000000D+00  0.000000D+00  0.000000D+00
      2  -0.209715D-01  0.000000D+00  0.000000D+00  0.000000D+00  0.000000D+00
      3   0.165513D+01  0.000000D+00  0.000000D+00  0.000000D+00  0.000000D+00
      4   0.000000D+00  0.561020D+00  0.110243D+01  0.000000D+00  0.000000D+00
      5   0.000000D+00  0.000000D+00  0.000000D+00  0.561020D+00  0.110243D+01
      6  -0.904487D+00  0.000000D+00  0.000000D+00  0.000000D+00  0.000000D+00
      7  -0.112764D+01  0.000000D+00  0.000000D+00  0.000000D+00  0.000000D+00
      8   0.000000D+00  0.561020D+00 -0.110243D+01  0.000000D+00  0.000000D+00
      9   0.000000D+00  0.000000D+00  0.000000D+00  0.561020D+00 -0.110243D+01
     10   0.323646D+00  0.000000D+00  0.000000D+00  0.000000D+00  0.000000D+00
 NBasis=    10 RedAO= T EigKep=  1.69D-01  NBF=     6     0     2     2
 NBsUse=    10 1.00D-06 EigRej= -1.00D+00 NBFU=     6     0     2     2
 Leave Link  302 at Mon Mar 28 14:04:50 2022, MaxMem=  9663676416 cpu:               3.4 elap:               0.1
 (Enter /nopt/nrel/apps/gaussian/g16C_1/g16/l303.exe)
 DipDrv will not compute anything.
 Fermi contact integrals: 
                 1             2 
      1   0.628247D+00  0.363313D-01
      2   0.636155D-03  0.224271D+01
      3   0.749625D-01  0.291894D-01
      4   0.000000D+00  0.000000D+00
      5   0.000000D+00  0.000000D+00
      6  -0.110081D+00  0.000000D+00
      7   0.416785D-01  0.495199D-01
      8   0.000000D+00  0.000000D+00
      9   0.000000D+00  0.000000D+00
     10  -0.346097D-01  0.000000D+00
 Leave Link  303 at Mon Mar 28 14:04:50 2022, MaxMem=  9663676416 cpu:               1.2 elap:               0.1
 (Enter /nopt/nrel/apps/gaussian/g16C_1/g16/l401.exe)
 ExpMin= 2.86D-02 ExpMax= 3.68D+01 ExpMxC= 3.68D+01 IAcc=3 IRadAn=         5 AccDes= 0.00D+00
 Harris functional with IExCor=  205 and IRadAn=       5 diagonalized for initial guess.
 HarFok:  IExCor=  205 AccDes= 0.00D+00 IRadAn=         5 IDoV= 1 UseB2=F ITyADJ=14
 ICtDFT=  3500011 ScaDFX=  1.000000  1.000000  1.000000  1.000000
 FoFCou: FMM=F IPFlag=           0 FMFlag=      100000 FMFlg1=           0
         NFxFlg=           0 DoJE=T BraDBF=F KetDBF=T FulRan=T
         wScrn=  0.000000 ICntrl=       500 IOpCl=  0 I1Cent=   200000004 NGrid=           0
         NMat0=    1 NMatS0=      1 NMatT0=    0 NMatD0=    1 NMtDS0=    0 NMtDT0=    0
 Petite list used in FoFCou.
 Harris En= -7.73194421543676    
 JPrj=0 DoOrth=F DoCkMO=F.
 Initial guess orbital symmetries:
 Alpha Orbitals:
       Occupied  (SG) (SG) (SG)
       Virtual   (PI) (PI) (SG) (PI) (PI) (SG) (SG)
 Beta  Orbitals:
       Occupied  (SG)
       Virtual   (SG) (SG) (PI) (PI) (SG) (PI) (PI) (SG) (SG)
 The electronic state of the initial guess is 3-SG.
 Initial guess <Sx>= 0.0000 <Sy>= 0.0000 <Sz>= 1.0000 <S**2>= 2.0000 S= 1.0000
 Leave Link  401 at Mon Mar 28 14:04:50 2022, MaxMem=  9663676416 cpu:               4.2 elap:               0.2
 (Enter /nopt/nrel/apps/gaussian/g16C_1/g16/l502.exe)
 Keep R1 and R2 ints in memory in symmetry-blocked form, NReq=7206306.
 FoFCou: FMM=F IPFlag=           0 FMFlag=           0 FMFlg1=           0
         NFxFlg=           0 DoJE=F BraDBF=F KetDBF=F FulRan=T
         wScrn=  0.000000 ICntrl=       600 IOpCl=  0 I1Cent=           0 NGrid=           0
         NMat0=    1 NMatS0=     55 NMatT0=    0 NMatD0=    1 NMtDS0=    0 NMtDT0=    0
 Petite list used in FoFCou.
 UHF open shell SCF:
 Using DIIS extrapolation, IDIIS=  1040.
 NGot=  9663676416 LenX=  9663672766 LenY=  9663671884
 Requested convergence on RMS density matrix=1.00D-08 within 128 cycles.
 Requested convergence on MAX density matrix=1.00D-06.
 Requested convergence on             energy=1.00D-06.
 No special actions if energy rises.

 Cycle   1  Pass 1  IDiag  1:
 E= -7.79629593604568    
 DIIS: error= 2.49D-02 at cycle   1 NSaved=   1.
 NSaved= 1 IEnMin= 1 EnMin= -7.79629593604568     IErMin= 1 ErrMin= 2.49D-02
 ErrMax= 2.49D-02  0.00D+00 EMaxC= 1.00D-01 BMatC= 2.26D-02 BMatP= 2.26D-02
 IDIUse=3 WtCom= 7.51D-01 WtEn= 2.49D-01
 Coeff-Com:  0.100D+01
 Coeff-En:   0.100D+01
 Coeff:      0.100D+01
 Gap=     0.206 Goal=   None    Shift=    0.000
 Gap=     2.418 Goal=   None    Shift=    0.000
 GapD=    0.206 DampG=1.000 DampE=0.500 DampFc=0.5000 IDamp=-1.
 Damping current iteration by 5.00D-01
 RMSDP=1.29D-02 MaxDP=1.47D-01              OVMax= 2.20D-02

 Cycle   2  Pass 1  IDiag  1:
 E= -7.80106135693998     Delta-E=       -0.004765420894 Rises=F Damp=T
 DIIS: error= 1.61D-02 at cycle   2 NSaved=   2.
 NSaved= 2 IEnMin= 2 EnMin= -7.80106135693998     IErMin= 2 ErrMin= 1.61D-02
 ErrMax= 1.61D-02  0.00D+00 EMaxC= 1.00D-01 BMatC= 8.88D-03 BMatP= 2.26D-02
 IDIUse=3 WtCom= 8.39D-01 WtEn= 1.61D-01
 Coeff-Com: -0.161D+01 0.261D+01
 Coeff-En:   0.000D+00 0.100D+01
 Coeff:     -0.135D+01 0.235D+01
 Gap=     0.195 Goal=   None    Shift=    0.000
 Gap=     2.408 Goal=   None    Shift=    0.000
 RMSDP=1.14D-02 MaxDP=1.33D-01 DE=-4.77D-03 OVMax= 4.22D-03

 Cycle   3  Pass 1  IDiag  1:
 E= -7.80805659019676     Delta-E=       -0.006995233257 Rises=F Damp=F
 DIIS: error= 1.45D-03 at cycle   3 NSaved=   3.
 NSaved= 3 IEnMin= 3 EnMin= -7.80805659019676     IErMin= 3 ErrMin= 1.45D-03
 ErrMax= 1.45D-03  0.00D+00 EMaxC= 1.00D-01 BMatC= 6.35D-05 BMatP= 8.88D-03
 IDIUse=3 WtCom= 9.85D-01 WtEn= 1.45D-02
 Coeff-Com:  0.528D+00-0.937D+00 0.141D+01
 Coeff-En:   0.000D+00 0.000D+00 0.100D+01
 Coeff:      0.520D+00-0.923D+00 0.140D+01
 Gap=     0.196 Goal=   None    Shift=    0.000
 Gap=     2.410 Goal=   None    Shift=    0.000
 RMSDP=1.34D-03 MaxDP=1.56D-02 DE=-7.00D-03 OVMax= 3.67D-04

 Cycle   4  Pass 1  IDiag  1:
 E= -7.80810178525888     Delta-E=       -0.000045195062 Rises=F Damp=F
 DIIS: error= 5.18D-05 at cycle   4 NSaved=   4.
 NSaved= 4 IEnMin= 4 EnMin= -7.80810178525888     IErMin= 4 ErrMin= 5.18D-05
 ErrMax= 5.18D-05  0.00D+00 EMaxC= 1.00D-01 BMatC= 5.42D-08 BMatP= 6.35D-05
 IDIUse=1 WtCom= 1.00D+00 WtEn= 0.00D+00
 Coeff-Com: -0.812D-01 0.145D+00-0.238D+00 0.117D+01
 Coeff:     -0.812D-01 0.145D+00-0.238D+00 0.117D+01
 Gap=     0.196 Goal=   None    Shift=    0.000
 Gap=     2.410 Goal=   None    Shift=    0.000
 RMSDP=6.24D-05 MaxDP=3.59D-04 DE=-4.52D-05 OVMax= 3.95D-05

 Cycle   5  Pass 1  IDiag  1:
 E= -7.80810188603459     Delta-E=       -0.000000100776 Rises=F Damp=F
 DIIS: error= 2.12D-05 at cycle   5 NSaved=   5.
 NSaved= 5 IEnMin= 5 EnMin= -7.80810188603459     IErMin= 5 ErrMin= 2.12D-05
 ErrMax= 2.12D-05  0.00D+00 EMaxC= 1.00D-01 BMatC= 5.50D-09 BMatP= 5.42D-08
 IDIUse=1 WtCom= 1.00D+00 WtEn= 0.00D+00
 Coeff-Com:  0.628D-01-0.112D+00 0.185D+00-0.100D+01 0.186D+01
 Coeff:      0.628D-01-0.112D+00 0.185D+00-0.100D+01 0.186D+01
 Gap=     0.196 Goal=   None    Shift=    0.000
 Gap=     2.410 Goal=   None    Shift=    0.000
 RMSDP=4.57D-05 MaxDP=2.76D-04 DE=-1.01D-07 OVMax= 6.40D-07

 Cycle   6  Pass 1  IDiag  1:
 E= -7.80810191147731     Delta-E=       -0.000000025443 Rises=F Damp=F
 DIIS: error= 3.84D-06 at cycle   6 NSaved=   6.
 NSaved= 6 IEnMin= 6 EnMin= -7.80810191147731     IErMin= 6 ErrMin= 3.84D-06
 ErrMax= 3.84D-06  0.00D+00 EMaxC= 1.00D-01 BMatC= 1.66D-10 BMatP= 5.50D-09
 IDIUse=1 WtCom= 1.00D+00 WtEn= 0.00D+00
 Coeff-Com: -0.272D-02 0.490D-02-0.902D-02 0.725D-01-0.330D+00 0.126D+01
 Coeff:     -0.272D-02 0.490D-02-0.902D-02 0.725D-01-0.330D+00 0.126D+01
 Gap=     0.196 Goal=   None    Shift=    0.000
 Gap=     2.410 Goal=   None    Shift=    0.000
 RMSDP=9.38D-06 MaxDP=6.26D-05 DE=-2.54D-08 OVMax= 7.06D-07

 Cycle   7  Pass 1  IDiag  1:
 E= -7.80810191223141     Delta-E=       -0.000000000754 Rises=F Damp=F
 DIIS: error= 2.66D-07 at cycle   7 NSaved=   7.
 NSaved= 7 IEnMin= 7 EnMin= -7.80810191223141     IErMin= 7 ErrMin= 2.66D-07
 ErrMax= 2.66D-07  0.00D+00 EMaxC= 1.00D-01 BMatC= 1.64D-12 BMatP= 1.66D-10
 IDIUse=1 WtCom= 1.00D+00 WtEn= 0.00D+00
 Coeff-Com:  0.294D-03-0.545D-03 0.123D-02-0.148D-01 0.958D-01-0.435D+00
 Coeff-Com:  0.135D+01
 Coeff:      0.294D-03-0.545D-03 0.123D-02-0.148D-01 0.958D-01-0.435D+00
 Coeff:      0.135D+01
 Gap=     0.196 Goal=   None    Shift=    0.000
 Gap=     2.410 Goal=   None    Shift=    0.000
 RMSDP=6.19D-07 MaxDP=6.25D-06 DE=-7.54D-10 OVMax= 8.54D-08

 Cycle   8  Pass 1  IDiag  1:
 E= -7.80810191223482     Delta-E=       -0.000000000003 Rises=F Damp=F
 DIIS: error= 8.19D-08 at cycle   8 NSaved=   8.
 NSaved= 8 IEnMin= 8 EnMin= -7.80810191223482     IErMin= 8 ErrMin= 8.19D-08
 ErrMax= 8.19D-08  0.00D+00 EMaxC= 1.00D-01 BMatC= 1.09D-13 BMatP= 1.64D-12
 IDIUse=1 WtCom= 1.00D+00 WtEn= 0.00D+00
 Coeff-Com:  0.521D-04-0.863D-04 0.263D-04 0.284D-02-0.289D-01 0.146D+00
 Coeff-Com: -0.633D+00 0.151D+01
 Coeff:      0.521D-04-0.863D-04 0.263D-04 0.284D-02-0.289D-01 0.146D+00
 Coeff:     -0.633D+00 0.151D+01
 Gap=     0.196 Goal=   None    Shift=    0.000
 Gap=     2.410 Goal=   None    Shift=    0.000
 RMSDP=2.18D-07 MaxDP=2.37D-06 DE=-3.40D-12 OVMax= 9.61D-09

 Cycle   9  Pass 1  IDiag  1:
 E= -7.80810191223513     Delta-E=       -0.000000000000 Rises=F Damp=F
 DIIS: error= 1.55D-08 at cycle   9 NSaved=   9.
 NSaved= 9 IEnMin= 9 EnMin= -7.80810191223513     IErMin= 9 ErrMin= 1.55D-08
 ErrMax= 1.55D-08  0.00D+00 EMaxC= 1.00D-01 BMatC= 3.88D-15 BMatP= 1.09D-13
 IDIUse=1 WtCom= 1.00D+00 WtEn= 0.00D+00
 Coeff-Com:  0.140D-04-0.266D-04 0.724D-04-0.110D-02 0.791D-02-0.368D-01
 Coeff-Com:  0.168D+00-0.561D+00 0.142D+01
 Coeff:      0.140D-04-0.266D-04 0.724D-04-0.110D-02 0.791D-02-0.368D-01
 Coeff:      0.168D+00-0.561D+00 0.142D+01
 Gap=     0.196 Goal=   None    Shift=    0.000
 Gap=     2.410 Goal=   None    Shift=    0.000
 RMSDP=4.04D-08 MaxDP=4.39D-07 DE=-3.14D-13 OVMax= 4.53D-09

 Cycle  10  Pass 1  IDiag  1:
 E= -7.80810191223514     Delta-E=       -0.000000000000 Rises=F Damp=F
 DIIS: error= 5.30D-10 at cycle  10 NSaved=  10.
 NSaved=10 IEnMin=10 EnMin= -7.80810191223514     IErMin=10 ErrMin= 5.30D-10
 ErrMax= 5.30D-10  0.00D+00 EMaxC= 1.00D-01 BMatC= 9.95D-18 BMatP= 3.88D-15
 IDIUse=1 WtCom= 1.00D+00 WtEn= 0.00D+00
 Coeff-Com:  0.682D-06-0.101D-05-0.207D-05 0.105D-03-0.968D-03 0.471D-02
 Coeff-Com: -0.229D-01 0.851D-01-0.249D+00 0.118D+01
 Coeff:      0.682D-06-0.101D-05-0.207D-05 0.105D-03-0.968D-03 0.471D-02
 Coeff:     -0.229D-01 0.851D-01-0.249D+00 0.118D+01
 Gap=     0.196 Goal=   None    Shift=    0.000
 Gap=     2.410 Goal=   None    Shift=    0.000
 RMSDP=7.05D-10 MaxDP=6.55D-09 DE=-7.11D-15 OVMax= 5.66D-10

 SCF Done:  E(UHF) =  -7.80810191224     A.U. after   10 cycles
            NFock= 10  Conv=0.70D-09     -V/T= 1.9699
 <Sx>= 0.0000 <Sy>= 0.0000 <Sz>= 1.0000 <S**2>= 2.0000 S= 1.0000
 <L.S>= 0.000000000000E+00
 KE= 8.050402837862D+00 PE=-2.032771606075D+01 EE= 3.248033131607D+00
 Annihilation of the first spin contaminant:
 S**2 before annihilation     2.0000,   after     2.0000
 Leave Link  502 at Mon Mar 28 14:04:50 2022, MaxMem=  9663676416 cpu:               3.4 elap:               0.1
 (Enter /nopt/nrel/apps/gaussian/g16C_1/g16/l801.exe)
 Windowed orbitals will be sorted by symmetry type.
 ExpMin= 2.86D-02 ExpMax= 3.68D+01 ExpMxC= 3.68D+01 IAcc=3 IRadAn=         5 AccDes= 0.00D+00
 HarFok:  IExCor=  205 AccDes= 0.00D+00 IRadAn=         5 IDoV=-2 UseB2=F ITyADJ=14
 ICtDFT= 12500011 ScaDFX=  1.000000  1.000000  1.000000  1.000000
 Largest valence mixing into a core orbital is  5.43D-04
 Largest core mixing into a valence orbital is  2.31D-04
 Range of M.O.s used for correlation:     2    10
 NBasis=    10 NAE=     3 NBE=     1 NFC=     1 NFV=     0
 NROrb=      9 NOA=     2 NOB=     0 NVA=     7 NVB=     9
 Leave Link  801 at Mon Mar 28 14:04:50 2022, MaxMem=  9663676416 cpu:               1.7 elap:               0.1
 (Enter /nopt/nrel/apps/gaussian/g16C_1/g16/l804.exe)
 Open-shell transformation, MDV=  9663676416 ITran=4 ISComp=2.
 Unit  1 TFree=          7989 TCopy=        218228.
 Semi-Direct transformation.
 ModeAB=           2 MOrb=             2 LenV=    9663556247
 LASXX=          158 LTotXX=         158 LenRXX=         158
 LTotAB=         269 MaxLAS=         990 LenRXY=         990
 NonZer=        1206 LenScr=      785920 LnRSAI=           0
 LnScr1=           0 LExtra=      219218 Total=      1006286
 MaxDsk= 34359738368 SrtSym=           F ITran=            4
 DoSDTr:  NPSUse= 36
 JobTyp=1 Pass  1:  I=   1 to   2.
 (rs|ai) integrals will be sorted in core.
 Complete sort for first half transformation.
 First half transformation complete.
 Complete sort for second half transformation.
 Second half transformation complete.
 Spin components of T(2) and E(2):
     alpha-alpha T2 =       0.4246630252D-04 E2=     -0.4754415650D-04
     alpha-beta  T2 =       0.0000000000D+00 E2=      0.0000000000D+00
     beta-beta   T2 =       0.0000000000D+00 E2=      0.0000000000D+00
 ANorm=    0.1000021233D+01
 E2 =    -0.4754415650D-04 EUMP2 =    -0.78081494563916D+01
 Leave Link  804 at Mon Mar 28 14:04:50 2022, MaxMem=  9663676416 cpu:               2.1 elap:               0.1
 (Enter /nopt/nrel/apps/gaussian/g16C_1/g16/l913.exe)
 CIDS:  MDV=  9663676416.
 Frozen-core window:  NFC=   1 NFV=   0.
 IFCWin=0 IBDFC=1 NFBD=     0     0 NFCmp=     0     0 NFFFC=     0     0
 Using original routines for 1st iteration.
 Using DD4UQ or CC4UQ for 2nd and later iterations.
 Keep R2 and R3 ints in memory in symmetry-blocked form, NReq=7208700.
 FoFCou: FMM=F IPFlag=           0 FMFlag=           0 FMFlg1=           0
         NFxFlg=           0 DoJE=F BraDBF=F KetDBF=F FulRan=T
         wScrn=  0.000000 ICntrl=       600 IOpCl=  0 I1Cent=           0 NGrid=           0
         NMat0=    1 NMatS0=     55 NMatT0=    0 NMatD0=    1 NMtDS0=    0 NMtDT0=    0
 Petite list used in FoFCou.
 CIDS: In Core Option IDoMem=           1.
 Coupled Cluster theory with single and double substitutions
 ===========================================================
 Iterations= 200 Convergence= 0.100D-06
 Produce multiple copies of IABC intergrals
 Iteration Nr.   1
 **********************
 DD1Dir will call FoFMem   1 times, MxPair=         2
 NAB=     0 NAA=     1 NBB=     0.
 MP4(R+Q)=  0.20190245D-08
 Maximum subspace dimension=  5
 A-vector RMS=  5.8200914D-04 Max=  1.4032716D-03 conv= 1.00D-05.
 RLE energy=       -0.0000740172
 E3=       -0.17006818D-04        EUMP3=      -0.78081664632D+01
 E4(DQ)=   -0.61494068D-05        UMP4(DQ)=   -0.78081726126D+01
 E4(SDQ)=  -0.61920692D-05        UMP4(SDQ)=  -0.78081726553D+01
 VARIATIONAL ENERGIES WITH THE FIRST-ORDER WAVEFUNCTION:
 DE(Corr)= -0.64548830E-04 E(Corr)=     -7.8081664611    
 NORM(A)=   0.10000518D+01
 Iteration Nr.   2
 **********************
 DD1Dir will call FoFMem   1 times, MxPair=         2
 NAB=     0 NAA=     1 NBB=     0.
 A-vector RMS=  7.0651373D-05 Max=  9.2654006D-05 conv= 1.00D-05.
 RLE energy=       -0.0000744195
 DE(Corr)= -0.74187735E-04 E(CORR)=     -7.8081761000     Delta=-9.64D-06
 NORM(A)=   0.10000526D+01
 Iteration Nr.   3
 **********************
 DD1Dir will call FoFMem   1 times, MxPair=         2
 NAB=     0 NAA=     1 NBB=     0.
 A-vector RMS=  1.4753408D-05 Max=  3.3878717D-05 conv= 1.00D-05.
 RLE energy=       -0.0000744308
 DE(Corr)= -0.74420353E-04 E(CORR)=     -7.8081763326     Delta=-2.33D-07
 NORM(A)=   0.10000527D+01
 Iteration Nr.   4
 **********************
 DD1Dir will call FoFMem   1 times, MxPair=         2
 NAB=     0 NAA=     1 NBB=     0.
 A-vector RMS=  3.6516373D-06 Max=  1.0905467D-05 conv= 1.00D-05.
 RLE energy=       -0.0000744301
 DE(Corr)= -0.74430405E-04 E(CORR)=     -7.8081763426     Delta=-1.01D-08
 NORM(A)=   0.10000527D+01
 Iteration Nr.   5
 **********************
 DD1Dir will call FoFMem   1 times, MxPair=         2
 NAB=     0 NAA=     1 NBB=     0.
 A-vector RMS=  4.4911520D-07 Max=  1.3994322D-06 conv= 1.00D-05.
 RLE energy=       -0.0000744308
 DE(Corr)= -0.74430401E-04 E(CORR)=     -7.8081763426     Delta= 4.44D-12
 NORM(A)=   0.10000527D+01
 CI/CC converged in    5 iterations to DelEn= 4.44D-12 Conv= 1.00D-07 ErrA1= 4.49D-07 Conv= 1.00D-05
 Wavefunction amplitudes converged. E(Corr)=     -7.8081763426    
 Largest amplitude= 6.41D-03
 Discarding MO integrals.
 Leave Link  913 at Mon Mar 28 14:04:50 2022, MaxMem=  9663676416 cpu:               3.7 elap:               0.1
 (Enter /nopt/nrel/apps/gaussian/g16C_1/g16/l601.exe)
 Copying SCF densities to generalized density rwf, IOpCl= 1 IROHF=0.

 **********************************************************************

            Population analysis using the SCF Density.

 **********************************************************************

 Orbital symmetries:
 Alpha Orbitals:
       Occupied  (SG) (SG) (SG)
       Virtual   (PI) (PI) (SG) (SG) (PI) (PI) (SG)
 Beta  Orbitals:
       Occupied  (SG)
       Virtual   (SG) (PI) (PI) (SG) (SG) (PI) (PI) (SG) (SG)
 The electronic state is 3-SG.
 Alpha  occ. eigenvalues --   -2.48631  -0.65879  -0.17287
 Alpha virt. eigenvalues --    0.02306   0.02306   0.05475   0.18064   0.18415
 Alpha virt. eigenvalues --    0.18415   0.48255
  Beta  occ. eigenvalues --   -2.46329
  Beta virt. eigenvalues --   -0.05327   0.05435   0.05435   0.07204   0.10020
  Beta virt. eigenvalues --    0.21679   0.21679   0.24972   0.65308
          Condensed to atoms (all electrons):
               1          2
     1  H    0.727735   0.099961
     2  Li   0.099961   3.072343
          Atomic-Atomic Spin Densities.
               1          2
     1  H    0.727674   0.098407
     2  Li   0.098407   1.075512
 Mulliken charges and spin densities:
               1          2
     1  H    0.172304   0.826081
     2  Li  -0.172304   1.173919
 Sum of Mulliken charges =   0.00000   2.00000
 Mulliken charges and spin densities with hydrogens summed into heavy atoms:
               1          2
     2  Li   0.000000   2.000000
 N-N= 1.221178179046D+00 E-N=-2.032771605965D+01  KE= 8.050402837862D+00
 Symmetry A1   KE= 8.050402837862D+00
 Symmetry A2   KE= 0.000000000000D+00
 Symmetry B1   KE= 0.000000000000D+00
 Symmetry B2   KE= 0.000000000000D+00
 Symmetry A1   SP= 2.000000000000D+00
 Symmetry A2   SP= 0.000000000000D+00
 Symmetry B1   SP= 0.000000000000D+00
 Symmetry B2   SP= 0.000000000000D+00

 Atomic contributions to Alpha molecular orbitals:
 Alpha occ 1 OE=-2.486 is Li2-s=0.9974
 Alpha occ 2 OE=-0.659 is H1-s=0.8219 Li2-p=0.1096
 Alpha occ 3 OE=-0.173 is Li2-s=0.7565 Li2-p=0.2412
 Alpha vir 4 OE=0.023 is Li2-p=1.0000
 Alpha vir 5 OE=0.023 is Li2-p=1.0000
 Alpha vir 6 OE=0.055 is Li2-p=0.7775 Li2-s=0.2148
 Alpha vir 7 OE=0.181 is Li2-s=0.7349 Li2-p=0.2658
 Alpha vir 8 OE=0.184 is Li2-p=1.0000
 Alpha vir 9 OE=0.184 is Li2-p=1.0000
 Alpha vir 10 OE=0.483 is Li2-p=0.6059 Li2-s=0.2280 H1-s=0.1661

 Atomic contributions to Beta  molecular orbitals:
 Beta  occ 1 OE=-2.463 is Li2-s=0.9992
 Beta  vir 2 OE=-0.053 is Li2-s=0.4645 H1-s=0.2734 Li2-p=0.2620
 Beta  vir 3 OE=0.054 is Li2-p=1.0000
 Beta  vir 4 OE=0.054 is Li2-p=1.0000
 Beta  vir 5 OE=0.072 is Li2-p=0.5949 Li2-s=0.3914
 Beta  vir 6 OE=0.100 is Li2-p=0.4780 Li2-s=0.3743 H1-s=0.1476
 Beta  vir 7 OE=0.217 is Li2-p=1.0000
 Beta  vir 8 OE=0.217 is Li2-p=1.0000
 Beta  vir 9 OE=0.250 is Li2-s=0.6708 Li2-p=0.3236
 Beta  vir 10 OE=0.653 is H1-s=0.5588 Li2-p=0.3414
 
 Leave Link  601 at Mon Mar 28 14:04:50 2022, MaxMem=  9663676416 cpu:               2.9 elap:               0.1
 (Enter /nopt/nrel/apps/gaussian/g16C_1/g16/l9999.exe)

 Test job not archived.
 1\1\GINC-R102U34\SP\UCCSD-FC\Gen\H1Li1(3)\USER\28-Mar-2022\0\\#P C
 CSD(MaxCyc=200,SaveAmplitudes,ReadAmplitudes)/GEN sp pop=AllOrbitals i
 op(3/33=1,3/36=-1)\\test\\0,3\H,0,0.,0.,0.\Li,0,0.,0.,1.3\\Version=ES6
 4L-G16RevC.01\State=3-SG\HF=-7.8081019\MP2=-7.8081495\MP3=-7.8081665\M
 P4D=-7.8081726\MP4DQ=-7.8081726\MP4SDQ=-7.8081727\CCSD=-7.8081763\S2=2
 .000014\S2-1=0.\S2A=2.\RMSD=7.048e-10\PG=C*V [C*(H1Li1)]\\@


 IT IS BETTER TO THINK YOU ARE HALF DRY THAN TO KNOW YOU
 ARE ALL WET.  -- SNOOPY
 Job cpu time:       0 days  0 hours  0 minutes 32.6 seconds.
 Elapsed time:       0 days  0 hours  0 minutes  1.3 seconds.
 File lengths (MBytes):  RWF=     13 Int=      0 D2E=      0 Chk=      1 Scr=      1
 Normal termination of Gaussian 16 at Mon Mar 28 14:04:50 2022.
