 Entering Gaussian System, Link 0=g16
 Initial command:
 /nopt/nrel/apps/gaussian/g16C_1/g16/l1.exe "/lustre/eaglefs/scratch/user/qc/nah-dissc/nah-1-ccsd-3.5-sto3g/Gau-29602.inp" -scrdir="/lustre/eaglefs/scratch/user/qc/nah-dissc/nah-1-ccsd-3.5-sto3g/"
 Default is to use a total of  36 processors:
                               36 via shared-memory
                                1 via Linda
 Entering Link 1 = /nopt/nrel/apps/gaussian/g16C_1/g16/l1.exe PID=     29603.
  
 Copyright (c) 1988-2019, Gaussian, Inc.  All Rights Reserved.
  
 This is part of the Gaussian(R) 16 program.  It is based on
 the Gaussian(R) 09 system (copyright 2009, Gaussian, Inc.),
 the Gaussian(R) 03 system (copyright 2003, Gaussian, Inc.),
 the Gaussian(R) 98 system (copyright 1998, Gaussian, Inc.),
 the Gaussian(R) 94 system (copyright 1995, Gaussian, Inc.),
 the Gaussian 92(TM) system (copyright 1992, Gaussian, Inc.),
 the Gaussian 90(TM) system (copyright 1990, Gaussian, Inc.),
 the Gaussian 88(TM) system (copyright 1988, Gaussian, Inc.),
 the Gaussian 86(TM) system (copyright 1986, Carnegie Mellon
 University), and the Gaussian 82(TM) system (copyright 1983,
 Carnegie Mellon University). Gaussian is a federally registered
 trademark of Gaussian, Inc.
  
 This software contains proprietary and confidential information,
 including trade secrets, belonging to Gaussian, Inc.
  
 This software is provided under written license and may be
 used, copied, transmitted, or stored only in accord with that
 written license.
  
 The following legend is applicable only to US Government
 contracts under FAR:
  
                    RESTRICTED RIGHTS LEGEND
  
 Use, reproduction and disclosure by the US Government is
 subject to restrictions as set forth in subparagraphs (a)
 and (c) of the Commercial Computer Software - Restricted
 Rights clause in FAR 52.227-19.
  
 Gaussian, Inc.
 340 Quinnipiac St., Bldg. 40, Wallingford CT 06492
  
  
 ---------------------------------------------------------------
 Warning -- This program may not be used in any manner that
 competes with the business of Gaussian, Inc. or will provide
 assistance to any competitor of Gaussian, Inc.  The licensee
 of this program is prohibited from giving any competitor of
 Gaussian, Inc. access to this program.  By using this program,
 the user acknowledges that Gaussian, Inc. is engaged in the
 business of creating and licensing software in the field of
 computational chemistry and represents and warrants to the
 licensee that it is not a competitor of Gaussian, Inc. and that
 it will not use this program in any manner prohibited above.
 ---------------------------------------------------------------
  

 Cite this work as:
 Gaussian 16, Revision C.01,
 M. J. Frisch, G. W. Trucks, H. B. Schlegel, G. E. Scuseria, 
 M. A. Robb, J. R. Cheeseman, G. Scalmani, V. Barone, 
 G. A. Petersson, H. Nakatsuji, X. Li, M. Caricato, A. V. Marenich, 
 J. Bloino, B. G. Janesko, R. Gomperts, B. Mennucci, H. P. Hratchian, 
 J. V. Ortiz, A. F. Izmaylov, J. L. Sonnenberg, D. Williams-Young, 
 F. Ding, F. Lipparini, F. Egidi, J. Goings, B. Peng, A. Petrone, 
 T. Henderson, D. Ranasinghe, V. G. Zakrzewski, J. Gao, N. Rega, 
 G. Zheng, W. Liang, M. Hada, M. Ehara, K. Toyota, R. Fukuda, 
 J. Hasegawa, M. Ishida, T. Nakajima, Y. Honda, O. Kitao, H. Nakai, 
 T. Vreven, K. Throssell, J. A. Montgomery, Jr., J. E. Peralta, 
 F. Ogliaro, M. J. Bearpark, J. J. Heyd, E. N. Brothers, K. N. Kudin, 
 V. N. Staroverov, T. A. Keith, R. Kobayashi, J. Normand, 
 K. Raghavachari, A. P. Rendell, J. C. Burant, S. S. Iyengar, 
 J. Tomasi, M. Cossi, J. M. Millam, M. Klene, C. Adamo, R. Cammi, 
 J. W. Ochterski, R. L. Martin, K. Morokuma, O. Farkas, 
 J. B. Foresman, and D. J. Fox, Gaussian, Inc., Wallingford CT, 2019.
 
 ******************************************
 Gaussian 16:  ES64L-G16RevC.01  3-Jul-2019
                28-Mar-2022 
 ******************************************
 %chk=molecule
 Default route: CacheSize=180224 MaxDisk=256GB
 ----------------------------------------------------------------------
 #P CCSD(MaxCyc=200,SaveAmplitudes,ReadAmplitudes)/GEN sp pop=AllOrbita
 ls iop(3/33=1,3/36=-1)
 ----------------------------------------------------------------------
 1/4=180224,38=1,172=1/1;
 2/4=180224,12=2,17=6,18=5,40=1/2;
 3/4=180224,5=7,11=9,25=1,30=1,33=1,36=-1/1,2,3;
 4/4=180224/1;
 5/4=180224,5=2,38=5/2;
 8/4=180224,6=4,9=120000,10=1,24=1/1,4;
 9/4=180224,5=7,6=200,77=1/13;
 6/4=180224,7=2,8=2,9=2,10=2,96=-1/1;
 99/4=180224,5=1,9=1/99;
 Leave Link    1 at Mon Mar 28 14:19:00 2022, MaxMem=           0 cpu:               2.4 elap:               0.1
 (Enter /nopt/nrel/apps/gaussian/g16C_1/g16/l101.exe)
 ----
 test
 ----
 Symbolic Z-matrix:
 Charge =  0 Multiplicity = 1
 H                     0.        0.        0. 
 Na                    0.        0.        3.5 
 
 ITRead=  0  0
 MicOpt= -1 -1
 NAtoms=      2 NQM=        2 NQMF=       0 NMMI=      0 NMMIF=      0
                NMic=       0 NMicF=      0.
                    Isotopes and Nuclear Properties:
 (Nuclear quadrupole moments (NQMom) in fm**2, nuclear magnetic moments (NMagM)
  in nuclear magnetons)

  Atom         1           2
 IAtWgt=           1          23
 AtmWgt=   1.0078250  22.9897697
 NucSpn=           1           3
 AtZEff=  -0.0000000  -0.0000000
 NQMom=    0.0000000  10.4000000
 NMagM=    2.7928460   2.2175200
 AtZNuc=   1.0000000  11.0000000
 Leave Link  101 at Mon Mar 28 14:19:00 2022, MaxMem=  9663676416 cpu:               3.3 elap:               0.1
 (Enter /nopt/nrel/apps/gaussian/g16C_1/g16/l202.exe)
                          Input orientation:                          
 ---------------------------------------------------------------------
 Center     Atomic      Atomic             Coordinates (Angstroms)
 Number     Number       Type             X           Y           Z
 ---------------------------------------------------------------------
      1          1           0        0.000000    0.000000    0.000000
      2         11           0        0.000000    0.000000    3.500000
 ---------------------------------------------------------------------
 Stoichiometry    HNa
 Framework group  C*V[C*(HNa)]
 Deg. of freedom     1
 Full point group                 C*V     NOp   4
 Largest Abelian subgroup         C2V     NOp   4
 Largest concise Abelian subgroup C1      NOp   1
                         Standard orientation:                         
 ---------------------------------------------------------------------
 Center     Atomic      Atomic             Coordinates (Angstroms)
 Number     Number       Type             X           Y           Z
 ---------------------------------------------------------------------
      1          1           0        0.000000    0.000000   -3.208333
      2         11           0        0.000000    0.000000    0.291667
 ---------------------------------------------------------------------
 Rotational constants (GHZ):           0.0000000          42.7296231          42.7296231
 Leave Link  202 at Mon Mar 28 14:19:00 2022, MaxMem=  9663676416 cpu:               0.9 elap:               0.0
 (Enter /nopt/nrel/apps/gaussian/g16C_1/g16/l301.exe)
 General basis read from cards:  (5D, 7F)
                         Coordinates in L301:                         
 ---------------------------------------------------------------------
 Center     Atomic      Atomic             Coordinates (Angstroms)
 Number     Number       Type             X           Y           Z
 ---------------------------------------------------------------------
      1          1           0        0.000000    0.000000   -3.208333
      2         11           0        0.000000    0.000000    0.291667
 ---------------------------------------------------------------------
 Centers:       1
 STO-3G
 ****
 Centers:       2
 STO-3G
 ****
 FixB: optimizing general contractions.
 Ernie: Thresh=  0.10000D-02 Tol=  0.10000D-05 Strict=F.
 IA=     1 ShT= 0 ShC= 0 NL=   1 NS=   0.
 IA=     1 L=0 SC=0 ISt=    0 NBk=    0 NP=    0 IndPr=    0.
 IA=     2 ShT= 0 ShC= 0 NL=   1 NS=   0.
 IA=     2 L=0 SC=0 ISt=    0 NBk=    0 NP=    0 IndPr=    0.
 IA=     2 ShT= 1 ShC= 0 NL=   2 NS=   0.
 IA=     2 L=1 SC=0 ISt=    1 NBk=    2 NP=    6 IndPr=    0.
 DoElim1:  L=1 select primitive    1 from    2 using    1 C=-1.00D-01
 DoElim2:  L=1 select primitive    6 from    1 using    2 C= 9.00D-01
 DoElim1:  L=1 select primitive    1 from    2 using    1 C= 1.56D-01
 DoElim2:  L=1 select primitive    5 from    1 using    2 C= 5.95D-01
 Delete L=1 primitive    4 from    2 C=  0.00D+00.
 Delete L=1 primitive    2 from    2 C=  0.00D+00.
 Delete L=1 primitive    1 from    2 C=  0.00D+00.
 Delete L=1 primitive    6 from    1 C=  0.00D+00.
 Delete L=1 primitive    5 from    1 C=  0.00D+00.
 Delete L=1 primitive    3 from    1 C=  0.00D+00.
 IA=     2 L=1 SC=0 ISt=    0 NBk=    0 NP=    0 IndPr=    6.
 LdAtmC:  AtmChg=     1.000000    11.000000
 AtZEff=     -1.0000000    -10.0400000
 NEqShl: 
              1            2            3            4
     1            1            1            1            1
     2            2            2            2            2
     3            3            3            3            3
     4            4            4            4            4
 NEqBas: 
              1            2            3            4
     1            1            1            1            1
     2            2            2            2            2
     3            3            3            3            3
     4            4           -4           -4            4
     5            5           -5            5           -5
     6            6            6            6            6
     7            7            7            7            7
     8            8           -8           -8            8
     9            9           -9            9           -9
    10           10           10           10           10
 There are     6 symmetry adapted cartesian basis functions of A1  symmetry.
   1         1   1   1   1
   2         2   2   2   2
   3         3   3   3   3
   4         6   6   6   6
   5         7   7   7   7
   6        10  10  10  10
 There are     0 symmetry adapted cartesian basis functions of A2  symmetry.
 There are     2 symmetry adapted cartesian basis functions of B1  symmetry.
   7         4   4   4   4
   8         8   8   8   8
 There are     2 symmetry adapted cartesian basis functions of B2  symmetry.
   9         5   5   5   5
  10         9   9   9   9
 Order= 1 2 4 3
 Reordered character table:
              1            2            3            4            5
     1            1            1            1            1            1
     2            2            1            1           -1           -1
     3            4            1           -1           -1            1
     4            3            1           -1            1           -1
 NEqShl: 
              1            2            3            4
     1            1            1            1            1
     2            2            2            2            2
     3            3            3            3            3
     4            4            4            4            4
 NEqBas: 
              1            2            3            4
     1            1            1            1            1
     2            2            2            2            2
     3            3            3            3            3
     4            4           -4           -4            4
     5            5           -5            5           -5
     6            6            6            6            6
     7            7            7            7            7
     8            8           -8           -8            8
     9            9           -9            9           -9
    10           10           10           10           10
 There are     6 symmetry adapted basis functions of A1  symmetry.
   1         1   1   1   1
   2         2   2   2   2
   3         3   3   3   3
   4         6   6   6   6
   5         7   7   7   7
   6        10  10  10  10
 There are     0 symmetry adapted basis functions of A2  symmetry.
 There are     2 symmetry adapted basis functions of B1  symmetry.
   7         4   4   4   4
   8         8   8   8   8
 There are     2 symmetry adapted basis functions of B2  symmetry.
   9         5   5   5   5
  10         9   9   9   9
 Order= 1 2 4 3
 Reordered character table:
              1            2            3            4            5
     1            1            1            1            1            1
     2            2            1            1           -1           -1
     3            4            1           -1           -1            1
     4            3            1           -1            1           -1
    10 basis functions,    30 primitive gaussians,    10 cartesian basis functions
     6 alpha electrons        6 beta electrons
       nuclear repulsion energy         1.6631283772 Hartrees.
 IS=     1 IAt=     1 ISR=     1 T=0 IP=      1 IndIP=      1 IndIPD=      0 C=  2.769344D-01  0.000000D+00                             NZ=T
 IS=     1 IAt=     1 ISR=     1 T=0 IP=      2 IndIP=      2 IndIPD=      1 C=  2.678389D-01  0.000000D+00                             NZ=T
 IS=     1 IAt=     1 ISR=     1 T=0 IP=      3 IndIP=      3 IndIPD=      2 C=  8.347367D-02  0.000000D+00                             NZ=T
 IS=     2 IAt=     2 ISR=     1 T=0 IP=      1 IndIP=      4 IndIPD=      0 C=  6.931343D+00  0.000000D+00                             NZ=T
 IS=     2 IAt=     2 ISR=     1 T=0 IP=      2 IndIP=      5 IndIPD=      1 C=  6.703693D+00  0.000000D+00                             NZ=T
 IS=     2 IAt=     2 ISR=     1 T=0 IP=      3 IndIP=      6 IndIPD=      2 C=  2.089248D+00  0.000000D+00                             NZ=T
 IS=     3 IAt=     2 ISR=     2 T=1 IP=      1 IndIP=      7 IndIPD=      0 C= -4.605140D-01  4.984520D+00                             NZ=T
 IS=     3 IAt=     2 ISR=     2 T=1 IP=      2 IndIP=      8 IndIPD=      1 C=  6.159747D-01  3.134400D+00                             NZ=T
 IS=     3 IAt=     2 ISR=     2 T=1 IP=      3 IndIP=      9 IndIPD=      2 C=  4.648853D-01  4.965416D-01                             NZ=T
 IS=     4 IAt=     2 ISR=     3 T=1 IP=      1 IndIP=     10 IndIPD=      0 C= -2.098948D-01  2.460950D-02                             NZ=T
 IS=     4 IAt=     2 ISR=     3 T=1 IP=      2 IndIP=     11 IndIPD=      1 C=  8.276745D-02  2.805074D-01                             NZ=T
 IS=     4 IAt=     2 ISR=     3 T=1 IP=      3 IndIP=     12 IndIPD=      2 C=  1.634647D-01  6.740855D-02                             NZ=T
 IExCor=    0 DFT=F Ex=HF Corr=None ExCW=0 ScaHFX=  1.000000
 ScaDFX=  1.000000  1.000000  1.000000  1.000000 ScalE2=  1.000000  1.000000
 IRadAn=      5 IRanWt=     -1 IRanGd=            0 ICorTp=0 IEmpDi=  4
 NAtoms=    2 NActive=    2 NUniq=    2 SFac= 1.00D+00 NAtFMM=   60 NAOKFM=F Big=F
 Integral buffers will be    131072 words long.
 Raffenetti 1 integral format.
 Two-electron integral symmetry is turned on.
 Leave Link  301 at Mon Mar 28 14:19:01 2022, MaxMem=  9663676416 cpu:               1.9 elap:               0.1
 (Enter /nopt/nrel/apps/gaussian/g16C_1/g16/l302.exe)
 NPDir=0 NMtPBC=     1 NCelOv=     1 NCel=       1 NClECP=     1 NCelD=      1
         NCelK=      1 NCelE2=     1 NClLst=     1 CellRange=     0.0.
 One-electron integrals computed using PRISM.
 One-electron integral symmetry used in STVInt
 Entering OneElI...
 Calculate overlap and kinetic energy integrals
    NBasis =  10  MinDer = 0  MaxDer = 0
 Requested accuracy = 0.1000D-12
 Symmetry will be used
 PrmmSu-InSpLW:  IPartL=    0 NPrtUS=   36 NPrtUL=    1 DoSpLW=F IThBeg=    0 IThEnd=   35 NThAct=   36.
 PrSmSu:  IncTry=   512 NBBP=             10 NTPThr=   100 NPartT=   36 Incr=           1 LDynOK=F GPUOK=F.
 PrsmSu:  NPrtUS=  36 ThrOK=T IAlg=1 LenDen=           0 ISkipM=0 DoSpLW=F IThBeg=    0 IThEnd=   35.
 Prism:   IPart=     0 DynPar=F LinDyn=F Incr=           1.
 PRISM was handed   268433954 working-precision words and    10 shell-pairs
 PRISM was handed   268433954 working-precision words and    10 shell-pairs
 PRISM was handed   268433954 working-precision words and    10 shell-pairs
 PRISM was handed   268433954 working-precision words and    10 shell-pairs
 PRISM was handed   268433954 working-precision words and    10 shell-pairs
 PRISM was handed   268433954 working-precision words and    10 shell-pairs
 PRISM was handed   268433954 working-precision words and    10 shell-pairs
 PRISM was handed   268433954 working-precision words and    10 shell-pairs
 PRISM was handed   268433954 working-precision words and    10 shell-pairs
 PRISM was handed   268433954 working-precision words and    10 shell-pairs
 IPart= 12 NShTot=           0 NBatch=           0 AvBLen=         0.0
 IPart=  7 NShTot=           0 NBatch=           0 AvBLen=         0.0
 IPart= 10 NShTot=           0 NBatch=           0 AvBLen=         0.0
 IPart= 16 NShTot=           0 NBatch=           0 AvBLen=         0.0
 IPart= 21 NShTot=           0 NBatch=           0 AvBLen=         0.0
 IPart= 19 NShTot=           0 NBatch=           0 AvBLen=         0.0
 IPart= 14 NShTot=           0 NBatch=           0 AvBLen=         0.0
 IPart= 31 NShTot=           0 NBatch=           0 AvBLen=         0.0
 IPart= 29 NShTot=           0 NBatch=           0 AvBLen=         0.0
 PRISM was handed   268433954 working-precision words and    10 shell-pairs
 PRISM was handed   268433954 working-precision words and    10 shell-pairs
 PRISM was handed   268433954 working-precision words and    10 shell-pairs
 PRISM was handed   268433954 working-precision words and    10 shell-pairs
 PRISM was handed   268433954 working-precision words and    10 shell-pairs
 PRISM was handed   268433954 working-precision words and    10 shell-pairs
 IPart=  5 NShTot=           0 NBatch=           0 AvBLen=         0.0
 PRISM was handed   268433954 working-precision words and    10 shell-pairs
 PRISM was handed   268433954 working-precision words and    10 shell-pairs
 IPart= 17 NShTot=           0 NBatch=           0 AvBLen=         0.0
 PRISM was handed   268433954 working-precision words and    10 shell-pairs
 IPart= 35 NShTot=           0 NBatch=           0 AvBLen=         0.0
 IPart= 30 NShTot=           0 NBatch=           0 AvBLen=         0.0
 IPart= 28 NShTot=           0 NBatch=           0 AvBLen=         0.0
 PRISM was handed   268433954 working-precision words and    10 shell-pairs
 IPart=  2 NShTot=           2 NBatch=           2 AvBLen=         1.0
 PRISM was handed   268433954 working-precision words and    10 shell-pairs
 PRISM was handed   268433954 working-precision words and    10 shell-pairs
 PRISM was handed   268433954 working-precision words and    10 shell-pairs
 IPart= 22 NShTot=           0 NBatch=           0 AvBLen=         0.0
 IPart= 25 NShTot=           0 NBatch=           0 AvBLen=         0.0
 IPart= 13 NShTot=           0 NBatch=           0 AvBLen=         0.0
 IPart= 27 NShTot=           0 NBatch=           0 AvBLen=         0.0
 PRISM was handed   268433954 working-precision words and    10 shell-pairs
 PRISM was handed   268433954 working-precision words and    10 shell-pairs
 IPart= 11 NShTot=           0 NBatch=           0 AvBLen=         0.0
 IPart=  9 NShTot=           0 NBatch=           0 AvBLen=         0.0
 IPart= 20 NShTot=           0 NBatch=           0 AvBLen=         0.0
 PRISM was handed   268433954 working-precision words and    10 shell-pairs
 IPart=  8 NShTot=           0 NBatch=           0 AvBLen=         0.0
 PRISM was handed   268433954 working-precision words and    10 shell-pairs
 PRISM was handed   268433954 working-precision words and    10 shell-pairs
 IPart=  1 NShTot=           3 NBatch=           3 AvBLen=         1.0
 PRISM was handed   268433954 working-precision words and    10 shell-pairs
 IPart= 18 NShTot=           0 NBatch=           0 AvBLen=         0.0
 PRISM was handed   268433954 working-precision words and    10 shell-pairs
 PRISM was handed   268433954 working-precision words and    10 shell-pairs
 IPart= 23 NShTot=           0 NBatch=           0 AvBLen=         0.0
 IPart=  3 NShTot=           0 NBatch=           0 AvBLen=         0.0
 IPart=  0 NShTot=           5 NBatch=           5 AvBLen=         1.0
 PRISM was handed   268433954 working-precision words and    10 shell-pairs
 PRISM was handed   268433954 working-precision words and    10 shell-pairs
 IPart= 33 NShTot=           0 NBatch=           0 AvBLen=         0.0
 IPart=  6 NShTot=           0 NBatch=           0 AvBLen=         0.0
 PRISM was handed   268433954 working-precision words and    10 shell-pairs
 PRISM was handed   268433954 working-precision words and    10 shell-pairs
 IPart= 24 NShTot=           0 NBatch=           0 AvBLen=         0.0
 PRISM was handed   268433954 working-precision words and    10 shell-pairs
 IPart= 26 NShTot=           0 NBatch=           0 AvBLen=         0.0
 IPart= 32 NShTot=           0 NBatch=           0 AvBLen=         0.0
 IPart= 15 NShTot=           0 NBatch=           0 AvBLen=         0.0
 IPart=  4 NShTot=           0 NBatch=           0 AvBLen=         0.0
 IPart= 34 NShTot=           0 NBatch=           0 AvBLen=         0.0
 PrSmSu:  NxtVal=             37.
 *** Overlap *** 
                1             2             3             4             5 
      1  0.100000D+01
      2  0.218736D-04  0.100000D+01
      3  0.429035D-03  0.278512D+00  0.100000D+01
      4  0.000000D+00  0.000000D+00  0.000000D+00  0.100000D+01
      5  0.000000D+00  0.000000D+00  0.000000D+00  0.000000D+00  0.100000D+01
      6 -0.524465D-03  0.000000D+00  0.000000D+00  0.000000D+00  0.000000D+00
      7  0.125419D-01  0.222827D-01  0.449490D+00  0.000000D+00  0.000000D+00
      8  0.000000D+00  0.000000D+00  0.000000D+00  0.461768D+00  0.000000D+00
      9  0.000000D+00  0.000000D+00  0.000000D+00  0.000000D+00  0.461768D+00
     10 -0.209942D-01  0.000000D+00  0.000000D+00  0.000000D+00  0.000000D+00
                6             7             8             9            10 
      6  0.100000D+01
      7  0.000000D+00  0.100000D+01
      8  0.000000D+00  0.000000D+00  0.100000D+01
      9  0.000000D+00  0.000000D+00  0.000000D+00  0.100000D+01
     10  0.461768D+00  0.000000D+00  0.000000D+00  0.000000D+00  0.100000D+01
 *** Kinetic Energy *** 
                1             2             3             4             5 
      1  0.760032D+00
      2 -0.424797D-04  0.556441D+02
      3 -0.597247D-03 -0.216342D+00  0.193319D+01
      4  0.000000D+00  0.000000D+00  0.000000D+00  0.604917D+01
      5  0.000000D+00  0.000000D+00  0.000000D+00  0.000000D+00  0.604917D+01
      6  0.596440D-03  0.000000D+00  0.000000D+00  0.000000D+00  0.000000D+00
      7 -0.551804D-02 -0.231638D+00 -0.720563D-01  0.000000D+00  0.000000D+00
      8  0.000000D+00  0.000000D+00  0.000000D+00  0.652802D+00  0.000000D+00
      9  0.000000D+00  0.000000D+00  0.000000D+00  0.000000D+00  0.652802D+00
     10  0.722500D-02  0.000000D+00  0.000000D+00  0.000000D+00  0.000000D+00
                6             7             8             9            10 
      6  0.604917D+01
      7  0.000000D+00  0.304040D+00
      8  0.000000D+00  0.000000D+00  0.711196D+00
      9  0.000000D+00  0.000000D+00  0.000000D+00  0.711196D+00
     10  0.652802D+00  0.000000D+00  0.000000D+00  0.000000D+00  0.711196D+00
 Entering OneElI...
 Calculate potential energy integrals
    NBasis =  10  MinDer = 0  MaxDer = 0
 Requested accuracy = 0.1000D-12
 Symmetry will be used
 PrmmSu-InSpLW:  IPartL=    0 NPrtUS=   36 NPrtUL=    1 DoSpLW=F IThBeg=    0 IThEnd=   35 NThAct=   36.
 PrSmSu:  IncTry=   512 NBBP=             20 NTPThr=   100 NPartT=   36 Incr=           1 LDynOK=F GPUOK=F.
 PrsmSu:  NPrtUS=  36 ThrOK=T IAlg=1 LenDen=           0 ISkipM=0 DoSpLW=F IThBeg=    0 IThEnd=   35.
 Prism:   IPart=     0 DynPar=F LinDyn=F Incr=           1.
 PRISM was handed   268434005 working-precision words and    10 shell-pairs
 PRISM was handed   268434005 working-precision words and    10 shell-pairs
 PRISM was handed   268434005 working-precision words and    10 shell-pairs
 PRISM was handed   268434005 working-precision words and    10 shell-pairs
 PRISM was handed   268434005 working-precision words and    10 shell-pairs
 PRISM was handed   268434005 working-precision words and    10 shell-pairs
 PRISM was handed   268434005 working-precision words and    10 shell-pairs
 PRISM was handed   268434005 working-precision words and    10 shell-pairs
 PRISM was handed   268434005 working-precision words and    10 shell-pairs
 PRISM was handed   268434005 working-precision words and    10 shell-pairs
 PRISM was handed   268434005 working-precision words and    10 shell-pairs
 PRISM was handed   268434005 working-precision words and    10 shell-pairs
 PRISM was handed   268434005 working-precision words and    10 shell-pairs
 PRISM was handed   268434005 working-precision words and    10 shell-pairs
 PRISM was handed   268434005 working-precision words and    10 shell-pairs
 PRISM was handed   268434005 working-precision words and    10 shell-pairs
 PRISM was handed   268434005 working-precision words and    10 shell-pairs
 PRISM was handed   268434005 working-precision words and    10 shell-pairs
 PRISM was handed   268434005 working-precision words and    10 shell-pairs
 PRISM was handed   268434005 working-precision words and    10 shell-pairs
 PRISM was handed   268434005 working-precision words and    10 shell-pairs
 PRISM was handed   268434005 working-precision words and    10 shell-pairs
 PRISM was handed   268434005 working-precision words and    10 shell-pairs
 PRISM was handed   268434005 working-precision words and    10 shell-pairs
 PRISM was handed   268434005 working-precision words and    10 shell-pairs
 PRISM was handed   268434005 working-precision words and    10 shell-pairs
 PRISM was handed   268434005 working-precision words and    10 shell-pairs
 PRISM was handed   268434005 working-precision words and    10 shell-pairs
 PRISM was handed   268434005 working-precision words and    10 shell-pairs
 PRISM was handed   268434005 working-precision words and    10 shell-pairs
 PRISM was handed   268434005 working-precision words and    10 shell-pairs
 PRISM was handed   268434005 working-precision words and    10 shell-pairs
 PRISM was handed   268434005 working-precision words and    10 shell-pairs
 PRISM was handed   268434005 working-precision words and    10 shell-pairs
 PRISM was handed   268434005 working-precision words and    10 shell-pairs
 PRISM was handed   268434005 working-precision words and    10 shell-pairs
 IPart=  6 NShTot=           0 NBatch=           0 AvBLen=         0.0
 IPart=  3 NShTot=           0 NBatch=           0 AvBLen=         0.0
 IPart= 32 NShTot=           0 NBatch=           0 AvBLen=         0.0
 IPart=  8 NShTot=           0 NBatch=           0 AvBLen=         0.0
 IPart= 14 NShTot=           0 NBatch=           0 AvBLen=         0.0
 IPart= 21 NShTot=           0 NBatch=           0 AvBLen=         0.0
 IPart= 22 NShTot=           0 NBatch=           0 AvBLen=         0.0
 IPart= 34 NShTot=           0 NBatch=           0 AvBLen=         0.0
 IPart= 10 NShTot=           0 NBatch=           0 AvBLen=         0.0
 IPart= 12 NShTot=           0 NBatch=           0 AvBLen=         0.0
 IPart= 26 NShTot=           0 NBatch=           0 AvBLen=         0.0
 IPart= 11 NShTot=           0 NBatch=           0 AvBLen=         0.0
 IPart= 16 NShTot=           0 NBatch=           0 AvBLen=         0.0
 IPart= 25 NShTot=           0 NBatch=           0 AvBLen=         0.0
 IPart=  7 NShTot=           0 NBatch=           0 AvBLen=         0.0
 IPart= 23 NShTot=           0 NBatch=           0 AvBLen=         0.0
 IPart= 17 NShTot=           0 NBatch=           0 AvBLen=         0.0
 IPart= 13 NShTot=           0 NBatch=           0 AvBLen=         0.0
 IPart= 20 NShTot=           0 NBatch=           0 AvBLen=         0.0
 IPart= 27 NShTot=           0 NBatch=           0 AvBLen=         0.0
 IPart= 35 NShTot=           0 NBatch=           0 AvBLen=         0.0
 IPart= 15 NShTot=           0 NBatch=           0 AvBLen=         0.0
 IPart= 31 NShTot=           0 NBatch=           0 AvBLen=         0.0
 IPart=  4 NShTot=           0 NBatch=           0 AvBLen=         0.0
 IPart= 28 NShTot=           0 NBatch=           0 AvBLen=         0.0
 IPart= 18 NShTot=           0 NBatch=           0 AvBLen=         0.0
 IPart=  5 NShTot=           0 NBatch=           0 AvBLen=         0.0
 IPart= 24 NShTot=           0 NBatch=           0 AvBLen=         0.0
 IPart= 29 NShTot=           0 NBatch=           0 AvBLen=         0.0
 IPart= 30 NShTot=           0 NBatch=           0 AvBLen=         0.0
 IPart= 33 NShTot=           0 NBatch=           0 AvBLen=         0.0
 IPart= 19 NShTot=           0 NBatch=           0 AvBLen=         0.0
 IPart=  9 NShTot=           0 NBatch=           0 AvBLen=         0.0
 IPart=  1 NShTot=           6 NBatch=           3 AvBLen=         2.0
 IPart=  2 NShTot=           2 NBatch=           1 AvBLen=         2.0
 IPart=  0 NShTot=          12 NBatch=           6 AvBLen=         2.0
 PrSmSu:  NxtVal=             37.
 ***** Potential Energy ***** 
                1             2             3             4             5 
      1  0.288974D+01
      2  0.127151D-02  0.115601D+03
      3  0.443714D-02  0.162651D+02  0.194016D+02
      4  0.000000D+00  0.000000D+00  0.000000D+00  0.192471D+02
      5  0.000000D+00  0.000000D+00  0.000000D+00  0.000000D+00  0.192471D+02
      6 -0.447052D-02 -0.977519D-03 -0.947643D-02  0.000000D+00  0.000000D+00
      7  0.438512D-01  0.112718D+01  0.537342D+01  0.000000D+00  0.000000D+00
      8  0.000000D+00  0.000000D+00  0.000000D+00  0.551843D+01  0.000000D+00
      9  0.000000D+00  0.000000D+00  0.000000D+00  0.000000D+00  0.551843D+01
     10 -0.701619D-01 -0.958543D-04 -0.666363D-02  0.000000D+00  0.000000D+00
                6             7             8             9            10 
      6  0.192484D+02
      7 -0.689564D-02  0.656982D+01
      8  0.000000D+00  0.000000D+00  0.657718D+01
      9  0.000000D+00  0.000000D+00  0.000000D+00  0.657718D+01
     10  0.551986D+01 -0.263882D-01  0.000000D+00  0.000000D+00  0.658667D+01
 ****** Core Hamiltonian ****** 
                1             2             3             4             5 
      1 -0.212971D+01
      2 -0.131399D-02 -0.599572D+02
      3 -0.503438D-02 -0.164814D+02 -0.174684D+02
      4  0.000000D+00  0.000000D+00  0.000000D+00 -0.131979D+02
      5  0.000000D+00  0.000000D+00  0.000000D+00  0.000000D+00 -0.131979D+02
      6  0.506696D-02  0.977519D-03  0.947643D-02  0.000000D+00  0.000000D+00
      7 -0.493692D-01 -0.135882D+01 -0.544548D+01  0.000000D+00  0.000000D+00
      8  0.000000D+00  0.000000D+00  0.000000D+00 -0.486562D+01  0.000000D+00
      9  0.000000D+00  0.000000D+00  0.000000D+00  0.000000D+00 -0.486562D+01
     10  0.773869D-01  0.958543D-04  0.666363D-02  0.000000D+00  0.000000D+00
                6             7             8             9            10 
      6 -0.131992D+02
      7  0.689564D-02 -0.626578D+01
      8  0.000000D+00  0.000000D+00 -0.586598D+01
      9  0.000000D+00  0.000000D+00  0.000000D+00 -0.586598D+01
     10 -0.486706D+01  0.263882D-01  0.000000D+00  0.000000D+00 -0.587547D+01
 SVDSVc IOpt=   1 NormSV=T IR=1
 SVDSVc V= 1.54D+00 1.46D+00 1.00D+00 9.78D-01 5.38D-01 4.81D-01
 SVDSVc IOpt=   1 NormSV=T IR=3
 SVDSVc V= 1.46D+00 5.38D-01
 SVDSVc IOpt=   1 NormSV=T IR=4
 SVDSVc V= 1.46D+00 5.38D-01
 TstOVc:  Largest diagonal error= 1.67D-15 IB=1 I=    3.
 TstOVc:  Largest same sym error= 1.65D-15 IB=1 I=    3 J=    2.
 TstOVc:  Largest diff sym error= 0.00D+00 IB=0 JB=0 I=    0 J=    0.
 Orthogonalized basis functions: 
                 1             2             3             4             5 
      1   0.117869D-01 -0.271801D-01  0.955498D+00  0.290957D+00  0.426327D-01
      2   0.311585D+00  0.131785D-02 -0.245368D+00  0.823239D+00  0.235764D-02
      3   0.564365D+00  0.208146D-02 -0.138520D-01 -0.240915D-01 -0.413628D-02
      4   0.000000D+00  0.000000D+00  0.000000D+00  0.000000D+00  0.000000D+00
      5   0.000000D+00  0.000000D+00  0.000000D+00  0.000000D+00  0.000000D+00
      6  -0.152032D-02  0.584131D+00  0.434468D-01  0.132425D-01 -0.963259D+00
      7   0.483747D+00  0.135001D-02  0.151064D+00 -0.509197D+00  0.275190D-02
      8   0.000000D+00  0.000000D+00  0.000000D+00  0.000000D+00  0.000000D+00
      9   0.000000D+00  0.000000D+00  0.000000D+00  0.000000D+00  0.000000D+00
     10  -0.176140D-02  0.584733D+00  0.126582D-02 -0.298304D-03  0.964252D+00
                 6             7             8             9            10 
      1   0.203258D-01  0.000000D+00  0.000000D+00  0.000000D+00  0.000000D+00
      2  -0.514682D+00  0.000000D+00  0.000000D+00  0.000000D+00  0.000000D+00
      3   0.102882D+01  0.000000D+00  0.000000D+00  0.000000D+00  0.000000D+00
      4   0.000000D+00  0.584852D+00  0.963829D+00  0.000000D+00  0.000000D+00
      5   0.000000D+00  0.000000D+00  0.000000D+00  0.584852D+00  0.963829D+00
      6  -0.340570D-02  0.000000D+00  0.000000D+00  0.000000D+00  0.000000D+00
      7  -0.869260D+00  0.000000D+00  0.000000D+00  0.000000D+00  0.000000D+00
      8   0.000000D+00  0.584852D+00 -0.963829D+00  0.000000D+00  0.000000D+00
      9   0.000000D+00  0.000000D+00  0.000000D+00  0.584852D+00 -0.963829D+00
     10   0.385162D-02  0.000000D+00  0.000000D+00  0.000000D+00  0.000000D+00
 NBasis=    10 RedAO= T EigKep=  4.81D-01  NBF=     6     0     2     2
 NBsUse=    10 1.00D-06 EigRej= -1.00D+00 NBFU=     6     0     2     2
 Leave Link  302 at Mon Mar 28 14:19:01 2022, MaxMem=  9663676416 cpu:               3.1 elap:               0.1
 (Enter /nopt/nrel/apps/gaussian/g16C_1/g16/l303.exe)
 DipDrv will not compute anything.
 Fermi contact integrals: 
                 1             2 
      1   0.628247D+00  0.517081D-04
      2   0.000000D+00  0.157243D+02
      3   0.000000D+00  0.620346D+00
      4   0.000000D+00  0.000000D+00
      5   0.000000D+00  0.000000D+00
      6   0.000000D+00  0.000000D+00
      7   0.139846D-03  0.363373D-01
      8   0.000000D+00  0.000000D+00
      9   0.000000D+00  0.000000D+00
     10  -0.381449D-03  0.000000D+00
 Leave Link  303 at Mon Mar 28 14:19:01 2022, MaxMem=  9663676416 cpu:               1.1 elap:               0.1
 (Enter /nopt/nrel/apps/gaussian/g16C_1/g16/l401.exe)
 ExpMin= 1.61D-01 ExpMax= 2.51D+02 ExpMxC= 2.51D+02 IAcc=3 IRadAn=         5 AccDes= 0.00D+00
 Harris functional with IExCor=  205 and IRadAn=       5 diagonalized for initial guess.
 HarFok:  IExCor=  205 AccDes= 0.00D+00 IRadAn=         5 IDoV= 1 UseB2=F ITyADJ=14
 ICtDFT=  3500011 ScaDFX=  1.000000  1.000000  1.000000  1.000000
 FoFCou: FMM=F IPFlag=           0 FMFlag=      100000 FMFlg1=           0
         NFxFlg=           0 DoJE=T BraDBF=F KetDBF=T FulRan=T
         wScrn=  0.000000 ICntrl=       500 IOpCl=  0 I1Cent=   200000004 NGrid=           0
         NMat0=    1 NMatS0=      1 NMatT0=    0 NMatD0=    1 NMtDS0=    0 NMtDT0=    0
 Petite list used in FoFCou.
 Harris En= -160.200609873971    
 JPrj=0 DoOrth=F DoCkMO=F.
 Initial guess orbital symmetries:
       Occupied  (SG) (SG) (SG) (PI) (PI) (SG)
       Virtual   (SG) (PI) (PI) (SG)
 The electronic state of the initial guess is 1-SG.
 Leave Link  401 at Mon Mar 28 14:19:01 2022, MaxMem=  9663676416 cpu:               3.9 elap:               0.1
 (Enter /nopt/nrel/apps/gaussian/g16C_1/g16/l502.exe)
 Keep R1 ints in memory in symmetry-blocked form, NReq=7208727.
 FoFCou: FMM=F IPFlag=           0 FMFlag=           0 FMFlg1=           0
         NFxFlg=           0 DoJE=F BraDBF=F KetDBF=F FulRan=T
         wScrn=  0.000000 ICntrl=       600 IOpCl=  0 I1Cent=           0 NGrid=           0
         NMat0=    1 NMatS0=     55 NMatT0=    0 NMatD0=    1 NMtDS0=    0 NMtDT0=    0
 Petite list used in FoFCou.
 Closed shell SCF:
 Using DIIS extrapolation, IDIIS=  1040.
 NGot=  9663676416 LenX=  9663673310 LenY=  9663672428
 Requested convergence on RMS density matrix=1.00D-08 within 128 cycles.
 Requested convergence on MAX density matrix=1.00D-06.
 Requested convergence on             energy=1.00D-06.
 No special actions if energy rises.

 Cycle   1  Pass 1  IDiag  1:
 E= -160.029280823113    
 DIIS: error= 8.72D-02 at cycle   1 NSaved=   1.
 NSaved= 1 IEnMin= 1 EnMin= -160.029280823113     IErMin= 1 ErrMin= 8.72D-02
 ErrMax= 8.72D-02  0.00D+00 EMaxC= 1.00D-01 BMatC= 1.18D-01 BMatP= 1.18D-01
 IDIUse=3 WtCom= 1.28D-01 WtEn= 8.72D-01
 Coeff-Com:  0.100D+01
 Coeff-En:   0.100D+01
 Coeff:      0.100D+01
 Gap=     0.070 Goal=   None    Shift=    0.000
 GapD=    0.070 DampG=0.500 DampE=0.500 DampFc=0.2500 IDamp=-1.
 Damping current iteration by 2.50D-01
 RMSDP=3.84D-02 MaxDP=1.75D-01              OVMax= 0.00D+00

 Cycle   2  Pass 1  IDiag  1:
 E= -160.050290461007     Delta-E=       -0.021009637894 Rises=F Damp=T
 DIIS: error= 6.32D-02 at cycle   2 NSaved=   2.
 NSaved= 2 IEnMin= 2 EnMin= -160.050290461007     IErMin= 2 ErrMin= 6.32D-02
 ErrMax= 6.32D-02  0.00D+00 EMaxC= 1.00D-01 BMatC= 5.67D-02 BMatP= 1.18D-01
 IDIUse=3 WtCom= 3.68D-01 WtEn= 6.32D-01
 Coeff-Com: -0.224D+01 0.324D+01
 Coeff-En:   0.000D+00 0.100D+01
 Coeff:     -0.825D+00 0.182D+01
 Gap=     0.120 Goal=   None    Shift=    0.000
 RMSDP=3.26D-02 MaxDP=1.66D-01 DE=-2.10D-02 OVMax= 0.00D+00

 Cycle   3  Pass 1  IDiag  1:
 E= -160.106181291539     Delta-E=       -0.055890830532 Rises=F Damp=F
 DIIS: error= 9.62D-03 at cycle   3 NSaved=   3.
 NSaved= 3 IEnMin= 3 EnMin= -160.106181291539     IErMin= 3 ErrMin= 9.62D-03
 ErrMax= 9.62D-03  0.00D+00 EMaxC= 1.00D-01 BMatC= 1.26D-03 BMatP= 5.67D-02
 IDIUse=3 WtCom= 9.04D-01 WtEn= 9.62D-02
 Coeff-Com:  0.218D+01-0.291D+01 0.173D+01
 Coeff-En:   0.000D+00 0.000D+00 0.100D+01
 Coeff:      0.197D+01-0.263D+01 0.166D+01
 Gap=     0.180 Goal=   None    Shift=    0.000
 RMSDP=9.47D-03 MaxDP=4.91D-02 DE=-5.59D-02 OVMax= 0.00D+00

 Cycle   4  Pass 1  IDiag  1:
 E= -160.108080229493     Delta-E=       -0.001898937954 Rises=F Damp=F
 DIIS: error= 6.33D-04 at cycle   4 NSaved=   4.
 NSaved= 4 IEnMin= 4 EnMin= -160.108080229493     IErMin= 4 ErrMin= 6.33D-04
 ErrMax= 6.33D-04  0.00D+00 EMaxC= 1.00D-01 BMatC= 4.06D-06 BMatP= 1.26D-03
 IDIUse=3 WtCom= 9.94D-01 WtEn= 6.33D-03
 Coeff-Com:  0.196D+00-0.279D+00 0.402D-01 0.104D+01
 Coeff-En:   0.000D+00 0.000D+00 0.000D+00 0.100D+01
 Coeff:      0.195D+00-0.278D+00 0.400D-01 0.104D+01
 Gap=     0.193 Goal=   None    Shift=    0.000
 RMSDP=1.74D-03 MaxDP=8.88D-03 DE=-1.90D-03 OVMax= 0.00D+00

 Cycle   5  Pass 1  IDiag  1:
 E= -160.108106191056     Delta-E=       -0.000025961563 Rises=F Damp=F
 DIIS: error= 7.30D-05 at cycle   5 NSaved=   5.
 NSaved= 5 IEnMin= 5 EnMin= -160.108106191056     IErMin= 5 ErrMin= 7.30D-05
 ErrMax= 7.30D-05  0.00D+00 EMaxC= 1.00D-01 BMatC= 9.34D-08 BMatP= 4.06D-06
 IDIUse=1 WtCom= 1.00D+00 WtEn= 0.00D+00
 Coeff-Com: -0.695D-01 0.937D-01-0.534D-01-0.135D-01 0.104D+01
 Coeff:     -0.695D-01 0.937D-01-0.534D-01-0.135D-01 0.104D+01
 Gap=     0.195 Goal=   None    Shift=    0.000
 RMSDP=8.97D-05 MaxDP=4.45D-04 DE=-2.60D-05 OVMax= 0.00D+00

 Cycle   6  Pass 1  IDiag  1:
 E= -160.108106413349     Delta-E=       -0.000000222293 Rises=F Damp=F
 DIIS: error= 2.56D-05 at cycle   6 NSaved=   6.
 NSaved= 6 IEnMin= 6 EnMin= -160.108106413349     IErMin= 6 ErrMin= 2.56D-05
 ErrMax= 2.56D-05  0.00D+00 EMaxC= 1.00D-01 BMatC= 9.29D-09 BMatP= 9.34D-08
 IDIUse=1 WtCom= 1.00D+00 WtEn= 0.00D+00
 Coeff-Com: -0.338D-02 0.480D-02 0.176D-02-0.150D-02-0.152D-01 0.101D+01
 Coeff:     -0.338D-02 0.480D-02 0.176D-02-0.150D-02-0.152D-01 0.101D+01
 Gap=     0.194 Goal=   None    Shift=    0.000
 RMSDP=4.88D-05 MaxDP=2.46D-04 DE=-2.22D-07 OVMax= 0.00D+00

 Cycle   7  Pass 1  IDiag  1:
 E= -160.108106438222     Delta-E=       -0.000000024873 Rises=F Damp=F
 DIIS: error= 1.97D-06 at cycle   7 NSaved=   7.
 NSaved= 7 IEnMin= 7 EnMin= -160.108106438222     IErMin= 7 ErrMin= 1.97D-06
 ErrMax= 1.97D-06  0.00D+00 EMaxC= 1.00D-01 BMatC= 2.98D-11 BMatP= 9.29D-09
 IDIUse=1 WtCom= 1.00D+00 WtEn= 0.00D+00
 Coeff-Com:  0.102D-02-0.143D-02-0.603D-03-0.233D-02 0.242D-01-0.331D+00
 Coeff-Com:  0.131D+01
 Coeff:      0.102D-02-0.143D-02-0.603D-03-0.233D-02 0.242D-01-0.331D+00
 Coeff:      0.131D+01
 Gap=     0.194 Goal=   None    Shift=    0.000
 RMSDP=6.93D-06 MaxDP=3.58D-05 DE=-2.49D-08 OVMax= 0.00D+00

 Cycle   8  Pass 1  IDiag  1:
 E= -160.108106438502     Delta-E=       -0.000000000280 Rises=F Damp=F
 DIIS: error= 5.21D-07 at cycle   8 NSaved=   8.
 NSaved= 8 IEnMin= 8 EnMin= -160.108106438502     IErMin= 8 ErrMin= 5.21D-07
 ErrMax= 5.21D-07  0.00D+00 EMaxC= 1.00D-01 BMatC= 2.51D-12 BMatP= 2.98D-11
 IDIUse=1 WtCom= 1.00D+00 WtEn= 0.00D+00
 Coeff-Com:  0.241D-04-0.311D-04 0.118D-03 0.781D-03-0.741D-02 0.261D-01
 Coeff-Com: -0.765D-01 0.106D+01
 Coeff:      0.241D-04-0.311D-04 0.118D-03 0.781D-03-0.741D-02 0.261D-01
 Coeff:     -0.765D-01 0.106D+01
 Gap=     0.194 Goal=   None    Shift=    0.000
 RMSDP=1.54D-06 MaxDP=7.88D-06 DE=-2.80D-10 OVMax= 0.00D+00

 Cycle   9  Pass 1  IDiag  1:
 E= -160.108106438523     Delta-E=       -0.000000000021 Rises=F Damp=F
 DIIS: error= 4.65D-08 at cycle   9 NSaved=   9.
 NSaved= 9 IEnMin= 9 EnMin= -160.108106438523     IErMin= 9 ErrMin= 4.65D-08
 ErrMax= 4.65D-08  0.00D+00 EMaxC= 1.00D-01 BMatC= 1.70D-14 BMatP= 2.51D-12
 IDIUse=1 WtCom= 1.00D+00 WtEn= 0.00D+00
 Coeff-Com: -0.110D-04 0.151D-04-0.346D-04-0.364D-03 0.313D-02-0.648D-02
 Coeff-Com:  0.104D-01-0.469D+00 0.146D+01
 Coeff:     -0.110D-04 0.151D-04-0.346D-04-0.364D-03 0.313D-02-0.648D-02
 Coeff:      0.104D-01-0.469D+00 0.146D+01
 Gap=     0.194 Goal=   None    Shift=    0.000
 RMSDP=1.68D-07 MaxDP=8.66D-07 DE=-2.09D-11 OVMax= 0.00D+00

 Cycle  10  Pass 1  IDiag  1:
 E= -160.108106438523     Delta-E=        0.000000000000 Rises=F Damp=F
 DIIS: error= 1.05D-08 at cycle  10 NSaved=  10.
 NSaved=10 IEnMin= 9 EnMin= -160.108106438523     IErMin=10 ErrMin= 1.05D-08
 ErrMax= 1.05D-08  0.00D+00 EMaxC= 1.00D-01 BMatC= 8.37D-16 BMatP= 1.70D-14
 IDIUse=1 WtCom= 1.00D+00 WtEn= 0.00D+00
 Coeff-Com:  0.521D-06-0.709D-06 0.169D-05 0.194D-04-0.143D-03 0.249D-03
 Coeff-Com:  0.617D-03 0.176D-01 0.145D-01 0.967D+00
 Coeff:      0.521D-06-0.709D-06 0.169D-05 0.194D-04-0.143D-03 0.249D-03
 Coeff:      0.617D-03 0.176D-01 0.145D-01 0.967D+00
 Gap=     0.194 Goal=   None    Shift=    0.000
 RMSDP=3.21D-08 MaxDP=1.65D-07 DE= 0.00D+00 OVMax= 0.00D+00

 Cycle  11  Pass 1  IDiag  1:
 E= -160.108106438524     Delta-E=       -0.000000000000 Rises=F Damp=F
 DIIS: error= 5.83D-10 at cycle  11 NSaved=  11.
 NSaved=11 IEnMin=11 EnMin= -160.108106438524     IErMin=11 ErrMin= 5.83D-10
 ErrMax= 5.83D-10  0.00D+00 EMaxC= 1.00D-01 BMatC= 2.56D-18 BMatP= 8.37D-16
 IDIUse=1 WtCom= 1.00D+00 WtEn= 0.00D+00
 Coeff-Com:  0.425D-07-0.566D-07 0.198D-06 0.114D-05-0.144D-04 0.530D-04
 Coeff-Com: -0.273D-03 0.258D-02-0.194D-01-0.101D+00 0.112D+01
 Coeff:      0.425D-07-0.566D-07 0.198D-06 0.114D-05-0.144D-04 0.530D-04
 Coeff:     -0.273D-03 0.258D-02-0.194D-01-0.101D+00 0.112D+01
 Gap=     0.194 Goal=   None    Shift=    0.000
 RMSDP=1.51D-09 MaxDP=7.78D-09 DE=-1.71D-13 OVMax= 0.00D+00

 SCF Done:  E(RHF) =  -160.108106439     A.U. after   11 cycles
            NFock= 11  Conv=0.15D-08     -V/T= 2.0197
 KE= 1.570220713387D+02 PE=-3.848966125203D+02 EE= 6.610330636584D+01
 Leave Link  502 at Mon Mar 28 14:19:01 2022, MaxMem=  9663676416 cpu:               4.4 elap:               0.2
 (Enter /nopt/nrel/apps/gaussian/g16C_1/g16/l801.exe)
 Windowed orbitals will be sorted by symmetry type.
 ExpMin= 1.61D-01 ExpMax= 2.51D+02 ExpMxC= 2.51D+02 IAcc=3 IRadAn=         5 AccDes= 0.00D+00
 HarFok:  IExCor=  205 AccDes= 0.00D+00 IRadAn=         5 IDoV=-2 UseB2=F ITyADJ=14
 ICtDFT= 12500011 ScaDFX=  1.000000  1.000000  1.000000  1.000000
 Largest valence mixing into a core orbital is  1.19D-03
 Largest core mixing into a valence orbital is  9.92D-05
 Range of M.O.s used for correlation:     6    10
 NBasis=    10 NAE=     6 NBE=     6 NFC=     5 NFV=     0
 NROrb=      5 NOA=     1 NOB=     1 NVA=     4 NVB=     4
 Leave Link  801 at Mon Mar 28 14:19:01 2022, MaxMem=  9663676416 cpu:               2.4 elap:               0.1
 (Enter /nopt/nrel/apps/gaussian/g16C_1/g16/l804.exe)
 Closed-shell transformation, MDV=  9663676416 ITran=4 ISComp=2.
 Unit  1 TFree=          4870 TCopy=          1211.
 Semi-Direct transformation.
 ModeAB=           2 MOrb=             1 LenV=    9663556817
 LASXX=           12 LTotXX=          12 LenRXX=          12
 LTotAB=          28 MaxLAS=         275 LenRXY=         275
 NonZer=         335 LenScr=      785920 LnRSAI=           0
 LnScr1=           0 LExtra=      218701 Total=      1004908
 MaxDsk= 34359738368 SrtSym=           F ITran=            4
 DoSDTr:  NPSUse= 36
 JobTyp=0 Pass  1:  I=   1 to   1.
 (rs|ai) integrals will be sorted in core.
 Complete sort for first half transformation.
 First half transformation complete.
 Complete sort for second half transformation.
 Second half transformation complete.
 Spin components of T(2) and E(2):
     alpha-alpha T2 =       0.0000000000D+00 E2=      0.0000000000D+00
     alpha-beta  T2 =       0.2593492401D-01 E2=     -0.1059777570D-01
     beta-beta   T2 =       0.0000000000D+00 E2=      0.0000000000D+00
 ANorm=    0.1012884457D+01
 E2 =    -0.1059777570D-01 EUMP2 =    -0.16011870421422D+03
 Leave Link  804 at Mon Mar 28 14:19:01 2022, MaxMem=  9663676416 cpu:               2.2 elap:               0.1
 (Enter /nopt/nrel/apps/gaussian/g16C_1/g16/l913.exe)
 CIDS:  MDV=  9663676416.
 Frozen-core window:  NFC=   5 NFV=   0.
 IFCWin=0 IBDFC=1 NFBD=     0     0 NFCmp=     0     0 NFFFC=     0     0
 Using DD3R+UMP44R for 1st iteration.
 Using DD4RQ for 2nd and later iterations.
 Keep R2 and R3 ints in memory in symmetry-blocked form, NReq=7211101.
 FoFCou: FMM=F IPFlag=           0 FMFlag=           0 FMFlg1=           0
         NFxFlg=           0 DoJE=F BraDBF=F KetDBF=F FulRan=T
         wScrn=  0.000000 ICntrl=       600 IOpCl=  0 I1Cent=           0 NGrid=           0
         NMat0=    1 NMatS0=     55 NMatT0=    0 NMatD0=    1 NMtDS0=    0 NMtDT0=    0
 Petite list used in FoFCou.
 CIDS: In Core Option IDoMem=           1.
 Coupled Cluster theory with single and double substitutions
 ===========================================================
 Iterations= 200 Convergence= 0.100D-06
 Produce multiple copies of IABC intergrals
 Iteration Nr.   1
 **********************
 DD1Dir will call FoFMem   1 times, MxPair=         2
 NAB=     1 NAA=     0 NBB=     0.
 MP4(R+Q)=  0.27485251D-03
 Maximum subspace dimension=  5
 A-vector RMS=  2.0531160D-01 Max=  1.6806778D-01 conv= 1.00D-05.
 RLE energy=       -0.0051728628
 E3=        0.88900817D-02        EUMP3=      -0.16010981413D+03
 E4(DQ)=   -0.82464799D-02        UMP4(DQ)=   -0.16011806061D+03
 E4(SDQ)=  -0.19307475D-01        UMP4(SDQ)=  -0.16012912161D+03
 VARIATIONAL ENERGIES WITH THE FIRST-ORDER WAVEFUNCTION:
 DE(Corr)=  0.34138679E-03 E(Corr)=     -160.10776505    
 NORM(A)=   0.10118418D+01
 Iteration Nr.   2
 **********************
 DD1Dir will call FoFMem   1 times, MxPair=         2
 NAB=     1 NAA=     0 NBB=     0.
 A-vector RMS=  5.7780787D-02 Max=  1.2403977D-01 conv= 1.00D-05.
 RLE energy=        0.0059163727
 DE(Corr)= -0.12518500E-01 E(CORR)=     -160.12062494     Delta=-1.29D-02
 NORM(A)=   0.16794704D+01
 Iteration Nr.   3
 **********************
 DD1Dir will call FoFMem   1 times, MxPair=         2
 NAB=     1 NAA=     0 NBB=     0.
 A-vector RMS=  6.9156459D-01 Max=  6.7854749D-01 conv= 1.00D-05.
 RLE energy=       -0.0206727426
 DE(Corr)= -0.79502921E-01 E(CORR)=     -160.18760936     Delta=-6.70D-02
 NORM(A)=   0.14200647D+01
 Iteration Nr.   4
 **********************
 DD1Dir will call FoFMem   1 times, MxPair=         2
 NAB=     1 NAA=     0 NBB=     0.
 A-vector RMS=  7.1096163D-02 Max=  1.2315273D-01 conv= 1.00D-05.
 RLE energy=       -0.0210989221
 DE(Corr)= -0.30998591E-01 E(CORR)=     -160.13910503     Delta= 4.85D-02
 NORM(A)=   0.21779277D+01
 Iteration Nr.   5
 **********************
 DD1Dir will call FoFMem   1 times, MxPair=         2
 NAB=     1 NAA=     0 NBB=     0.
 A-vector RMS=  4.0602985D-01 Max=  3.3244944D-01 conv= 1.00D-05.
 RLE energy=       -0.0292209193
 DE(Corr)= -0.73549811E-01 E(CORR)=     -160.18165625     Delta=-4.26D-02
 NORM(A)=   0.13133136D+01
 Iteration Nr.   6
 **********************
 DD1Dir will call FoFMem   1 times, MxPair=         2
 NAB=     1 NAA=     0 NBB=     0.
 A-vector RMS=  2.3520922D-01 Max=  2.1564623D-01 conv= 1.00D-05.
 RLE energy=       -0.0283578563
 DE(Corr)= -0.46571034E-02 E(CORR)=     -160.11276354     Delta= 6.89D-02
 NORM(A)=   0.15457871D+01
 Iteration Nr.   7
 **********************
 DD1Dir will call FoFMem   1 times, MxPair=         2
 NAB=     1 NAA=     0 NBB=     0.
 A-vector RMS=  3.4907233D-02 Max=  2.7895934D-02 conv= 1.00D-05.
 RLE energy=       -0.0292344805
 DE(Corr)= -0.24447746E-01 E(CORR)=     -160.13255418     Delta=-1.98D-02
 NORM(A)=   0.15997109D+01
 Iteration Nr.   8
 **********************
 DD1Dir will call FoFMem   1 times, MxPair=         2
 NAB=     1 NAA=     0 NBB=     0.
 A-vector RMS=  2.3979469D-02 Max=  2.8017411D-02 conv= 1.00D-05.
 RLE energy=       -0.0287493408
 DE(Corr)= -0.26135257E-01 E(CORR)=     -160.13424170     Delta=-1.69D-03
 NORM(A)=   0.16049201D+01
 Iteration Nr.   9
 **********************
 DD1Dir will call FoFMem   1 times, MxPair=         2
 NAB=     1 NAA=     0 NBB=     0.
 A-vector RMS=  9.3865759D-03 Max=  1.2774239D-02 conv= 1.00D-05.
 RLE energy=       -0.0282850922
 DE(Corr)= -0.27473199E-01 E(CORR)=     -160.13557964     Delta=-1.34D-03
 NORM(A)=   0.16022898D+01
 Iteration Nr.  10
 **********************
 DD1Dir will call FoFMem   1 times, MxPair=         2
 NAB=     1 NAA=     0 NBB=     0.
 A-vector RMS=  8.5512691D-04 Max=  8.3822158D-04 conv= 1.00D-05.
 RLE energy=       -0.0281482423
 DE(Corr)= -0.28280897E-01 E(CORR)=     -160.13638734     Delta=-8.08D-04
 NORM(A)=   0.15937538D+01
 Iteration Nr.  11
 **********************
 DD1Dir will call FoFMem   1 times, MxPair=         2
 NAB=     1 NAA=     0 NBB=     0.
 A-vector RMS=  1.4410909D-03 Max=  1.1847266D-03 conv= 1.00D-05.
 RLE energy=       -0.0281648364
 DE(Corr)= -0.28000259E-01 E(CORR)=     -160.13610670     Delta= 2.81D-04
 NORM(A)=   0.15967441D+01
 Iteration Nr.  12
 **********************
 DD1Dir will call FoFMem   1 times, MxPair=         2
 NAB=     1 NAA=     0 NBB=     0.
 A-vector RMS=  1.5253418D-05 Max=  1.8289780D-05 conv= 1.00D-05.
 RLE energy=       -0.0281659991
 DE(Corr)= -0.28166541E-01 E(CORR)=     -160.13627298     Delta=-1.66D-04
 NORM(A)=   0.15967144D+01
 Iteration Nr.  13
 **********************
 DD1Dir will call FoFMem   1 times, MxPair=         2
 NAB=     1 NAA=     0 NBB=     0.
 A-vector RMS=  3.3569246D-05 Max=  3.1403346D-05 conv= 1.00D-05.
 RLE energy=       -0.0281638256
 DE(Corr)= -0.28161994E-01 E(CORR)=     -160.13626843     Delta= 4.55D-06
 NORM(A)=   0.15968030D+01
 Iteration Nr.  14
 **********************
 DD1Dir will call FoFMem   1 times, MxPair=         2
 NAB=     1 NAA=     0 NBB=     0.
 A-vector RMS=  7.0397636D-05 Max=  6.5831259D-05 conv= 1.00D-05.
 RLE energy=       -0.0281652957
 DE(Corr)= -0.28172218E-01 E(CORR)=     -160.13627866     Delta=-1.02D-05
 NORM(A)=   0.15967428D+01
 Iteration Nr.  15
 **********************
 DD1Dir will call FoFMem   1 times, MxPair=         2
 NAB=     1 NAA=     0 NBB=     0.
 A-vector RMS=  8.9455648D-08 Max=  8.1449629D-08 conv= 1.00D-05.
 RLE energy=       -0.0281652929
 DE(Corr)= -0.28165285E-01 E(CORR)=     -160.13627172     Delta= 6.93D-06
 NORM(A)=   0.15967429D+01
 Iteration Nr.  16
 **********************
 DD1Dir will call FoFMem   1 times, MxPair=         2
 NAB=     1 NAA=     0 NBB=     0.
 A-vector RMS=  4.6539293D-08 Max=  4.2774322D-08 conv= 1.00D-05.
 RLE energy=       -0.0281652950
 DE(Corr)= -0.28165298E-01 E(CORR)=     -160.13627174     Delta=-1.35D-08
 NORM(A)=   0.15967429D+01
 CI/CC converged in   16 iterations to DelEn=-1.35D-08 Conv= 1.00D-07 ErrA1= 4.65D-08 Conv= 1.00D-05
 Wavefunction amplitudes converged. E(Corr)=     -160.13627174    
 Dominant configurations:
 ***********************
 Spin Case        I    J    A    B          Value
    AA            6         7            0.644130D+00
   ABAB           6    6    7    7      -0.834715D+00
 Largest amplitude= 8.35D-01
 Discarding MO integrals.
 Leave Link  913 at Mon Mar 28 14:19:01 2022, MaxMem=  9663676416 cpu:               3.4 elap:               0.1
 (Enter /nopt/nrel/apps/gaussian/g16C_1/g16/l601.exe)
 Copying SCF densities to generalized density rwf, IOpCl= 0 IROHF=0.

 **********************************************************************

            Population analysis using the SCF Density.

 **********************************************************************

 Orbital symmetries:
       Occupied  (SG) (SG) (PI) (PI) (SG) (SG)
       Virtual   (SG) (PI) (PI) (SG)
 The electronic state is 1-SG.
 Alpha  occ. eigenvalues --  -40.35681  -2.90525  -1.55864  -1.55864  -1.55746
 Alpha  occ. eigenvalues --    0.10284
 Alpha virt. eigenvalues --    0.29695   0.60961   0.60961   0.62159
          Condensed to atoms (all electrons):
               1          2
     1  H    1.832473   0.009175
     2  Na   0.009175  10.149177
 Mulliken charges:
               1
     1  H   -0.841648
     2  Na   0.841648
 Sum of Mulliken charges =  -0.00000
 Mulliken charges with hydrogens summed into heavy atoms:
               1
     2  Na  -0.000000
 N-N= 1.663128377177D+00 E-N=-3.848966125428D+02  KE= 1.570220713387D+02
 Symmetry A1   KE= 1.362199022757D+02
 Symmetry A2   KE= 0.000000000000D+00
 Symmetry B1   KE= 1.040108453155D+01
 Symmetry B2   KE= 1.040108453155D+01

 Atomic contributions to Alpha molecular orbitals:
 Alpha occ 1 OE=-40.357 is Na2-s=1.0000
 Alpha occ 2 OE=-2.905 is Na2-s=0.9999
 Alpha occ 3 OE=-1.559 is Na2-p=1.0000
 Alpha occ 4 OE=-1.559 is Na2-p=1.0000
 Alpha occ 5 OE=-1.557 is Na2-p=0.9999
 Alpha occ 6 OE=0.103 is H1-s=0.9208
 Alpha vir 7 OE=0.297 is Na2-s=0.9189
 Alpha vir 8 OE=0.610 is Na2-p=1.0000
 Alpha vir 9 OE=0.610 is Na2-p=1.0000
 Alpha vir 10 OE=0.622 is Na2-p=0.9885
 
 Leave Link  601 at Mon Mar 28 14:19:01 2022, MaxMem=  9663676416 cpu:               0.9 elap:               0.0
 (Enter /nopt/nrel/apps/gaussian/g16C_1/g16/l9999.exe)

 Test job not archived.
 1\1\GINC-R102U34\SP\RCCSD-FC\Gen\H1Na1\USER\28-Mar-2022\0\\#P CCSD
 (MaxCyc=200,SaveAmplitudes,ReadAmplitudes)/GEN sp pop=AllOrbitals iop(
 3/33=1,3/36=-1)\\test\\0,1\H,0,0.,0.,0.\Na,0,0.,0.,3.5\\Version=ES64L-
 G16RevC.01\State=1-SG\HF=-160.1081064\MP2=-160.1187042\MP3=-160.109814
 1\MP4D=-160.1183355\MP4DQ=-160.1180606\MP4SDQ=-160.1291216\CCSD=-160.1
 362717\RMSD=1.513e-09\PG=C*V [C*(H1Na1)]\\@


 I LOVE MANKIND - IT'S PEOPLE I CAN'T STAND.
     -- LINUS OF PEANUTS
 Job cpu time:       0 days  0 hours  0 minutes 31.4 seconds.
 Elapsed time:       0 days  0 hours  0 minutes  1.2 seconds.
 File lengths (MBytes):  RWF=     13 Int=      0 D2E=      0 Chk=      1 Scr=      1
 Normal termination of Gaussian 16 at Mon Mar 28 14:19:02 2022.
