 Entering Gaussian System, Link 0=g16
 Initial command:
 /nopt/nrel/apps/gaussian/g16C_1/g16/l1.exe "/lustre/eaglefs/scratch/user/qc/nah-dissc/nah-1-ccsd-0.7-631g/Gau-9570.inp" -scrdir="/lustre/eaglefs/scratch/user/qc/nah-dissc/nah-1-ccsd-0.7-631g/"
 Default is to use a total of  36 processors:
                               36 via shared-memory
                                1 via Linda
 Entering Link 1 = /nopt/nrel/apps/gaussian/g16C_1/g16/l1.exe PID=      9571.
  
 Copyright (c) 1988-2019, Gaussian, Inc.  All Rights Reserved.
  
 This is part of the Gaussian(R) 16 program.  It is based on
 the Gaussian(R) 09 system (copyright 2009, Gaussian, Inc.),
 the Gaussian(R) 03 system (copyright 2003, Gaussian, Inc.),
 the Gaussian(R) 98 system (copyright 1998, Gaussian, Inc.),
 the Gaussian(R) 94 system (copyright 1995, Gaussian, Inc.),
 the Gaussian 92(TM) system (copyright 1992, Gaussian, Inc.),
 the Gaussian 90(TM) system (copyright 1990, Gaussian, Inc.),
 the Gaussian 88(TM) system (copyright 1988, Gaussian, Inc.),
 the Gaussian 86(TM) system (copyright 1986, Carnegie Mellon
 University), and the Gaussian 82(TM) system (copyright 1983,
 Carnegie Mellon University). Gaussian is a federally registered
 trademark of Gaussian, Inc.
  
 This software contains proprietary and confidential information,
 including trade secrets, belonging to Gaussian, Inc.
  
 This software is provided under written license and may be
 used, copied, transmitted, or stored only in accord with that
 written license.
  
 The following legend is applicable only to US Government
 contracts under FAR:
  
                    RESTRICTED RIGHTS LEGEND
  
 Use, reproduction and disclosure by the US Government is
 subject to restrictions as set forth in subparagraphs (a)
 and (c) of the Commercial Computer Software - Restricted
 Rights clause in FAR 52.227-19.
  
 Gaussian, Inc.
 340 Quinnipiac St., Bldg. 40, Wallingford CT 06492
  
  
 ---------------------------------------------------------------
 Warning -- This program may not be used in any manner that
 competes with the business of Gaussian, Inc. or will provide
 assistance to any competitor of Gaussian, Inc.  The licensee
 of this program is prohibited from giving any competitor of
 Gaussian, Inc. access to this program.  By using this program,
 the user acknowledges that Gaussian, Inc. is engaged in the
 business of creating and licensing software in the field of
 computational chemistry and represents and warrants to the
 licensee that it is not a competitor of Gaussian, Inc. and that
 it will not use this program in any manner prohibited above.
 ---------------------------------------------------------------
  

 Cite this work as:
 Gaussian 16, Revision C.01,
 M. J. Frisch, G. W. Trucks, H. B. Schlegel, G. E. Scuseria, 
 M. A. Robb, J. R. Cheeseman, G. Scalmani, V. Barone, 
 G. A. Petersson, H. Nakatsuji, X. Li, M. Caricato, A. V. Marenich, 
 J. Bloino, B. G. Janesko, R. Gomperts, B. Mennucci, H. P. Hratchian, 
 J. V. Ortiz, A. F. Izmaylov, J. L. Sonnenberg, D. Williams-Young, 
 F. Ding, F. Lipparini, F. Egidi, J. Goings, B. Peng, A. Petrone, 
 T. Henderson, D. Ranasinghe, V. G. Zakrzewski, J. Gao, N. Rega, 
 G. Zheng, W. Liang, M. Hada, M. Ehara, K. Toyota, R. Fukuda, 
 J. Hasegawa, M. Ishida, T. Nakajima, Y. Honda, O. Kitao, H. Nakai, 
 T. Vreven, K. Throssell, J. A. Montgomery, Jr., J. E. Peralta, 
 F. Ogliaro, M. J. Bearpark, J. J. Heyd, E. N. Brothers, K. N. Kudin, 
 V. N. Staroverov, T. A. Keith, R. Kobayashi, J. Normand, 
 K. Raghavachari, A. P. Rendell, J. C. Burant, S. S. Iyengar, 
 J. Tomasi, M. Cossi, J. M. Millam, M. Klene, C. Adamo, R. Cammi, 
 J. W. Ochterski, R. L. Martin, K. Morokuma, O. Farkas, 
 J. B. Foresman, and D. J. Fox, Gaussian, Inc., Wallingford CT, 2019.
 
 ******************************************
 Gaussian 16:  ES64L-G16RevC.01  3-Jul-2019
                28-Mar-2022 
 ******************************************
 %chk=molecule
 Default route: CacheSize=180224 MaxDisk=256GB
 ----------------------------------------------------------------------
 #P CCSD(MaxCyc=200,SaveAmplitudes,ReadAmplitudes)/GEN sp pop=AllOrbita
 ls iop(3/33=1,3/36=-1)
 ----------------------------------------------------------------------
 1/4=180224,38=1,172=1/1;
 2/4=180224,12=2,17=6,18=5,40=1/2;
 3/4=180224,5=7,11=9,25=1,30=1,33=1,36=-1/1,2,3;
 4/4=180224/1;
 5/4=180224,5=2,38=5/2;
 8/4=180224,6=4,9=120000,10=1,24=1/1,4;
 9/4=180224,5=7,6=200,77=1/13;
 6/4=180224,7=2,8=2,9=2,10=2,96=-1/1;
 99/4=180224,5=1,9=1/99;
 Leave Link    1 at Mon Mar 28 14:19:52 2022, MaxMem=           0 cpu:               2.1 elap:               0.1
 (Enter /nopt/nrel/apps/gaussian/g16C_1/g16/l101.exe)
 ----
 test
 ----
 Symbolic Z-matrix:
 Charge =  0 Multiplicity = 1
 H                     0.        0.        0. 
 Na                    0.        0.        0.7 
 
 ITRead=  0  0
 MicOpt= -1 -1
 NAtoms=      2 NQM=        2 NQMF=       0 NMMI=      0 NMMIF=      0
                NMic=       0 NMicF=      0.
                    Isotopes and Nuclear Properties:
 (Nuclear quadrupole moments (NQMom) in fm**2, nuclear magnetic moments (NMagM)
  in nuclear magnetons)

  Atom         1           2
 IAtWgt=           1          23
 AtmWgt=   1.0078250  22.9897697
 NucSpn=           1           3
 AtZEff=  -0.0000000  -0.0000000
 NQMom=    0.0000000  10.4000000
 NMagM=    2.7928460   2.2175200
 AtZNuc=   1.0000000  11.0000000
 Leave Link  101 at Mon Mar 28 14:19:52 2022, MaxMem=  9663676416 cpu:               3.0 elap:               0.1
 (Enter /nopt/nrel/apps/gaussian/g16C_1/g16/l202.exe)
                          Input orientation:                          
 ---------------------------------------------------------------------
 Center     Atomic      Atomic             Coordinates (Angstroms)
 Number     Number       Type             X           Y           Z
 ---------------------------------------------------------------------
      1          1           0        0.000000    0.000000    0.000000
      2         11           0        0.000000    0.000000    0.700000
 ---------------------------------------------------------------------
 Stoichiometry    HNa
 Framework group  C*V[C*(HNa)]
 Deg. of freedom     1
 Full point group                 C*V     NOp   4
 Largest Abelian subgroup         C2V     NOp   4
 Largest concise Abelian subgroup C1      NOp   1
                         Standard orientation:                         
 ---------------------------------------------------------------------
 Center     Atomic      Atomic             Coordinates (Angstroms)
 Number     Number       Type             X           Y           Z
 ---------------------------------------------------------------------
      1          1           0        0.000000    0.000000   -0.641667
      2         11           0        0.000000    0.000000    0.058333
 ---------------------------------------------------------------------
 Rotational constants (GHZ):           0.0000000        1068.2405770        1068.2405770
 Leave Link  202 at Mon Mar 28 14:19:52 2022, MaxMem=  9663676416 cpu:               1.0 elap:               0.0
 (Enter /nopt/nrel/apps/gaussian/g16C_1/g16/l301.exe)
 General basis read from cards:  (5D, 7F)
                         Coordinates in L301:                         
 ---------------------------------------------------------------------
 Center     Atomic      Atomic             Coordinates (Angstroms)
 Number     Number       Type             X           Y           Z
 ---------------------------------------------------------------------
      1          1           0        0.000000    0.000000   -0.641667
      2         11           0        0.000000    0.000000    0.058333
 ---------------------------------------------------------------------
 Centers:       1
 STO-3G
 ****
 Centers:       2
 6-31G
 ****
 FixB: optimizing general contractions.
 Ernie: Thresh=  0.10000D-02 Tol=  0.10000D-05 Strict=F.
 IA=     1 ShT= 0 ShC= 0 NL=   1 NS=   0.
 IA=     1 L=0 SC=0 ISt=    0 NBk=    0 NP=    0 IndPr=    0.
 IA=     2 ShT= 0 ShC= 0 NL=   1 NS=   0.
 IA=     2 L=0 SC=0 ISt=    0 NBk=    0 NP=    0 IndPr=    0.
 IA=     2 ShT= 1 ShC= 0 NL=   3 NS=   1.
 IA=     2 L=1 SC=0 ISt=    1 NBk=    2 NP=    9 IndPr=    0.
 DoElim1:  L=1 select primitive    1 from    2 using    1 C=-3.54D-03
 DoElim2:  L=1 select primitive    9 from    1 using    2 C= 1.23D+00
 DoElim1:  L=1 select primitive    1 from    2 using    1 C= 5.00D-03
 DoElim2:  L=1 select primitive    8 from    1 using    2 C= 9.50D-01
 Delete L=1 primitive    7 from    2 C=  0.00D+00.
 Delete L=1 primitive    5 from    2 C=  0.00D+00.
 Delete L=1 primitive    4 from    2 C=  0.00D+00.
 Delete L=1 primitive    3 from    2 C=  0.00D+00.
 Delete L=1 primitive    2 from    2 C=  0.00D+00.
 Delete L=1 primitive    1 from    2 C=  0.00D+00.
 Delete L=1 primitive    9 from    1 C=  0.00D+00.
 Delete L=1 primitive    8 from    1 C=  0.00D+00.
 Delete L=1 primitive    6 from    1 C=  0.00D+00.
 IA=     2 L=1 SC=0 ISt=    0 NBk=    0 NP=    0 IndPr=    9.
 LdAtmC:  AtmChg=     1.000000    11.000000
 AtZEff=     -1.0000000    -10.0400000
 NEqShl: 
              1            2            3            4
     1            1            1            1            1
     2            2            2            2            2
     3            3            3            3            3
     4            4            4            4            4
     5            5            5            5            5
 NEqBas: 
              1            2            3            4
     1            1            1            1            1
     2            2            2            2            2
     3            3            3            3            3
     4            4           -4           -4            4
     5            5           -5            5           -5
     6            6            6            6            6
     7            7            7            7            7
     8            8           -8           -8            8
     9            9           -9            9           -9
    10           10           10           10           10
    11           11           11           11           11
    12           12          -12          -12           12
    13           13          -13           13          -13
    14           14           14           14           14
 There are     8 symmetry adapted cartesian basis functions of A1  symmetry.
   1         1   1   1   1
   2         2   2   2   2
   3         3   3   3   3
   4         6   6   6   6
   5         7   7   7   7
   6        10  10  10  10
   7        11  11  11  11
   8        14  14  14  14
 There are     0 symmetry adapted cartesian basis functions of A2  symmetry.
 There are     3 symmetry adapted cartesian basis functions of B1  symmetry.
   9         4   4   4   4
  10         8   8   8   8
  11        12  12  12  12
 There are     3 symmetry adapted cartesian basis functions of B2  symmetry.
  12         5   5   5   5
  13         9   9   9   9
  14        13  13  13  13
 Order= 1 2 4 3
 Reordered character table:
              1            2            3            4            5
     1            1            1            1            1            1
     2            2            1            1           -1           -1
     3            4            1           -1           -1            1
     4            3            1           -1            1           -1
 NEqShl: 
              1            2            3            4
     1            1            1            1            1
     2            2            2            2            2
     3            3            3            3            3
     4            4            4            4            4
     5            5            5            5            5
 NEqBas: 
              1            2            3            4
     1            1            1            1            1
     2            2            2            2            2
     3            3            3            3            3
     4            4           -4           -4            4
     5            5           -5            5           -5
     6            6            6            6            6
     7            7            7            7            7
     8            8           -8           -8            8
     9            9           -9            9           -9
    10           10           10           10           10
    11           11           11           11           11
    12           12          -12          -12           12
    13           13          -13           13          -13
    14           14           14           14           14
 There are     8 symmetry adapted basis functions of A1  symmetry.
   1         1   1   1   1
   2         2   2   2   2
   3         3   3   3   3
   4         6   6   6   6
   5         7   7   7   7
   6        10  10  10  10
   7        11  11  11  11
   8        14  14  14  14
 There are     0 symmetry adapted basis functions of A2  symmetry.
 There are     3 symmetry adapted basis functions of B1  symmetry.
   9         4   4   4   4
  10         8   8   8   8
  11        12  12  12  12
 There are     3 symmetry adapted basis functions of B2  symmetry.
  12         5   5   5   5
  13         9   9   9   9
  14        13  13  13  13
 Order= 1 2 4 3
 Reordered character table:
              1            2            3            4            5
     1            1            1            1            1            1
     2            2            1            1           -1           -1
     3            4            1           -1           -1            1
     4            3            1           -1            1           -1
    14 basis functions,    49 primitive gaussians,    14 cartesian basis functions
     6 alpha electrons        6 beta electrons
       nuclear repulsion energy         8.3156418859 Hartrees.
 IS=     1 IAt=     1 ISR=     1 T=0 IP=      1 IndIP=      1 IndIPD=      0 C=  2.769344D-01  0.000000D+00                             NZ=T
 IS=     1 IAt=     1 ISR=     1 T=0 IP=      2 IndIP=      2 IndIPD=      1 C=  2.678389D-01  0.000000D+00                             NZ=T
 IS=     1 IAt=     1 ISR=     1 T=0 IP=      3 IndIP=      3 IndIPD=      2 C=  8.347367D-02  0.000000D+00                             NZ=T
 IS=     2 IAt=     2 ISR=     1 T=0 IP=      1 IndIP=      4 IndIPD=      0 C=  1.380276D+00  0.000000D+00                             NZ=T
 IS=     2 IAt=     2 ISR=     1 T=0 IP=      2 IndIP=      5 IndIPD=      1 C=  2.543440D+00  0.000000D+00                             NZ=T
 IS=     2 IAt=     2 ISR=     1 T=0 IP=      3 IndIP=      6 IndIPD=      2 C=  4.120502D+00  0.000000D+00                             NZ=T
 IS=     2 IAt=     2 ISR=     1 T=0 IP=      4 IndIP=      7 IndIPD=      3 C=  5.464941D+00  0.000000D+00                             NZ=T
 IS=     2 IAt=     2 ISR=     1 T=0 IP=      5 IndIP=      8 IndIPD=      4 C=  4.476262D+00  0.000000D+00                             NZ=T
 IS=     2 IAt=     2 ISR=     1 T=0 IP=      6 IndIP=      9 IndIPD=      5 C=  1.255723D+00  0.000000D+00                             NZ=T
 IS=     3 IAt=     2 ISR=     2 T=1 IP=      1 IndIP=     10 IndIPD=      0 C= -1.087231D-01  3.772614D+00                             NZ=T
 IS=     3 IAt=     2 ISR=     2 T=1 IP=      2 IndIP=     11 IndIPD=      1 C= -4.564910D-01  4.399752D+00                             NZ=T
 IS=     3 IAt=     2 ISR=     2 T=1 IP=      3 IndIP=     12 IndIPD=      2 C= -4.778739D-01  4.156503D+00                             NZ=T
 IS=     3 IAt=     2 ISR=     2 T=1 IP=      4 IndIP=     13 IndIPD=      3 C=  3.708017D-01  2.647056D+00                             NZ=T
 IS=     3 IAt=     2 ISR=     2 T=1 IP=      5 IndIP=     14 IndIPD=      4 C=  5.874076D-01  9.643141D-01                             NZ=T
 IS=     3 IAt=     2 ISR=     2 T=1 IP=      6 IndIP=     15 IndIPD=      5 C=  1.231036D-01  1.501277D-01                             NZ=T
 IS=     4 IAt=     2 ISR=     3 T=1 IP=      1 IndIP=     16 IndIPD=      0 C= -1.049885D-01 -1.372752D-02                             NZ=T
 IS=     4 IAt=     2 ISR=     3 T=1 IP=      2 IndIP=     17 IndIPD=      1 C= -1.469212D-02  6.158186D-02                             NZ=T
 IS=     4 IAt=     2 ISR=     3 T=1 IP=      3 IndIP=     18 IndIPD=      2 C=  1.153011D-01  2.888614D-03                             NZ=T
 IS=     5 IAt=     2 ISR=     4 T=1 IP=      1 IndIP=     19 IndIPD=      0 C=  4.608593D-02  1.484923D-02                             NZ=T
 IExCor=    0 DFT=F Ex=HF Corr=None ExCW=0 ScaHFX=  1.000000
 ScaDFX=  1.000000  1.000000  1.000000  1.000000 ScalE2=  1.000000  1.000000
 IRadAn=      5 IRanWt=     -1 IRanGd=            0 ICorTp=0 IEmpDi=  4
 NAtoms=    2 NActive=    2 NUniq=    2 SFac= 1.00D+00 NAtFMM=   60 NAOKFM=F Big=F
 Integral buffers will be    131072 words long.
 Raffenetti 1 integral format.
 Two-electron integral symmetry is turned on.
 Leave Link  301 at Mon Mar 28 14:19:52 2022, MaxMem=  9663676416 cpu:               2.2 elap:               0.1
 (Enter /nopt/nrel/apps/gaussian/g16C_1/g16/l302.exe)
 NPDir=0 NMtPBC=     1 NCelOv=     1 NCel=       1 NClECP=     1 NCelD=      1
         NCelK=      1 NCelE2=     1 NClLst=     1 CellRange=     0.0.
 One-electron integrals computed using PRISM.
 One-electron integral symmetry used in STVInt
 Entering OneElI...
 Calculate overlap and kinetic energy integrals
    NBasis =  14  MinDer = 0  MaxDer = 0
 Requested accuracy = 0.1000D-12
 Symmetry will be used
 PrmmSu-InSpLW:  IPartL=    0 NPrtUS=   36 NPrtUL=    1 DoSpLW=F IThBeg=    0 IThEnd=   35 NThAct=   36.
 PrSmSu:  IncTry=   512 NBBP=             15 NTPThr=   100 NPartT=   36 Incr=           1 LDynOK=F GPUOK=F.
 PrsmSu:  NPrtUS=  36 ThrOK=T IAlg=1 LenDen=           0 ISkipM=0 DoSpLW=F IThBeg=    0 IThEnd=   35.
 Prism:   IPart=     0 DynPar=F LinDyn=F Incr=           1.
 PRISM was handed   268432468 working-precision words and    15 shell-pairs
 PRISM was handed   268432468 working-precision words and    15 shell-pairs
 PRISM was handed   268432468 working-precision words and    15 shell-pairs
 PRISM was handed   268432468 working-precision words and    15 shell-pairs
 PRISM was handed   268432468 working-precision words and    15 shell-pairs
 PRISM was handed   268432468 working-precision words and    15 shell-pairs
 PRISM was handed   268432468 working-precision words and    15 shell-pairs
 PRISM was handed   268432468 working-precision words and    15 shell-pairs
 PRISM was handed   268432468 working-precision words and    15 shell-pairs
 PRISM was handed   268432468 working-precision words and    15 shell-pairs
 PRISM was handed   268432468 working-precision words and    15 shell-pairs
 IPart=  6 NShTot=           0 NBatch=           0 AvBLen=         0.0
 IPart= 24 NShTot=           0 NBatch=           0 AvBLen=         0.0
 IPart= 15 NShTot=           0 NBatch=           0 AvBLen=         0.0
 IPart= 21 NShTot=           0 NBatch=           0 AvBLen=         0.0
 IPart= 32 NShTot=           0 NBatch=           0 AvBLen=         0.0
 IPart= 33 NShTot=           0 NBatch=           0 AvBLen=         0.0
 IPart= 28 NShTot=           0 NBatch=           0 AvBLen=         0.0
 IPart= 35 NShTot=           0 NBatch=           0 AvBLen=         0.0
 IPart= 11 NShTot=           0 NBatch=           0 AvBLen=         0.0
 PRISM was handed   268432468 working-precision words and    15 shell-pairs
 PRISM was handed   268432468 working-precision words and    15 shell-pairs
 PRISM was handed   268432468 working-precision words and    15 shell-pairs
 IPart= 34 NShTot=           0 NBatch=           0 AvBLen=         0.0
 PRISM was handed   268432468 working-precision words and    15 shell-pairs
 PRISM was handed   268432468 working-precision words and    15 shell-pairs
 IPart=  1 NShTot=           1 NBatch=           1 AvBLen=         1.0
 PRISM was handed   268432468 working-precision words and    15 shell-pairs
 PRISM was handed   268432468 working-precision words and    15 shell-pairs
 PRISM was handed   268432468 working-precision words and    15 shell-pairs
 IPart= 20 NShTot=           0 NBatch=           0 AvBLen=         0.0
 PRISM was handed   268432468 working-precision words and    15 shell-pairs
 IPart= 26 NShTot=           0 NBatch=           0 AvBLen=         0.0
 IPart= 29 NShTot=           0 NBatch=           0 AvBLen=         0.0
 IPart= 25 NShTot=           0 NBatch=           0 AvBLen=         0.0
 PRISM was handed   268432468 working-precision words and    15 shell-pairs
 PRISM was handed   268432468 working-precision words and    15 shell-pairs
 IPart=  7 NShTot=           0 NBatch=           0 AvBLen=         0.0
 IPart=  2 NShTot=           0 NBatch=           0 AvBLen=         0.0
 IPart=  9 NShTot=           0 NBatch=           0 AvBLen=         0.0
 IPart= 12 NShTot=           0 NBatch=           0 AvBLen=         0.0
 PRISM was handed   268432468 working-precision words and    15 shell-pairs
 PRISM was handed   268432468 working-precision words and    15 shell-pairs
 PRISM was handed   268432468 working-precision words and    15 shell-pairs
 IPart= 17 NShTot=           0 NBatch=           0 AvBLen=         0.0
 IPart=  4 NShTot=           0 NBatch=           0 AvBLen=         0.0
 PRISM was handed   268432468 working-precision words and    15 shell-pairs
 PRISM was handed   268432468 working-precision words and    15 shell-pairs
 IPart=  5 NShTot=           0 NBatch=           0 AvBLen=         0.0
 IPart= 27 NShTot=           0 NBatch=           0 AvBLen=         0.0
 IPart=  3 NShTot=           0 NBatch=           0 AvBLen=         0.0
 PRISM was handed   268432468 working-precision words and    15 shell-pairs
 PRISM was handed   268432468 working-precision words and    15 shell-pairs
 IPart= 22 NShTot=           0 NBatch=           0 AvBLen=         0.0
 IPart= 18 NShTot=           0 NBatch=           0 AvBLen=         0.0
 PRISM was handed   268432468 working-precision words and    15 shell-pairs
 PRISM was handed   268432468 working-precision words and    15 shell-pairs
 PRISM was handed   268432468 working-precision words and    15 shell-pairs
 PRISM was handed   268432468 working-precision words and    15 shell-pairs
 PRISM was handed   268432468 working-precision words and    15 shell-pairs
 IPart=  8 NShTot=           0 NBatch=           0 AvBLen=         0.0
 IPart= 16 NShTot=           0 NBatch=           0 AvBLen=         0.0
 PRISM was handed   268432468 working-precision words and    15 shell-pairs
 IPart= 14 NShTot=           0 NBatch=           0 AvBLen=         0.0
 IPart= 30 NShTot=           0 NBatch=           0 AvBLen=         0.0
 PRISM was handed   268432468 working-precision words and    15 shell-pairs
 IPart= 13 NShTot=           0 NBatch=           0 AvBLen=         0.0
 IPart= 23 NShTot=           0 NBatch=           0 AvBLen=         0.0
 IPart= 31 NShTot=           0 NBatch=           0 AvBLen=         0.0
 IPart= 19 NShTot=           0 NBatch=           0 AvBLen=         0.0
 IPart=  0 NShTot=          14 NBatch=          14 AvBLen=         1.0
 IPart= 10 NShTot=           0 NBatch=           0 AvBLen=         0.0
 PrSmSu:  NxtVal=             37.
 *** Overlap *** 
                1             2             3             4             5 
      1  0.100000D+01
      2  0.622162D-01  0.100000D+01
      3  0.500313D+00  0.230835D+00  0.100000D+01
      4  0.000000D+00  0.000000D+00  0.000000D+00  0.100000D+01
      5  0.000000D+00  0.000000D+00  0.000000D+00  0.000000D+00  0.100000D+01
      6 -0.342918D+00  0.000000D+00  0.000000D+00  0.000000D+00  0.000000D+00
      7  0.478756D+00 -0.127644D-04  0.161245D+00  0.000000D+00  0.000000D+00
      8  0.000000D+00  0.000000D+00  0.000000D+00  0.186871D+00  0.000000D+00
      9  0.000000D+00  0.000000D+00  0.000000D+00  0.000000D+00  0.186871D+00
     10 -0.360088D+00  0.000000D+00  0.000000D+00  0.000000D+00  0.000000D+00
     11  0.375711D+00  0.189170D-01  0.190082D+00  0.000000D+00  0.000000D+00
     12  0.000000D+00  0.000000D+00  0.000000D+00  0.574619D-01  0.000000D+00
     13  0.000000D+00  0.000000D+00  0.000000D+00  0.000000D+00  0.574619D-01
     14 -0.144362D+00  0.000000D+00  0.000000D+00  0.000000D+00  0.000000D+00
                6             7             8             9            10 
      6  0.100000D+01
      7  0.000000D+00  0.100000D+01
      8  0.000000D+00  0.000000D+00  0.100000D+01
      9  0.000000D+00  0.000000D+00  0.000000D+00  0.100000D+01
     10  0.186871D+00  0.000000D+00  0.000000D+00  0.000000D+00  0.100000D+01
     11  0.000000D+00  0.876272D+00  0.000000D+00  0.000000D+00  0.000000D+00
     12  0.000000D+00  0.000000D+00  0.672925D+00  0.000000D+00  0.000000D+00
     13  0.000000D+00  0.000000D+00  0.000000D+00  0.672925D+00  0.000000D+00
     14  0.574619D-01  0.000000D+00  0.000000D+00  0.000000D+00  0.672925D+00
               11            12            13            14 
     11  0.100000D+01
     12  0.000000D+00  0.100000D+01
     13  0.000000D+00  0.000000D+00  0.100000D+01
     14  0.000000D+00  0.000000D+00  0.000000D+00  0.100000D+01
 *** Kinetic Energy *** 
                1             2             3             4             5 
      1  0.760032D+00
      2  0.181415D-01  0.565455D+02
      3  0.228392D+00 -0.266647D+01  0.196759D+01
      4  0.000000D+00  0.000000D+00  0.000000D+00  0.588848D+01
      5  0.000000D+00  0.000000D+00  0.000000D+00  0.000000D+00  0.588848D+01
      6 -0.393123D+00  0.000000D+00  0.000000D+00  0.000000D+00  0.000000D+00
      7  0.180852D-01 -0.516638D-01 -0.152029D+00  0.000000D+00  0.000000D+00
      8  0.000000D+00  0.000000D+00  0.000000D+00  0.478086D-01  0.000000D+00
      9  0.000000D+00  0.000000D+00  0.000000D+00  0.000000D+00  0.478086D-01
     10 -0.102509D+00  0.000000D+00  0.000000D+00  0.000000D+00  0.000000D+00
     11  0.256509D-01  0.147038D-02  0.142898D-01  0.000000D+00  0.000000D+00
     12  0.000000D+00  0.000000D+00  0.000000D+00  0.716353D-02  0.000000D+00
     13  0.000000D+00  0.000000D+00  0.000000D+00  0.000000D+00  0.716353D-02
     14 -0.166548D-01  0.000000D+00  0.000000D+00  0.000000D+00  0.000000D+00
                6             7             8             9            10 
      6  0.588848D+01
      7  0.000000D+00  0.116833D+00
      8  0.000000D+00  0.000000D+00  0.205703D+00
      9  0.000000D+00  0.000000D+00  0.000000D+00  0.205703D+00
     10  0.478086D-01  0.000000D+00  0.000000D+00  0.000000D+00  0.205703D+00
     11  0.000000D+00  0.474660D-01  0.000000D+00  0.000000D+00  0.000000D+00
     12  0.000000D+00  0.000000D+00  0.664432D-01  0.000000D+00  0.000000D+00
     13  0.000000D+00  0.000000D+00  0.000000D+00  0.664432D-01  0.000000D+00
     14  0.716353D-02  0.000000D+00  0.000000D+00  0.000000D+00  0.664432D-01
               11            12            13            14 
     11  0.389316D-01
     12  0.000000D+00  0.648860D-01
     13  0.000000D+00  0.000000D+00  0.648860D-01
     14  0.000000D+00  0.000000D+00  0.000000D+00  0.648860D-01
 Entering OneElI...
 Calculate potential energy integrals
    NBasis =  14  MinDer = 0  MaxDer = 0
 Requested accuracy = 0.1000D-12
 Symmetry will be used
 PrmmSu-InSpLW:  IPartL=    0 NPrtUS=   36 NPrtUL=    1 DoSpLW=F IThBeg=    0 IThEnd=   35 NThAct=   36.
 PrSmSu:  IncTry=   512 NBBP=             30 NTPThr=   100 NPartT=   36 Incr=           1 LDynOK=F GPUOK=F.
 PrsmSu:  NPrtUS=  36 ThrOK=T IAlg=1 LenDen=           0 ISkipM=0 DoSpLW=F IThBeg=    0 IThEnd=   35.
 Prism:   IPart=     0 DynPar=F LinDyn=F Incr=           1.
 PRISM was handed   268432558 working-precision words and    15 shell-pairs
 PRISM was handed   268432558 working-precision words and    15 shell-pairs
 PRISM was handed   268432558 working-precision words and    15 shell-pairs
 PRISM was handed   268432558 working-precision words and    15 shell-pairs
 PRISM was handed   268432558 working-precision words and    15 shell-pairs
 PRISM was handed   268432558 working-precision words and    15 shell-pairs
 PRISM was handed   268432558 working-precision words and    15 shell-pairs
 PRISM was handed   268432558 working-precision words and    15 shell-pairs
 PRISM was handed   268432558 working-precision words and    15 shell-pairs
 PRISM was handed   268432558 working-precision words and    15 shell-pairs
 PRISM was handed   268432558 working-precision words and    15 shell-pairs
 PRISM was handed   268432558 working-precision words and    15 shell-pairs
 PRISM was handed   268432558 working-precision words and    15 shell-pairs
 PRISM was handed   268432558 working-precision words and    15 shell-pairs
 PRISM was handed   268432558 working-precision words and    15 shell-pairs
 PRISM was handed   268432558 working-precision words and    15 shell-pairs
 PRISM was handed   268432558 working-precision words and    15 shell-pairs
 PRISM was handed   268432558 working-precision words and    15 shell-pairs
 PRISM was handed   268432558 working-precision words and    15 shell-pairs
 PRISM was handed   268432558 working-precision words and    15 shell-pairs
 PRISM was handed   268432558 working-precision words and    15 shell-pairs
 PRISM was handed   268432558 working-precision words and    15 shell-pairs
 PRISM was handed   268432558 working-precision words and    15 shell-pairs
 PRISM was handed   268432558 working-precision words and    15 shell-pairs
 PRISM was handed   268432558 working-precision words and    15 shell-pairs
 PRISM was handed   268432558 working-precision words and    15 shell-pairs
 PRISM was handed   268432558 working-precision words and    15 shell-pairs
 PRISM was handed   268432558 working-precision words and    15 shell-pairs
 PRISM was handed   268432558 working-precision words and    15 shell-pairs
 PRISM was handed   268432558 working-precision words and    15 shell-pairs
 PRISM was handed   268432558 working-precision words and    15 shell-pairs
 PRISM was handed   268432558 working-precision words and    15 shell-pairs
 PRISM was handed   268432558 working-precision words and    15 shell-pairs
 PRISM was handed   268432558 working-precision words and    15 shell-pairs
 PRISM was handed   268432558 working-precision words and    15 shell-pairs
 PRISM was handed   268432558 working-precision words and    15 shell-pairs
 IPart= 22 NShTot=           0 NBatch=           0 AvBLen=         0.0
 IPart= 26 NShTot=           0 NBatch=           0 AvBLen=         0.0
 IPart= 23 NShTot=           0 NBatch=           0 AvBLen=         0.0
 IPart= 11 NShTot=           0 NBatch=           0 AvBLen=         0.0
 IPart= 33 NShTot=           0 NBatch=           0 AvBLen=         0.0
 IPart= 15 NShTot=           0 NBatch=           0 AvBLen=         0.0
 IPart= 25 NShTot=           0 NBatch=           0 AvBLen=         0.0
 IPart= 13 NShTot=           0 NBatch=           0 AvBLen=         0.0
 IPart= 35 NShTot=           0 NBatch=           0 AvBLen=         0.0
 IPart= 29 NShTot=           0 NBatch=           0 AvBLen=         0.0
 IPart= 24 NShTot=           0 NBatch=           0 AvBLen=         0.0
 IPart= 34 NShTot=           0 NBatch=           0 AvBLen=         0.0
 IPart=  4 NShTot=           0 NBatch=           0 AvBLen=         0.0
 IPart= 17 NShTot=           0 NBatch=           0 AvBLen=         0.0
 IPart= 19 NShTot=           0 NBatch=           0 AvBLen=         0.0
 IPart= 16 NShTot=           0 NBatch=           0 AvBLen=         0.0
 IPart= 30 NShTot=           0 NBatch=           0 AvBLen=         0.0
 IPart= 14 NShTot=           0 NBatch=           0 AvBLen=         0.0
 IPart=  9 NShTot=           0 NBatch=           0 AvBLen=         0.0
 IPart= 10 NShTot=           0 NBatch=           0 AvBLen=         0.0
 IPart= 20 NShTot=           0 NBatch=           0 AvBLen=         0.0
 IPart= 31 NShTot=           0 NBatch=           0 AvBLen=         0.0
 IPart= 12 NShTot=           0 NBatch=           0 AvBLen=         0.0
 IPart= 18 NShTot=           0 NBatch=           0 AvBLen=         0.0
 IPart=  8 NShTot=           0 NBatch=           0 AvBLen=         0.0
 IPart=  2 NShTot=           0 NBatch=           0 AvBLen=         0.0
 IPart=  5 NShTot=           0 NBatch=           0 AvBLen=         0.0
 IPart=  7 NShTot=           0 NBatch=           0 AvBLen=         0.0
 IPart=  3 NShTot=           0 NBatch=           0 AvBLen=         0.0
 IPart= 27 NShTot=           0 NBatch=           0 AvBLen=         0.0
 IPart= 28 NShTot=           0 NBatch=           0 AvBLen=         0.0
 IPart= 32 NShTot=           0 NBatch=           0 AvBLen=         0.0
 IPart=  6 NShTot=           0 NBatch=           0 AvBLen=         0.0
 IPart= 21 NShTot=           0 NBatch=           0 AvBLen=         0.0
 IPart=  1 NShTot=           2 NBatch=           1 AvBLen=         2.0
 IPart=  0 NShTot=          28 NBatch=          14 AvBLen=         2.0
 PrSmSu:  NxtVal=             37.
 ***** Potential Energy ***** 
                1             2             3             4             5 
      1  0.871837D+01
      2  0.369803D+01  0.117717D+03
      3  0.708704D+01  0.107812D+02  0.185738D+02
      4  0.000000D+00  0.000000D+00  0.000000D+00  0.193453D+02
      5  0.000000D+00  0.000000D+00  0.000000D+00  0.000000D+00  0.193453D+02
      6 -0.406634D+01 -0.262779D-01 -0.234735D+00  0.000000D+00  0.000000D+00
      7  0.277527D+01 -0.498413D-01  0.138757D+01  0.000000D+00  0.000000D+00
      8  0.000000D+00  0.000000D+00  0.000000D+00  0.161352D+01  0.000000D+00
      9  0.000000D+00  0.000000D+00  0.000000D+00  0.000000D+00  0.161352D+01
     10 -0.207092D+01 -0.401973D-03 -0.391289D-01  0.000000D+00  0.000000D+00
     11  0.247967D+01  0.112010D+01  0.237594D+01  0.000000D+00  0.000000D+00
     12  0.000000D+00  0.000000D+00  0.000000D+00  0.479273D+00  0.000000D+00
     13  0.000000D+00  0.000000D+00  0.000000D+00  0.000000D+00  0.479273D+00
     14 -0.729339D+00 -0.116482D-03 -0.114096D-01  0.000000D+00  0.000000D+00
                6             7             8             9            10 
      6  0.195027D+02
      7 -0.518244D-01  0.392530D+01
      8  0.000000D+00  0.000000D+00  0.361056D+01
      9  0.000000D+00  0.000000D+00  0.000000D+00  0.361056D+01
     10  0.164972D+01 -0.838411D-01  0.000000D+00  0.000000D+00  0.365190D+01
     11 -0.556706D-01  0.316555D+01  0.000000D+00  0.000000D+00 -0.651973D-01
     12  0.000000D+00  0.000000D+00  0.198997D+01  0.000000D+00  0.000000D+00
     13  0.000000D+00  0.000000D+00  0.000000D+00  0.198997D+01  0.000000D+00
     14  0.489842D+00 -0.367424D-01  0.000000D+00  0.000000D+00  0.200632D+01
               11            12            13            14 
     11  0.307744D+01
     12  0.000000D+00  0.205362D+01
     13  0.000000D+00  0.000000D+00  0.205362D+01
     14 -0.345972D-01  0.000000D+00  0.000000D+00  0.206238D+01
 ****** Core Hamiltonian ****** 
                1             2             3             4             5 
      1 -0.795833D+01
      2 -0.367989D+01 -0.611712D+02
      3 -0.685865D+01 -0.134477D+02 -0.166063D+02
      4  0.000000D+00  0.000000D+00  0.000000D+00 -0.134568D+02
      5  0.000000D+00  0.000000D+00  0.000000D+00  0.000000D+00 -0.134568D+02
      6  0.367322D+01  0.262779D-01  0.234735D+00  0.000000D+00  0.000000D+00
      7 -0.275719D+01 -0.182253D-02 -0.153960D+01  0.000000D+00  0.000000D+00
      8  0.000000D+00  0.000000D+00  0.000000D+00 -0.156571D+01  0.000000D+00
      9  0.000000D+00  0.000000D+00  0.000000D+00  0.000000D+00 -0.156571D+01
     10  0.196841D+01  0.401973D-03  0.391289D-01  0.000000D+00  0.000000D+00
     11 -0.245402D+01 -0.111863D+01 -0.236165D+01  0.000000D+00  0.000000D+00
     12  0.000000D+00  0.000000D+00  0.000000D+00 -0.472109D+00  0.000000D+00
     13  0.000000D+00  0.000000D+00  0.000000D+00  0.000000D+00 -0.472109D+00
     14  0.712685D+00  0.116482D-03  0.114096D-01  0.000000D+00  0.000000D+00
                6             7             8             9            10 
      6 -0.136142D+02
      7  0.518244D-01 -0.380847D+01
      8  0.000000D+00  0.000000D+00 -0.340486D+01
      9  0.000000D+00  0.000000D+00  0.000000D+00 -0.340486D+01
     10 -0.160192D+01  0.838411D-01  0.000000D+00  0.000000D+00 -0.344620D+01
     11  0.556706D-01 -0.311808D+01  0.000000D+00  0.000000D+00  0.651973D-01
     12  0.000000D+00  0.000000D+00 -0.192353D+01  0.000000D+00  0.000000D+00
     13  0.000000D+00  0.000000D+00  0.000000D+00 -0.192353D+01  0.000000D+00
     14 -0.482679D+00  0.367424D-01  0.000000D+00  0.000000D+00 -0.193988D+01
               11            12            13            14 
     11 -0.303850D+01
     12  0.000000D+00 -0.198873D+01
     13  0.000000D+00  0.000000D+00 -0.198873D+01
     14  0.345972D-01  0.000000D+00  0.000000D+00 -0.199749D+01
 SVDSVc IOpt=   1 NormSV=T IR=1
 SVDSVc V= 2.44D+00 1.77D+00 1.23D+00 1.04D+00 8.01D-01 3.88D-01 2.33D-01 9.57D-02
 SVDSVc IOpt=   1 NormSV=T IR=3
 SVDSVc V= 1.72D+00 9.71D-01 3.14D-01
 SVDSVc IOpt=   1 NormSV=T IR=4
 SVDSVc V= 1.72D+00 9.71D-01 3.14D-01
 TstOVc:  Largest diagonal error= 1.55D-15 IB=1 I=    7.
 TstOVc:  Largest same sym error= 5.89D-16 IB=1 I=    7 J=    1.
 TstOVc:  Largest diff sym error= 0.00D+00 IB=0 JB=0 I=    0 J=    0.
 Orthogonalized basis functions: 
                 1             2             3             4             5 
      1   0.337831D+00 -0.833404D-01  0.183796D+00 -0.226799D+00 -0.243991D+00
      2   0.515744D-01  0.165766D-01  0.542866D+00  0.380412D+00  0.763106D+00
      3   0.204339D+00  0.581779D-01  0.521232D+00  0.122039D+00 -0.609024D+00
      4   0.000000D+00  0.000000D+00  0.000000D+00  0.000000D+00  0.000000D+00
      5   0.000000D+00  0.000000D+00  0.000000D+00  0.000000D+00  0.000000D+00
      6  -0.104168D+00  0.183548D+00 -0.137318D+00  0.771951D+00 -0.403453D+00
      7   0.327836D+00  0.231628D+00 -0.275385D+00  0.675961D-01  0.173467D+00
      8   0.000000D+00  0.000000D+00  0.000000D+00  0.000000D+00  0.000000D+00
      9   0.000000D+00  0.000000D+00  0.000000D+00  0.000000D+00  0.000000D+00
     10  -0.148489D+00  0.467410D+00  0.111931D+00 -0.136145D+00 -0.136037D-01
     11   0.315761D+00  0.238059D+00 -0.269646D+00  0.104714D+00  0.205988D+00
     12   0.000000D+00  0.000000D+00  0.000000D+00  0.000000D+00  0.000000D+00
     13   0.000000D+00  0.000000D+00  0.000000D+00  0.000000D+00  0.000000D+00
     14  -0.107576D+00  0.438465D+00  0.175292D+00 -0.344264D+00 -0.144992D-01
                 6             7             8             9            10 
      1   0.765865D+00  0.102725D+01 -0.984958D+00  0.000000D+00  0.000000D+00
      2   0.154379D+00  0.112854D+00 -0.325121D-01  0.000000D+00  0.000000D+00
      3  -0.589008D+00 -0.589766D+00  0.548927D+00  0.000000D+00  0.000000D+00
      4   0.000000D+00  0.000000D+00  0.000000D+00  0.180764D+00  0.976429D+00
      5   0.000000D+00  0.000000D+00  0.000000D+00  0.000000D+00  0.000000D+00
      6   0.552955D+00  0.236661D+00 -0.282454D+00  0.000000D+00  0.000000D+00
      7   0.247438D-01  0.346291D+00  0.226793D+01  0.000000D+00  0.000000D+00
      8   0.000000D+00  0.000000D+00  0.000000D+00  0.532957D+00 -0.716361D-01
      9   0.000000D+00  0.000000D+00  0.000000D+00  0.000000D+00  0.000000D+00
     10  -0.673147D+00  0.117792D+01 -0.515897D+00  0.000000D+00  0.000000D+00
     11  -0.327334D+00 -0.755716D+00 -0.190322D+01  0.000000D+00  0.000000D+00
     12   0.000000D+00  0.000000D+00  0.000000D+00  0.516103D+00 -0.268016D+00
     13   0.000000D+00  0.000000D+00  0.000000D+00  0.000000D+00  0.000000D+00
     14   0.868646D+00 -0.858141D+00  0.244622D+00  0.000000D+00  0.000000D+00
                11            12            13            14 
      1   0.000000D+00  0.000000D+00  0.000000D+00  0.000000D+00
      2   0.000000D+00  0.000000D+00  0.000000D+00  0.000000D+00
      3   0.000000D+00  0.000000D+00  0.000000D+00  0.000000D+00
      4  -0.243572D+00  0.000000D+00  0.000000D+00  0.000000D+00
      5   0.000000D+00  0.180764D+00  0.976429D+00 -0.243572D+00
      6   0.000000D+00  0.000000D+00  0.000000D+00  0.000000D+00
      7   0.000000D+00  0.000000D+00  0.000000D+00  0.000000D+00
      8   0.127086D+01  0.000000D+00  0.000000D+00  0.000000D+00
      9   0.000000D+00  0.532957D+00 -0.716361D-01  0.127086D+01
     10   0.000000D+00  0.000000D+00  0.000000D+00  0.000000D+00
     11   0.000000D+00  0.000000D+00  0.000000D+00  0.000000D+00
     12  -0.122706D+01  0.000000D+00  0.000000D+00  0.000000D+00
     13   0.000000D+00  0.516103D+00 -0.268016D+00 -0.122706D+01
     14   0.000000D+00  0.000000D+00  0.000000D+00  0.000000D+00
 NBasis=    14 RedAO= T EigKep=  9.57D-02  NBF=     8     0     3     3
 NBsUse=    14 1.00D-06 EigRej= -1.00D+00 NBFU=     8     0     3     3
 Leave Link  302 at Mon Mar 28 14:19:52 2022, MaxMem=  9663676416 cpu:               3.3 elap:               0.1
 (Enter /nopt/nrel/apps/gaussian/g16C_1/g16/l303.exe)
 DipDrv will not compute anything.
 Fermi contact integrals: 
                 1             2 
      1   0.628247D+00  0.152706D+00
      2   0.000000D+00  0.192411D+02
      3   0.107179D+00  0.382249D-01
      4   0.000000D+00  0.000000D+00
      5   0.000000D+00  0.000000D+00
      6  -0.205274D+00  0.000000D+00
      7   0.460096D-01 -0.437955D-02
      8   0.000000D+00  0.000000D+00
      9   0.000000D+00  0.000000D+00
     10  -0.660856D-01  0.000000D+00
     11   0.440397D-01  0.460859D-01
     12   0.000000D+00  0.000000D+00
     13   0.000000D+00  0.000000D+00
     14  -0.187706D-01  0.000000D+00
 Leave Link  303 at Mon Mar 28 14:19:52 2022, MaxMem=  9663676416 cpu:               1.1 elap:               0.1
 (Enter /nopt/nrel/apps/gaussian/g16C_1/g16/l401.exe)
 ExpMin= 2.60D-02 ExpMax= 9.99D+03 ExpMxC= 1.50D+03 IAcc=3 IRadAn=         5 AccDes= 0.00D+00
 Harris functional with IExCor=  205 and IRadAn=       5 diagonalized for initial guess.
 HarFok:  IExCor=  205 AccDes= 0.00D+00 IRadAn=         5 IDoV= 1 UseB2=F ITyADJ=14
 ICtDFT=  3500011 ScaDFX=  1.000000  1.000000  1.000000  1.000000
 FoFCou: FMM=F IPFlag=           0 FMFlag=      100000 FMFlg1=           0
         NFxFlg=           0 DoJE=T BraDBF=F KetDBF=T FulRan=T
         wScrn=  0.000000 ICntrl=       500 IOpCl=  0 I1Cent=   200000004 NGrid=           0
         NMat0=    1 NMatS0=      1 NMatT0=    0 NMatD0=    1 NMtDS0=    0 NMtDT0=    0
 Petite list used in FoFCou.
 Harris En= -161.570440271429    
 JPrj=0 DoOrth=F DoCkMO=F.
 Initial guess orbital symmetries:
       Occupied  (SG) (SG) (SG) (PI) (PI) (SG)
       Virtual   (SG) (PI) (PI) (SG) (SG) (PI) (PI) (SG)
 The electronic state of the initial guess is 1-SG.
 Leave Link  401 at Mon Mar 28 14:19:52 2022, MaxMem=  9663676416 cpu:               3.4 elap:               0.1
 (Enter /nopt/nrel/apps/gaussian/g16C_1/g16/l502.exe)
 Keep R1 ints in memory in symmetry-blocked form, NReq=7223415.
 FoFCou: FMM=F IPFlag=           0 FMFlag=           0 FMFlg1=           0
         NFxFlg=           0 DoJE=F BraDBF=F KetDBF=F FulRan=T
         wScrn=  0.000000 ICntrl=       600 IOpCl=  0 I1Cent=           0 NGrid=           0
         NMat0=    1 NMatS0=    105 NMatT0=    0 NMatD0=    1 NMtDS0=    0 NMtDT0=    0
 Petite list used in FoFCou.
 Closed shell SCF:
 Using DIIS extrapolation, IDIIS=  1040.
 NGot=  9663676416 LenX=  9663671753 LenY=  9663670871
 Requested convergence on RMS density matrix=1.00D-08 within 128 cycles.
 Requested convergence on MAX density matrix=1.00D-06.
 Requested convergence on             energy=1.00D-06.
 No special actions if energy rises.

 Cycle   1  Pass 1  IDiag  1:
 E= -161.666423521991    
 DIIS: error= 3.21D-02 at cycle   1 NSaved=   1.
 NSaved= 1 IEnMin= 1 EnMin= -161.666423521991     IErMin= 1 ErrMin= 3.21D-02
 ErrMax= 3.21D-02  0.00D+00 EMaxC= 1.00D-01 BMatC= 2.53D-02 BMatP= 2.53D-02
 IDIUse=3 WtCom= 6.79D-01 WtEn= 3.21D-01
 Coeff-Com:  0.100D+01
 Coeff-En:   0.100D+01
 Coeff:      0.100D+01
 Gap=     0.296 Goal=   None    Shift=    0.000
 GapD=    0.296 DampG=1.000 DampE=0.500 DampFc=0.5000 IDamp=-1.
 Damping current iteration by 5.00D-01
 RMSDP=1.31D-02 MaxDP=5.31D-02              OVMax= 1.54D-02

 Cycle   2  Pass 1  IDiag  1:
 E= -161.675361019156     Delta-E=       -0.008937497165 Rises=F Damp=T
 DIIS: error= 1.60D-02 at cycle   2 NSaved=   2.
 NSaved= 2 IEnMin= 2 EnMin= -161.675361019156     IErMin= 2 ErrMin= 1.60D-02
 ErrMax= 1.60D-02  0.00D+00 EMaxC= 1.00D-01 BMatC= 6.48D-03 BMatP= 2.53D-02
 IDIUse=3 WtCom= 8.40D-01 WtEn= 1.60D-01
 Coeff-Com: -0.102D+01 0.202D+01
 Coeff-En:   0.000D+00 0.100D+01
 Coeff:     -0.856D+00 0.186D+01
 Gap=     0.286 Goal=   None    Shift=    0.000
 RMSDP=7.54D-03 MaxDP=3.29D-02 DE=-8.94D-03 OVMax= 2.25D-04

 Cycle   3  Pass 1  IDiag  1:
 E= -161.684484309780     Delta-E=       -0.009123290624 Rises=F Damp=F
 DIIS: error= 5.89D-04 at cycle   3 NSaved=   3.
 NSaved= 3 IEnMin= 3 EnMin= -161.684484309780     IErMin= 3 ErrMin= 5.89D-04
 ErrMax= 5.89D-04  0.00D+00 EMaxC= 1.00D-01 BMatC= 2.78D-06 BMatP= 6.48D-03
 IDIUse=3 WtCom= 9.94D-01 WtEn= 5.89D-03
 Coeff-Com:  0.312D+00-0.626D+00 0.131D+01
 Coeff-En:   0.000D+00 0.000D+00 0.100D+01
 Coeff:      0.310D+00-0.623D+00 0.131D+01
 Gap=     0.286 Goal=   None    Shift=    0.000
 RMSDP=9.92D-04 MaxDP=8.67D-03 DE=-9.12D-03 OVMax= 9.46D-06

 Cycle   4  Pass 1  IDiag  1:
 E= -161.684495591310     Delta-E=       -0.000011281530 Rises=F Damp=F
 DIIS: error= 6.82D-05 at cycle   4 NSaved=   4.
 NSaved= 4 IEnMin= 4 EnMin= -161.684495591310     IErMin= 4 ErrMin= 6.82D-05
 ErrMax= 6.82D-05  0.00D+00 EMaxC= 1.00D-01 BMatC= 4.84D-08 BMatP= 2.78D-06
 IDIUse=1 WtCom= 1.00D+00 WtEn= 0.00D+00
 Coeff-Com: -0.716D-01 0.145D+00-0.404D+00 0.133D+01
 Coeff:     -0.716D-01 0.145D+00-0.404D+00 0.133D+01
 Gap=     0.286 Goal=   None    Shift=    0.000
 RMSDP=2.06D-04 MaxDP=1.74D-03 DE=-1.13D-05 OVMax= 1.66D-05

 Cycle   5  Pass 1  IDiag  1:
 E= -161.684495962878     Delta-E=       -0.000000371568 Rises=F Damp=F
 DIIS: error= 4.68D-06 at cycle   5 NSaved=   5.
 NSaved= 5 IEnMin= 5 EnMin= -161.684495962878     IErMin= 5 ErrMin= 4.68D-06
 ErrMax= 4.68D-06  0.00D+00 EMaxC= 1.00D-01 BMatC= 4.01D-10 BMatP= 4.84D-08
 IDIUse=1 WtCom= 1.00D+00 WtEn= 0.00D+00
 Coeff-Com:  0.551D-02-0.111D-01 0.375D-01-0.185D+00 0.115D+01
 Coeff:      0.551D-02-0.111D-01 0.375D-01-0.185D+00 0.115D+01
 Gap=     0.286 Goal=   None    Shift=    0.000
 RMSDP=1.11D-05 MaxDP=9.37D-05 DE=-3.72D-07 OVMax= 4.67D-07

 Cycle   6  Pass 1  IDiag  1:
 E= -161.684495966198     Delta-E=       -0.000000003320 Rises=F Damp=F
 DIIS: error= 1.66D-06 at cycle   6 NSaved=   6.
 NSaved= 6 IEnMin= 6 EnMin= -161.684495966198     IErMin= 6 ErrMin= 1.66D-06
 ErrMax= 1.66D-06  0.00D+00 EMaxC= 1.00D-01 BMatC= 3.47D-11 BMatP= 4.01D-10
 IDIUse=1 WtCom= 1.00D+00 WtEn= 0.00D+00
 Coeff-Com: -0.345D-03 0.700D-03-0.218D-02 0.282D-01-0.481D+00 0.145D+01
 Coeff:     -0.345D-03 0.700D-03-0.218D-02 0.282D-01-0.481D+00 0.145D+01
 Gap=     0.286 Goal=   None    Shift=    0.000
 RMSDP=2.00D-06 MaxDP=1.22D-05 DE=-3.32D-09 OVMax= 2.52D-07

 Cycle   7  Pass 1  IDiag  1:
 E= -161.684495966475     Delta-E=       -0.000000000277 Rises=F Damp=F
 DIIS: error= 1.39D-07 at cycle   7 NSaved=   7.
 NSaved= 7 IEnMin= 7 EnMin= -161.684495966475     IErMin= 7 ErrMin= 1.39D-07
 ErrMax= 1.39D-07  0.00D+00 EMaxC= 1.00D-01 BMatC= 2.75D-13 BMatP= 3.47D-11
 IDIUse=1 WtCom= 1.00D+00 WtEn= 0.00D+00
 Coeff-Com:  0.533D-04-0.108D-03 0.235D-03-0.327D-02 0.611D-01-0.249D+00
 Coeff-Com:  0.119D+01
 Coeff:      0.533D-04-0.108D-03 0.235D-03-0.327D-02 0.611D-01-0.249D+00
 Coeff:      0.119D+01
 Gap=     0.286 Goal=   None    Shift=    0.000
 RMSDP=1.83D-07 MaxDP=1.24D-06 DE=-2.77D-10 OVMax= 2.50D-08

 Cycle   8  Pass 1  IDiag  1:
 E= -161.684495966477     Delta-E=       -0.000000000002 Rises=F Damp=F
 DIIS: error= 1.06D-08 at cycle   8 NSaved=   8.
 NSaved= 8 IEnMin= 8 EnMin= -161.684495966477     IErMin= 8 ErrMin= 1.06D-08
 ErrMax= 1.06D-08  0.00D+00 EMaxC= 1.00D-01 BMatC= 1.36D-15 BMatP= 2.75D-13
 IDIUse=1 WtCom= 1.00D+00 WtEn= 0.00D+00
 Coeff-Com: -0.660D-05 0.134D-04-0.242D-04 0.580D-03-0.124D-01 0.531D-01
 Coeff-Com: -0.268D+00 0.123D+01
 Coeff:     -0.660D-05 0.134D-04-0.242D-04 0.580D-03-0.124D-01 0.531D-01
 Coeff:     -0.268D+00 0.123D+01
 Gap=     0.286 Goal=   None    Shift=    0.000
 RMSDP=2.05D-08 MaxDP=1.30D-07 DE=-1.68D-12 OVMax= 2.32D-09

 Cycle   9  Pass 1  IDiag  1:
 E= -161.684495966477     Delta-E=        0.000000000000 Rises=F Damp=F
 DIIS: error= 1.83D-09 at cycle   9 NSaved=   9.
 NSaved= 9 IEnMin= 8 EnMin= -161.684495966477     IErMin= 9 ErrMin= 1.83D-09
 ErrMax= 1.83D-09  0.00D+00 EMaxC= 1.00D-01 BMatC= 4.91D-17 BMatP= 1.36D-15
 IDIUse=1 WtCom= 1.00D+00 WtEn= 0.00D+00
 Coeff-Com: -0.237D-06 0.478D-06-0.292D-05-0.968D-05 0.636D-03-0.375D-02
 Coeff-Com:  0.220D-01-0.289D+00 0.127D+01
 Coeff:     -0.237D-06 0.478D-06-0.292D-05-0.968D-05 0.636D-03-0.375D-02
 Coeff:      0.220D-01-0.289D+00 0.127D+01
 Gap=     0.286 Goal=   None    Shift=    0.000
 RMSDP=5.42D-09 MaxDP=3.65D-08 DE= 8.53D-14 OVMax= 8.22D-11

 SCF Done:  E(RHF) =  -161.684495966     A.U. after    9 cycles
            NFock=  9  Conv=0.54D-08     -V/T= 1.9957
 KE= 1.623879296200D+02 PE=-4.031793439439D+02 EE= 7.079127647156D+01
 Leave Link  502 at Mon Mar 28 14:19:53 2022, MaxMem=  9663676416 cpu:               3.7 elap:               0.1
 (Enter /nopt/nrel/apps/gaussian/g16C_1/g16/l801.exe)
 Windowed orbitals will be sorted by symmetry type.
 ExpMin= 2.60D-02 ExpMax= 9.99D+03 ExpMxC= 1.50D+03 IAcc=3 IRadAn=         5 AccDes= 0.00D+00
 HarFok:  IExCor=  205 AccDes= 0.00D+00 IRadAn=         5 IDoV=-2 UseB2=F ITyADJ=14
 ICtDFT= 12500011 ScaDFX=  1.000000  1.000000  1.000000  1.000000
 Largest valence mixing into a core orbital is  7.06D-03
 Largest core mixing into a valence orbital is  8.87D-04
 Range of M.O.s used for correlation:     6    14
 NBasis=    14 NAE=     6 NBE=     6 NFC=     5 NFV=     0
 NROrb=      9 NOA=     1 NOB=     1 NVA=     8 NVB=     8
 Leave Link  801 at Mon Mar 28 14:19:53 2022, MaxMem=  9663676416 cpu:               1.9 elap:               0.1
 (Enter /nopt/nrel/apps/gaussian/g16C_1/g16/l804.exe)
 Closed-shell transformation, MDV=  9663676416 ITran=4 ISComp=2.
 Unit  1 TFree=          8118 TCopy=        116807.
 Semi-Direct transformation.
 ModeAB=           2 MOrb=             1 LenV=    9663552776
 LASXX=           88 LTotXX=          88 LenRXX=          88
 LTotAB=         141 MaxLAS=         945 LenRXY=         945
 NonZer=        1107 LenScr=      785920 LnRSAI=           0
 LnScr1=           0 LExtra=      220231 Total=      1007184
 MaxDsk= 34359738368 SrtSym=           F ITran=            4
 DoSDTr:  NPSUse= 36
 JobTyp=0 Pass  1:  I=   1 to   1.
 (rs|ai) integrals will be sorted in core.
 Complete sort for first half transformation.
 First half transformation complete.
 Complete sort for second half transformation.
 Second half transformation complete.
 Spin components of T(2) and E(2):
     alpha-alpha T2 =       0.0000000000D+00 E2=      0.0000000000D+00
     alpha-beta  T2 =       0.1492857259D-01 E2=     -0.1342180189D-01
     beta-beta   T2 =       0.0000000000D+00 E2=      0.0000000000D+00
 ANorm=    0.1007436635D+01
 E2 =    -0.1342180189D-01 EUMP2 =    -0.16169791776836D+03
 Leave Link  804 at Mon Mar 28 14:19:53 2022, MaxMem=  9663676416 cpu:               1.7 elap:               0.1
 (Enter /nopt/nrel/apps/gaussian/g16C_1/g16/l913.exe)
 CIDS:  MDV=  9663676416.
 Frozen-core window:  NFC=   5 NFV=   0.
 IFCWin=0 IBDFC=1 NFBD=     0     0 NFCmp=     0     0 NFFFC=     0     0
 Using DD3R+UMP44R for 1st iteration.
 Using DD4RQ for 2nd and later iterations.
 Keep R2 and R3 ints in memory in symmetry-blocked form, NReq=7225809.
 FoFCou: FMM=F IPFlag=           0 FMFlag=           0 FMFlg1=           0
         NFxFlg=           0 DoJE=F BraDBF=F KetDBF=F FulRan=T
         wScrn=  0.000000 ICntrl=       600 IOpCl=  0 I1Cent=           0 NGrid=           0
         NMat0=    1 NMatS0=    105 NMatT0=    0 NMatD0=    1 NMtDS0=    0 NMtDT0=    0
 Petite list used in FoFCou.
 CIDS: In Core Option IDoMem=           1.
 Coupled Cluster theory with single and double substitutions
 ===========================================================
 Iterations= 200 Convergence= 0.100D-06
 Produce multiple copies of IABC intergrals
 Iteration Nr.   1
 **********************
 DD1Dir will call FoFMem   1 times, MxPair=         2
 NAB=     1 NAA=     0 NBB=     0.
 MP4(R+Q)=  0.20036834D-03
 Maximum subspace dimension=  5
 A-vector RMS=  1.5360066D-02 Max=  1.2072390D-02 conv= 1.00D-05.
 RLE energy=       -0.0198316135
 E3=       -0.45447744D-02        EUMP3=      -0.16170246254D+03
 E4(DQ)=   -0.14724460D-02        UMP4(DQ)=   -0.16170393499D+03
 E4(SDQ)=  -0.16300412D-02        UMP4(SDQ)=  -0.16170409258D+03
 VARIATIONAL ENERGIES WITH THE FIRST-ORDER WAVEFUNCTION:
 DE(Corr)= -0.17759891E-01 E(Corr)=     -161.70225586    
 NORM(A)=   0.10173570D+01
 Iteration Nr.   2
 **********************
 DD1Dir will call FoFMem   1 times, MxPair=         2
 NAB=     1 NAA=     0 NBB=     0.
 A-vector RMS=  8.0014913D-03 Max=  8.7692735D-03 conv= 1.00D-05.
 RLE energy=       -0.0205185237
 DE(Corr)= -0.20107491E-01 E(CORR)=     -161.70460346     Delta=-2.35D-03
 NORM(A)=   0.10202342D+01
 Iteration Nr.   3
 **********************
 DD1Dir will call FoFMem   1 times, MxPair=         2
 NAB=     1 NAA=     0 NBB=     0.
 A-vector RMS=  2.2557060D-03 Max=  2.4668963D-03 conv= 1.00D-05.
 RLE energy=       -0.0208016522
 DE(Corr)= -0.20593473E-01 E(CORR)=     -161.70508944     Delta=-4.86D-04
 NORM(A)=   0.10216232D+01
 Iteration Nr.   4
 **********************
 DD1Dir will call FoFMem   1 times, MxPair=         2
 NAB=     1 NAA=     0 NBB=     0.
 A-vector RMS=  3.5841634D-04 Max=  3.8347263D-04 conv= 1.00D-05.
 RLE energy=       -0.0207266523
 DE(Corr)= -0.20757623E-01 E(CORR)=     -161.70525359     Delta=-1.64D-04
 NORM(A)=   0.10215570D+01
 Iteration Nr.   5
 **********************
 DD1Dir will call FoFMem   1 times, MxPair=         2
 NAB=     1 NAA=     0 NBB=     0.
 A-vector RMS=  1.5267225D-04 Max=  1.4564583D-04 conv= 1.00D-05.
 RLE energy=       -0.0207489223
 DE(Corr)= -0.20735949E-01 E(CORR)=     -161.70523191     Delta= 2.17D-05
 NORM(A)=   0.10216257D+01
 Iteration Nr.   6
 **********************
 DD1Dir will call FoFMem   1 times, MxPair=         2
 NAB=     1 NAA=     0 NBB=     0.
 A-vector RMS=  2.2779791D-05 Max=  2.5708692D-05 conv= 1.00D-05.
 RLE energy=       -0.0207412237
 DE(Corr)= -0.20744833E-01 E(CORR)=     -161.70524080     Delta=-8.88D-06
 NORM(A)=   0.10216053D+01
 Iteration Nr.   7
 **********************
 DD1Dir will call FoFMem   1 times, MxPair=         2
 NAB=     1 NAA=     0 NBB=     0.
 A-vector RMS=  5.5173465D-06 Max=  3.8629702D-06 conv= 1.00D-05.
 RLE energy=       -0.0207421121
 DE(Corr)= -0.20741713E-01 E(CORR)=     -161.70523768     Delta= 3.12D-06
 NORM(A)=   0.10216085D+01
 Iteration Nr.   8
 **********************
 DD1Dir will call FoFMem   1 times, MxPair=         2
 NAB=     1 NAA=     0 NBB=     0.
 A-vector RMS=  1.1002750D-06 Max=  1.0634978D-06 conv= 1.00D-05.
 RLE energy=       -0.0207421411
 DE(Corr)= -0.20742121E-01 E(CORR)=     -161.70523809     Delta=-4.08D-07
 NORM(A)=   0.10216087D+01
 Iteration Nr.   9
 **********************
 DD1Dir will call FoFMem   1 times, MxPair=         2
 NAB=     1 NAA=     0 NBB=     0.
 A-vector RMS=  3.5602893D-07 Max=  2.9912125D-07 conv= 1.00D-05.
 RLE energy=       -0.0207421336
 DE(Corr)= -0.20742140E-01 E(CORR)=     -161.70523811     Delta=-1.94D-08
 NORM(A)=   0.10216086D+01
 CI/CC converged in    9 iterations to DelEn=-1.94D-08 Conv= 1.00D-07 ErrA1= 3.56D-07 Conv= 1.00D-05
 Wavefunction amplitudes converged. E(Corr)=     -161.70523811    
 Largest amplitude= 6.59D-02
 Discarding MO integrals.
 Leave Link  913 at Mon Mar 28 14:19:53 2022, MaxMem=  9663676416 cpu:               3.6 elap:               0.1
 (Enter /nopt/nrel/apps/gaussian/g16C_1/g16/l601.exe)
 Copying SCF densities to generalized density rwf, IOpCl= 0 IROHF=0.

 **********************************************************************

            Population analysis using the SCF Density.

 **********************************************************************

 Orbital symmetries:
       Occupied  (SG) (SG) (SG) (PI) (PI) (SG)
       Virtual   (SG) (PI) (PI) (SG) (SG) (PI) (PI) (SG)
 The electronic state is 1-SG.
 Alpha  occ. eigenvalues --  -40.78942  -3.12715  -1.88945  -1.76854  -1.76854
 Alpha  occ. eigenvalues --   -0.26134
 Alpha virt. eigenvalues --    0.02450   0.04179   0.04179   0.09956   0.16377
 Alpha virt. eigenvalues --    0.18455   0.18455   0.69617
          Condensed to atoms (all electrons):
               1          2
     1  H    0.364362   0.264394
     2  Na   0.264394  11.106850
 Mulliken charges:
               1
     1  H    0.371244
     2  Na  -0.371244
 Sum of Mulliken charges =   0.00000
 Mulliken charges with hydrogens summed into heavy atoms:
               1
     2  Na   0.000000
 N-N= 8.315641885886D+00 E-N=-4.031793439250D+02  KE= 1.623879296200D+02
 Symmetry A1   KE= 1.387752276437D+02
 Symmetry A2   KE= 0.000000000000D+00
 Symmetry B1   KE= 1.180635098814D+01
 Symmetry B2   KE= 1.180635098814D+01

 Atomic contributions to Alpha molecular orbitals:
 Alpha occ 1 OE=-40.789 is Na2-s=1.0002
 Alpha occ 2 OE=-3.127 is Na2-s=0.9557
 Alpha occ 3 OE=-1.889 is Na2-p=0.9267
 Alpha occ 4 OE=-1.769 is Na2-p=1.0000
 Alpha occ 5 OE=-1.769 is Na2-p=1.0000
 Alpha occ 6 OE=-0.261 is Na2-s=0.6865 H1-s=0.2406
 Alpha vir 7 OE=0.024 is Na2-p=0.7569 Na2-s=0.2201
 Alpha vir 8 OE=0.042 is Na2-p=1.0000
 Alpha vir 9 OE=0.042 is Na2-p=1.0000
 Alpha vir 10 OE=0.100 is Na2-s=0.6729 Na2-p=0.2753
 Alpha vir 11 OE=0.164 is Na2-p=0.7871 Na2-s=0.2056
 Alpha vir 12 OE=0.185 is Na2-p=1.0000
 Alpha vir 13 OE=0.185 is Na2-p=1.0000
 Alpha vir 14 OE=0.696 is H1-s=0.6034 Na2-s=0.2313 Na2-p=0.1653
 
 Leave Link  601 at Mon Mar 28 14:19:53 2022, MaxMem=  9663676416 cpu:               3.0 elap:               0.1
 (Enter /nopt/nrel/apps/gaussian/g16C_1/g16/l9999.exe)

 Test job not archived.
 1\1\GINC-R102U34\SP\RCCSD-FC\Gen\H1Na1\USER\28-Mar-2022\0\\#P CCSD
 (MaxCyc=200,SaveAmplitudes,ReadAmplitudes)/GEN sp pop=AllOrbitals iop(
 3/33=1,3/36=-1)\\test\\0,1\H,0,0.,0.,0.\Na,0,0.,0.,0.7\\Version=ES64L-
 G16RevC.01\State=1-SG\HF=-161.684496\MP2=-161.6979178\MP3=-161.7024625
 \MP4D=-161.7041354\MP4DQ=-161.703935\MP4SDQ=-161.7040926\CCSD=-161.705
 2381\RMSD=5.425e-09\PG=C*V [C*(H1Na1)]\\@


 Statistics are no substitute for judgment.
                            -- Henry Clay
 Job cpu time:       0 days  0 hours  0 minutes 31.5 seconds.
 Elapsed time:       0 days  0 hours  0 minutes  1.2 seconds.
 File lengths (MBytes):  RWF=     13 Int=      0 D2E=      0 Chk=      1 Scr=      1
 Normal termination of Gaussian 16 at Mon Mar 28 14:19:53 2022.
