 Entering Gaussian System, Link 0=g16
 Initial command:
 /nopt/nrel/apps/gaussian/g16C_1/g16/l1.exe "/lustre/eaglefs/scratch/user/qc/lih-dissc/lih-3-ccsd-0.8-augccq/Gau-556.inp" -scrdir="/lustre/eaglefs/scratch/user/qc/lih-dissc/lih-3-ccsd-0.8-augccq/"
 Default is to use a total of  36 processors:
                               36 via shared-memory
                                1 via Linda
 Entering Link 1 = /nopt/nrel/apps/gaussian/g16C_1/g16/l1.exe PID=       557.
  
 Copyright (c) 1988-2019, Gaussian, Inc.  All Rights Reserved.
  
 This is part of the Gaussian(R) 16 program.  It is based on
 the Gaussian(R) 09 system (copyright 2009, Gaussian, Inc.),
 the Gaussian(R) 03 system (copyright 2003, Gaussian, Inc.),
 the Gaussian(R) 98 system (copyright 1998, Gaussian, Inc.),
 the Gaussian(R) 94 system (copyright 1995, Gaussian, Inc.),
 the Gaussian 92(TM) system (copyright 1992, Gaussian, Inc.),
 the Gaussian 90(TM) system (copyright 1990, Gaussian, Inc.),
 the Gaussian 88(TM) system (copyright 1988, Gaussian, Inc.),
 the Gaussian 86(TM) system (copyright 1986, Carnegie Mellon
 University), and the Gaussian 82(TM) system (copyright 1983,
 Carnegie Mellon University). Gaussian is a federally registered
 trademark of Gaussian, Inc.
  
 This software contains proprietary and confidential information,
 including trade secrets, belonging to Gaussian, Inc.
  
 This software is provided under written license and may be
 used, copied, transmitted, or stored only in accord with that
 written license.
  
 The following legend is applicable only to US Government
 contracts under FAR:
  
                    RESTRICTED RIGHTS LEGEND
  
 Use, reproduction and disclosure by the US Government is
 subject to restrictions as set forth in subparagraphs (a)
 and (c) of the Commercial Computer Software - Restricted
 Rights clause in FAR 52.227-19.
  
 Gaussian, Inc.
 340 Quinnipiac St., Bldg. 40, Wallingford CT 06492
  
  
 ---------------------------------------------------------------
 Warning -- This program may not be used in any manner that
 competes with the business of Gaussian, Inc. or will provide
 assistance to any competitor of Gaussian, Inc.  The licensee
 of this program is prohibited from giving any competitor of
 Gaussian, Inc. access to this program.  By using this program,
 the user acknowledges that Gaussian, Inc. is engaged in the
 business of creating and licensing software in the field of
 computational chemistry and represents and warrants to the
 licensee that it is not a competitor of Gaussian, Inc. and that
 it will not use this program in any manner prohibited above.
 ---------------------------------------------------------------
  

 Cite this work as:
 Gaussian 16, Revision C.01,
 M. J. Frisch, G. W. Trucks, H. B. Schlegel, G. E. Scuseria, 
 M. A. Robb, J. R. Cheeseman, G. Scalmani, V. Barone, 
 G. A. Petersson, H. Nakatsuji, X. Li, M. Caricato, A. V. Marenich, 
 J. Bloino, B. G. Janesko, R. Gomperts, B. Mennucci, H. P. Hratchian, 
 J. V. Ortiz, A. F. Izmaylov, J. L. Sonnenberg, D. Williams-Young, 
 F. Ding, F. Lipparini, F. Egidi, J. Goings, B. Peng, A. Petrone, 
 T. Henderson, D. Ranasinghe, V. G. Zakrzewski, J. Gao, N. Rega, 
 G. Zheng, W. Liang, M. Hada, M. Ehara, K. Toyota, R. Fukuda, 
 J. Hasegawa, M. Ishida, T. Nakajima, Y. Honda, O. Kitao, H. Nakai, 
 T. Vreven, K. Throssell, J. A. Montgomery, Jr., J. E. Peralta, 
 F. Ogliaro, M. J. Bearpark, J. J. Heyd, E. N. Brothers, K. N. Kudin, 
 V. N. Staroverov, T. A. Keith, R. Kobayashi, J. Normand, 
 K. Raghavachari, A. P. Rendell, J. C. Burant, S. S. Iyengar, 
 J. Tomasi, M. Cossi, J. M. Millam, M. Klene, C. Adamo, R. Cammi, 
 J. W. Ochterski, R. L. Martin, K. Morokuma, O. Farkas, 
 J. B. Foresman, and D. J. Fox, Gaussian, Inc., Wallingford CT, 2019.
 
 ******************************************
 Gaussian 16:  ES64L-G16RevC.01  3-Jul-2019
                28-Mar-2022 
 ******************************************
 %chk=molecule
 Default route: CacheSize=180224 MaxDisk=256GB
 ----------------------------------------------------------------------
 #P CCSD(MaxCyc=200,SaveAmplitudes,ReadAmplitudes)/GEN sp pop=AllOrbita
 ls iop(3/33=1,3/36=-1)
 ----------------------------------------------------------------------
 1/4=180224,38=1,172=1/1;
 2/4=180224,12=2,17=6,18=5,40=1/2;
 3/4=180224,5=7,11=9,25=1,30=1,33=1,36=-1/1,2,3;
 4/4=180224/1;
 5/4=180224,5=2,38=5/2;
 8/4=180224,6=4,9=120000,10=1,24=1/1,4;
 9/4=180224,5=7,6=200,77=1/13;
 6/4=180224,7=2,8=2,9=2,10=2,96=-1/1;
 99/4=180224,5=1,9=1/99;
 Leave Link    1 at Mon Mar 28 14:07:11 2022, MaxMem=           0 cpu:               2.3 elap:               0.1
 (Enter /nopt/nrel/apps/gaussian/g16C_1/g16/l101.exe)
 ----
 test
 ----
 Symbolic Z-matrix:
 Charge =  0 Multiplicity = 3
 H                     0.        0.        0. 
 Li                    0.        0.        0.8 
 
 ITRead=  0  0
 MicOpt= -1 -1
 NAtoms=      2 NQM=        2 NQMF=       0 NMMI=      0 NMMIF=      0
                NMic=       0 NMicF=      0.
                    Isotopes and Nuclear Properties:
 (Nuclear quadrupole moments (NQMom) in fm**2, nuclear magnetic moments (NMagM)
  in nuclear magnetons)

  Atom         1           2
 IAtWgt=           1           7
 AtmWgt=   1.0078250   7.0160045
 NucSpn=           1           3
 AtZEff=  -0.0000000  -0.0000000
 NQMom=    0.0000000  -4.0100000
 NMagM=    2.7928460   3.2564240
 AtZNuc=   1.0000000   3.0000000
 Leave Link  101 at Mon Mar 28 14:07:11 2022, MaxMem=  9663676416 cpu:               3.2 elap:               0.1
 (Enter /nopt/nrel/apps/gaussian/g16C_1/g16/l202.exe)
                          Input orientation:                          
 ---------------------------------------------------------------------
 Center     Atomic      Atomic             Coordinates (Angstroms)
 Number     Number       Type             X           Y           Z
 ---------------------------------------------------------------------
      1          1           0        0.000000    0.000000    0.000000
      2          3           0        0.000000    0.000000    0.800000
 ---------------------------------------------------------------------
 Stoichiometry    HLi(3)
 Framework group  C*V[C*(HLi)]
 Deg. of freedom     1
 Full point group                 C*V     NOp   4
 Largest Abelian subgroup         C2V     NOp   4
 Largest concise Abelian subgroup C1      NOp   1
                         Standard orientation:                         
 ---------------------------------------------------------------------
 Center     Atomic      Atomic             Coordinates (Angstroms)
 Number     Number       Type             X           Y           Z
 ---------------------------------------------------------------------
      1          1           0        0.000000    0.000000   -0.600000
      2          3           0        0.000000    0.000000    0.200000
 ---------------------------------------------------------------------
 Rotational constants (GHZ):           0.0000000         896.0740847         896.0740847
 Leave Link  202 at Mon Mar 28 14:07:12 2022, MaxMem=  9663676416 cpu:               0.5 elap:               0.0
 (Enter /nopt/nrel/apps/gaussian/g16C_1/g16/l301.exe)
 General basis read from cards:  (5D, 7F)
                         Coordinates in L301:                         
 ---------------------------------------------------------------------
 Center     Atomic      Atomic             Coordinates (Angstroms)
 Number     Number       Type             X           Y           Z
 ---------------------------------------------------------------------
      1          1           0        0.000000    0.000000   -0.600000
      2          3           0        0.000000    0.000000    0.200000
 ---------------------------------------------------------------------
 Centers:       1
 STO-3G
 ****
 Centers:       2
 aug-cc-pVQZ
 ****
 FixB: optimizing general contractions.
 Ernie: Thresh=  0.10000D-02 Tol=  0.10000D-05 Strict=F.
 IA=     1 ShT= 0 ShC= 0 NL=   1 NS=   0.
 IA=     1 L=0 SC=0 ISt=    0 NBk=    0 NP=    0 IndPr=    0.
 IA=     2 ShT= 0 ShC= 0 NL=   6 NS=   4.
 IA=     2 L=0 SC=0 ISt=    1 NBk=    2 NP=    9 IndPr=    0.
 DoElim1:  L=0 select primitive    3 from    2 using    1 C= 4.73D-03
 DoElim2:  L=0 select primitive    9 from    1 using    2 C=-9.02D-02
 Delete L=0 primitive    3 from    2 C=  2.13D-20.
 Delete L=0 primitive    2 from    2 C=  7.77D-07.
 Delete L=0 primitive    1 from    2 C=  3.37D-07.
 Delete L=0 primitive    9 from    1 C=  1.56D-17.
 IA=     2 L=0 SC=0 ISt=    0 NBk=    0 NP=    0 IndPr=   14.
 IA=     2 ShT= 1 ShC= 1 NL=   5 NS=   4.
 IA=     2 L=1 SC=1 ISt=    0 NBk=    0 NP=    0 IndPr=    0.
 IA=     2 ShT= 2 ShC= 2 NL=   4 NS=   4.
 IA=     2 L=2 SC=2 ISt=    0 NBk=    0 NP=    0 IndPr=    0.
 IA=     2 ShT= 3 ShC= 3 NL=   3 NS=   3.
 IA=     2 L=3 SC=3 ISt=    0 NBk=    0 NP=    0 IndPr=    0.
 IA=     2 ShT= 4 ShC= 4 NL=   2 NS=   2.
 IA=     2 L=4 SC=4 ISt=    0 NBk=    0 NP=    0 IndPr=    0.
 Ernie:  4 primitive shells out of 41 were deleted.
 LdAtmC:  AtmChg=     1.000000     3.000000
 AtZEff=     -1.0000000     -1.3500000
 NEqShl: 
              1            2            3            4
     1            1            1            1            1
     2            2            2            2            2
     3            3            3            3            3
     4            4            4            4            4
     5            5            5            5            5
     6            6            6            6            6
     7            7            7            7            7
     8            8            8            8            8
     9            9            9            9            9
    10           10           10           10           10
    11           11           11           11           11
    12           12           12           12           12
    13           13           13           13           13
    14           14           14           14           14
    15           15           15           15           15
    16           16           16           16           16
    17           17           17           17           17
    18           18           18           18           18
    19           19           19           19           19
    20           20           20           20           20
    21           21           21           21           21
 NEqBas: 
              1            2            3            4
     1            1            1            1            1
     2            2            2            2            2
     3            3            3            3            3
     4            4            4            4            4
     5            5            5            5            5
     6            6            6            6            6
     7            7            7            7            7
     8            8           -8           -8            8
     9            9           -9            9           -9
    10           10           10           10           10
    11           11          -11          -11           11
    12           12          -12           12          -12
    13           13           13           13           13
    14           14          -14          -14           14
    15           15          -15           15          -15
    16           16           16           16           16
    17           17          -17          -17           17
    18           18          -18           18          -18
    19           19           19           19           19
    20           20          -20          -20           20
    21           21          -21           21          -21
    22           22           22           22           22
    23           23           23           23           23
    24           24           24           24           24
    25           25           25           25           25
    26           26           26          -26          -26
    27           27          -27          -27           27
    28           28          -28           28          -28
    29           29           29           29           29
    30           30           30           30           30
    31           31           31           31           31
    32           32           32          -32          -32
    33           33          -33          -33           33
    34           34          -34           34          -34
    35           35           35           35           35
    36           36           36           36           36
    37           37           37           37           37
    38           38           38          -38          -38
    39           39          -39          -39           39
    40           40          -40           40          -40
    41           41           41           41           41
    42           42           42           42           42
    43           43           43           43           43
    44           44           44          -44          -44
    45           45          -45          -45           45
    46           46          -46           46          -46
    47           47          -47          -47           47
    48           48          -48           48          -48
    49           49           49           49           49
    50           50          -50          -50           50
    51           51          -51           51          -51
    52           52           52           52           52
    53           53          -53          -53           53
    54           54          -54           54          -54
    55           55           55           55           55
    56           56           56          -56          -56
    57           57          -57          -57           57
    58           58          -58           58          -58
    59           59           59           59           59
    60           60          -60          -60           60
    61           61          -61           61          -61
    62           62           62           62           62
    63           63          -63          -63           63
    64           64          -64           64          -64
    65           65           65           65           65
    66           66           66          -66          -66
    67           67          -67          -67           67
    68           68          -68           68          -68
    69           69           69           69           69
    70           70          -70          -70           70
    71           71          -71           71          -71
    72           72           72           72           72
    73           73          -73          -73           73
    74           74          -74           74          -74
    75           75           75           75           75
    76           76           76          -76          -76
    77           77           77           77           77
    78           78          -78           78          -78
    79           79           79           79           79
    80           80          -80           80          -80
    81           81           81           81           81
    82           82          -82          -82           82
    83           83           83          -83          -83
    84           84          -84          -84           84
    85           85           85          -85          -85
    86           86           86           86           86
    87           87          -87           87          -87
    88           88           88           88           88
    89           89          -89          -89           89
    90           90           90          -90          -90
    91           91           91           91           91
    92           92           92           92           92
    93           93          -93           93          -93
    94           94           94           94           94
    95           95          -95           95          -95
    96           96           96           96           96
    97           97          -97          -97           97
    98           98           98          -98          -98
    99           99          -99          -99           99
   100          100          100         -100         -100
   101          101          101          101          101
   102          102         -102          102         -102
   103          103          103          103          103
   104          104         -104         -104          104
   105          105          105         -105         -105
   106          106          106          106          106
 There are    45 symmetry adapted cartesian basis functions of A1  symmetry.
   1         1   1   1   1
   2         2   2   2   2
   3         3   3   3   3
   4         4   4   4   4
   5         5   5   5   5
   6         6   6   6   6
   7         7   7   7   7
   8        10  10  10  10
   9        13  13  13  13
  10        16  16  16  16
  11        19  19  19  19
  12        22  22  22  22
  13        23  23  23  23
  14        24  24  24  24
  15        25  25  25  25
  16        29  29  29  29
  17        30  30  30  30
  18        31  31  31  31
  19        35  35  35  35
  20        36  36  36  36
  21        37  37  37  37
  22        41  41  41  41
  23        42  42  42  42
  24        43  43  43  43
  25        49  49  49  49
  26        52  52  52  52
  27        55  55  55  55
  28        59  59  59  59
  29        62  62  62  62
  30        65  65  65  65
  31        69  69  69  69
  32        72  72  72  72
  33        75  75  75  75
  34        77  77  77  77
  35        79  79  79  79
  36        81  81  81  81
  37        86  86  86  86
  38        88  88  88  88
  39        91  91  91  91
  40        92  92  92  92
  41        94  94  94  94
  42        96  96  96  96
  43       101 101 101 101
  44       103 103 103 103
  45       106 106 106 106
 There are    13 symmetry adapted cartesian basis functions of A2  symmetry.
  46        26  26  26  26
  47        32  32  32  32
  48        38  38  38  38
  49        44  44  44  44
  50        56  56  56  56
  51        66  66  66  66
  52        76  76  76  76
  53        83  83  83  83
  54        85  85  85  85
  55        90  90  90  90
  56        98  98  98  98
  57       100 100 100 100
  58       105 105 105 105
 There are    24 symmetry adapted cartesian basis functions of B1  symmetry.
  59         8   8   8   8
  60        11  11  11  11
  61        14  14  14  14
  62        17  17  17  17
  63        20  20  20  20
  64        27  27  27  27
  65        33  33  33  33
  66        39  39  39  39
  67        45  45  45  45
  68        47  47  47  47
  69        50  50  50  50
  70        53  53  53  53
  71        57  57  57  57
  72        60  60  60  60
  73        63  63  63  63
  74        67  67  67  67
  75        70  70  70  70
  76        73  73  73  73
  77        82  82  82  82
  78        84  84  84  84
  79        89  89  89  89
  80        97  97  97  97
  81        99  99  99  99
  82       104 104 104 104
 There are    24 symmetry adapted cartesian basis functions of B2  symmetry.
  83         9   9   9   9
  84        12  12  12  12
  85        15  15  15  15
  86        18  18  18  18
  87        21  21  21  21
  88        28  28  28  28
  89        34  34  34  34
  90        40  40  40  40
  91        46  46  46  46
  92        48  48  48  48
  93        51  51  51  51
  94        54  54  54  54
  95        58  58  58  58
  96        61  61  61  61
  97        64  64  64  64
  98        68  68  68  68
  99        71  71  71  71
 100        74  74  74  74
 101        78  78  78  78
 102        80  80  80  80
 103        87  87  87  87
 104        93  93  93  93
 105        95  95  95  95
 106       102 102 102 102
 Order= 1 2 4 3
 Reordered character table:
              1            2            3            4            5
     1            1            1            1            1            1
     2            2            1            1           -1           -1
     3            4            1           -1           -1            1
     4            3            1           -1            1           -1
 NEqShl: 
              1            2            3            4
     1            1            1            1            1
     2            2            2            2            2
     3            3            3            3            3
     4            4            4            4            4
     5            5            5            5            5
     6            6            6            6            6
     7            7            7            7            7
     8            8            8            8            8
     9            9            9            9            9
    10           10           10           10           10
    11           11           11           11           11
    12           12           12           12           12
    13           13           13           13           13
    14           14           14           14           14
    15           15           15           15           15
    16           16           16           16           16
    17           17           17           17           17
    18           18           18           18           18
    19           19           19           19           19
    20           20           20           20           20
    21           21           21           21           21
 NEqBas: 
              1            2            3            4
     1            1            1            1            1
     2            2            2            2            2
     3            3            3            3            3
     4            4            4            4            4
     5            5            5            5            5
     6            6            6            6            6
     7            7            7            7            7
     8            8           -8           -8            8
     9            9           -9            9           -9
    10           10           10           10           10
    11           11          -11          -11           11
    12           12          -12           12          -12
    13           13           13           13           13
    14           14          -14          -14           14
    15           15          -15           15          -15
    16           16           16           16           16
    17           17          -17          -17           17
    18           18          -18           18          -18
    19           19           19           19           19
    20           20          -20          -20           20
    21           21          -21           21          -21
    22           22           22           22           22
    23           23           23           23           23
    24           24          -24          -24           24
    25           25          -25           25          -25
    26           26           26           26           26
    27           27           27          -27          -27
    28           28           28           28           28
    29           29          -29          -29           29
    30           30          -30           30          -30
    31           31           31           31           31
    32           32           32          -32          -32
    33           33           33           33           33
    34           34          -34          -34           34
    35           35          -35           35          -35
    36           36           36           36           36
    37           37           37          -37          -37
    38           38           38           38           38
    39           39          -39          -39           39
    40           40          -40           40          -40
    41           41           41           41           41
    42           42           42          -42          -42
    43           43           43           43           43
    44           44          -44          -44           44
    45           45          -45           45          -45
    46           46           46           46           46
    47           47           47          -47          -47
    48           48          -48          -48           48
    49           49          -49           49          -49
    50           50           50           50           50
    51           51          -51          -51           51
    52           52          -52           52          -52
    53           53           53           53           53
    54           54           54          -54          -54
    55           55          -55          -55           55
    56           56          -56           56          -56
    57           57           57           57           57
    58           58          -58          -58           58
    59           59          -59           59          -59
    60           60           60           60           60
    61           61           61          -61          -61
    62           62          -62          -62           62
    63           63          -63           63          -63
    64           64           64           64           64
    65           65          -65          -65           65
    66           66          -66           66          -66
    67           67           67           67           67
    68           68           68          -68          -68
    69           69          -69          -69           69
    70           70          -70           70          -70
    71           71           71           71           71
    72           72           72          -72          -72
    73           73           73           73           73
    74           74          -74          -74           74
    75           75          -75           75          -75
    76           76           76           76           76
    77           77           77          -77          -77
    78           78          -78          -78           78
    79           79          -79           79          -79
    80           80           80           80           80
    81           81           81          -81          -81
 There are    32 symmetry adapted basis functions of A1  symmetry.
   1         1   1   1   1
   2         2   2   2   2
   3         3   3   3   3
   4         4   4   4   4
   5         5   5   5   5
   6         6   6   6   6
   7         7   7   7   7
   8        10  10  10  10
   9        13  13  13  13
  10        16  16  16  16
  11        19  19  19  19
  12        22  22  22  22
  13        23  23  23  23
  14        26  26  26  26
  15        28  28  28  28
  16        31  31  31  31
  17        33  33  33  33
  18        36  36  36  36
  19        38  38  38  38
  20        41  41  41  41
  21        43  43  43  43
  22        46  46  46  46
  23        50  50  50  50
  24        53  53  53  53
  25        57  57  57  57
  26        60  60  60  60
  27        64  64  64  64
  28        67  67  67  67
  29        71  71  71  71
  30        73  73  73  73
  31        76  76  76  76
  32        80  80  80  80
 There are    11 symmetry adapted basis functions of A2  symmetry.
  33        27  27  27  27
  34        32  32  32  32
  35        37  37  37  37
  36        42  42  42  42
  37        47  47  47  47
  38        54  54  54  54
  39        61  61  61  61
  40        68  68  68  68
  41        72  72  72  72
  42        77  77  77  77
  43        81  81  81  81
 There are    19 symmetry adapted basis functions of B1  symmetry.
  44         8   8   8   8
  45        11  11  11  11
  46        14  14  14  14
  47        17  17  17  17
  48        20  20  20  20
  49        24  24  24  24
  50        29  29  29  29
  51        34  34  34  34
  52        39  39  39  39
  53        44  44  44  44
  54        48  48  48  48
  55        51  51  51  51
  56        55  55  55  55
  57        58  58  58  58
  58        62  62  62  62
  59        65  65  65  65
  60        69  69  69  69
  61        74  74  74  74
  62        78  78  78  78
 There are    19 symmetry adapted basis functions of B2  symmetry.
  63         9   9   9   9
  64        12  12  12  12
  65        15  15  15  15
  66        18  18  18  18
  67        21  21  21  21
  68        25  25  25  25
  69        30  30  30  30
  70        35  35  35  35
  71        40  40  40  40
  72        45  45  45  45
  73        49  49  49  49
  74        52  52  52  52
  75        56  56  56  56
  76        59  59  59  59
  77        63  63  63  63
  78        66  66  66  66
  79        70  70  70  70
  80        75  75  75  75
  81        79  79  79  79
 Order= 1 2 4 3
 Reordered character table:
              1            2            3            4            5
     1            1            1            1            1            1
     2            2            1            1           -1           -1
     3            4            1           -1           -1            1
     4            3            1           -1            1           -1
    81 basis functions,   126 primitive gaussians,   106 cartesian basis functions
     3 alpha electrons        1 beta electrons
       nuclear repulsion energy         1.9844145409 Hartrees.
 IS=     1 IAt=     1 ISR=     1 T=0 IP=      1 IndIP=      1 IndIPD=      0 C=  2.769344D-01  0.000000D+00                             NZ=T
 IS=     1 IAt=     1 ISR=     1 T=0 IP=      2 IndIP=      2 IndIPD=      1 C=  2.678389D-01  0.000000D+00                             NZ=T
 IS=     1 IAt=     1 ISR=     1 T=0 IP=      3 IndIP=      3 IndIPD=      2 C=  8.347367D-02  0.000000D+00                             NZ=T
 IS=     2 IAt=     2 ISR=     1 T=0 IP=      1 IndIP=      4 IndIPD=      0 C=  8.011529D-02  0.000000D+00                             NZ=T
 IS=     2 IAt=     2 ISR=     1 T=0 IP=      2 IndIP=      5 IndIPD=      1 C=  1.496426D-01  0.000000D+00                             NZ=T
 IS=     2 IAt=     2 ISR=     1 T=0 IP=      3 IndIP=      6 IndIPD=      2 C=  2.558159D-01  0.000000D+00                             NZ=T
 IS=     2 IAt=     2 ISR=     1 T=0 IP=      4 IndIP=      7 IndIPD=      3 C=  4.044663D-01  0.000000D+00                             NZ=T
 IS=     2 IAt=     2 ISR=     1 T=0 IP=      5 IndIP=      8 IndIPD=      4 C=  5.735328D-01  0.000000D+00                             NZ=T
 IS=     2 IAt=     2 ISR=     1 T=0 IP=      6 IndIP=      9 IndIPD=      5 C=  6.883914D-01  0.000000D+00                             NZ=T
 IS=     2 IAt=     2 ISR=     1 T=0 IP=      7 IndIP=     10 IndIPD=      6 C=  6.302397D-01  0.000000D+00                             NZ=T
 IS=     2 IAt=     2 ISR=     1 T=0 IP=      8 IndIP=     11 IndIPD=      7 C=  3.474973D-01  0.000000D+00                             NZ=T
 IS=     3 IAt=     2 ISR=     2 T=0 IP=      1 IndIP=     12 IndIPD=      0 C= -1.462817D-03  0.000000D+00                             NZ=T
 IS=     3 IAt=     2 ISR=     2 T=0 IP=      2 IndIP=     13 IndIPD=      1 C= -1.357745D-02  0.000000D+00                             NZ=T
 IS=     3 IAt=     2 ISR=     2 T=0 IP=      3 IndIP=     14 IndIPD=      2 C= -3.990712D-02  0.000000D+00                             NZ=T
 IS=     3 IAt=     2 ISR=     2 T=0 IP=      4 IndIP=     15 IndIPD=      3 C= -1.039767D-01  0.000000D+00                             NZ=T
 IS=     3 IAt=     2 ISR=     2 T=0 IP=      5 IndIP=     16 IndIPD=      4 C= -2.111586D-01  0.000000D+00                             NZ=T
 IS=     3 IAt=     2 ISR=     2 T=0 IP=      6 IndIP=     17 IndIPD=      5 C= -3.017959D-01  0.000000D+00                             NZ=T
 IS=     4 IAt=     2 ISR=     3 T=0 IP=      1 IndIP=     18 IndIPD=      0 C=  1.221003D-01  0.000000D+00                             NZ=T
 IS=     5 IAt=     2 ISR=     4 T=0 IP=      1 IndIP=     19 IndIPD=      0 C=  7.298435D-02  0.000000D+00                             NZ=T
 IS=     6 IAt=     2 ISR=     5 T=0 IP=      1 IndIP=     20 IndIPD=      0 C=  4.098971D-02  0.000000D+00                             NZ=T
 IS=     7 IAt=     2 ISR=     6 T=0 IP=      1 IndIP=     21 IndIPD=      0 C=  1.604045D-02  0.000000D+00                             NZ=T
 IS=     8 IAt=     2 ISR=     7 T=1 IP=      1 IndIP=     22 IndIPD=      0 C=  0.000000D+00  5.138103D-01                             NZ=T
 IS=     8 IAt=     2 ISR=     7 T=1 IP=      2 IndIP=     23 IndIPD=      1 C=  0.000000D+00  4.393669D-01                             NZ=T
 IS=     8 IAt=     2 ISR=     7 T=1 IP=      3 IndIP=     24 IndIPD=      2 C=  0.000000D+00  3.470054D-01                             NZ=T
 IS=     9 IAt=     2 ISR=     8 T=1 IP=      1 IndIP=     25 IndIPD=      0 C=  0.000000D+00  9.983559D-02                             NZ=T
 IS=    10 IAt=     2 ISR=     9 T=1 IP=      1 IndIP=     26 IndIPD=      0 C=  0.000000D+00  2.932986D-02                             NZ=T
 IS=    11 IAt=     2 ISR=    10 T=1 IP=      1 IndIP=     27 IndIPD=      0 C=  0.000000D+00  9.365278D-03                             NZ=T
 IS=    12 IAt=     2 ISR=    11 T=1 IP=      1 IndIP=     28 IndIPD=      0 C=  0.000000D+00  3.261263D-03                             NZ=T
 IS=    13 IAt=     2 ISR=    12 T=2 IP=      1 IndIP=     29 IndIPD=      1 C=  0.000000D+00  0.000000D+00  2.543236D-01  0.000000D+00 NZ=T
 IS=    14 IAt=     2 ISR=    13 T=2 IP=      1 IndIP=     30 IndIPD=      2 C=  0.000000D+00  0.000000D+00  6.160550D-02  0.000000D+00 NZ=T
 IS=    15 IAt=     2 ISR=    14 T=2 IP=      1 IndIP=     31 IndIPD=      3 C=  0.000000D+00  0.000000D+00  1.490390D-02  0.000000D+00 NZ=T
 IS=    16 IAt=     2 ISR=    15 T=2 IP=      1 IndIP=     32 IndIPD=      4 C=  0.000000D+00  0.000000D+00  3.634583D-03  0.000000D+00 NZ=T
 IS=    17 IAt=     2 ISR=    16 T=3 IP=      1 IndIP=     33 IndIPD=      5 C=  0.000000D+00  0.000000D+00  0.000000D+00  6.274201D-02 NZ=T
 IS=    18 IAt=     2 ISR=    17 T=3 IP=      1 IndIP=     34 IndIPD=      6 C=  0.000000D+00  0.000000D+00  0.000000D+00  1.473313D-02 NZ=T
 IS=    19 IAt=     2 ISR=    18 T=3 IP=      1 IndIP=     35 IndIPD=      7 C=  0.000000D+00  0.000000D+00  0.000000D+00  2.232271D-03 NZ=T
 IS=    20 IAt=     2 ISR=    19 T=4 IP=      1 IndIP=     36 IndIPD=      8 C=  0.000000D+00  0.000000D+00  0.000000D+00  2.147940D-02 NZ=T
 IS=    21 IAt=     2 ISR=    20 T=4 IP=      1 IndIP=     37 IndIPD=      9 C=  0.000000D+00  0.000000D+00  0.000000D+00  2.271551D-03 NZ=T
 IExCor=    0 DFT=F Ex=HF Corr=None ExCW=0 ScaHFX=  1.000000
 ScaDFX=  1.000000  1.000000  1.000000  1.000000 ScalE2=  1.000000  1.000000
 IRadAn=      5 IRanWt=     -1 IRanGd=            0 ICorTp=0 IEmpDi=  4
 NAtoms=    2 NActive=    2 NUniq=    2 SFac= 1.00D+00 NAtFMM=   60 NAOKFM=F Big=F
 Integral buffers will be    131072 words long.
 Raffenetti 2 integral format.
 Two-electron integral symmetry is turned on.
 Leave Link  301 at Mon Mar 28 14:07:12 2022, MaxMem=  9663676416 cpu:               2.0 elap:               0.1
 (Enter /nopt/nrel/apps/gaussian/g16C_1/g16/l302.exe)
 NPDir=0 NMtPBC=     1 NCelOv=     1 NCel=       1 NClECP=     1 NCelD=      1
         NCelK=      1 NCelE2=     1 NClLst=     1 CellRange=     0.0.
 One-electron integrals computed using PRISM.
 One-electron integral symmetry used in STVInt
 Entering OneElI...
 Calculate overlap and kinetic energy integrals
    NBasis =  81  MinDer = 0  MaxDer = 0
 Requested accuracy = 0.1000D-12
 Symmetry will be used
 PrmmSu-InSpLW:  IPartL=    0 NPrtUS=   36 NPrtUL=    1 DoSpLW=F IThBeg=    0 IThEnd=   35 NThAct=   36.
 PrSmSu:  IncTry=   512 NBBP=            231 NTPThr=   100 NPartT=   36 Incr=           1 LDynOK=F GPUOK=F.
 PrsmSu:  NPrtUS=  36 ThrOK=T IAlg=1 LenDen=           0 ISkipM=0 DoSpLW=F IThBeg=    0 IThEnd=   35.
 Prism:   IPart=     0 DynPar=F LinDyn=F Incr=           1.
 PRISM was handed   268416627 working-precision words and   231 shell-pairs
 PRISM was handed   268416627 working-precision words and   231 shell-pairs
 PRISM was handed   268416627 working-precision words and   231 shell-pairs
 PRISM was handed   268416627 working-precision words and   231 shell-pairs
 PRISM was handed   268416627 working-precision words and   231 shell-pairs
 PRISM was handed   268416627 working-precision words and   231 shell-pairs
 PRISM was handed   268416627 working-precision words and   231 shell-pairs
 PRISM was handed   268416627 working-precision words and   231 shell-pairs
 PRISM was handed   268416627 working-precision words and   231 shell-pairs
 PRISM was handed   268416627 working-precision words and   231 shell-pairs
 PRISM was handed   268416627 working-precision words and   231 shell-pairs
 PRISM was handed   268416627 working-precision words and   231 shell-pairs
 PRISM was handed   268416627 working-precision words and   231 shell-pairs
 PRISM was handed   268416627 working-precision words and   231 shell-pairs
 IPart= 20 NShTot=           0 NBatch=           0 AvBLen=         0.0
 IPart= 30 NShTot=           0 NBatch=           0 AvBLen=         0.0
 IPart= 19 NShTot=           0 NBatch=           0 AvBLen=         0.0
 IPart= 31 NShTot=           0 NBatch=           0 AvBLen=         0.0
 IPart= 22 NShTot=           0 NBatch=           0 AvBLen=         0.0
 IPart= 23 NShTot=           0 NBatch=           0 AvBLen=         0.0
 PRISM was handed   268416627 working-precision words and   231 shell-pairs
 PRISM was handed   268416627 working-precision words and   231 shell-pairs
 PRISM was handed   268416627 working-precision words and   231 shell-pairs
 PRISM was handed   268416627 working-precision words and   231 shell-pairs
 IPart= 15 NShTot=           3 NBatch=           3 AvBLen=         1.0
 IPart= 11 NShTot=           6 NBatch=           6 AvBLen=         1.0
 PRISM was handed   268416627 working-precision words and   231 shell-pairs
 IPart= 12 NShTot=           3 NBatch=           3 AvBLen=         1.0
 PRISM was handed   268416627 working-precision words and   231 shell-pairs
 PRISM was handed   268416627 working-precision words and   231 shell-pairs
 PRISM was handed   268416627 working-precision words and   231 shell-pairs
 IPart=  6 NShTot=          13 NBatch=          13 AvBLen=         1.0
 IPart=  5 NShTot=          15 NBatch=          15 AvBLen=         1.0
 PRISM was handed   268416627 working-precision words and   231 shell-pairs
 PRISM was handed   268416627 working-precision words and   231 shell-pairs
 IPart= 10 NShTot=           6 NBatch=           6 AvBLen=         1.0
 IPart=  3 NShTot=          25 NBatch=          25 AvBLen=         1.0
 PRISM was handed   268416627 working-precision words and   231 shell-pairs
 PRISM was handed   268416627 working-precision words and   231 shell-pairs
 PRISM was handed   268416627 working-precision words and   231 shell-pairs
 PRISM was handed   268416627 working-precision words and   231 shell-pairs
 PRISM was handed   268416627 working-precision words and   231 shell-pairs
 PRISM was handed   268416627 working-precision words and   231 shell-pairs
 PRISM was handed   268416627 working-precision words and   231 shell-pairs
 PRISM was handed   268416627 working-precision words and   231 shell-pairs
 PRISM was handed   268416627 working-precision words and   231 shell-pairs
 PRISM was handed   268416627 working-precision words and   231 shell-pairs
 PRISM was handed   268416627 working-precision words and   231 shell-pairs
 PRISM was handed   268416627 working-precision words and   231 shell-pairs
 IPart= 26 NShTot=           0 NBatch=           0 AvBLen=         0.0
 IPart= 17 NShTot=           0 NBatch=           0 AvBLen=         0.0
 IPart= 27 NShTot=           0 NBatch=           0 AvBLen=         0.0
 IPart= 18 NShTot=           0 NBatch=           0 AvBLen=         0.0
 IPart= 24 NShTot=           0 NBatch=           0 AvBLen=         0.0
 IPart= 21 NShTot=           0 NBatch=           0 AvBLen=         0.0
 IPart= 35 NShTot=           0 NBatch=           0 AvBLen=         0.0
 IPart= 32 NShTot=           0 NBatch=           0 AvBLen=         0.0
 IPart= 33 NShTot=           0 NBatch=           0 AvBLen=         0.0
 IPart=  1 NShTot=          34 NBatch=          34 AvBLen=         1.0
 IPart= 29 NShTot=           0 NBatch=           0 AvBLen=         0.0
 IPart= 28 NShTot=           0 NBatch=           0 AvBLen=         0.0
 IPart= 25 NShTot=           0 NBatch=           0 AvBLen=         0.0
 IPart= 34 NShTot=           0 NBatch=           0 AvBLen=         0.0
 IPart= 13 NShTot=           3 NBatch=           3 AvBLen=         1.0
 IPart=  8 NShTot=           9 NBatch=           9 AvBLen=         1.0
 IPart= 14 NShTot=           3 NBatch=           3 AvBLen=         1.0
 IPart=  7 NShTot=          13 NBatch=          13 AvBLen=         1.0
 IPart= 16 NShTot=           0 NBatch=           0 AvBLen=         0.0
 IPart=  4 NShTot=          15 NBatch=          15 AvBLen=         1.0
 IPart=  0 NShTot=          44 NBatch=          44 AvBLen=         1.0
 IPart=  2 NShTot=          30 NBatch=          30 AvBLen=         1.0
 IPart=  9 NShTot=           9 NBatch=           9 AvBLen=         1.0
 PrSmSu:  NxtVal=             37.
 *** Overlap *** 
                1             2             3             4             5 
      1  0.100000D+01
      2  0.264395D+00  0.100000D+01
      3 -0.532177D+00 -0.790233D+00  0.100000D+01
      4  0.634421D+00  0.262633D+00 -0.565272D+00  0.100000D+01
      5  0.502824D+00  0.163571D+00 -0.377722D+00  0.917052D+00  0.100000D+01
      6  0.339610D+00  0.940105D-01 -0.226388D+00  0.693253D+00  0.897345D+00
      7  0.151211D+00  0.373260D-01 -0.923729D-01  0.337233D+00  0.515702D+00
      8  0.000000D+00  0.000000D+00  0.000000D+00  0.000000D+00  0.000000D+00
      9  0.000000D+00  0.000000D+00  0.000000D+00  0.000000D+00  0.000000D+00
     10 -0.554352D+00  0.000000D+00  0.000000D+00  0.000000D+00  0.000000D+00
     11  0.000000D+00  0.000000D+00  0.000000D+00  0.000000D+00  0.000000D+00
     12  0.000000D+00  0.000000D+00  0.000000D+00  0.000000D+00  0.000000D+00
     13 -0.487344D+00  0.000000D+00  0.000000D+00  0.000000D+00  0.000000D+00
     14  0.000000D+00  0.000000D+00  0.000000D+00  0.000000D+00  0.000000D+00
     15  0.000000D+00  0.000000D+00  0.000000D+00  0.000000D+00  0.000000D+00
     16 -0.264255D+00  0.000000D+00  0.000000D+00  0.000000D+00  0.000000D+00
     17  0.000000D+00  0.000000D+00  0.000000D+00  0.000000D+00  0.000000D+00
     18  0.000000D+00  0.000000D+00  0.000000D+00  0.000000D+00  0.000000D+00
     19 -0.112611D+00  0.000000D+00  0.000000D+00  0.000000D+00  0.000000D+00
     20  0.000000D+00  0.000000D+00  0.000000D+00  0.000000D+00  0.000000D+00
     21  0.000000D+00  0.000000D+00  0.000000D+00  0.000000D+00  0.000000D+00
     22 -0.444322D-01  0.000000D+00  0.000000D+00  0.000000D+00  0.000000D+00
     23  0.338935D+00  0.000000D+00  0.000000D+00  0.000000D+00  0.000000D+00
     24  0.000000D+00  0.000000D+00  0.000000D+00  0.000000D+00  0.000000D+00
     25  0.000000D+00  0.000000D+00  0.000000D+00  0.000000D+00  0.000000D+00
     26  0.000000D+00  0.000000D+00  0.000000D+00  0.000000D+00  0.000000D+00
     27  0.000000D+00  0.000000D+00  0.000000D+00  0.000000D+00  0.000000D+00
     28  0.252488D+00  0.000000D+00  0.000000D+00  0.000000D+00  0.000000D+00
     29  0.000000D+00  0.000000D+00  0.000000D+00  0.000000D+00  0.000000D+00
     30  0.000000D+00  0.000000D+00  0.000000D+00  0.000000D+00  0.000000D+00
     31  0.000000D+00  0.000000D+00  0.000000D+00  0.000000D+00  0.000000D+00
     32  0.000000D+00  0.000000D+00  0.000000D+00  0.000000D+00  0.000000D+00
     33  0.131512D+00  0.000000D+00  0.000000D+00  0.000000D+00  0.000000D+00
     34  0.000000D+00  0.000000D+00  0.000000D+00  0.000000D+00  0.000000D+00
     35  0.000000D+00  0.000000D+00  0.000000D+00  0.000000D+00  0.000000D+00
     36  0.000000D+00  0.000000D+00  0.000000D+00  0.000000D+00  0.000000D+00
     37  0.000000D+00  0.000000D+00  0.000000D+00  0.000000D+00  0.000000D+00
     38  0.511676D-01  0.000000D+00  0.000000D+00  0.000000D+00  0.000000D+00
     39  0.000000D+00  0.000000D+00  0.000000D+00  0.000000D+00  0.000000D+00
     40  0.000000D+00  0.000000D+00  0.000000D+00  0.000000D+00  0.000000D+00
     41  0.000000D+00  0.000000D+00  0.000000D+00  0.000000D+00  0.000000D+00
     42  0.000000D+00  0.000000D+00  0.000000D+00  0.000000D+00  0.000000D+00
     43 -0.141295D+00  0.000000D+00  0.000000D+00  0.000000D+00  0.000000D+00
     44  0.000000D+00  0.000000D+00  0.000000D+00  0.000000D+00  0.000000D+00
     45  0.000000D+00  0.000000D+00  0.000000D+00  0.000000D+00  0.000000D+00
     46  0.000000D+00  0.000000D+00  0.000000D+00  0.000000D+00  0.000000D+00
     47  0.000000D+00  0.000000D+00  0.000000D+00  0.000000D+00  0.000000D+00
     48  0.000000D+00  0.000000D+00  0.000000D+00  0.000000D+00  0.000000D+00
     49  0.000000D+00  0.000000D+00  0.000000D+00  0.000000D+00  0.000000D+00
     50 -0.819683D-01  0.000000D+00  0.000000D+00  0.000000D+00  0.000000D+00
     51  0.000000D+00  0.000000D+00  0.000000D+00  0.000000D+00  0.000000D+00
     52  0.000000D+00  0.000000D+00  0.000000D+00  0.000000D+00  0.000000D+00
     53  0.000000D+00  0.000000D+00  0.000000D+00  0.000000D+00  0.000000D+00
     54  0.000000D+00  0.000000D+00  0.000000D+00  0.000000D+00  0.000000D+00
     55  0.000000D+00  0.000000D+00  0.000000D+00  0.000000D+00  0.000000D+00
     56  0.000000D+00  0.000000D+00  0.000000D+00  0.000000D+00  0.000000D+00
     57 -0.286295D-01  0.000000D+00  0.000000D+00  0.000000D+00  0.000000D+00
     58  0.000000D+00  0.000000D+00  0.000000D+00  0.000000D+00  0.000000D+00
     59  0.000000D+00  0.000000D+00  0.000000D+00  0.000000D+00  0.000000D+00
     60  0.000000D+00  0.000000D+00  0.000000D+00  0.000000D+00  0.000000D+00
     61  0.000000D+00  0.000000D+00  0.000000D+00  0.000000D+00  0.000000D+00
     62  0.000000D+00  0.000000D+00  0.000000D+00  0.000000D+00  0.000000D+00
     63  0.000000D+00  0.000000D+00  0.000000D+00  0.000000D+00  0.000000D+00
     64  0.548271D-01  0.000000D+00  0.000000D+00  0.000000D+00  0.000000D+00
     65  0.000000D+00  0.000000D+00  0.000000D+00  0.000000D+00  0.000000D+00
     66  0.000000D+00  0.000000D+00  0.000000D+00  0.000000D+00  0.000000D+00
     67  0.000000D+00  0.000000D+00  0.000000D+00  0.000000D+00  0.000000D+00
     68  0.000000D+00  0.000000D+00  0.000000D+00  0.000000D+00  0.000000D+00
     69  0.000000D+00  0.000000D+00  0.000000D+00  0.000000D+00  0.000000D+00
     70  0.000000D+00  0.000000D+00  0.000000D+00  0.000000D+00  0.000000D+00
     71  0.000000D+00  0.000000D+00  0.000000D+00  0.000000D+00  0.000000D+00
     72  0.000000D+00  0.000000D+00  0.000000D+00  0.000000D+00  0.000000D+00
     73  0.191318D-01  0.000000D+00  0.000000D+00  0.000000D+00  0.000000D+00
     74  0.000000D+00  0.000000D+00  0.000000D+00  0.000000D+00  0.000000D+00
     75  0.000000D+00  0.000000D+00  0.000000D+00  0.000000D+00  0.000000D+00
     76  0.000000D+00  0.000000D+00  0.000000D+00  0.000000D+00  0.000000D+00
     77  0.000000D+00  0.000000D+00  0.000000D+00  0.000000D+00  0.000000D+00
     78  0.000000D+00  0.000000D+00  0.000000D+00  0.000000D+00  0.000000D+00
     79  0.000000D+00  0.000000D+00  0.000000D+00  0.000000D+00  0.000000D+00
     80  0.000000D+00  0.000000D+00  0.000000D+00  0.000000D+00  0.000000D+00
     81  0.000000D+00  0.000000D+00  0.000000D+00  0.000000D+00  0.000000D+00
                6             7             8             9            10 
      6  0.100000D+01
      7  0.758763D+00  0.100000D+01
      8  0.000000D+00  0.000000D+00  0.100000D+01
      9  0.000000D+00  0.000000D+00  0.000000D+00  0.100000D+01
     10  0.000000D+00  0.000000D+00  0.000000D+00  0.000000D+00  0.100000D+01
     11  0.000000D+00  0.000000D+00  0.631085D+00  0.000000D+00  0.000000D+00
     12  0.000000D+00  0.000000D+00  0.000000D+00  0.631085D+00  0.000000D+00
     13  0.000000D+00  0.000000D+00  0.000000D+00  0.000000D+00  0.631085D+00
     14  0.000000D+00  0.000000D+00  0.275662D+00  0.000000D+00  0.000000D+00
     15  0.000000D+00  0.000000D+00  0.000000D+00  0.275662D+00  0.000000D+00
     16  0.000000D+00  0.000000D+00  0.000000D+00  0.000000D+00  0.275662D+00
     17  0.000000D+00  0.000000D+00  0.103467D+00  0.000000D+00  0.000000D+00
     18  0.000000D+00  0.000000D+00  0.000000D+00  0.103467D+00  0.000000D+00
     19  0.000000D+00  0.000000D+00  0.000000D+00  0.000000D+00  0.103467D+00
     20  0.000000D+00  0.000000D+00  0.384460D-01  0.000000D+00  0.000000D+00
     21  0.000000D+00  0.000000D+00  0.000000D+00  0.384460D-01  0.000000D+00
     22  0.000000D+00  0.000000D+00  0.000000D+00  0.000000D+00  0.384460D-01
     23  0.000000D+00  0.000000D+00  0.000000D+00  0.000000D+00  0.000000D+00
     24  0.000000D+00  0.000000D+00  0.000000D+00  0.000000D+00  0.000000D+00
     25  0.000000D+00  0.000000D+00  0.000000D+00  0.000000D+00  0.000000D+00
     26  0.000000D+00  0.000000D+00  0.000000D+00  0.000000D+00  0.000000D+00
     27  0.000000D+00  0.000000D+00  0.000000D+00  0.000000D+00  0.000000D+00
     28  0.000000D+00  0.000000D+00  0.000000D+00  0.000000D+00  0.000000D+00
     29  0.000000D+00  0.000000D+00  0.000000D+00  0.000000D+00  0.000000D+00
     30  0.000000D+00  0.000000D+00  0.000000D+00  0.000000D+00  0.000000D+00
     31  0.000000D+00  0.000000D+00  0.000000D+00  0.000000D+00  0.000000D+00
     32  0.000000D+00  0.000000D+00  0.000000D+00  0.000000D+00  0.000000D+00
     33  0.000000D+00  0.000000D+00  0.000000D+00  0.000000D+00  0.000000D+00
     34  0.000000D+00  0.000000D+00  0.000000D+00  0.000000D+00  0.000000D+00
     35  0.000000D+00  0.000000D+00  0.000000D+00  0.000000D+00  0.000000D+00
     36  0.000000D+00  0.000000D+00  0.000000D+00  0.000000D+00  0.000000D+00
     37  0.000000D+00  0.000000D+00  0.000000D+00  0.000000D+00  0.000000D+00
     38  0.000000D+00  0.000000D+00  0.000000D+00  0.000000D+00  0.000000D+00
     39  0.000000D+00  0.000000D+00  0.000000D+00  0.000000D+00  0.000000D+00
     40  0.000000D+00  0.000000D+00  0.000000D+00  0.000000D+00  0.000000D+00
     41  0.000000D+00  0.000000D+00  0.000000D+00  0.000000D+00  0.000000D+00
     42  0.000000D+00  0.000000D+00  0.000000D+00  0.000000D+00  0.000000D+00
     43  0.000000D+00  0.000000D+00  0.000000D+00  0.000000D+00  0.000000D+00
     44  0.000000D+00  0.000000D+00  0.000000D+00  0.000000D+00  0.000000D+00
     45  0.000000D+00  0.000000D+00  0.000000D+00  0.000000D+00  0.000000D+00
     46  0.000000D+00  0.000000D+00  0.000000D+00  0.000000D+00  0.000000D+00
     47  0.000000D+00  0.000000D+00  0.000000D+00  0.000000D+00  0.000000D+00
     48  0.000000D+00  0.000000D+00  0.000000D+00  0.000000D+00  0.000000D+00
     49  0.000000D+00  0.000000D+00  0.000000D+00  0.000000D+00  0.000000D+00
     50  0.000000D+00  0.000000D+00  0.000000D+00  0.000000D+00  0.000000D+00
     51  0.000000D+00  0.000000D+00  0.000000D+00  0.000000D+00  0.000000D+00
     52  0.000000D+00  0.000000D+00  0.000000D+00  0.000000D+00  0.000000D+00
     53  0.000000D+00  0.000000D+00  0.000000D+00  0.000000D+00  0.000000D+00
     54  0.000000D+00  0.000000D+00  0.000000D+00  0.000000D+00  0.000000D+00
     55  0.000000D+00  0.000000D+00  0.000000D+00  0.000000D+00  0.000000D+00
     56  0.000000D+00  0.000000D+00  0.000000D+00  0.000000D+00  0.000000D+00
     57  0.000000D+00  0.000000D+00  0.000000D+00  0.000000D+00  0.000000D+00
     58  0.000000D+00  0.000000D+00  0.000000D+00  0.000000D+00  0.000000D+00
     59  0.000000D+00  0.000000D+00  0.000000D+00  0.000000D+00  0.000000D+00
     60  0.000000D+00  0.000000D+00  0.000000D+00  0.000000D+00  0.000000D+00
     61  0.000000D+00  0.000000D+00  0.000000D+00  0.000000D+00  0.000000D+00
     62  0.000000D+00  0.000000D+00  0.000000D+00  0.000000D+00  0.000000D+00
     63  0.000000D+00  0.000000D+00  0.000000D+00  0.000000D+00  0.000000D+00
     64  0.000000D+00  0.000000D+00  0.000000D+00  0.000000D+00  0.000000D+00
     65  0.000000D+00  0.000000D+00  0.000000D+00  0.000000D+00  0.000000D+00
     66  0.000000D+00  0.000000D+00  0.000000D+00  0.000000D+00  0.000000D+00
     67  0.000000D+00  0.000000D+00  0.000000D+00  0.000000D+00  0.000000D+00
     68  0.000000D+00  0.000000D+00  0.000000D+00  0.000000D+00  0.000000D+00
     69  0.000000D+00  0.000000D+00  0.000000D+00  0.000000D+00  0.000000D+00
     70  0.000000D+00  0.000000D+00  0.000000D+00  0.000000D+00  0.000000D+00
     71  0.000000D+00  0.000000D+00  0.000000D+00  0.000000D+00  0.000000D+00
     72  0.000000D+00  0.000000D+00  0.000000D+00  0.000000D+00  0.000000D+00
     73  0.000000D+00  0.000000D+00  0.000000D+00  0.000000D+00  0.000000D+00
     74  0.000000D+00  0.000000D+00  0.000000D+00  0.000000D+00  0.000000D+00
     75  0.000000D+00  0.000000D+00  0.000000D+00  0.000000D+00  0.000000D+00
     76  0.000000D+00  0.000000D+00  0.000000D+00  0.000000D+00  0.000000D+00
     77  0.000000D+00  0.000000D+00  0.000000D+00  0.000000D+00  0.000000D+00
     78  0.000000D+00  0.000000D+00  0.000000D+00  0.000000D+00  0.000000D+00
     79  0.000000D+00  0.000000D+00  0.000000D+00  0.000000D+00  0.000000D+00
     80  0.000000D+00  0.000000D+00  0.000000D+00  0.000000D+00  0.000000D+00
     81  0.000000D+00  0.000000D+00  0.000000D+00  0.000000D+00  0.000000D+00
               11            12            13            14            15 
     11  0.100000D+01
     12  0.000000D+00  0.100000D+01
     13  0.000000D+00  0.000000D+00  0.100000D+01
     14  0.749166D+00  0.000000D+00  0.000000D+00  0.100000D+01
     15  0.000000D+00  0.749166D+00  0.000000D+00  0.000000D+00  0.100000D+01
     16  0.000000D+00  0.000000D+00  0.749166D+00  0.000000D+00  0.000000D+00
     17  0.373690D+00  0.000000D+00  0.000000D+00  0.777195D+00  0.000000D+00
     18  0.000000D+00  0.373690D+00  0.000000D+00  0.000000D+00  0.777195D+00
     19  0.000000D+00  0.000000D+00  0.373690D+00  0.000000D+00  0.000000D+00
     20  0.157961D+00  0.000000D+00  0.000000D+00  0.422515D+00  0.000000D+00
     21  0.000000D+00  0.157961D+00  0.000000D+00  0.000000D+00  0.422515D+00
     22  0.000000D+00  0.000000D+00  0.157961D+00  0.000000D+00  0.000000D+00
     23  0.000000D+00  0.000000D+00  0.000000D+00  0.000000D+00  0.000000D+00
     24  0.000000D+00  0.000000D+00  0.000000D+00  0.000000D+00  0.000000D+00
     25  0.000000D+00  0.000000D+00  0.000000D+00  0.000000D+00  0.000000D+00
     26  0.000000D+00  0.000000D+00  0.000000D+00  0.000000D+00  0.000000D+00
     27  0.000000D+00  0.000000D+00  0.000000D+00  0.000000D+00  0.000000D+00
     28  0.000000D+00  0.000000D+00  0.000000D+00  0.000000D+00  0.000000D+00
     29  0.000000D+00  0.000000D+00  0.000000D+00  0.000000D+00  0.000000D+00
     30  0.000000D+00  0.000000D+00  0.000000D+00  0.000000D+00  0.000000D+00
     31  0.000000D+00  0.000000D+00  0.000000D+00  0.000000D+00  0.000000D+00
     32  0.000000D+00  0.000000D+00  0.000000D+00  0.000000D+00  0.000000D+00
     33  0.000000D+00  0.000000D+00  0.000000D+00  0.000000D+00  0.000000D+00
     34  0.000000D+00  0.000000D+00  0.000000D+00  0.000000D+00  0.000000D+00
     35  0.000000D+00  0.000000D+00  0.000000D+00  0.000000D+00  0.000000D+00
     36  0.000000D+00  0.000000D+00  0.000000D+00  0.000000D+00  0.000000D+00
     37  0.000000D+00  0.000000D+00  0.000000D+00  0.000000D+00  0.000000D+00
     38  0.000000D+00  0.000000D+00  0.000000D+00  0.000000D+00  0.000000D+00
     39  0.000000D+00  0.000000D+00  0.000000D+00  0.000000D+00  0.000000D+00
     40  0.000000D+00  0.000000D+00  0.000000D+00  0.000000D+00  0.000000D+00
     41  0.000000D+00  0.000000D+00  0.000000D+00  0.000000D+00  0.000000D+00
     42  0.000000D+00  0.000000D+00  0.000000D+00  0.000000D+00  0.000000D+00
     43  0.000000D+00  0.000000D+00  0.000000D+00  0.000000D+00  0.000000D+00
     44  0.000000D+00  0.000000D+00  0.000000D+00  0.000000D+00  0.000000D+00
     45  0.000000D+00  0.000000D+00  0.000000D+00  0.000000D+00  0.000000D+00
     46  0.000000D+00  0.000000D+00  0.000000D+00  0.000000D+00  0.000000D+00
     47  0.000000D+00  0.000000D+00  0.000000D+00  0.000000D+00  0.000000D+00
     48  0.000000D+00  0.000000D+00  0.000000D+00  0.000000D+00  0.000000D+00
     49  0.000000D+00  0.000000D+00  0.000000D+00  0.000000D+00  0.000000D+00
     50  0.000000D+00  0.000000D+00  0.000000D+00  0.000000D+00  0.000000D+00
     51  0.000000D+00  0.000000D+00  0.000000D+00  0.000000D+00  0.000000D+00
     52  0.000000D+00  0.000000D+00  0.000000D+00  0.000000D+00  0.000000D+00
     53  0.000000D+00  0.000000D+00  0.000000D+00  0.000000D+00  0.000000D+00
     54  0.000000D+00  0.000000D+00  0.000000D+00  0.000000D+00  0.000000D+00
     55  0.000000D+00  0.000000D+00  0.000000D+00  0.000000D+00  0.000000D+00
     56  0.000000D+00  0.000000D+00  0.000000D+00  0.000000D+00  0.000000D+00
     57  0.000000D+00  0.000000D+00  0.000000D+00  0.000000D+00  0.000000D+00
     58  0.000000D+00  0.000000D+00  0.000000D+00  0.000000D+00  0.000000D+00
     59  0.000000D+00  0.000000D+00  0.000000D+00  0.000000D+00  0.000000D+00
     60  0.000000D+00  0.000000D+00  0.000000D+00  0.000000D+00  0.000000D+00
     61  0.000000D+00  0.000000D+00  0.000000D+00  0.000000D+00  0.000000D+00
     62  0.000000D+00  0.000000D+00  0.000000D+00  0.000000D+00  0.000000D+00
     63  0.000000D+00  0.000000D+00  0.000000D+00  0.000000D+00  0.000000D+00
     64  0.000000D+00  0.000000D+00  0.000000D+00  0.000000D+00  0.000000D+00
     65  0.000000D+00  0.000000D+00  0.000000D+00  0.000000D+00  0.000000D+00
     66  0.000000D+00  0.000000D+00  0.000000D+00  0.000000D+00  0.000000D+00
     67  0.000000D+00  0.000000D+00  0.000000D+00  0.000000D+00  0.000000D+00
     68  0.000000D+00  0.000000D+00  0.000000D+00  0.000000D+00  0.000000D+00
     69  0.000000D+00  0.000000D+00  0.000000D+00  0.000000D+00  0.000000D+00
     70  0.000000D+00  0.000000D+00  0.000000D+00  0.000000D+00  0.000000D+00
     71  0.000000D+00  0.000000D+00  0.000000D+00  0.000000D+00  0.000000D+00
     72  0.000000D+00  0.000000D+00  0.000000D+00  0.000000D+00  0.000000D+00
     73  0.000000D+00  0.000000D+00  0.000000D+00  0.000000D+00  0.000000D+00
     74  0.000000D+00  0.000000D+00  0.000000D+00  0.000000D+00  0.000000D+00
     75  0.000000D+00  0.000000D+00  0.000000D+00  0.000000D+00  0.000000D+00
     76  0.000000D+00  0.000000D+00  0.000000D+00  0.000000D+00  0.000000D+00
     77  0.000000D+00  0.000000D+00  0.000000D+00  0.000000D+00  0.000000D+00
     78  0.000000D+00  0.000000D+00  0.000000D+00  0.000000D+00  0.000000D+00
     79  0.000000D+00  0.000000D+00  0.000000D+00  0.000000D+00  0.000000D+00
     80  0.000000D+00  0.000000D+00  0.000000D+00  0.000000D+00  0.000000D+00
     81  0.000000D+00  0.000000D+00  0.000000D+00  0.000000D+00  0.000000D+00
               16            17            18            19            20 
     16  0.100000D+01
     17  0.000000D+00  0.100000D+01
     18  0.000000D+00  0.000000D+00  0.100000D+01
     19  0.777195D+00  0.000000D+00  0.000000D+00  0.100000D+01
     20  0.000000D+00  0.805531D+00  0.000000D+00  0.000000D+00  0.100000D+01
     21  0.000000D+00  0.000000D+00  0.805531D+00  0.000000D+00  0.000000D+00
     22  0.422515D+00  0.000000D+00  0.000000D+00  0.805531D+00  0.000000D+00
     23  0.000000D+00  0.000000D+00  0.000000D+00  0.000000D+00  0.000000D+00
     24  0.000000D+00  0.000000D+00  0.000000D+00  0.000000D+00  0.000000D+00
     25  0.000000D+00  0.000000D+00  0.000000D+00  0.000000D+00  0.000000D+00
     26  0.000000D+00  0.000000D+00  0.000000D+00  0.000000D+00  0.000000D+00
     27  0.000000D+00  0.000000D+00  0.000000D+00  0.000000D+00  0.000000D+00
     28  0.000000D+00  0.000000D+00  0.000000D+00  0.000000D+00  0.000000D+00
     29  0.000000D+00  0.000000D+00  0.000000D+00  0.000000D+00  0.000000D+00
     30  0.000000D+00  0.000000D+00  0.000000D+00  0.000000D+00  0.000000D+00
     31  0.000000D+00  0.000000D+00  0.000000D+00  0.000000D+00  0.000000D+00
     32  0.000000D+00  0.000000D+00  0.000000D+00  0.000000D+00  0.000000D+00
     33  0.000000D+00  0.000000D+00  0.000000D+00  0.000000D+00  0.000000D+00
     34  0.000000D+00  0.000000D+00  0.000000D+00  0.000000D+00  0.000000D+00
     35  0.000000D+00  0.000000D+00  0.000000D+00  0.000000D+00  0.000000D+00
     36  0.000000D+00  0.000000D+00  0.000000D+00  0.000000D+00  0.000000D+00
     37  0.000000D+00  0.000000D+00  0.000000D+00  0.000000D+00  0.000000D+00
     38  0.000000D+00  0.000000D+00  0.000000D+00  0.000000D+00  0.000000D+00
     39  0.000000D+00  0.000000D+00  0.000000D+00  0.000000D+00  0.000000D+00
     40  0.000000D+00  0.000000D+00  0.000000D+00  0.000000D+00  0.000000D+00
     41  0.000000D+00  0.000000D+00  0.000000D+00  0.000000D+00  0.000000D+00
     42  0.000000D+00  0.000000D+00  0.000000D+00  0.000000D+00  0.000000D+00
     43  0.000000D+00  0.000000D+00  0.000000D+00  0.000000D+00  0.000000D+00
     44  0.000000D+00  0.000000D+00  0.000000D+00  0.000000D+00  0.000000D+00
     45  0.000000D+00  0.000000D+00  0.000000D+00  0.000000D+00  0.000000D+00
     46  0.000000D+00  0.000000D+00  0.000000D+00  0.000000D+00  0.000000D+00
     47  0.000000D+00  0.000000D+00  0.000000D+00  0.000000D+00  0.000000D+00
     48  0.000000D+00  0.000000D+00  0.000000D+00  0.000000D+00  0.000000D+00
     49  0.000000D+00  0.000000D+00  0.000000D+00  0.000000D+00  0.000000D+00
     50  0.000000D+00  0.000000D+00  0.000000D+00  0.000000D+00  0.000000D+00
     51  0.000000D+00  0.000000D+00  0.000000D+00  0.000000D+00  0.000000D+00
     52  0.000000D+00  0.000000D+00  0.000000D+00  0.000000D+00  0.000000D+00
     53  0.000000D+00  0.000000D+00  0.000000D+00  0.000000D+00  0.000000D+00
     54  0.000000D+00  0.000000D+00  0.000000D+00  0.000000D+00  0.000000D+00
     55  0.000000D+00  0.000000D+00  0.000000D+00  0.000000D+00  0.000000D+00
     56  0.000000D+00  0.000000D+00  0.000000D+00  0.000000D+00  0.000000D+00
     57  0.000000D+00  0.000000D+00  0.000000D+00  0.000000D+00  0.000000D+00
     58  0.000000D+00  0.000000D+00  0.000000D+00  0.000000D+00  0.000000D+00
     59  0.000000D+00  0.000000D+00  0.000000D+00  0.000000D+00  0.000000D+00
     60  0.000000D+00  0.000000D+00  0.000000D+00  0.000000D+00  0.000000D+00
     61  0.000000D+00  0.000000D+00  0.000000D+00  0.000000D+00  0.000000D+00
     62  0.000000D+00  0.000000D+00  0.000000D+00  0.000000D+00  0.000000D+00
     63  0.000000D+00  0.000000D+00  0.000000D+00  0.000000D+00  0.000000D+00
     64  0.000000D+00  0.000000D+00  0.000000D+00  0.000000D+00  0.000000D+00
     65  0.000000D+00  0.000000D+00  0.000000D+00  0.000000D+00  0.000000D+00
     66  0.000000D+00  0.000000D+00  0.000000D+00  0.000000D+00  0.000000D+00
     67  0.000000D+00  0.000000D+00  0.000000D+00  0.000000D+00  0.000000D+00
     68  0.000000D+00  0.000000D+00  0.000000D+00  0.000000D+00  0.000000D+00
     69  0.000000D+00  0.000000D+00  0.000000D+00  0.000000D+00  0.000000D+00
     70  0.000000D+00  0.000000D+00  0.000000D+00  0.000000D+00  0.000000D+00
     71  0.000000D+00  0.000000D+00  0.000000D+00  0.000000D+00  0.000000D+00
     72  0.000000D+00  0.000000D+00  0.000000D+00  0.000000D+00  0.000000D+00
     73  0.000000D+00  0.000000D+00  0.000000D+00  0.000000D+00  0.000000D+00
     74  0.000000D+00  0.000000D+00  0.000000D+00  0.000000D+00  0.000000D+00
     75  0.000000D+00  0.000000D+00  0.000000D+00  0.000000D+00  0.000000D+00
     76  0.000000D+00  0.000000D+00  0.000000D+00  0.000000D+00  0.000000D+00
     77  0.000000D+00  0.000000D+00  0.000000D+00  0.000000D+00  0.000000D+00
     78  0.000000D+00  0.000000D+00  0.000000D+00  0.000000D+00  0.000000D+00
     79  0.000000D+00  0.000000D+00  0.000000D+00  0.000000D+00  0.000000D+00
     80  0.000000D+00  0.000000D+00  0.000000D+00  0.000000D+00  0.000000D+00
     81  0.000000D+00  0.000000D+00  0.000000D+00  0.000000D+00  0.000000D+00
               21            22            23            24            25 
     21  0.100000D+01
     22  0.000000D+00  0.100000D+01
     23  0.000000D+00  0.000000D+00  0.100000D+01
     24  0.000000D+00  0.000000D+00  0.000000D+00  0.100000D+01
     25  0.000000D+00  0.000000D+00  0.000000D+00  0.000000D+00  0.100000D+01
     26  0.000000D+00  0.000000D+00  0.000000D+00  0.000000D+00  0.000000D+00
     27  0.000000D+00  0.000000D+00  0.000000D+00  0.000000D+00  0.000000D+00
     28  0.000000D+00  0.000000D+00  0.756040D+00  0.000000D+00  0.000000D+00
     29  0.000000D+00  0.000000D+00  0.000000D+00  0.756040D+00  0.000000D+00
     30  0.000000D+00  0.000000D+00  0.000000D+00  0.000000D+00  0.756040D+00
     31  0.000000D+00  0.000000D+00  0.000000D+00  0.000000D+00  0.000000D+00
     32  0.000000D+00  0.000000D+00  0.000000D+00  0.000000D+00  0.000000D+00
     33  0.000000D+00  0.000000D+00  0.352641D+00  0.000000D+00  0.000000D+00
     34  0.000000D+00  0.000000D+00  0.000000D+00  0.352641D+00  0.000000D+00
     35  0.000000D+00  0.000000D+00  0.000000D+00  0.000000D+00  0.352641D+00
     36  0.000000D+00  0.000000D+00  0.000000D+00  0.000000D+00  0.000000D+00
     37  0.000000D+00  0.000000D+00  0.000000D+00  0.000000D+00  0.000000D+00
     38  0.000000D+00  0.000000D+00  0.120257D+00  0.000000D+00  0.000000D+00
     39  0.000000D+00  0.000000D+00  0.000000D+00  0.120257D+00  0.000000D+00
     40  0.000000D+00  0.000000D+00  0.000000D+00  0.000000D+00  0.120257D+00
     41  0.000000D+00  0.000000D+00  0.000000D+00  0.000000D+00  0.000000D+00
     42  0.000000D+00  0.000000D+00  0.000000D+00  0.000000D+00  0.000000D+00
     43  0.000000D+00  0.000000D+00  0.000000D+00  0.000000D+00  0.000000D+00
     44  0.000000D+00  0.000000D+00  0.000000D+00  0.000000D+00  0.000000D+00
     45  0.000000D+00  0.000000D+00  0.000000D+00  0.000000D+00  0.000000D+00
     46  0.000000D+00  0.000000D+00  0.000000D+00  0.000000D+00  0.000000D+00
     47  0.000000D+00  0.000000D+00  0.000000D+00  0.000000D+00  0.000000D+00
     48  0.000000D+00  0.000000D+00  0.000000D+00  0.000000D+00  0.000000D+00
     49  0.000000D+00  0.000000D+00  0.000000D+00  0.000000D+00  0.000000D+00
     50  0.000000D+00  0.000000D+00  0.000000D+00  0.000000D+00  0.000000D+00
     51  0.000000D+00  0.000000D+00  0.000000D+00  0.000000D+00  0.000000D+00
     52  0.000000D+00  0.000000D+00  0.000000D+00  0.000000D+00  0.000000D+00
     53  0.000000D+00  0.000000D+00  0.000000D+00  0.000000D+00  0.000000D+00
     54  0.000000D+00  0.000000D+00  0.000000D+00  0.000000D+00  0.000000D+00
     55  0.000000D+00  0.000000D+00  0.000000D+00  0.000000D+00  0.000000D+00
     56  0.000000D+00  0.000000D+00  0.000000D+00  0.000000D+00  0.000000D+00
     57  0.000000D+00  0.000000D+00  0.000000D+00  0.000000D+00  0.000000D+00
     58  0.000000D+00  0.000000D+00  0.000000D+00  0.000000D+00  0.000000D+00
     59  0.000000D+00  0.000000D+00  0.000000D+00  0.000000D+00  0.000000D+00
     60  0.000000D+00  0.000000D+00  0.000000D+00  0.000000D+00  0.000000D+00
     61  0.000000D+00  0.000000D+00  0.000000D+00  0.000000D+00  0.000000D+00
     62  0.000000D+00  0.000000D+00  0.000000D+00  0.000000D+00  0.000000D+00
     63  0.000000D+00  0.000000D+00  0.000000D+00  0.000000D+00  0.000000D+00
     64  0.000000D+00  0.000000D+00  0.000000D+00  0.000000D+00  0.000000D+00
     65  0.000000D+00  0.000000D+00  0.000000D+00  0.000000D+00  0.000000D+00
     66  0.000000D+00  0.000000D+00  0.000000D+00  0.000000D+00  0.000000D+00
     67  0.000000D+00  0.000000D+00  0.000000D+00  0.000000D+00  0.000000D+00
     68  0.000000D+00  0.000000D+00  0.000000D+00  0.000000D+00  0.000000D+00
     69  0.000000D+00  0.000000D+00  0.000000D+00  0.000000D+00  0.000000D+00
     70  0.000000D+00  0.000000D+00  0.000000D+00  0.000000D+00  0.000000D+00
     71  0.000000D+00  0.000000D+00  0.000000D+00  0.000000D+00  0.000000D+00
     72  0.000000D+00  0.000000D+00  0.000000D+00  0.000000D+00  0.000000D+00
     73  0.000000D+00  0.000000D+00  0.000000D+00  0.000000D+00  0.000000D+00
     74  0.000000D+00  0.000000D+00  0.000000D+00  0.000000D+00  0.000000D+00
     75  0.000000D+00  0.000000D+00  0.000000D+00  0.000000D+00  0.000000D+00
     76  0.000000D+00  0.000000D+00  0.000000D+00  0.000000D+00  0.000000D+00
     77  0.000000D+00  0.000000D+00  0.000000D+00  0.000000D+00  0.000000D+00
     78  0.000000D+00  0.000000D+00  0.000000D+00  0.000000D+00  0.000000D+00
     79  0.000000D+00  0.000000D+00  0.000000D+00  0.000000D+00  0.000000D+00
     80  0.000000D+00  0.000000D+00  0.000000D+00  0.000000D+00  0.000000D+00
     81  0.000000D+00  0.000000D+00  0.000000D+00  0.000000D+00  0.000000D+00
               26            27            28            29            30 
     26  0.100000D+01
     27  0.000000D+00  0.100000D+01
     28  0.000000D+00  0.000000D+00  0.100000D+01
     29  0.000000D+00  0.000000D+00  0.000000D+00  0.100000D+01
     30  0.000000D+00  0.000000D+00  0.000000D+00  0.000000D+00  0.100000D+01
     31  0.756040D+00  0.000000D+00  0.000000D+00  0.000000D+00  0.000000D+00
     32  0.000000D+00  0.756040D+00  0.000000D+00  0.000000D+00  0.000000D+00
     33  0.000000D+00  0.000000D+00  0.755671D+00  0.000000D+00  0.000000D+00
     34  0.000000D+00  0.000000D+00  0.000000D+00  0.755671D+00  0.000000D+00
     35  0.000000D+00  0.000000D+00  0.000000D+00  0.000000D+00  0.755671D+00
     36  0.352641D+00  0.000000D+00  0.000000D+00  0.000000D+00  0.000000D+00
     37  0.000000D+00  0.352641D+00  0.000000D+00  0.000000D+00  0.000000D+00
     38  0.000000D+00  0.000000D+00  0.354232D+00  0.000000D+00  0.000000D+00
     39  0.000000D+00  0.000000D+00  0.000000D+00  0.354232D+00  0.000000D+00
     40  0.000000D+00  0.000000D+00  0.000000D+00  0.000000D+00  0.354232D+00
     41  0.120257D+00  0.000000D+00  0.000000D+00  0.000000D+00  0.000000D+00
     42  0.000000D+00  0.120257D+00  0.000000D+00  0.000000D+00  0.000000D+00
     43  0.000000D+00  0.000000D+00  0.000000D+00  0.000000D+00  0.000000D+00
     44  0.000000D+00  0.000000D+00  0.000000D+00  0.000000D+00  0.000000D+00
     45  0.000000D+00  0.000000D+00  0.000000D+00  0.000000D+00  0.000000D+00
     46  0.000000D+00  0.000000D+00  0.000000D+00  0.000000D+00  0.000000D+00
     47  0.000000D+00  0.000000D+00  0.000000D+00  0.000000D+00  0.000000D+00
     48  0.000000D+00  0.000000D+00  0.000000D+00  0.000000D+00  0.000000D+00
     49  0.000000D+00  0.000000D+00  0.000000D+00  0.000000D+00  0.000000D+00
     50  0.000000D+00  0.000000D+00  0.000000D+00  0.000000D+00  0.000000D+00
     51  0.000000D+00  0.000000D+00  0.000000D+00  0.000000D+00  0.000000D+00
     52  0.000000D+00  0.000000D+00  0.000000D+00  0.000000D+00  0.000000D+00
     53  0.000000D+00  0.000000D+00  0.000000D+00  0.000000D+00  0.000000D+00
     54  0.000000D+00  0.000000D+00  0.000000D+00  0.000000D+00  0.000000D+00
     55  0.000000D+00  0.000000D+00  0.000000D+00  0.000000D+00  0.000000D+00
     56  0.000000D+00  0.000000D+00  0.000000D+00  0.000000D+00  0.000000D+00
     57  0.000000D+00  0.000000D+00  0.000000D+00  0.000000D+00  0.000000D+00
     58  0.000000D+00  0.000000D+00  0.000000D+00  0.000000D+00  0.000000D+00
     59  0.000000D+00  0.000000D+00  0.000000D+00  0.000000D+00  0.000000D+00
     60  0.000000D+00  0.000000D+00  0.000000D+00  0.000000D+00  0.000000D+00
     61  0.000000D+00  0.000000D+00  0.000000D+00  0.000000D+00  0.000000D+00
     62  0.000000D+00  0.000000D+00  0.000000D+00  0.000000D+00  0.000000D+00
     63  0.000000D+00  0.000000D+00  0.000000D+00  0.000000D+00  0.000000D+00
     64  0.000000D+00  0.000000D+00  0.000000D+00  0.000000D+00  0.000000D+00
     65  0.000000D+00  0.000000D+00  0.000000D+00  0.000000D+00  0.000000D+00
     66  0.000000D+00  0.000000D+00  0.000000D+00  0.000000D+00  0.000000D+00
     67  0.000000D+00  0.000000D+00  0.000000D+00  0.000000D+00  0.000000D+00
     68  0.000000D+00  0.000000D+00  0.000000D+00  0.000000D+00  0.000000D+00
     69  0.000000D+00  0.000000D+00  0.000000D+00  0.000000D+00  0.000000D+00
     70  0.000000D+00  0.000000D+00  0.000000D+00  0.000000D+00  0.000000D+00
     71  0.000000D+00  0.000000D+00  0.000000D+00  0.000000D+00  0.000000D+00
     72  0.000000D+00  0.000000D+00  0.000000D+00  0.000000D+00  0.000000D+00
     73  0.000000D+00  0.000000D+00  0.000000D+00  0.000000D+00  0.000000D+00
     74  0.000000D+00  0.000000D+00  0.000000D+00  0.000000D+00  0.000000D+00
     75  0.000000D+00  0.000000D+00  0.000000D+00  0.000000D+00  0.000000D+00
     76  0.000000D+00  0.000000D+00  0.000000D+00  0.000000D+00  0.000000D+00
     77  0.000000D+00  0.000000D+00  0.000000D+00  0.000000D+00  0.000000D+00
     78  0.000000D+00  0.000000D+00  0.000000D+00  0.000000D+00  0.000000D+00
     79  0.000000D+00  0.000000D+00  0.000000D+00  0.000000D+00  0.000000D+00
     80  0.000000D+00  0.000000D+00  0.000000D+00  0.000000D+00  0.000000D+00
     81  0.000000D+00  0.000000D+00  0.000000D+00  0.000000D+00  0.000000D+00
               31            32            33            34            35 
     31  0.100000D+01
     32  0.000000D+00  0.100000D+01
     33  0.000000D+00  0.000000D+00  0.100000D+01
     34  0.000000D+00  0.000000D+00  0.000000D+00  0.100000D+01
     35  0.000000D+00  0.000000D+00  0.000000D+00  0.000000D+00  0.100000D+01
     36  0.755671D+00  0.000000D+00  0.000000D+00  0.000000D+00  0.000000D+00
     37  0.000000D+00  0.755671D+00  0.000000D+00  0.000000D+00  0.000000D+00
     38  0.000000D+00  0.000000D+00  0.757993D+00  0.000000D+00  0.000000D+00
     39  0.000000D+00  0.000000D+00  0.000000D+00  0.757993D+00  0.000000D+00
     40  0.000000D+00  0.000000D+00  0.000000D+00  0.000000D+00  0.757993D+00
     41  0.354232D+00  0.000000D+00  0.000000D+00  0.000000D+00  0.000000D+00
     42  0.000000D+00  0.354232D+00  0.000000D+00  0.000000D+00  0.000000D+00
     43  0.000000D+00  0.000000D+00  0.000000D+00  0.000000D+00  0.000000D+00
     44  0.000000D+00  0.000000D+00  0.000000D+00  0.000000D+00  0.000000D+00
     45  0.000000D+00  0.000000D+00  0.000000D+00  0.000000D+00  0.000000D+00
     46  0.000000D+00  0.000000D+00  0.000000D+00  0.000000D+00  0.000000D+00
     47  0.000000D+00  0.000000D+00  0.000000D+00  0.000000D+00  0.000000D+00
     48  0.000000D+00  0.000000D+00  0.000000D+00  0.000000D+00  0.000000D+00
     49  0.000000D+00  0.000000D+00  0.000000D+00  0.000000D+00  0.000000D+00
     50  0.000000D+00  0.000000D+00  0.000000D+00  0.000000D+00  0.000000D+00
     51  0.000000D+00  0.000000D+00  0.000000D+00  0.000000D+00  0.000000D+00
     52  0.000000D+00  0.000000D+00  0.000000D+00  0.000000D+00  0.000000D+00
     53  0.000000D+00  0.000000D+00  0.000000D+00  0.000000D+00  0.000000D+00
     54  0.000000D+00  0.000000D+00  0.000000D+00  0.000000D+00  0.000000D+00
     55  0.000000D+00  0.000000D+00  0.000000D+00  0.000000D+00  0.000000D+00
     56  0.000000D+00  0.000000D+00  0.000000D+00  0.000000D+00  0.000000D+00
     57  0.000000D+00  0.000000D+00  0.000000D+00  0.000000D+00  0.000000D+00
     58  0.000000D+00  0.000000D+00  0.000000D+00  0.000000D+00  0.000000D+00
     59  0.000000D+00  0.000000D+00  0.000000D+00  0.000000D+00  0.000000D+00
     60  0.000000D+00  0.000000D+00  0.000000D+00  0.000000D+00  0.000000D+00
     61  0.000000D+00  0.000000D+00  0.000000D+00  0.000000D+00  0.000000D+00
     62  0.000000D+00  0.000000D+00  0.000000D+00  0.000000D+00  0.000000D+00
     63  0.000000D+00  0.000000D+00  0.000000D+00  0.000000D+00  0.000000D+00
     64  0.000000D+00  0.000000D+00  0.000000D+00  0.000000D+00  0.000000D+00
     65  0.000000D+00  0.000000D+00  0.000000D+00  0.000000D+00  0.000000D+00
     66  0.000000D+00  0.000000D+00  0.000000D+00  0.000000D+00  0.000000D+00
     67  0.000000D+00  0.000000D+00  0.000000D+00  0.000000D+00  0.000000D+00
     68  0.000000D+00  0.000000D+00  0.000000D+00  0.000000D+00  0.000000D+00
     69  0.000000D+00  0.000000D+00  0.000000D+00  0.000000D+00  0.000000D+00
     70  0.000000D+00  0.000000D+00  0.000000D+00  0.000000D+00  0.000000D+00
     71  0.000000D+00  0.000000D+00  0.000000D+00  0.000000D+00  0.000000D+00
     72  0.000000D+00  0.000000D+00  0.000000D+00  0.000000D+00  0.000000D+00
     73  0.000000D+00  0.000000D+00  0.000000D+00  0.000000D+00  0.000000D+00
     74  0.000000D+00  0.000000D+00  0.000000D+00  0.000000D+00  0.000000D+00
     75  0.000000D+00  0.000000D+00  0.000000D+00  0.000000D+00  0.000000D+00
     76  0.000000D+00  0.000000D+00  0.000000D+00  0.000000D+00  0.000000D+00
     77  0.000000D+00  0.000000D+00  0.000000D+00  0.000000D+00  0.000000D+00
     78  0.000000D+00  0.000000D+00  0.000000D+00  0.000000D+00  0.000000D+00
     79  0.000000D+00  0.000000D+00  0.000000D+00  0.000000D+00  0.000000D+00
     80  0.000000D+00  0.000000D+00  0.000000D+00  0.000000D+00  0.000000D+00
     81  0.000000D+00  0.000000D+00  0.000000D+00  0.000000D+00  0.000000D+00
               36            37            38            39            40 
     36  0.100000D+01
     37  0.000000D+00  0.100000D+01
     38  0.000000D+00  0.000000D+00  0.100000D+01
     39  0.000000D+00  0.000000D+00  0.000000D+00  0.100000D+01
     40  0.000000D+00  0.000000D+00  0.000000D+00  0.000000D+00  0.100000D+01
     41  0.757993D+00  0.000000D+00  0.000000D+00  0.000000D+00  0.000000D+00
     42  0.000000D+00  0.757993D+00  0.000000D+00  0.000000D+00  0.000000D+00
     43  0.000000D+00  0.000000D+00  0.000000D+00  0.000000D+00  0.000000D+00
     44  0.000000D+00  0.000000D+00  0.000000D+00  0.000000D+00  0.000000D+00
     45  0.000000D+00  0.000000D+00  0.000000D+00  0.000000D+00  0.000000D+00
     46  0.000000D+00  0.000000D+00  0.000000D+00  0.000000D+00  0.000000D+00
     47  0.000000D+00  0.000000D+00  0.000000D+00  0.000000D+00  0.000000D+00
     48  0.000000D+00  0.000000D+00  0.000000D+00  0.000000D+00  0.000000D+00
     49  0.000000D+00  0.000000D+00  0.000000D+00  0.000000D+00  0.000000D+00
     50  0.000000D+00  0.000000D+00  0.000000D+00  0.000000D+00  0.000000D+00
     51  0.000000D+00  0.000000D+00  0.000000D+00  0.000000D+00  0.000000D+00
     52  0.000000D+00  0.000000D+00  0.000000D+00  0.000000D+00  0.000000D+00
     53  0.000000D+00  0.000000D+00  0.000000D+00  0.000000D+00  0.000000D+00
     54  0.000000D+00  0.000000D+00  0.000000D+00  0.000000D+00  0.000000D+00
     55  0.000000D+00  0.000000D+00  0.000000D+00  0.000000D+00  0.000000D+00
     56  0.000000D+00  0.000000D+00  0.000000D+00  0.000000D+00  0.000000D+00
     57  0.000000D+00  0.000000D+00  0.000000D+00  0.000000D+00  0.000000D+00
     58  0.000000D+00  0.000000D+00  0.000000D+00  0.000000D+00  0.000000D+00
     59  0.000000D+00  0.000000D+00  0.000000D+00  0.000000D+00  0.000000D+00
     60  0.000000D+00  0.000000D+00  0.000000D+00  0.000000D+00  0.000000D+00
     61  0.000000D+00  0.000000D+00  0.000000D+00  0.000000D+00  0.000000D+00
     62  0.000000D+00  0.000000D+00  0.000000D+00  0.000000D+00  0.000000D+00
     63  0.000000D+00  0.000000D+00  0.000000D+00  0.000000D+00  0.000000D+00
     64  0.000000D+00  0.000000D+00  0.000000D+00  0.000000D+00  0.000000D+00
     65  0.000000D+00  0.000000D+00  0.000000D+00  0.000000D+00  0.000000D+00
     66  0.000000D+00  0.000000D+00  0.000000D+00  0.000000D+00  0.000000D+00
     67  0.000000D+00  0.000000D+00  0.000000D+00  0.000000D+00  0.000000D+00
     68  0.000000D+00  0.000000D+00  0.000000D+00  0.000000D+00  0.000000D+00
     69  0.000000D+00  0.000000D+00  0.000000D+00  0.000000D+00  0.000000D+00
     70  0.000000D+00  0.000000D+00  0.000000D+00  0.000000D+00  0.000000D+00
     71  0.000000D+00  0.000000D+00  0.000000D+00  0.000000D+00  0.000000D+00
     72  0.000000D+00  0.000000D+00  0.000000D+00  0.000000D+00  0.000000D+00
     73  0.000000D+00  0.000000D+00  0.000000D+00  0.000000D+00  0.000000D+00
[...]
 RMSDP=1.12D-09 MaxDP=6.45D-08 DE=-6.57D-14 OVMax= 8.70D-08

 SCF Done:  E(UHF) =  -7.66526879878     A.U. after   11 cycles
            NFock= 11  Conv=0.11D-08     -V/T= 1.9187
 <Sx>= 0.0000 <Sy>= 0.0000 <Sz>= 1.0000 <S**2>= 2.0001 S= 1.0000
 <L.S>= 0.000000000000E+00
 KE= 8.343801444610D+00 PE=-2.160102503678D+01 EE= 3.607540252433D+00
 Annihilation of the first spin contaminant:
 S**2 before annihilation     2.0001,   after     2.0000
 Leave Link  502 at Mon Mar 28 14:07:13 2022, MaxMem=  9663676416 cpu:              24.8 elap:               0.7
 (Enter /nopt/nrel/apps/gaussian/g16C_1/g16/l801.exe)
 Windowed orbitals will be sorted by symmetry type.
 ExpMin= 6.35D-03 ExpMax= 6.60D+03 ExpMxC= 6.43D+01 IAcc=3 IRadAn=         5 AccDes= 0.00D+00
 HarFok:  IExCor=  205 AccDes= 0.00D+00 IRadAn=         5 IDoV=-2 UseB2=F ITyADJ=14
 ICtDFT= 12500011 ScaDFX=  1.000000  1.000000  1.000000  1.000000
 Largest valence mixing into a core orbital is  3.39D-03
 Largest core mixing into a valence orbital is  1.37D-03
 Range of M.O.s used for correlation:     2    81
 NBasis=    81 NAE=     3 NBE=     1 NFC=     1 NFV=     0
 NROrb=     80 NOA=     2 NOB=     0 NVA=    78 NVB=    80
 Leave Link  801 at Mon Mar 28 14:07:13 2022, MaxMem=  9663676416 cpu:               1.9 elap:               0.1
 (Enter /nopt/nrel/apps/gaussian/g16C_1/g16/l804.exe)
 Open-shell transformation, MDV=  9663676416 ITran=4 ISComp=2.
 Unit  1 TFree=        405032 TCopy=        335263.
 Semi-Direct transformation.
 ModeAB=           2 MOrb=             2 LenV=    9663245290
 LASXX=       126892 LTotXX=      126892 LenRXX=      126892
 LTotAB=      133554 MaxLAS=      907360 LenRXY=      907360
 NonZer=      974560 LenScr=     2191872 LnRSAI=           0
 LnScr1=           0 LExtra=      339518 Total=      3565642
 MaxDsk= 34359738368 SrtSym=           F ITran=            4
 DoSDTr:  NPSUse= 36
 JobTyp=1 Pass  1:  I=   1 to   2.
 (rs|ai) integrals will be sorted in core.
 Complete sort for first half transformation.
 First half transformation complete.
 Complete sort for second half transformation.
 Second half transformation complete.
 Spin components of T(2) and E(2):
     alpha-alpha T2 =       0.6942212285D-03 E2=     -0.1167449176D-02
     alpha-beta  T2 =       0.0000000000D+00 E2=      0.0000000000D+00
     beta-beta   T2 =       0.0000000000D+00 E2=      0.0000000000D+00
 ANorm=    0.1000347050D+01
 E2 =    -0.1167449176D-02 EUMP2 =    -0.76664362479609D+01
 Leave Link  804 at Mon Mar 28 14:07:14 2022, MaxMem=  9663676416 cpu:              18.5 elap:               0.5
 (Enter /nopt/nrel/apps/gaussian/g16C_1/g16/l913.exe)
 CIDS:  MDV=  9663676416.
 Frozen-core window:  NFC=   1 NFV=   0.
 IFCWin=0 IBDFC=1 NFBD=     0     0 NFCmp=     0     0 NFFFC=     0     0
 Using original routines for 1st iteration.
 Using DD4UQ or CC4UQ for 2nd and later iterations.
 Keep R2 and R3 ints in memory in symmetry-blocked form, NReq=46163603.
 FoFCou: FMM=F IPFlag=           0 FMFlag=           0 FMFlg1=           0
         NFxFlg=           0 DoJE=F BraDBF=F KetDBF=F FulRan=T
         wScrn=  0.000000 ICntrl=       600 IOpCl=  0 I1Cent=           0 NGrid=           0
         NMat0=    1 NMatS0=   3321 NMatT0=    0 NMatD0=    1 NMtDS0=    0 NMtDT0=    0
 Petite list used in FoFCou.
 CIDS: In Core Option IDoMem=           1.
 Coupled Cluster theory with single and double substitutions
 ===========================================================
 Iterations= 200 Convergence= 0.100D-06
 Produce multiple copies of IABC intergrals
 Iteration Nr.   1
 **********************
 DD1Dir will call FoFMem   1 times, MxPair=         2
 NAB=     0 NAA=     1 NBB=     0.
 MP4(R+Q)=  0.81046800D-06
 Maximum subspace dimension=  5
 A-vector RMS=  3.9667176D-04 Max=  2.6970103D-03 conv= 1.00D-05.
 RLE energy=       -0.0017648177
 E3=       -0.39595444D-03        EUMP3=      -0.76668322024D+01
 E4(DQ)=   -0.14886267D-03        UMP4(DQ)=   -0.76669810651D+01
 E4(SDQ)=  -0.15247965D-03        UMP4(SDQ)=  -0.76669846820D+01
 VARIATIONAL ENERGIES WITH THE FIRST-ORDER WAVEFUNCTION:
 DE(Corr)= -0.15626160E-02 E(Corr)=     -7.6668314148    
 NORM(A)=   0.10008560D+01
 Iteration Nr.   2
 **********************
 DD1Dir will call FoFMem   1 times, MxPair=         2
 NAB=     0 NAA=     1 NBB=     0.
 A-vector RMS=  1.8739865D-04 Max=  1.0355846D-03 conv= 1.00D-05.
 RLE energy=       -0.0018281125
 DE(Corr)= -0.17928126E-02 E(CORR)=     -7.6670616114     Delta=-2.30D-04
 NORM(A)=   0.10009676D+01
 Iteration Nr.   3
 **********************
 DD1Dir will call FoFMem   1 times, MxPair=         2
 NAB=     0 NAA=     1 NBB=     0.
 A-vector RMS=  5.8542026D-05 Max=  3.8788235D-04 conv= 1.00D-05.
 RLE energy=       -0.0018308592
 DE(Corr)= -0.18283320E-02 E(CORR)=     -7.6670971307     Delta=-3.55D-05
 NORM(A)=   0.10009822D+01
 Iteration Nr.   4
 **********************
 DD1Dir will call FoFMem   1 times, MxPair=         2
 NAB=     0 NAA=     1 NBB=     0.
 A-vector RMS=  1.5280592D-05 Max=  1.0196854D-04 conv= 1.00D-05.
 RLE energy=       -0.0018307521
 DE(Corr)= -0.18307656E-02 E(CORR)=     -7.6670995644     Delta=-2.43D-06
 NORM(A)=   0.10009842D+01
 Iteration Nr.   5
 **********************
 DD1Dir will call FoFMem   1 times, MxPair=         2
 NAB=     0 NAA=     1 NBB=     0.
 A-vector RMS=  3.0548431D-06 Max=  2.0034112D-05 conv= 1.00D-05.
 RLE energy=       -0.0018308584
 DE(Corr)= -0.18307953E-02 E(CORR)=     -7.6670995941     Delta=-2.97D-08
 NORM(A)=   0.10009846D+01
 Iteration Nr.   6
 **********************
 DD1Dir will call FoFMem   1 times, MxPair=         2
 NAB=     0 NAA=     1 NBB=     0.
 A-vector RMS=  5.7081256D-07 Max=  3.8828513D-06 conv= 1.00D-05.
 RLE energy=       -0.0018308269
 DE(Corr)= -0.18308391E-02 E(CORR)=     -7.6670996379     Delta=-4.38D-08
 NORM(A)=   0.10009846D+01
 CI/CC converged in    6 iterations to DelEn=-4.38D-08 Conv= 1.00D-07 ErrA1= 5.71D-07 Conv= 1.00D-05
 Wavefunction amplitudes converged. E(Corr)=     -7.6670996379    
 Largest amplitude= 1.21D-02
 Discarding MO integrals.
 Leave Link  913 at Mon Mar 28 14:07:14 2022, MaxMem=  9663676416 cpu:              26.6 elap:               0.8
 (Enter /nopt/nrel/apps/gaussian/g16C_1/g16/l601.exe)
 Copying SCF densities to generalized density rwf, IOpCl= 1 IROHF=0.

 **********************************************************************

            Population analysis using the SCF Density.

 **********************************************************************

 Orbital symmetries:
 Alpha Orbitals:
       Occupied  (SG) (SG) (SG)
       Virtual   (SG) (PI) (PI) (SG) (PI) (PI) (SG) (SG) (DLTA)
                 (DLTA) (PI) (PI) (SG) (PI) (PI) (SG) (PI) (PI)
                 (PHI) (PHI) (SG) (DLTA) (DLTA) (PI) (PI) (SG)
                 (DLTA) (DLTA) (PI) (PI) (SG) (SG) (?A) (?A) (PHI)
                 (PHI) (PI) (PI) (DLTA) (DLTA) (SG) (PI) (PI) (DLTA)
                 (DLTA) (PHI) (PHI) (SG) (PI) (PI) (DLTA) (DLTA)
                 (SG) (PI) (PI) (SG) (PI) (PI) (DLTA) (DLTA) (PHI)
                 (PHI) (?A) (?A) (SG) (PHI) (PHI) (PI) (PI) (DLTA)
                 (DLTA) (SG) (PI) (PI) (DLTA) (DLTA) (SG) (SG)
 Beta  Orbitals:
       Occupied  (SG)
       Virtual   (SG) (SG) (PI) (PI) (SG) (PI) (PI) (SG) (SG) (DLTA)
                 (DLTA) (PI) (PI) (SG) (PI) (PI) (SG) (SG) (PHI)
                 (PHI) (DLTA) (DLTA) (PI) (PI) (SG) (DLTA) (DLTA)
                 (PI) (PI) (SG) (PI) (PI) (SG) (?A) (?A) (PHI)
                 (PHI) (SG) (DLTA) (DLTA) (PI) (PI) (SG) (PI) (PI)
                 (DLTA) (DLTA) (PHI) (PHI) (SG) (DLTA) (DLTA) (PI)
                 (PI) (SG) (PI) (PI) (SG) (PI) (PI) (DLTA) (DLTA)
                 (PHI) (PHI) (?A) (?A) (PHI) (PHI) (SG) (DLTA)
                 (DLTA) (PI) (PI) (SG) (PI) (PI) (DLTA) (DLTA)
                 (SG) (SG)
 The electronic state is 3-SG.
 Alpha  occ. eigenvalues --   -2.62890  -0.65600  -0.18869
 Alpha virt. eigenvalues --    0.00749   0.00922   0.00922   0.02109   0.03053
 Alpha virt. eigenvalues --    0.03053   0.04843   0.08425   0.08489   0.08489
 Alpha virt. eigenvalues --    0.08492   0.08492   0.09941   0.10236   0.10236
 Alpha virt. eigenvalues --    0.17282   0.21655   0.21655   0.21673   0.21673
 Alpha virt. eigenvalues --    0.21709   0.21718   0.21718   0.24860   0.24860
 Alpha virt. eigenvalues --    0.25014   0.25280   0.25280   0.29950   0.29950
 Alpha virt. eigenvalues --    0.34434   0.52143   0.52408   0.52408   0.52502
 Alpha virt. eigenvalues --    0.52502   0.52513   0.52513   0.52546   0.52546
 Alpha virt. eigenvalues --    0.55553   0.59161   0.59161   0.60689   0.60689
 Alpha virt. eigenvalues --    0.61001   0.61001   0.62387   0.63069   0.63069
 Alpha virt. eigenvalues --    0.63693   0.63693   0.75119   1.04368   1.04368
 Alpha virt. eigenvalues --    1.25957   1.32991   1.32991   1.38621   1.38621
 Alpha virt. eigenvalues --    1.41088   1.41088   1.44849   1.44849   1.44864
 Alpha virt. eigenvalues --    1.45778   1.45778   1.46108   1.46108   1.46209
 Alpha virt. eigenvalues --    1.46209   1.48370   1.50798   1.50798   1.53185
 Alpha virt. eigenvalues --    1.53185   2.24774   4.23581
  Beta  occ. eigenvalues --   -2.56855
  Beta virt. eigenvalues --   -0.03133   0.01144   0.01509   0.01509   0.01898
  Beta virt. eigenvalues --    0.04919   0.04919   0.05771   0.06985   0.08855
  Beta virt. eigenvalues --    0.08855   0.09210   0.09210   0.09389   0.12763
  Beta virt. eigenvalues --    0.12763   0.14388   0.22004   0.22044   0.22044
  Beta virt. eigenvalues --    0.22091   0.22091   0.22143   0.22143   0.23458
  Beta virt. eigenvalues --    0.26673   0.26673   0.27301   0.27301   0.27695
  Beta virt. eigenvalues --    0.32640   0.32640   0.38666   0.52893   0.52893
  Beta virt. eigenvalues --    0.53011   0.53011   0.53034   0.53114   0.53114
  Beta virt. eigenvalues --    0.53178   0.53178   0.60018   0.61845   0.61845
  Beta virt. eigenvalues --    0.61934   0.61934   0.62001   0.62001   0.65303
  Beta virt. eigenvalues --    0.65475   0.65475   0.66043   0.66043   0.84949
  Beta virt. eigenvalues --    1.06065   1.06065   1.32377   1.38135   1.38135
  Beta virt. eigenvalues --    1.40961   1.40961   1.42084   1.42084   1.45662
  Beta virt. eigenvalues --    1.45662   1.47000   1.47000   1.47233   1.47668
  Beta virt. eigenvalues --    1.47668   1.47881   1.47881   1.51044   1.53622
  Beta virt. eigenvalues --    1.53622   1.54349   1.54349   2.30669   4.31886
          Condensed to atoms (all electrons):
               1          2
     1  H    0.640081   0.108361
     2  Li   0.108361   3.143197
          Atomic-Atomic Spin Densities.
               1          2
     1  H    0.636472   0.079692
     2  Li   0.079692   1.204143
 Mulliken charges and spin densities:
               1          2
     1  H    0.251558   0.716165
     2  Li  -0.251558   1.283835
 Sum of Mulliken charges =  -0.00000   2.00000
 Mulliken charges and spin densities with hydrogens summed into heavy atoms:
               1          2
     2  Li  -0.000000   2.000000
 N-N= 1.984414540950D+00 E-N=-2.160102504966D+01  KE= 8.343801444610D+00
 Symmetry A1   KE= 8.343801444610D+00
 Symmetry A2   KE= 3.122247074395D-52
 Symmetry B1   KE= 0.000000000000D+00
 Symmetry B2   KE= 0.000000000000D+00
 Symmetry A1   SP= 2.000000000000D+00
 Symmetry A2   SP= 1.461198446788D-52
 Symmetry B1   SP= 0.000000000000D+00
 Symmetry B2   SP= 0.000000000000D+00

 Atomic contributions to Alpha molecular orbitals:
 Alpha occ 1 OE=-2.629 is Li2-s=0.9661
 Alpha occ 2 OE=-0.656 is H1-s=0.7071 Li2-p=0.2034
 Alpha occ 3 OE=-0.189 is Li2-s=0.7951 Li2-p=0.2118
 Alpha vir 4 OE=0.007 is Li2-s=0.5587 Li2-p=0.4393
 Alpha vir 5 OE=0.009 is Li2-p=0.9938
 Alpha vir 6 OE=0.009 is Li2-p=0.9938
 Alpha vir 7 OE=0.021 is Li2-p=0.5754 Li2-s=0.4235
 Alpha vir 8 OE=0.031 is Li2-p=0.9932
 Alpha vir 9 OE=0.031 is Li2-p=0.9932
 Alpha vir 10 OE=0.048 is Li2-p=0.7549 Li2-s=0.2291
 Alpha vir 11 OE=0.084 is Li2-d=0.9122
 Alpha vir 12 OE=0.085 is Li2-d=0.9963
 Alpha vir 13 OE=0.085 is Li2-d=0.9963
 Alpha vir 14 OE=0.085 is Li2-d=0.9622
 Alpha vir 15 OE=0.085 is Li2-d=0.9622
 Alpha vir 16 OE=0.099 is Li2-s=0.6580 Li2-p=0.2768
 Alpha vir 17 OE=0.102 is Li2-p=0.9687
 Alpha vir 18 OE=0.102 is Li2-p=0.9687
 Alpha vir 19 OE=0.173 is Li2-p=0.7599 Li2-s=0.2053
 Alpha vir 20 OE=0.217 is Li2-f=0.9282
 Alpha vir 21 OE=0.217 is Li2-f=0.9282
 Alpha vir 22 OE=0.217 is Li2-f=0.9991
 Alpha vir 23 OE=0.217 is Li2-f=0.9991
 Alpha vir 24 OE=0.217 is Li2-f=0.9333
 Alpha vir 25 OE=0.217 is Li2-f=0.9722
 Alpha vir 26 OE=0.217 is Li2-f=0.9722
 Alpha vir 27 OE=0.249 is Li2-d=0.9168
 Alpha vir 28 OE=0.249 is Li2-d=0.9168
 Alpha vir 29 OE=0.250 is Li2-d=0.9060
 Alpha vir 30 OE=0.253 is Li2-d=0.9761
 Alpha vir 31 OE=0.253 is Li2-d=0.9761
 Alpha vir 32 OE=0.299 is Li2-p=0.9740
 Alpha vir 33 OE=0.299 is Li2-p=0.9740
 Alpha vir 34 OE=0.344 is Li2-s=0.7958 Li2-p=0.2068
 Alpha vir 35 OE=0.521 is Li2-g=0.8472
 Alpha vir 36 OE=0.524 is Li2-g=1.0000
 Alpha vir 37 OE=0.524 is Li2-g=1.0000
 Alpha vir 38 OE=0.525 is Li2-g=0.9886
 Alpha vir 39 OE=0.525 is Li2-g=0.9886
 Alpha vir 40 OE=0.525 is Li2-g=0.9632
 Alpha vir 41 OE=0.525 is Li2-g=0.9632
 Alpha vir 42 OE=0.525 is Li2-g=0.9786
 Alpha vir 43 OE=0.525 is Li2-g=0.9786
 Alpha vir 44 OE=0.556 is Li2-d=0.4477 Li2-p=0.1868 Li2-f=0.1640 Li2-g=0.1377
 Alpha vir 45 OE=0.592 is Li2-f=0.5110 Li2-d=0.4488
 Alpha vir 46 OE=0.592 is Li2-f=0.5110 Li2-d=0.4488
 Alpha vir 47 OE=0.607 is Li2-f=0.8370 Li2-d=0.1438
 Alpha vir 48 OE=0.607 is Li2-f=0.8370 Li2-d=0.1438
 Alpha vir 49 OE=0.610 is Li2-f=0.9893
 Alpha vir 50 OE=0.610 is Li2-f=0.9893
 Alpha vir 51 OE=0.624 is Li2-f=0.7493 Li2-d=0.2011
 Alpha vir 52 OE=0.631 is Li2-d=0.5314 Li2-f=0.4575
 Alpha vir 53 OE=0.631 is Li2-d=0.5314 Li2-f=0.4575
 Alpha vir 54 OE=0.637 is Li2-d=0.8560 Li2-f=0.1428
 Alpha vir 55 OE=0.637 is Li2-d=0.8560 Li2-f=0.1428
 Alpha vir 56 OE=0.751 is Li2-p=0.6753 Li2-d=0.2345
 Alpha vir 57 OE=1.044 is Li2-p=0.9783
 Alpha vir 58 OE=1.044 is Li2-p=0.9783
 Alpha vir 59 OE=1.260 is Li2-f=0.4963 Li2-d=0.2392 Li2-g=0.1444 Li2-p=0.1148
 Alpha vir 60 OE=1.330 is Li2-f=0.6403 Li2-g=0.2131 Li2-d=0.1329
 Alpha vir 61 OE=1.330 is Li2-f=0.6403 Li2-g=0.2131 Li2-d=0.1329
 Alpha vir 62 OE=1.386 is Li2-f=0.7157 Li2-g=0.2552
 Alpha vir 63 OE=1.386 is Li2-f=0.7157 Li2-g=0.2552
 Alpha vir 64 OE=1.411 is Li2-f=0.7889 Li2-g=0.2111
 Alpha vir 65 OE=1.411 is Li2-f=0.7889 Li2-g=0.2111
 Alpha vir 66 OE=1.448 is Li2-g=1.0000
 Alpha vir 67 OE=1.448 is Li2-g=1.0000
 Alpha vir 68 OE=1.449 is Li2-g=0.7020 Li2-d=0.2469
 Alpha vir 69 OE=1.458 is Li2-g=0.7887 Li2-f=0.2113
 Alpha vir 70 OE=1.458 is Li2-g=0.7887 Li2-f=0.2113
 Alpha vir 71 OE=1.461 is Li2-g=0.7803 Li2-f=0.1520
 Alpha vir 72 OE=1.461 is Li2-g=0.7803 Li2-f=0.1520
 Alpha vir 73 OE=1.462 is Li2-g=0.7442 Li2-f=0.2451
 Alpha vir 74 OE=1.462 is Li2-g=0.7442 Li2-f=0.2451
 Alpha vir 75 OE=1.484 is Li2-f=0.4826 Li2-d=0.3263 Li2-g=0.1536
 Alpha vir 76 OE=1.508 is Li2-d=0.7882 Li2-f=0.1991
 Alpha vir 77 OE=1.508 is Li2-d=0.7882 Li2-f=0.1991
 Alpha vir 78 OE=1.532 is Li2-d=0.9612
 Alpha vir 79 OE=1.532 is Li2-d=0.9612
 Alpha vir 80 OE=2.248 is Li2-s=0.3112 Li2-p=0.2531 H1-s=0.2510 Li2-d=0.1699
 Alpha vir 81 OE=4.236 is Li2-s=0.7750 Li2-p=0.1410

 Atomic contributions to Beta  molecular orbitals:
 Beta  occ 1 OE=-2.569 is Li2-s=0.9833
 Beta  vir 2 OE=-0.031 is Li2-s=0.5386 Li2-p=0.2512 H1-s=0.2030
 Beta  vir 3 OE=0.011 is Li2-s=0.6944 Li2-p=0.2801
 Beta  vir 4 OE=0.015 is Li2-p=0.9945
 Beta  vir 5 OE=0.015 is Li2-p=0.9945
 Beta  vir 6 OE=0.019 is Li2-p=0.7269 Li2-s=0.2666
 Beta  vir 7 OE=0.049 is Li2-p=0.9427
 Beta  vir 8 OE=0.049 is Li2-p=0.9427
 Beta  vir 9 OE=0.058 is Li2-p=0.6475 Li2-s=0.2505
 Beta  vir 10 OE=0.070 is Li2-s=0.5494 Li2-p=0.3486
 Beta  vir 11 OE=0.089 is Li2-d=0.9947
 Beta  vir 12 OE=0.089 is Li2-d=0.9947
 Beta  vir 13 OE=0.092 is Li2-d=0.9292
 Beta  vir 14 OE=0.092 is Li2-d=0.9292
 Beta  vir 15 OE=0.094 is Li2-d=0.8844
 Beta  vir 16 OE=0.128 is Li2-p=0.9772
 Beta  vir 17 OE=0.128 is Li2-p=0.9772
 Beta  vir 18 OE=0.144 is Li2-s=0.5455 Li2-p=0.4255
 Beta  vir 19 OE=0.220 is Li2-f=0.8345
 Beta  vir 20 OE=0.220 is Li2-f=0.9988
 Beta  vir 21 OE=0.220 is Li2-f=0.9988
 Beta  vir 22 OE=0.221 is Li2-f=0.9598
 Beta  vir 23 OE=0.221 is Li2-f=0.9598
 Beta  vir 24 OE=0.221 is Li2-f=0.9473
 Beta  vir 25 OE=0.221 is Li2-f=0.9473
 Beta  vir 26 OE=0.235 is Li2-p=0.5751 Li2-s=0.2017 Li2-f=0.1200
 Beta  vir 27 OE=0.267 is Li2-d=0.9648
 Beta  vir 28 OE=0.267 is Li2-d=0.9648
 Beta  vir 29 OE=0.273 is Li2-d=0.9330
 Beta  vir 30 OE=0.273 is Li2-d=0.9330
 Beta  vir 31 OE=0.277 is Li2-d=0.9008
 Beta  vir 32 OE=0.326 is Li2-p=0.9894
 Beta  vir 33 OE=0.326 is Li2-p=0.9894
 Beta  vir 34 OE=0.387 is Li2-s=0.7913 Li2-p=0.2124
 Beta  vir 35 OE=0.529 is Li2-g=1.0000
 Beta  vir 36 OE=0.529 is Li2-g=1.0000
 Beta  vir 37 OE=0.530 is Li2-g=0.9837
 Beta  vir 38 OE=0.530 is Li2-g=0.9837
 Beta  vir 39 OE=0.530 is Li2-g=0.9445
 Beta  vir 40 OE=0.531 is Li2-g=0.9739
 Beta  vir 41 OE=0.531 is Li2-g=0.9739
 Beta  vir 42 OE=0.532 is Li2-g=0.9681
 Beta  vir 43 OE=0.532 is Li2-g=0.9681
 Beta  vir 44 OE=0.600 is Li2-f=0.4649 Li2-d=0.3502
 Beta  vir 45 OE=0.618 is Li2-f=0.7591 Li2-d=0.2119
 Beta  vir 46 OE=0.618 is Li2-f=0.7591 Li2-d=0.2119
 Beta  vir 47 OE=0.619 is Li2-f=0.8204 Li2-d=0.1573
 Beta  vir 48 OE=0.619 is Li2-f=0.8204 Li2-d=0.1573
 Beta  vir 49 OE=0.620 is Li2-f=0.9846
 Beta  vir 50 OE=0.620 is Li2-f=0.9846
 Beta  vir 51 OE=0.653 is Li2-f=0.4732 Li2-d=0.4664
 Beta  vir 52 OE=0.655 is Li2-d=0.8437 Li2-f=0.1540
 Beta  vir 53 OE=0.655 is Li2-d=0.8437 Li2-f=0.1540
 Beta  vir 54 OE=0.660 is Li2-d=0.7787 Li2-f=0.2101
 Beta  vir 55 OE=0.660 is Li2-d=0.7787 Li2-f=0.2101
 Beta  vir 56 OE=0.849 is Li2-p=0.7174 Li2-d=0.1149 H1-s=0.1094
 Beta  vir 57 OE=1.061 is Li2-p=0.9877
 Beta  vir 58 OE=1.061 is Li2-p=0.9877
 Beta  vir 59 OE=1.324 is Li2-f=0.5585 Li2-d=0.2122 Li2-g=0.1622
 Beta  vir 60 OE=1.381 is Li2-f=0.6752 Li2-g=0.2379
 Beta  vir 61 OE=1.381 is Li2-f=0.6752 Li2-g=0.2379
 Beta  vir 62 OE=1.410 is Li2-f=0.7194 Li2-g=0.2561
 Beta  vir 63 OE=1.410 is Li2-f=0.7194 Li2-g=0.2561
 Beta  vir 64 OE=1.421 is Li2-f=0.7880 Li2-g=0.2120
 Beta  vir 65 OE=1.421 is Li2-f=0.7880 Li2-g=0.2120
 Beta  vir 66 OE=1.457 is Li2-g=1.0000
 Beta  vir 67 OE=1.457 is Li2-g=1.0000
 Beta  vir 68 OE=1.470 is Li2-g=0.7877 Li2-f=0.2123
 Beta  vir 69 OE=1.470 is Li2-g=0.7877 Li2-f=0.2123
 Beta  vir 70 OE=1.472 is Li2-g=0.7855 Li2-d=0.1580
 Beta  vir 71 OE=1.477 is Li2-g=0.7422 Li2-f=0.2408
 Beta  vir 72 OE=1.477 is Li2-g=0.7422 Li2-f=0.2408
 Beta  vir 73 OE=1.479 is Li2-g=0.7585 Li2-f=0.1940
 Beta  vir 74 OE=1.479 is Li2-g=0.7585 Li2-f=0.1940
 Beta  vir 75 OE=1.510 is Li2-d=0.4901 Li2-f=0.4061
 Beta  vir 76 OE=1.536 is Li2-d=0.8621 Li2-f=0.1276
 Beta  vir 77 OE=1.536 is Li2-d=0.8621 Li2-f=0.1276
 Beta  vir 78 OE=1.543 is Li2-d=0.9595
 Beta  vir 79 OE=1.543 is Li2-d=0.9595
 Beta  vir 80 OE=2.307 is H1-s=0.3387 Li2-s=0.3119 Li2-p=0.2166 Li2-d=0.1243
 Beta  vir 81 OE=4.319 is Li2-s=0.7455 Li2-p=0.1255
 
 Leave Link  601 at Mon Mar 28 14:07:15 2022, MaxMem=  9663676416 cpu:               7.0 elap:               0.2
 (Enter /nopt/nrel/apps/gaussian/g16C_1/g16/l9999.exe)

 Test job not archived.
 1\1\GINC-R102U34\SP\UCCSD-FC\Gen\H1Li1(3)\USER\28-Mar-2022\0\\#P C
 CSD(MaxCyc=200,SaveAmplitudes,ReadAmplitudes)/GEN sp pop=AllOrbitals i
 op(3/33=1,3/36=-1)\\test\\0,3\H,0,0.,0.,0.\Li,0,0.,0.,0.8\\Version=ES6
 4L-G16RevC.01\State=3-SG\HF=-7.6652688\MP2=-7.6664362\MP3=-7.6668322\M
 P4D=-7.6669819\MP4DQ=-7.6669811\MP4SDQ=-7.6669847\CCSD=-7.6670996\S2=2
 .000138\S2-1=0.\S2A=2.\RMSD=1.119e-09\PG=C*V [C*(H1Li1)]\\@


 Luck is a matter of preparation meeting opportunity.
                                    -- Oprah Winfrey
 Job cpu time:       0 days  0 hours  1 minutes 43.8 seconds.
 Elapsed time:       0 days  0 hours  0 minutes  3.3 seconds.
 File lengths (MBytes):  RWF=     32 Int=      0 D2E=      0 Chk=      2 Scr=      1
 Normal termination of Gaussian 16 at Mon Mar 28 14:07:15 2022.
