 Entering Gaussian System, Link 0=g16
 Initial command:
 /nopt/nrel/apps/gaussian/g16C_1/g16/l1.exe "/lustre/eaglefs/scratch/user/qc/lih-dissc/lih-1-ccsd-1.9-631g/Gau-10891.inp" -scrdir="/lustre/eaglefs/scratch/user/qc/lih-dissc/lih-1-ccsd-1.9-631g/"
 Default is to use a total of  36 processors:
                               36 via shared-memory
                                1 via Linda
 Entering Link 1 = /nopt/nrel/apps/gaussian/g16C_1/g16/l1.exe PID=     10892.
  
 Copyright (c) 1988-2019, Gaussian, Inc.  All Rights Reserved.
  
 This is part of the Gaussian(R) 16 program.  It is based on
 the Gaussian(R) 09 system (copyright 2009, Gaussian, Inc.),
 the Gaussian(R) 03 system (copyright 2003, Gaussian, Inc.),
 the Gaussian(R) 98 system (copyright 1998, Gaussian, Inc.),
 the Gaussian(R) 94 system (copyright 1995, Gaussian, Inc.),
 the Gaussian 92(TM) system (copyright 1992, Gaussian, Inc.),
 the Gaussian 90(TM) system (copyright 1990, Gaussian, Inc.),
 the Gaussian 88(TM) system (copyright 1988, Gaussian, Inc.),
 the Gaussian 86(TM) system (copyright 1986, Carnegie Mellon
 University), and the Gaussian 82(TM) system (copyright 1983,
 Carnegie Mellon University). Gaussian is a federally registered
 trademark of Gaussian, Inc.
  
 This software contains proprietary and confidential information,
 including trade secrets, belonging to Gaussian, Inc.
  
 This software is provided under written license and may be
 used, copied, transmitted, or stored only in accord with that
 written license.
  
 The following legend is applicable only to US Government
 contracts under FAR:
  
                    RESTRICTED RIGHTS LEGEND
  
 Use, reproduction and disclosure by the US Government is
 subject to restrictions as set forth in subparagraphs (a)
 and (c) of the Commercial Computer Software - Restricted
 Rights clause in FAR 52.227-19.
  
 Gaussian, Inc.
 340 Quinnipiac St., Bldg. 40, Wallingford CT 06492
  
  
 ---------------------------------------------------------------
 Warning -- This program may not be used in any manner that
 competes with the business of Gaussian, Inc. or will provide
 assistance to any competitor of Gaussian, Inc.  The licensee
 of this program is prohibited from giving any competitor of
 Gaussian, Inc. access to this program.  By using this program,
 the user acknowledges that Gaussian, Inc. is engaged in the
 business of creating and licensing software in the field of
 computational chemistry and represents and warrants to the
 licensee that it is not a competitor of Gaussian, Inc. and that
 it will not use this program in any manner prohibited above.
 ---------------------------------------------------------------
  

 Cite this work as:
 Gaussian 16, Revision C.01,
 M. J. Frisch, G. W. Trucks, H. B. Schlegel, G. E. Scuseria, 
 M. A. Robb, J. R. Cheeseman, G. Scalmani, V. Barone, 
 G. A. Petersson, H. Nakatsuji, X. Li, M. Caricato, A. V. Marenich, 
 J. Bloino, B. G. Janesko, R. Gomperts, B. Mennucci, H. P. Hratchian, 
 J. V. Ortiz, A. F. Izmaylov, J. L. Sonnenberg, D. Williams-Young, 
 F. Ding, F. Lipparini, F. Egidi, J. Goings, B. Peng, A. Petrone, 
 T. Henderson, D. Ranasinghe, V. G. Zakrzewski, J. Gao, N. Rega, 
 G. Zheng, W. Liang, M. Hada, M. Ehara, K. Toyota, R. Fukuda, 
 J. Hasegawa, M. Ishida, T. Nakajima, Y. Honda, O. Kitao, H. Nakai, 
 T. Vreven, K. Throssell, J. A. Montgomery, Jr., J. E. Peralta, 
 F. Ogliaro, M. J. Bearpark, J. J. Heyd, E. N. Brothers, K. N. Kudin, 
 V. N. Staroverov, T. A. Keith, R. Kobayashi, J. Normand, 
 K. Raghavachari, A. P. Rendell, J. C. Burant, S. S. Iyengar, 
 J. Tomasi, M. Cossi, J. M. Millam, M. Klene, C. Adamo, R. Cammi, 
 J. W. Ochterski, R. L. Martin, K. Morokuma, O. Farkas, 
 J. B. Foresman, and D. J. Fox, Gaussian, Inc., Wallingford CT, 2019.
 
 ******************************************
 Gaussian 16:  ES64L-G16RevC.01  3-Jul-2019
                28-Mar-2022 
 ******************************************
 %chk=molecule
 Default route: CacheSize=180224 MaxDisk=256GB
 ----------------------------------------------------------------------
 #P CCSD(MaxCyc=200,SaveAmplitudes,ReadAmplitudes)/GEN sp pop=AllOrbita
 ls iop(3/33=1,3/36=-1)
 ----------------------------------------------------------------------
 1/4=180224,38=1,172=1/1;
 2/4=180224,12=2,17=6,18=5,40=1/2;
 3/4=180224,5=7,11=9,25=1,30=1,33=1,36=-1/1,2,3;
 4/4=180224/1;
 5/4=180224,5=2,38=5/2;
 8/4=180224,6=4,9=120000,10=1,24=1/1,4;
 9/4=180224,5=7,6=200,77=1/13;
 6/4=180224,7=2,8=2,9=2,10=2,96=-1/1;
 99/4=180224,5=1,9=1/99;
 Leave Link    1 at Mon Mar 28 14:00:54 2022, MaxMem=           0 cpu:               2.7 elap:               0.1
 (Enter /nopt/nrel/apps/gaussian/g16C_1/g16/l101.exe)
 ----
 test
 ----
 Symbolic Z-matrix:
 Charge =  0 Multiplicity = 1
 H                     0.        0.        0. 
 Li                    0.        0.        1.9 
 
 ITRead=  0  0
 MicOpt= -1 -1
 NAtoms=      2 NQM=        2 NQMF=       0 NMMI=      0 NMMIF=      0
                NMic=       0 NMicF=      0.
                    Isotopes and Nuclear Properties:
 (Nuclear quadrupole moments (NQMom) in fm**2, nuclear magnetic moments (NMagM)
  in nuclear magnetons)

  Atom         1           2
 IAtWgt=           1           7
 AtmWgt=   1.0078250   7.0160045
 NucSpn=           1           3
 AtZEff=  -0.0000000  -0.0000000
 NQMom=    0.0000000  -4.0100000
 NMagM=    2.7928460   3.2564240
 AtZNuc=   1.0000000   3.0000000
 Leave Link  101 at Mon Mar 28 14:00:54 2022, MaxMem=  9663676416 cpu:               3.3 elap:               0.1
 (Enter /nopt/nrel/apps/gaussian/g16C_1/g16/l202.exe)
                          Input orientation:                          
 ---------------------------------------------------------------------
 Center     Atomic      Atomic             Coordinates (Angstroms)
 Number     Number       Type             X           Y           Z
 ---------------------------------------------------------------------
      1          1           0        0.000000    0.000000    0.000000
      2          3           0        0.000000    0.000000    1.900000
 ---------------------------------------------------------------------
 Stoichiometry    HLi
 Framework group  C*V[C*(HLi)]
 Deg. of freedom     1
 Full point group                 C*V     NOp   4
 Largest Abelian subgroup         C2V     NOp   4
 Largest concise Abelian subgroup C1      NOp   1
                         Standard orientation:                         
 ---------------------------------------------------------------------
 Center     Atomic      Atomic             Coordinates (Angstroms)
 Number     Number       Type             X           Y           Z
 ---------------------------------------------------------------------
      1          1           0        0.000000    0.000000   -1.425000
      2          3           0        0.000000    0.000000    0.475000
 ---------------------------------------------------------------------
 Rotational constants (GHZ):           0.0000000         158.8607796         158.8607796
 Leave Link  202 at Mon Mar 28 14:00:54 2022, MaxMem=  9663676416 cpu:               1.1 elap:               0.1
 (Enter /nopt/nrel/apps/gaussian/g16C_1/g16/l301.exe)
 General basis read from cards:  (5D, 7F)
                         Coordinates in L301:                         
 ---------------------------------------------------------------------
 Center     Atomic      Atomic             Coordinates (Angstroms)
 Number     Number       Type             X           Y           Z
 ---------------------------------------------------------------------
      1          1           0        0.000000    0.000000   -1.425000
      2          3           0        0.000000    0.000000    0.475000
 ---------------------------------------------------------------------
 Centers:       1
 STO-3G
 ****
 Centers:       2
 6-31G
 ****
 FixB: optimizing general contractions.
 Ernie: Thresh=  0.10000D-02 Tol=  0.10000D-05 Strict=F.
 IA=     1 ShT= 0 ShC= 0 NL=   1 NS=   0.
 IA=     1 L=0 SC=0 ISt=    0 NBk=    0 NP=    0 IndPr=    0.
 IA=     2 ShT= 0 ShC= 0 NL=   1 NS=   0.
 IA=     2 L=0 SC=0 ISt=    0 NBk=    0 NP=    0 IndPr=    0.
 IA=     2 ShT= 1 ShC= 0 NL=   2 NS=   1.
 IA=     2 L=1 SC=0 ISt=    0 NBk=    0 NP=    0 IndPr=    0.
 LdAtmC:  AtmChg=     1.000000     3.000000
 AtZEff=     -1.0000000     -1.3500000
 NEqShl: 
              1            2            3            4
     1            1            1            1            1
     2            2            2            2            2
     3            3            3            3            3
     4            4            4            4            4
 NEqBas: 
              1            2            3            4
     1            1            1            1            1
     2            2            2            2            2
     3            3            3            3            3
     4            4           -4           -4            4
     5            5           -5            5           -5
     6            6            6            6            6
     7            7            7            7            7
     8            8           -8           -8            8
     9            9           -9            9           -9
    10           10           10           10           10
 There are     6 symmetry adapted cartesian basis functions of A1  symmetry.
   1         1   1   1   1
   2         2   2   2   2
   3         3   3   3   3
   4         6   6   6   6
   5         7   7   7   7
   6        10  10  10  10
 There are     0 symmetry adapted cartesian basis functions of A2  symmetry.
 There are     2 symmetry adapted cartesian basis functions of B1  symmetry.
   7         4   4   4   4
   8         8   8   8   8
 There are     2 symmetry adapted cartesian basis functions of B2  symmetry.
   9         5   5   5   5
  10         9   9   9   9
 Order= 1 2 4 3
 Reordered character table:
              1            2            3            4            5
     1            1            1            1            1            1
     2            2            1            1           -1           -1
     3            4            1           -1           -1            1
     4            3            1           -1            1           -1
 NEqShl: 
              1            2            3            4
     1            1            1            1            1
     2            2            2            2            2
     3            3            3            3            3
     4            4            4            4            4
 NEqBas: 
              1            2            3            4
     1            1            1            1            1
     2            2            2            2            2
     3            3            3            3            3
     4            4           -4           -4            4
     5            5           -5            5           -5
     6            6            6            6            6
     7            7            7            7            7
     8            8           -8           -8            8
     9            9           -9            9           -9
    10           10           10           10           10
 There are     6 symmetry adapted basis functions of A1  symmetry.
   1         1   1   1   1
   2         2   2   2   2
   3         3   3   3   3
   4         6   6   6   6
   5         7   7   7   7
   6        10  10  10  10
 There are     0 symmetry adapted basis functions of A2  symmetry.
 There are     2 symmetry adapted basis functions of B1  symmetry.
   7         4   4   4   4
   8         8   8   8   8
 There are     2 symmetry adapted basis functions of B2  symmetry.
   9         5   5   5   5
  10         9   9   9   9
 Order= 1 2 4 3
 Reordered character table:
              1            2            3            4            5
     1            1            1            1            1            1
     2            2            1            1           -1           -1
     3            4            1           -1           -1            1
     4            3            1           -1            1           -1
    10 basis functions,    25 primitive gaussians,    10 cartesian basis functions
     2 alpha electrons        2 beta electrons
       nuclear repulsion energy         0.8355429646 Hartrees.
 IS=     1 IAt=     1 ISR=     1 T=0 IP=      1 IndIP=      1 IndIPD=      0 C=  2.769344D-01  0.000000D+00                             NZ=T
 IS=     1 IAt=     1 ISR=     1 T=0 IP=      2 IndIP=      2 IndIPD=      1 C=  2.678389D-01  0.000000D+00                             NZ=T
 IS=     1 IAt=     1 ISR=     1 T=0 IP=      3 IndIP=      3 IndIPD=      2 C=  8.347367D-02  0.000000D+00                             NZ=T
 IS=     2 IAt=     2 ISR=     1 T=0 IP=      1 IndIP=      4 IndIPD=      0 C=  1.948572D-01  0.000000D+00                             NZ=T
 IS=     2 IAt=     2 ISR=     1 T=0 IP=      2 IndIP=      5 IndIPD=      1 C=  3.565040D-01  0.000000D+00                             NZ=T
 IS=     2 IAt=     2 ISR=     1 T=0 IP=      3 IndIP=      6 IndIPD=      2 C=  5.614879D-01  0.000000D+00                             NZ=T
 IS=     2 IAt=     2 ISR=     1 T=0 IP=      4 IndIP=      7 IndIPD=      3 C=  6.883627D-01  0.000000D+00                             NZ=T
 IS=     2 IAt=     2 ISR=     1 T=0 IP=      5 IndIP=      8 IndIPD=      4 C=  5.498106D-01  0.000000D+00                             NZ=T
 IS=     2 IAt=     2 ISR=     1 T=0 IP=      6 IndIP=      9 IndIPD=      5 C=  1.755056D-01  0.000000D+00                             NZ=T
 IS=     3 IAt=     2 ISR=     2 T=1 IP=      1 IndIP=     10 IndIPD=      0 C= -4.708915D-02  3.658984D-02                             NZ=T
 IS=     3 IAt=     2 ISR=     2 T=1 IP=      2 IndIP=     11 IndIPD=      1 C= -9.665673D-02  1.133585D-01                             NZ=T
 IS=     3 IAt=     2 ISR=     2 T=1 IP=      3 IndIP=     12 IndIPD=      2 C=  1.151795D-01  5.648589D-02                             NZ=T
 IS=     4 IAt=     2 ISR=     3 T=1 IP=      1 IndIP=     13 IndIPD=      0 C=  5.885627D-02  2.232258D-02                             NZ=T
 IExCor=    0 DFT=F Ex=HF Corr=None ExCW=0 ScaHFX=  1.000000
 ScaDFX=  1.000000  1.000000  1.000000  1.000000 ScalE2=  1.000000  1.000000
 IRadAn=      5 IRanWt=     -1 IRanGd=            0 ICorTp=0 IEmpDi=  4
 NAtoms=    2 NActive=    2 NUniq=    2 SFac= 1.00D+00 NAtFMM=   60 NAOKFM=F Big=F
 Integral buffers will be    131072 words long.
 Raffenetti 1 integral format.
 Two-electron integral symmetry is turned on.
 Leave Link  301 at Mon Mar 28 14:00:54 2022, MaxMem=  9663676416 cpu:               2.2 elap:               0.1
 (Enter /nopt/nrel/apps/gaussian/g16C_1/g16/l302.exe)
 NPDir=0 NMtPBC=     1 NCelOv=     1 NCel=       1 NClECP=     1 NCelD=      1
         NCelK=      1 NCelE2=     1 NClLst=     1 CellRange=     0.0.
 One-electron integrals computed using PRISM.
 One-electron integral symmetry used in STVInt
 Entering OneElI...
 Calculate overlap and kinetic energy integrals
    NBasis =  10  MinDer = 0  MaxDer = 0
 Requested accuracy = 0.1000D-12
 Symmetry will be used
 PrmmSu-InSpLW:  IPartL=    0 NPrtUS=   36 NPrtUL=    1 DoSpLW=F IThBeg=    0 IThEnd=   35 NThAct=   36.
 PrSmSu:  IncTry=   512 NBBP=             10 NTPThr=   100 NPartT=   36 Incr=           1 LDynOK=F GPUOK=F.
 PrsmSu:  NPrtUS=  36 ThrOK=T IAlg=1 LenDen=           0 ISkipM=0 DoSpLW=F IThBeg=    0 IThEnd=   35.
 Prism:   IPart=     0 DynPar=F LinDyn=F Incr=           1.
 PRISM was handed   268433743 working-precision words and    10 shell-pairs
 PRISM was handed   268433743 working-precision words and    10 shell-pairs
 PRISM was handed   268433743 working-precision words and    10 shell-pairs
 PRISM was handed   268433743 working-precision words and    10 shell-pairs
 PRISM was handed   268433743 working-precision words and    10 shell-pairs
 PRISM was handed   268433743 working-precision words and    10 shell-pairs
 PRISM was handed   268433743 working-precision words and    10 shell-pairs
 PRISM was handed   268433743 working-precision words and    10 shell-pairs
 PRISM was handed   268433743 working-precision words and    10 shell-pairs
 PRISM was handed   268433743 working-precision words and    10 shell-pairs
 PRISM was handed   268433743 working-precision words and    10 shell-pairs
 PRISM was handed   268433743 working-precision words and    10 shell-pairs
 PRISM was handed   268433743 working-precision words and    10 shell-pairs
 PRISM was handed   268433743 working-precision words and    10 shell-pairs
 IPart=  8 NShTot=           0 NBatch=           0 AvBLen=         0.0
 IPart= 13 NShTot=           0 NBatch=           0 AvBLen=         0.0
 IPart= 20 NShTot=           0 NBatch=           0 AvBLen=         0.0
 PRISM was handed   268433743 working-precision words and    10 shell-pairs
 IPart= 12 NShTot=           0 NBatch=           0 AvBLen=         0.0
 IPart= 16 NShTot=           0 NBatch=           0 AvBLen=         0.0
 IPart=  9 NShTot=           0 NBatch=           0 AvBLen=         0.0
 IPart= 30 NShTot=           0 NBatch=           0 AvBLen=         0.0
 IPart= 18 NShTot=           0 NBatch=           0 AvBLen=         0.0
 IPart= 32 NShTot=           0 NBatch=           0 AvBLen=         0.0
 IPart=  1 NShTot=           0 NBatch=           0 AvBLen=         0.0
 IPart=  4 NShTot=           0 NBatch=           0 AvBLen=         0.0
 IPart= 14 NShTot=           0 NBatch=           0 AvBLen=         0.0
 IPart= 11 NShTot=           0 NBatch=           0 AvBLen=         0.0
 IPart= 34 NShTot=           0 NBatch=           0 AvBLen=         0.0
 PRISM was handed   268433743 working-precision words and    10 shell-pairs
 PRISM was handed   268433743 working-precision words and    10 shell-pairs
 PRISM was handed   268433743 working-precision words and    10 shell-pairs
 IPart= 35 NShTot=           0 NBatch=           0 AvBLen=         0.0
 PRISM was handed   268433743 working-precision words and    10 shell-pairs
 PRISM was handed   268433743 working-precision words and    10 shell-pairs
 IPart= 15 NShTot=           0 NBatch=           0 AvBLen=         0.0
 IPart= 19 NShTot=           0 NBatch=           0 AvBLen=         0.0
 PRISM was handed   268433743 working-precision words and    10 shell-pairs
 IPart= 24 NShTot=           0 NBatch=           0 AvBLen=         0.0
 PRISM was handed   268433743 working-precision words and    10 shell-pairs
 IPart= 28 NShTot=           0 NBatch=           0 AvBLen=         0.0
 PRISM was handed   268433743 working-precision words and    10 shell-pairs
 PRISM was handed   268433743 working-precision words and    10 shell-pairs
 PRISM was handed   268433743 working-precision words and    10 shell-pairs
 PRISM was handed   268433743 working-precision words and    10 shell-pairs
 IPart= 27 NShTot=           0 NBatch=           0 AvBLen=         0.0
 IPart= 17 NShTot=           0 NBatch=           0 AvBLen=         0.0
 PRISM was handed   268433743 working-precision words and    10 shell-pairs
 PRISM was handed   268433743 working-precision words and    10 shell-pairs
 PRISM was handed   268433743 working-precision words and    10 shell-pairs
 PRISM was handed   268433743 working-precision words and    10 shell-pairs
 IPart=  7 NShTot=           0 NBatch=           0 AvBLen=         0.0
 PRISM was handed   268433743 working-precision words and    10 shell-pairs
 IPart= 23 NShTot=           0 NBatch=           0 AvBLen=         0.0
 IPart= 22 NShTot=           0 NBatch=           0 AvBLen=         0.0
 IPart=  2 NShTot=           0 NBatch=           0 AvBLen=         0.0
 PRISM was handed   268433743 working-precision words and    10 shell-pairs
 PRISM was handed   268433743 working-precision words and    10 shell-pairs
 IPart=  0 NShTot=          10 NBatch=          10 AvBLen=         1.0
 IPart= 21 NShTot=           0 NBatch=           0 AvBLen=         0.0
 PRISM was handed   268433743 working-precision words and    10 shell-pairs
 IPart= 10 NShTot=           0 NBatch=           0 AvBLen=         0.0
 IPart= 26 NShTot=           0 NBatch=           0 AvBLen=         0.0
 IPart= 31 NShTot=           0 NBatch=           0 AvBLen=         0.0
 IPart=  6 NShTot=           0 NBatch=           0 AvBLen=         0.0
 PRISM was handed   268433743 working-precision words and    10 shell-pairs
 PRISM was handed   268433743 working-precision words and    10 shell-pairs
 IPart=  3 NShTot=           0 NBatch=           0 AvBLen=         0.0
 IPart= 25 NShTot=           0 NBatch=           0 AvBLen=         0.0
 IPart= 33 NShTot=           0 NBatch=           0 AvBLen=         0.0
 IPart=  5 NShTot=           0 NBatch=           0 AvBLen=         0.0
 IPart= 29 NShTot=           0 NBatch=           0 AvBLen=         0.0
 PrSmSu:  NxtVal=             37.
 *** Overlap *** 
                1             2             3             4             5 
      1  0.100000D+01
      2  0.379121D-01  0.100000D+01
      3  0.330811D+00  0.145258D+00  0.100000D+01
      4  0.000000D+00  0.000000D+00  0.000000D+00  0.100000D+01
      5  0.000000D+00  0.000000D+00  0.000000D+00  0.000000D+00  0.100000D+01
      6 -0.475318D+00  0.000000D+00  0.000000D+00  0.000000D+00  0.000000D+00
      7  0.315934D+00  0.185742D+00  0.905515D+00  0.000000D+00  0.000000D+00
      8  0.000000D+00  0.000000D+00  0.000000D+00  0.802063D+00  0.000000D+00
      9  0.000000D+00  0.000000D+00  0.000000D+00  0.000000D+00  0.802063D+00
     10 -0.374112D+00  0.000000D+00  0.000000D+00  0.000000D+00  0.000000D+00
                6             7             8             9            10 
      6  0.100000D+01
      7  0.000000D+00  0.100000D+01
      8  0.000000D+00  0.000000D+00  0.100000D+01
      9  0.000000D+00  0.000000D+00  0.000000D+00  0.100000D+01
     10  0.802063D+00  0.000000D+00  0.000000D+00  0.000000D+00  0.100000D+01
 *** Kinetic Energy *** 
                1             2             3             4             5 
      1  0.760032D+00
      2 -0.110927D-01  0.362575D+01
      3  0.332945D-01 -0.242849D+00  0.145919D+00
      4  0.000000D+00  0.000000D+00  0.000000D+00  0.242177D+00
      5  0.000000D+00  0.000000D+00  0.000000D+00  0.000000D+00  0.242177D+00
      6 -0.939045D-01  0.000000D+00  0.000000D+00  0.000000D+00  0.000000D+00
      7  0.216350D-01  0.193002D-01  0.653913D-01  0.000000D+00  0.000000D+00
      8  0.000000D+00  0.000000D+00  0.000000D+00  0.100038D+00  0.000000D+00
      9  0.000000D+00  0.000000D+00  0.000000D+00  0.000000D+00  0.100038D+00
     10 -0.492054D-01  0.000000D+00  0.000000D+00  0.000000D+00  0.000000D+00
                6             7             8             9            10 
      6  0.242177D+00
      7  0.000000D+00  0.539430D-01
      8  0.000000D+00  0.000000D+00  0.899049D-01
      9  0.000000D+00  0.000000D+00  0.000000D+00  0.899049D-01
     10  0.100038D+00  0.000000D+00  0.000000D+00  0.000000D+00  0.899049D-01
 Entering OneElI...
 Calculate potential energy integrals
    NBasis =  10  MinDer = 0  MaxDer = 0
 Requested accuracy = 0.1000D-12
 Symmetry will be used
 PrmmSu-InSpLW:  IPartL=    0 NPrtUS=   36 NPrtUL=    1 DoSpLW=F IThBeg=    0 IThEnd=   35 NThAct=   36.
 PrSmSu:  IncTry=   512 NBBP=             20 NTPThr=   100 NPartT=   36 Incr=           1 LDynOK=F GPUOK=F.
 PrsmSu:  NPrtUS=  36 ThrOK=T IAlg=1 LenDen=           0 ISkipM=0 DoSpLW=F IThBeg=    0 IThEnd=   35.
 Prism:   IPart=     0 DynPar=F LinDyn=F Incr=           1.
 PRISM was handed   268433809 working-precision words and    10 shell-pairs
 PRISM was handed   268433809 working-precision words and    10 shell-pairs
 PRISM was handed   268433809 working-precision words and    10 shell-pairs
 PRISM was handed   268433809 working-precision words and    10 shell-pairs
 PRISM was handed   268433809 working-precision words and    10 shell-pairs
 PRISM was handed   268433809 working-precision words and    10 shell-pairs
 PRISM was handed   268433809 working-precision words and    10 shell-pairs
 PRISM was handed   268433809 working-precision words and    10 shell-pairs
 PRISM was handed   268433809 working-precision words and    10 shell-pairs
 PRISM was handed   268433809 working-precision words and    10 shell-pairs
 PRISM was handed   268433809 working-precision words and    10 shell-pairs
 PRISM was handed   268433809 working-precision words and    10 shell-pairs
 PRISM was handed   268433809 working-precision words and    10 shell-pairs
 PRISM was handed   268433809 working-precision words and    10 shell-pairs
 PRISM was handed   268433809 working-precision words and    10 shell-pairs
 PRISM was handed   268433809 working-precision words and    10 shell-pairs
 PRISM was handed   268433809 working-precision words and    10 shell-pairs
 PRISM was handed   268433809 working-precision words and    10 shell-pairs
 PRISM was handed   268433809 working-precision words and    10 shell-pairs
 PRISM was handed   268433809 working-precision words and    10 shell-pairs
 PRISM was handed   268433809 working-precision words and    10 shell-pairs
 PRISM was handed   268433809 working-precision words and    10 shell-pairs
 PRISM was handed   268433809 working-precision words and    10 shell-pairs
 PRISM was handed   268433809 working-precision words and    10 shell-pairs
 PRISM was handed   268433809 working-precision words and    10 shell-pairs
 PRISM was handed   268433809 working-precision words and    10 shell-pairs
 PRISM was handed   268433809 working-precision words and    10 shell-pairs
 PRISM was handed   268433809 working-precision words and    10 shell-pairs
 PRISM was handed   268433809 working-precision words and    10 shell-pairs
 PRISM was handed   268433809 working-precision words and    10 shell-pairs
 PRISM was handed   268433809 working-precision words and    10 shell-pairs
 PRISM was handed   268433809 working-precision words and    10 shell-pairs
 PRISM was handed   268433809 working-precision words and    10 shell-pairs
 PRISM was handed   268433809 working-precision words and    10 shell-pairs
 PRISM was handed   268433809 working-precision words and    10 shell-pairs
 PRISM was handed   268433809 working-precision words and    10 shell-pairs
 IPart=  0 NShTot=          20 NBatch=          10 AvBLen=         2.0
 IPart=  3 NShTot=           0 NBatch=           0 AvBLen=         0.0
 IPart= 33 NShTot=           0 NBatch=           0 AvBLen=         0.0
 IPart=  4 NShTot=           0 NBatch=           0 AvBLen=         0.0
 IPart= 29 NShTot=           0 NBatch=           0 AvBLen=         0.0
 IPart= 31 NShTot=           0 NBatch=           0 AvBLen=         0.0
 IPart=  8 NShTot=           0 NBatch=           0 AvBLen=         0.0
 IPart= 11 NShTot=           0 NBatch=           0 AvBLen=         0.0
 IPart= 14 NShTot=           0 NBatch=           0 AvBLen=         0.0
 IPart= 12 NShTot=           0 NBatch=           0 AvBLen=         0.0
 IPart=  2 NShTot=           0 NBatch=           0 AvBLen=         0.0
 IPart= 32 NShTot=           0 NBatch=           0 AvBLen=         0.0
 IPart= 24 NShTot=           0 NBatch=           0 AvBLen=         0.0
 IPart= 10 NShTot=           0 NBatch=           0 AvBLen=         0.0
 IPart= 30 NShTot=           0 NBatch=           0 AvBLen=         0.0
 IPart=  6 NShTot=           0 NBatch=           0 AvBLen=         0.0
 IPart= 13 NShTot=           0 NBatch=           0 AvBLen=         0.0
 IPart= 19 NShTot=           0 NBatch=           0 AvBLen=         0.0
 IPart= 16 NShTot=           0 NBatch=           0 AvBLen=         0.0
 IPart= 18 NShTot=           0 NBatch=           0 AvBLen=         0.0
 IPart=  1 NShTot=           0 NBatch=           0 AvBLen=         0.0
 IPart= 26 NShTot=           0 NBatch=           0 AvBLen=         0.0
 IPart= 34 NShTot=           0 NBatch=           0 AvBLen=         0.0
 IPart= 15 NShTot=           0 NBatch=           0 AvBLen=         0.0
 IPart= 22 NShTot=           0 NBatch=           0 AvBLen=         0.0
 IPart= 17 NShTot=           0 NBatch=           0 AvBLen=         0.0
 IPart= 27 NShTot=           0 NBatch=           0 AvBLen=         0.0
 IPart= 28 NShTot=           0 NBatch=           0 AvBLen=         0.0
 IPart= 23 NShTot=           0 NBatch=           0 AvBLen=         0.0
 IPart=  7 NShTot=           0 NBatch=           0 AvBLen=         0.0
 IPart= 21 NShTot=           0 NBatch=           0 AvBLen=         0.0
 IPart=  5 NShTot=           0 NBatch=           0 AvBLen=         0.0
 IPart= 20 NShTot=           0 NBatch=           0 AvBLen=         0.0
 IPart= 25 NShTot=           0 NBatch=           0 AvBLen=         0.0
 IPart= 35 NShTot=           0 NBatch=           0 AvBLen=         0.0
 IPart=  9 NShTot=           0 NBatch=           0 AvBLen=         0.0
 PrSmSu:  NxtVal=             37.
 ***** Potential Energy ***** 
                1             2             3             4             5 
      1  0.206163D+01
      2  0.151415D+00  0.834953D+01
      3  0.559388D+00  0.326483D+00  0.137719D+01
      4  0.000000D+00  0.000000D+00  0.000000D+00  0.124288D+01
      5  0.000000D+00  0.000000D+00  0.000000D+00  0.000000D+00  0.124288D+01
      6 -0.795918D+00 -0.102112D-01 -0.107979D+00  0.000000D+00  0.000000D+00
      7  0.507910D+00  0.805650D+00  0.115771D+01  0.000000D+00  0.000000D+00
      8  0.000000D+00  0.000000D+00  0.000000D+00  0.795624D+00  0.000000D+00
      9  0.000000D+00  0.000000D+00  0.000000D+00  0.000000D+00  0.795624D+00
     10 -0.565491D+00 -0.279962D-02 -0.733346D-01  0.000000D+00  0.000000D+00
                6             7             8             9            10 
      6  0.133177D+01
      7 -0.100505D+00  0.113810D+01
      8  0.000000D+00  0.000000D+00  0.775888D+00
      9  0.000000D+00  0.000000D+00  0.000000D+00  0.775888D+00
     10  0.861532D+00 -0.811622D-01  0.000000D+00  0.000000D+00  0.834957D+00
 ****** Core Hamiltonian ****** 
                1             2             3             4             5 
      1 -0.130160D+01
      2 -0.162508D+00 -0.472378D+01
      3 -0.526093D+00 -0.569332D+00 -0.123127D+01
      4  0.000000D+00  0.000000D+00  0.000000D+00 -0.100071D+01
      5  0.000000D+00  0.000000D+00  0.000000D+00  0.000000D+00 -0.100071D+01
      6  0.702014D+00  0.102112D-01  0.107979D+00  0.000000D+00  0.000000D+00
      7 -0.486275D+00 -0.786349D+00 -0.109232D+01  0.000000D+00  0.000000D+00
      8  0.000000D+00  0.000000D+00  0.000000D+00 -0.695587D+00  0.000000D+00
      9  0.000000D+00  0.000000D+00  0.000000D+00  0.000000D+00 -0.695587D+00
     10  0.516285D+00  0.279962D-02  0.733346D-01  0.000000D+00  0.000000D+00
                6             7             8             9            10 
      6 -0.108959D+01
      7  0.100505D+00 -0.108416D+01
      8  0.000000D+00  0.000000D+00 -0.685983D+00
      9  0.000000D+00  0.000000D+00  0.000000D+00 -0.685983D+00
     10 -0.761494D+00  0.811622D-01  0.000000D+00  0.000000D+00 -0.745052D+00
 SVDSVc IOpt=   1 NormSV=T IR=1
 SVDSVc V= 2.31D+00 1.89D+00 9.53D-01 5.63D-01 1.87D-01 9.34D-02
 SVDSVc IOpt=   1 NormSV=T IR=3
 SVDSVc V= 1.80D+00 1.98D-01
 SVDSVc IOpt=   1 NormSV=T IR=4
 SVDSVc V= 1.80D+00 1.98D-01
 TstOVc:  Largest diagonal error= 8.88D-16 IB=1 I=    5.
 TstOVc:  Largest same sym error= 1.19D-15 IB=1 I=    6 J=    5.
 TstOVc:  Largest diff sym error= 0.00D+00 IB=0 JB=0 I=    0 J=    0.
 Orthogonalized basis functions: 
                 1             2             3             4             5 
      1   0.324505D+00 -0.775876D-01 -0.126080D+00  0.112092D+01  0.348544D+00
      2   0.837295D-01  0.127866D+00  0.995164D+00  0.119527D+00  0.121892D-01
      3   0.294428D+00  0.352432D+00 -0.154655D+00 -0.272063D+00 -0.414016D-01
      4   0.000000D+00  0.000000D+00  0.000000D+00  0.000000D+00  0.000000D+00
      5   0.000000D+00  0.000000D+00  0.000000D+00  0.000000D+00  0.000000D+00
      6  -0.279418D+00  0.359088D+00 -0.546112D-01  0.228735D+00  0.170396D+01
      7   0.293779D+00  0.355949D+00 -0.105538D+00 -0.297335D+00 -0.921166D-01
      8   0.000000D+00  0.000000D+00  0.000000D+00  0.000000D+00  0.000000D+00
      9   0.000000D+00  0.000000D+00  0.000000D+00  0.000000D+00  0.000000D+00
     10  -0.263864D+00  0.354460D+00 -0.715122D-01  0.539609D+00 -0.152065D+01
                 6             7             8             9            10 
      1  -0.605734D-01  0.000000D+00  0.000000D+00  0.000000D+00  0.000000D+00
      2   0.105351D+00  0.000000D+00  0.000000D+00  0.000000D+00  0.000000D+00
      3   0.231348D+01  0.000000D+00  0.000000D+00  0.000000D+00  0.000000D+00
      4   0.000000D+00  0.526744D+00  0.158936D+01  0.000000D+00  0.000000D+00
      5   0.000000D+00  0.000000D+00  0.000000D+00  0.526744D+00  0.158936D+01
      6  -0.443687D-01  0.000000D+00  0.000000D+00  0.000000D+00  0.000000D+00
      7  -0.231111D+01  0.000000D+00  0.000000D+00  0.000000D+00  0.000000D+00
      8   0.000000D+00  0.526744D+00 -0.158936D+01  0.000000D+00  0.000000D+00
      9   0.000000D+00  0.000000D+00  0.000000D+00  0.526744D+00 -0.158936D+01
     10   0.142564D-01  0.000000D+00  0.000000D+00  0.000000D+00  0.000000D+00
 NBasis=    10 RedAO= T EigKep=  9.34D-02  NBF=     6     0     2     2
 NBsUse=    10 1.00D-06 EigRej= -1.00D+00 NBFU=     6     0     2     2
 Leave Link  302 at Mon Mar 28 14:00:54 2022, MaxMem=  9663676416 cpu:               3.2 elap:               0.1
 (Enter /nopt/nrel/apps/gaussian/g16C_1/g16/l303.exe)
 DipDrv will not compute anything.
 Fermi contact integrals: 
                 1             2 
      1   0.628247D+00  0.955222D-02
      2   0.477949D-04  0.252653D+01
      3   0.415418D-01 -0.285664D-01
      4   0.000000D+00  0.000000D+00
      5   0.000000D+00  0.000000D+00
      6  -0.733143D-01  0.000000D+00
      7   0.370213D-01  0.588563D-01
      8   0.000000D+00  0.000000D+00
      9   0.000000D+00  0.000000D+00
     10  -0.504145D-01  0.000000D+00
 Leave Link  303 at Mon Mar 28 14:00:54 2022, MaxMem=  9663676416 cpu:               1.1 elap:               0.1
 (Enter /nopt/nrel/apps/gaussian/g16C_1/g16/l401.exe)
 ExpMin= 3.60D-02 ExpMax= 6.42D+02 ExpMxC= 9.68D+01 IAcc=3 IRadAn=         5 AccDes= 0.00D+00
 Harris functional with IExCor=  205 and IRadAn=       5 diagonalized for initial guess.
 HarFok:  IExCor=  205 AccDes= 0.00D+00 IRadAn=         5 IDoV= 1 UseB2=F ITyADJ=14
 ICtDFT=  3500011 ScaDFX=  1.000000  1.000000  1.000000  1.000000
 FoFCou: FMM=F IPFlag=           0 FMFlag=      100000 FMFlg1=           0
         NFxFlg=           0 DoJE=T BraDBF=F KetDBF=T FulRan=T
         wScrn=  0.000000 ICntrl=       500 IOpCl=  0 I1Cent=   200000004 NGrid=           0
         NMat0=    1 NMatS0=      1 NMatT0=    0 NMatD0=    1 NMtDS0=    0 NMtDT0=    0
 Petite list used in FoFCou.
 Harris En= -8.00316031924430    
 JPrj=0 DoOrth=F DoCkMO=F.
 Initial guess orbital symmetries:
       Occupied  (SG) (SG)
       Virtual   (SG) (PI) (PI) (SG) (PI) (PI) (SG) (SG)
 The electronic state of the initial guess is 1-SG.
 Leave Link  401 at Mon Mar 28 14:00:54 2022, MaxMem=  9663676416 cpu:               3.8 elap:               0.1
 (Enter /nopt/nrel/apps/gaussian/g16C_1/g16/l502.exe)
 Keep R1 ints in memory in symmetry-blocked form, NReq=7210566.
 FoFCou: FMM=F IPFlag=           0 FMFlag=           0 FMFlg1=           0
         NFxFlg=           0 DoJE=F BraDBF=F KetDBF=F FulRan=T
         wScrn=  0.000000 ICntrl=       600 IOpCl=  0 I1Cent=           0 NGrid=           0
         NMat0=    1 NMatS0=     55 NMatT0=    0 NMatD0=    1 NMtDS0=    0 NMtDT0=    0
 Petite list used in FoFCou.
 Closed shell SCF:
 Using DIIS extrapolation, IDIIS=  1040.
 NGot=  9663676416 LenX=  9663673310 LenY=  9663672428
 Requested convergence on RMS density matrix=1.00D-08 within 128 cycles.
 Requested convergence on MAX density matrix=1.00D-06.
 Requested convergence on             energy=1.00D-06.
 No special actions if energy rises.

 Cycle   1  Pass 1  IDiag  1:
 E= -7.92951679903544    
 DIIS: error= 3.81D-02 at cycle   1 NSaved=   1.
 NSaved= 1 IEnMin= 1 EnMin= -7.92951679903544     IErMin= 1 ErrMin= 3.81D-02
 ErrMax= 3.81D-02  0.00D+00 EMaxC= 1.00D-01 BMatC= 9.29D-03 BMatP= 9.29D-03
 IDIUse=3 WtCom= 6.19D-01 WtEn= 3.81D-01
 Coeff-Com:  0.100D+01
 Coeff-En:   0.100D+01
 Coeff:      0.100D+01
 Gap=     0.241 Goal=   None    Shift=    0.000
 GapD=    0.241 DampG=1.000 DampE=0.500 DampFc=0.5000 IDamp=-1.
 Damping current iteration by 5.00D-01
 RMSDP=2.11D-02 MaxDP=1.68D-01              OVMax= 1.13D-01

 Cycle   2  Pass 1  IDiag  1:
 E= -7.94246630571481     Delta-E=       -0.012949506679 Rises=F Damp=T
 DIIS: error= 1.97D-02 at cycle   2 NSaved=   2.
 NSaved= 2 IEnMin= 2 EnMin= -7.94246630571481     IErMin= 2 ErrMin= 1.97D-02
 ErrMax= 1.97D-02  0.00D+00 EMaxC= 1.00D-01 BMatC= 2.54D-03 BMatP= 9.29D-03
 IDIUse=3 WtCom= 8.03D-01 WtEn= 1.97D-01
 Coeff-Com: -0.108D+01 0.208D+01
 Coeff-En:   0.000D+00 0.100D+01
 Coeff:     -0.870D+00 0.187D+01
 Gap=     0.285 Goal=   None    Shift=    0.000
 RMSDP=1.16D-02 MaxDP=8.82D-02 DE=-1.29D-02 OVMax= 1.20D-02

 Cycle   3  Pass 1  IDiag  1:
 E= -7.95627091899047     Delta-E=       -0.013804613276 Rises=F Damp=F
 DIIS: error= 7.03D-04 at cycle   3 NSaved=   3.
 NSaved= 3 IEnMin= 3 EnMin= -7.95627091899047     IErMin= 3 ErrMin= 7.03D-04
 ErrMax= 7.03D-04  0.00D+00 EMaxC= 1.00D-01 BMatC= 5.12D-06 BMatP= 2.54D-03
 IDIUse=3 WtCom= 9.93D-01 WtEn= 7.03D-03
 Coeff-Com:  0.543D+00-0.105D+01 0.151D+01
 Coeff-En:   0.000D+00 0.000D+00 0.100D+01
 Coeff:      0.539D+00-0.104D+01 0.150D+01
 Gap=     0.290 Goal=   None    Shift=    0.000
 RMSDP=9.87D-04 MaxDP=4.72D-03 DE=-1.38D-02 OVMax= 8.11D-03

 Cycle   4  Pass 1  IDiag  1:
 E= -7.95631409799713     Delta-E=       -0.000043179007 Rises=F Damp=F
 DIIS: error= 2.44D-04 at cycle   4 NSaved=   4.
 NSaved= 4 IEnMin= 4 EnMin= -7.95631409799713     IErMin= 4 ErrMin= 2.44D-04
 ErrMax= 2.44D-04  0.00D+00 EMaxC= 1.00D-01 BMatC= 3.46D-07 BMatP= 5.12D-06
 IDIUse=3 WtCom= 9.98D-01 WtEn= 2.44D-03
 Coeff-Com: -0.252D+00 0.493D+00-0.106D+01 0.181D+01
 Coeff-En:   0.000D+00 0.000D+00 0.000D+00 0.100D+01
 Coeff:     -0.252D+00 0.492D+00-0.105D+01 0.181D+01
 Gap=     0.291 Goal=   None    Shift=    0.000
 RMSDP=3.61D-04 MaxDP=1.72D-03 DE=-4.32D-05 OVMax= 3.79D-03

 Cycle   5  Pass 1  IDiag  1:
 E= -7.95631814494353     Delta-E=       -0.000004046946 Rises=F Damp=F
 DIIS: error= 4.35D-05 at cycle   5 NSaved=   5.
 NSaved= 5 IEnMin= 5 EnMin= -7.95631814494353     IErMin= 5 ErrMin= 4.35D-05
 ErrMax= 4.35D-05  0.00D+00 EMaxC= 1.00D-01 BMatC= 1.21D-08 BMatP= 3.46D-07
 IDIUse=1 WtCom= 1.00D+00 WtEn= 0.00D+00
 Coeff-Com: -0.278D-01 0.534D-01-0.345D-01 0.199D-01 0.989D+00
 Coeff:     -0.278D-01 0.534D-01-0.345D-01 0.199D-01 0.989D+00
 Gap=     0.291 Goal=   None    Shift=    0.000
 RMSDP=5.97D-05 MaxDP=2.56D-04 DE=-4.05D-06 OVMax= 3.07D-04

 Cycle   6  Pass 1  IDiag  1:
 E= -7.95631822092529     Delta-E=       -0.000000075982 Rises=F Damp=F
 DIIS: error= 9.42D-06 at cycle   6 NSaved=   6.
 NSaved= 6 IEnMin= 6 EnMin= -7.95631822092529     IErMin= 6 ErrMin= 9.42D-06
 ErrMax= 9.42D-06  0.00D+00 EMaxC= 1.00D-01 BMatC= 5.17D-10 BMatP= 1.21D-08
 IDIUse=1 WtCom= 1.00D+00 WtEn= 0.00D+00
 Coeff-Com:  0.101D-03-0.148D-03-0.117D-01 0.236D-01-0.402D+00 0.139D+01
 Coeff:      0.101D-03-0.148D-03-0.117D-01 0.236D-01-0.402D+00 0.139D+01
 Gap=     0.291 Goal=   None    Shift=    0.000
 RMSDP=1.58D-05 MaxDP=6.59D-05 DE=-7.60D-08 OVMax= 7.14D-05

 Cycle   7  Pass 1  IDiag  1:
 E= -7.95631822413124     Delta-E=       -0.000000003206 Rises=F Damp=F
 DIIS: error= 1.10D-07 at cycle   7 NSaved=   7.
 NSaved= 7 IEnMin= 7 EnMin= -7.95631822413124     IErMin= 7 ErrMin= 1.10D-07
 ErrMax= 1.10D-07  0.00D+00 EMaxC= 1.00D-01 BMatC= 1.16D-13 BMatP= 5.17D-10
 IDIUse=1 WtCom= 1.00D+00 WtEn= 0.00D+00
 Coeff-Com:  0.995D-04-0.194D-03 0.234D-02-0.428D-02 0.726D-01-0.258D+00
 Coeff-Com:  0.119D+01
 Coeff:      0.995D-04-0.194D-03 0.234D-02-0.428D-02 0.726D-01-0.258D+00
 Coeff:      0.119D+01
 Gap=     0.291 Goal=   None    Shift=    0.000
 RMSDP=1.54D-07 MaxDP=4.68D-07 DE=-3.21D-09 OVMax= 6.87D-07

 Cycle   8  Pass 1  IDiag  1:
 E= -7.95631822413153     Delta-E=       -0.000000000000 Rises=F Damp=F
 DIIS: error= 3.52D-08 at cycle   8 NSaved=   8.
 NSaved= 8 IEnMin= 8 EnMin= -7.95631822413153     IErMin= 8 ErrMin= 3.52D-08
 ErrMax= 3.52D-08  0.00D+00 EMaxC= 1.00D-01 BMatC= 7.55D-15 BMatP= 1.16D-13
 IDIUse=1 WtCom= 1.00D+00 WtEn= 0.00D+00
 Coeff-Com:  0.868D-05-0.181D-04-0.442D-03 0.732D-03-0.179D-01 0.653D-01
 Coeff-Com: -0.321D+00 0.127D+01
 Coeff:      0.868D-05-0.181D-04-0.442D-03 0.732D-03-0.179D-01 0.653D-01
 Coeff:     -0.321D+00 0.127D+01
 Gap=     0.291 Goal=   None    Shift=    0.000
 RMSDP=5.29D-08 MaxDP=2.16D-07 DE=-2.97D-13 OVMax= 5.30D-07

 Cycle   9  Pass 1  IDiag  1:
 E= -7.95631822413161     Delta-E=       -0.000000000000 Rises=F Damp=F
 DIIS: error= 4.60D-09 at cycle   9 NSaved=   9.
 NSaved= 9 IEnMin= 9 EnMin= -7.95631822413161     IErMin= 9 ErrMin= 4.60D-09
 ErrMax= 4.60D-09  0.00D+00 EMaxC= 1.00D-01 BMatC= 1.31D-16 BMatP= 7.55D-15
 IDIUse=1 WtCom= 1.00D+00 WtEn= 0.00D+00
 Coeff-Com: -0.148D-05 0.320D-05-0.263D-04 0.600D-04-0.544D-03 0.185D-02
 Coeff-Com: -0.139D-01-0.605D-01 0.107D+01
 Coeff:     -0.148D-05 0.320D-05-0.263D-04 0.600D-04-0.544D-03 0.185D-02
 Coeff:     -0.139D-01-0.605D-01 0.107D+01
 Gap=     0.291 Goal=   None    Shift=    0.000
 RMSDP=4.07D-09 MaxDP=1.82D-08 DE=-7.99D-14 OVMax= 3.51D-09

 SCF Done:  E(RHF) =  -7.95631822413     A.U. after    9 cycles
            NFock=  9  Conv=0.41D-08     -V/T= 2.0004
 KE= 7.953408512659D+00 PE=-2.003801321006D+01 EE= 3.292743508661D+00
 Leave Link  502 at Mon Mar 28 14:00:54 2022, MaxMem=  9663676416 cpu:               3.2 elap:               0.1
 (Enter /nopt/nrel/apps/gaussian/g16C_1/g16/l801.exe)
 Windowed orbitals will be sorted by symmetry type.
 ExpMin= 3.60D-02 ExpMax= 6.42D+02 ExpMxC= 9.68D+01 IAcc=3 IRadAn=         5 AccDes= 0.00D+00
 HarFok:  IExCor=  205 AccDes= 0.00D+00 IRadAn=         5 IDoV=-2 UseB2=F ITyADJ=14
 ICtDFT= 12500011 ScaDFX=  1.000000  1.000000  1.000000  1.000000
 Largest valence mixing into a core orbital is  3.41D-04
 Largest core mixing into a valence orbital is  1.10D-04
 Range of M.O.s used for correlation:     2    10
 NBasis=    10 NAE=     2 NBE=     2 NFC=     1 NFV=     0
 NROrb=      9 NOA=     1 NOB=     1 NVA=     8 NVB=     8
 Leave Link  801 at Mon Mar 28 14:00:54 2022, MaxMem=  9663676416 cpu:               2.3 elap:               0.1
 (Enter /nopt/nrel/apps/gaussian/g16C_1/g16/l804.exe)
 Closed-shell transformation, MDV=  9663676416 ITran=4 ISComp=2.
 Unit  1 TFree=          4815 TCopy=        115391.
 Semi-Direct transformation.
 ModeAB=           2 MOrb=             1 LenV=    9663554992
 LASXX=           88 LTotXX=          88 LenRXX=          88
 LTotAB=         141 MaxLAS=         495 LenRXY=         495
 NonZer=         603 LenScr=      785920 LnRSAI=           0
 LnScr1=           0 LExtra=      218815 Total=      1005318
 MaxDsk= 34359738368 SrtSym=           F ITran=            4
 DoSDTr:  NPSUse= 36
 JobTyp=0 Pass  1:  I=   1 to   1.
 (rs|ai) integrals will be sorted in core.
 Complete sort for first half transformation.
 First half transformation complete.
 Complete sort for second half transformation.
 Second half transformation complete.
 Spin components of T(2) and E(2):
     alpha-alpha T2 =       0.0000000000D+00 E2=      0.0000000000D+00
     alpha-beta  T2 =       0.1329042715D-01 E2=     -0.1581557322D-01
     beta-beta   T2 =       0.0000000000D+00 E2=      0.0000000000D+00
 ANorm=    0.1006623280D+01
 E2 =    -0.1581557322D-01 EUMP2 =    -0.79721337973545D+01
 Leave Link  804 at Mon Mar 28 14:00:55 2022, MaxMem=  9663676416 cpu:               1.8 elap:               0.1
 (Enter /nopt/nrel/apps/gaussian/g16C_1/g16/l913.exe)
 CIDS:  MDV=  9663676416.
 Frozen-core window:  NFC=   1 NFV=   0.
 IFCWin=0 IBDFC=1 NFBD=     0     0 NFCmp=     0     0 NFFFC=     0     0
 Using DD3R+UMP44R for 1st iteration.
 Using DD4RQ for 2nd and later iterations.
 Keep R2 and R3 ints in memory in symmetry-blocked form, NReq=7212948.
 FoFCou: FMM=F IPFlag=           0 FMFlag=           0 FMFlg1=           0
         NFxFlg=           0 DoJE=F BraDBF=F KetDBF=F FulRan=T
         wScrn=  0.000000 ICntrl=       600 IOpCl=  0 I1Cent=           0 NGrid=           0
         NMat0=    1 NMatS0=     55 NMatT0=    0 NMatD0=    1 NMtDS0=    0 NMtDT0=    0
 Petite list used in FoFCou.
 CIDS: In Core Option IDoMem=           1.
 Coupled Cluster theory with single and double substitutions
 ===========================================================
 Iterations= 200 Convergence= 0.100D-06
 Produce multiple copies of IABC intergrals
 Iteration Nr.   1
 **********************
 DD1Dir will call FoFMem   1 times, MxPair=         2
 NAB=     1 NAA=     0 NBB=     0.
 MP4(R+Q)=  0.21019572D-03
 Maximum subspace dimension=  5
 A-vector RMS=  1.4099687D-02 Max=  2.9812141D-02 conv= 1.00D-05.
 RLE energy=       -0.0248709138
 E3=       -0.59694561D-02        EUMP3=      -0.79781032534D+01
 E4(DQ)=   -0.22643992D-02        UMP4(DQ)=   -0.79803676527D+01
 E4(SDQ)=  -0.23604830D-02        UMP4(SDQ)=  -0.79804637364D+01
 VARIATIONAL ENERGIES WITH THE FIRST-ORDER WAVEFUNCTION:
 DE(Corr)= -0.21573922E-01 E(Corr)=     -7.9778921464    
 NORM(A)=   0.10165107D+01
 Iteration Nr.   2
 **********************
 DD1Dir will call FoFMem   1 times, MxPair=         2
 NAB=     1 NAA=     0 NBB=     0.
 A-vector RMS=  7.5230573D-03 Max=  8.0164781D-03 conv= 1.00D-05.
 RLE energy=       -0.0255736345
 DE(Corr)= -0.25195160E-01 E(CORR)=     -7.9815133845     Delta=-3.62D-03
 NORM(A)=   0.10184882D+01
 Iteration Nr.   3
 **********************
 DD1Dir will call FoFMem   1 times, MxPair=         2
 NAB=     1 NAA=     0 NBB=     0.
 A-vector RMS=  5.0218773D-03 Max=  6.0063349D-03 conv= 1.00D-05.
 RLE energy=       -0.0259229557
 DE(Corr)= -0.25623826E-01 E(CORR)=     -7.9819420499     Delta=-4.29D-04
 NORM(A)=   0.10208067D+01
 Iteration Nr.   4
 **********************
 DD1Dir will call FoFMem   1 times, MxPair=         2
 NAB=     1 NAA=     0 NBB=     0.
 A-vector RMS=  1.7336077D-03 Max=  1.9029947D-03 conv= 1.00D-05.
 RLE energy=       -0.0260409910
 DE(Corr)= -0.25935795E-01 E(CORR)=     -7.9822540192     Delta=-3.12D-04
 NORM(A)=   0.10219878D+01
 Iteration Nr.   5
 **********************
 DD1Dir will call FoFMem   1 times, MxPair=         2
 NAB=     1 NAA=     0 NBB=     0.
 A-vector RMS=  2.4806741D-04 Max=  2.4232193D-04 conv= 1.00D-05.
 RLE energy=       -0.0260134240
 DE(Corr)= -0.26022618E-01 E(CORR)=     -7.9823408419     Delta=-8.68D-05
 NORM(A)=   0.10220050D+01
 Iteration Nr.   6
 **********************
 DD1Dir will call FoFMem   1 times, MxPair=         2
 NAB=     1 NAA=     0 NBB=     0.
 A-vector RMS=  5.2569561D-05 Max=  4.1164984D-05 conv= 1.00D-05.
 RLE energy=       -0.0260136670
 DE(Corr)= -0.26013798E-01 E(CORR)=     -7.9823320218     Delta= 8.82D-06
 NORM(A)=   0.10220070D+01
 Iteration Nr.   7
 **********************
 DD1Dir will call FoFMem   1 times, MxPair=         2
 NAB=     1 NAA=     0 NBB=     0.
 A-vector RMS=  2.3470993D-05 Max=  2.6574994D-05 conv= 1.00D-05.
 RLE energy=       -0.0260142295
 DE(Corr)= -0.26013890E-01 E(CORR)=     -7.9823321140     Delta=-9.22D-08
 NORM(A)=   0.10220086D+01
 Iteration Nr.   8
 **********************
 DD1Dir will call FoFMem   1 times, MxPair=         2
 NAB=     1 NAA=     0 NBB=     0.
 A-vector RMS=  4.9024052D-06 Max=  5.5092436D-06 conv= 1.00D-05.
 RLE energy=       -0.0260139574
 DE(Corr)= -0.26014083E-01 E(CORR)=     -7.9823323071     Delta=-1.93D-07
 NORM(A)=   0.10220074D+01
 Iteration Nr.   9
 **********************
 DD1Dir will call FoFMem   1 times, MxPair=         2
 NAB=     1 NAA=     0 NBB=     0.
 A-vector RMS=  5.0809153D-07 Max=  7.1007025D-07 conv= 1.00D-05.
 RLE energy=       -0.0260140218
 DE(Corr)= -0.26013991E-01 E(CORR)=     -7.9823322148     Delta= 9.23D-08
 NORM(A)=   0.10220076D+01
 CI/CC converged in    9 iterations to DelEn= 9.23D-08 Conv= 1.00D-07 ErrA1= 5.08D-07 Conv= 1.00D-05
 Wavefunction amplitudes converged. E(Corr)=     -7.9823322148    
 Dominant configurations:
 ***********************
 Spin Case        I    J    A    B          Value
   ABAB           2    2   10   10      -0.123755D+00
 Largest amplitude= 1.24D-01
 Discarding MO integrals.
 Leave Link  913 at Mon Mar 28 14:00:55 2022, MaxMem=  9663676416 cpu:               4.0 elap:               0.1
 (Enter /nopt/nrel/apps/gaussian/g16C_1/g16/l601.exe)
 Copying SCF densities to generalized density rwf, IOpCl= 0 IROHF=0.

 **********************************************************************

            Population analysis using the SCF Density.

 **********************************************************************

 Orbital symmetries:
       Occupied  (SG) (SG)
       Virtual   (SG) (PI) (PI) (SG) (SG) (PI) (PI) (SG)
 The electronic state is 1-SG.
 Alpha  occ. eigenvalues --   -2.46619  -0.28337
 Alpha virt. eigenvalues --    0.00755   0.05716   0.05716   0.16670   0.20830
 Alpha virt. eigenvalues --    0.21927   0.21927   0.44140
          Condensed to atoms (all electrons):
               1          2
     1  H    0.571728   0.350313
     2  Li   0.350313   2.727646
 Mulliken charges:
               1
     1  H    0.077959
     2  Li  -0.077959
 Sum of Mulliken charges =   0.00000
 Mulliken charges with hydrogens summed into heavy atoms:
               1
     2  Li   0.000000
 N-N= 8.355429646105D-01 E-N=-2.003801320779D+01  KE= 7.953408512659D+00
 Symmetry A1   KE= 7.953408512659D+00
 Symmetry A2   KE= 0.000000000000D+00
 Symmetry B1   KE= 0.000000000000D+00
 Symmetry B2   KE= 0.000000000000D+00

 Atomic contributions to Alpha molecular orbitals:
 Alpha occ 1 OE=-2.466 is Li2-s=0.9999
 Alpha occ 2 OE=-0.283 is H1-s=0.4609 Li2-s=0.3170 Li2-p=0.2220
 Alpha vir 3 OE=0.008 is Li2-s=0.5150 Li2-p=0.4696
 Alpha vir 4 OE=0.057 is Li2-p=1.0000
 Alpha vir 5 OE=0.057 is Li2-p=1.0000
 Alpha vir 6 OE=0.167 is Li2-p=0.8594
 Alpha vir 7 OE=0.208 is Li2-s=0.9319
 Alpha vir 8 OE=0.219 is Li2-p=1.0000
 Alpha vir 9 OE=0.219 is Li2-p=1.0000
 Alpha vir 10 OE=0.441 is H1-s=0.4564 Li2-p=0.3901 Li2-s=0.1535
 
 Leave Link  601 at Mon Mar 28 14:00:55 2022, MaxMem=  9663676416 cpu:               1.0 elap:               0.1
 (Enter /nopt/nrel/apps/gaussian/g16C_1/g16/l9999.exe)

 Test job not archived.
 1\1\GINC-R102U34\SP\RCCSD-FC\Gen\H1Li1\USER\28-Mar-2022\0\\#P CCSD
 (MaxCyc=200,SaveAmplitudes,ReadAmplitudes)/GEN sp pop=AllOrbitals iop(
 3/33=1,3/36=-1)\\test\\0,1\H,0,0.,0.,0.\Li,0,0.,0.,1.9\\Version=ES64L-
 G16RevC.01\State=1-SG\HF=-7.9563182\MP2=-7.9721338\MP3=-7.9781033\MP4D
 =-7.9805778\MP4DQ=-7.9803677\MP4SDQ=-7.9804637\CCSD=-7.9823322\RMSD=4.
 074e-09\PG=C*V [C*(H1Li1)]\\@


 Boundary, n.  In political geography, an imaginary
 line between two nations, separating the imaginary
 rights of one from the imaginary rights of another.
                               -- Ambrose Bierce
 Job cpu time:       0 days  0 hours  0 minutes 31.4 seconds.
 Elapsed time:       0 days  0 hours  0 minutes  1.2 seconds.
 File lengths (MBytes):  RWF=     13 Int=      0 D2E=      0 Chk=      1 Scr=      1
 Normal termination of Gaussian 16 at Mon Mar 28 14:00:55 2022.
