 Entering Gaussian System, Link 0=g16
 Initial command:
 /nopt/nrel/apps/gaussian/g16C_1/g16/l1.exe "/lustre/eaglefs/scratch/user/qc/tih-dissc-sto3g/tih-6-ccsd-3.3-sto3g/Gau-252954.inp" -scrdir="/lustre/eaglefs/scratch/user/qc/tih-dissc-sto3g/tih-6-ccsd-3.3-sto3g/"
 Default is to use a total of  36 processors:
                               36 via shared-memory
                                1 via Linda
 Entering Link 1 = /nopt/nrel/apps/gaussian/g16C_1/g16/l1.exe PID=    252955.
  
 Copyright (c) 1988-2019, Gaussian, Inc.  All Rights Reserved.
  
 This is part of the Gaussian(R) 16 program.  It is based on
 the Gaussian(R) 09 system (copyright 2009, Gaussian, Inc.),
 the Gaussian(R) 03 system (copyright 2003, Gaussian, Inc.),
 the Gaussian(R) 98 system (copyright 1998, Gaussian, Inc.),
 the Gaussian(R) 94 system (copyright 1995, Gaussian, Inc.),
 the Gaussian 92(TM) system (copyright 1992, Gaussian, Inc.),
 the Gaussian 90(TM) system (copyright 1990, Gaussian, Inc.),
 the Gaussian 88(TM) system (copyright 1988, Gaussian, Inc.),
 the Gaussian 86(TM) system (copyright 1986, Carnegie Mellon
 University), and the Gaussian 82(TM) system (copyright 1983,
 Carnegie Mellon University). Gaussian is a federally registered
 trademark of Gaussian, Inc.
  
 This software contains proprietary and confidential information,
 including trade secrets, belonging to Gaussian, Inc.
  
 This software is provided under written license and may be
 used, copied, transmitted, or stored only in accord with that
 written license.
  
 The following legend is applicable only to US Government
 contracts under FAR:
  
                    RESTRICTED RIGHTS LEGEND
  
 Use, reproduction and disclosure by the US Government is
 subject to restrictions as set forth in subparagraphs (a)
 and (c) of the Commercial Computer Software - Restricted
 Rights clause in FAR 52.227-19.
  
 Gaussian, Inc.
 340 Quinnipiac St., Bldg. 40, Wallingford CT 06492
  
  
 ---------------------------------------------------------------
 Warning -- This program may not be used in any manner that
 competes with the business of Gaussian, Inc. or will provide
 assistance to any competitor of Gaussian, Inc.  The licensee
 of this program is prohibited from giving any competitor of
 Gaussian, Inc. access to this program.  By using this program,
 the user acknowledges that Gaussian, Inc. is engaged in the
 business of creating and licensing software in the field of
 computational chemistry and represents and warrants to the
 licensee that it is not a competitor of Gaussian, Inc. and that
 it will not use this program in any manner prohibited above.
 ---------------------------------------------------------------
  

 Cite this work as:
 Gaussian 16, Revision C.01,
 M. J. Frisch, G. W. Trucks, H. B. Schlegel, G. E. Scuseria, 
 M. A. Robb, J. R. Cheeseman, G. Scalmani, V. Barone, 
 G. A. Petersson, H. Nakatsuji, X. Li, M. Caricato, A. V. Marenich, 
 J. Bloino, B. G. Janesko, R. Gomperts, B. Mennucci, H. P. Hratchian, 
 J. V. Ortiz, A. F. Izmaylov, J. L. Sonnenberg, D. Williams-Young, 
 F. Ding, F. Lipparini, F. Egidi, J. Goings, B. Peng, A. Petrone, 
 T. Henderson, D. Ranasinghe, V. G. Zakrzewski, J. Gao, N. Rega, 
 G. Zheng, W. Liang, M. Hada, M. Ehara, K. Toyota, R. Fukuda, 
 J. Hasegawa, M. Ishida, T. Nakajima, Y. Honda, O. Kitao, H. Nakai, 
 T. Vreven, K. Throssell, J. A. Montgomery, Jr., J. E. Peralta, 
 F. Ogliaro, M. J. Bearpark, J. J. Heyd, E. N. Brothers, K. N. Kudin, 
 V. N. Staroverov, T. A. Keith, R. Kobayashi, J. Normand, 
 K. Raghavachari, A. P. Rendell, J. C. Burant, S. S. Iyengar, 
 J. Tomasi, M. Cossi, J. M. Millam, M. Klene, C. Adamo, R. Cammi, 
 J. W. Ochterski, R. L. Martin, K. Morokuma, O. Farkas, 
 J. B. Foresman, and D. J. Fox, Gaussian, Inc., Wallingford CT, 2019.
 
 ******************************************
 Gaussian 16:  ES64L-G16RevC.01  3-Jul-2019
                28-Mar-2022 
 ******************************************
 %chk=molecule
 Default route: CacheSize=180224 MaxDisk=256GB
 ----------------------------------------------------------------------
 #P CCSD(MaxCyc=300,SaveAmplitudes,ReadAmplitudes)/GEN sp pop=AllOrbita
 ls iop(3/33=1,3/36=-1)
 ----------------------------------------------------------------------
 1/4=180224,38=1,172=1/1;
 2/4=180224,12=2,17=6,18=5,40=1/2;
 3/4=180224,5=7,11=9,25=1,30=1,33=1,36=-1/1,2,3;
 4/4=180224/1;
 5/4=180224,5=2,38=5/2;
 8/4=180224,6=4,9=120000,10=1,24=1/1,4;
 9/4=180224,5=7,6=300,77=1/13;
 6/4=180224,7=2,8=2,9=2,10=2,96=-1/1;
 99/4=180224,5=1,9=1/99;
 Leave Link    1 at Mon Mar 28 12:46:18 2022, MaxMem=           0 cpu:               2.2 elap:               0.1
 (Enter /nopt/nrel/apps/gaussian/g16C_1/g16/l101.exe)
 ----
 test
 ----
 Symbolic Z-matrix:
 Charge =  0 Multiplicity = 6
 H                     0.        0.        0. 
 Ti                    0.        0.        3.3 
 
 ITRead=  0  0
 MicOpt= -1 -1
 NAtoms=      2 NQM=        2 NQMF=       0 NMMI=      0 NMMIF=      0
                NMic=       0 NMicF=      0.
                    Isotopes and Nuclear Properties:
 (Nuclear quadrupole moments (NQMom) in fm**2, nuclear magnetic moments (NMagM)
  in nuclear magnetons)

  Atom         1           2
 IAtWgt=           1          48
 AtmWgt=   1.0078250  47.9479467
 NucSpn=           1           0
 AtZEff=  -0.0000000  -0.0000000
 NQMom=    0.0000000   0.0000000
 NMagM=    2.7928460   0.0000000
 AtZNuc=   1.0000000  22.0000000
 Leave Link  101 at Mon Mar 28 12:46:18 2022, MaxMem=  9663676416 cpu:               3.2 elap:               0.1
 (Enter /nopt/nrel/apps/gaussian/g16C_1/g16/l202.exe)
                          Input orientation:                          
 ---------------------------------------------------------------------
 Center     Atomic      Atomic             Coordinates (Angstroms)
 Number     Number       Type             X           Y           Z
 ---------------------------------------------------------------------
      1          1           0        0.000000    0.000000    0.000000
      2         22           0        0.000000    0.000000    3.300000
 ---------------------------------------------------------------------
 Stoichiometry    HTi(6)
 Framework group  C*V[C*(HTi)]
 Deg. of freedom     1
 Full point group                 C*V     NOp   4
 Largest Abelian subgroup         C2V     NOp   4
 Largest concise Abelian subgroup C1      NOp   1
                         Standard orientation:                         
 ---------------------------------------------------------------------
 Center     Atomic      Atomic             Coordinates (Angstroms)
 Number     Number       Type             X           Y           Z
 ---------------------------------------------------------------------
      1          1           0        0.000000    0.000000   -3.156522
      2         22           0        0.000000    0.000000    0.143478
 ---------------------------------------------------------------------
 Rotational constants (GHZ):           0.0000000          47.0151758          47.0151758
 Leave Link  202 at Mon Mar 28 12:46:18 2022, MaxMem=  9663676416 cpu:               0.9 elap:               0.1
 (Enter /nopt/nrel/apps/gaussian/g16C_1/g16/l301.exe)
 General basis read from cards:  (5D, 7F)
                         Coordinates in L301:                         
 ---------------------------------------------------------------------
 Center     Atomic      Atomic             Coordinates (Angstroms)
 Number     Number       Type             X           Y           Z
 ---------------------------------------------------------------------
      1          1           0        0.000000    0.000000   -3.156522
      2         22           0        0.000000    0.000000    0.143478
 ---------------------------------------------------------------------
 Centers:       1
 STO-3G
 ****
 Centers:       2
 STO-3G
 ****
 FixB: optimizing general contractions.
 Ernie: Thresh=  0.10000D-02 Tol=  0.10000D-05 Strict=F.
 IA=     1 ShT= 0 ShC= 0 NL=   1 NS=   0.
 IA=     1 L=0 SC=0 ISt=    0 NBk=    0 NP=    0 IndPr=    0.
 IA=     2 ShT= 0 ShC= 0 NL=   1 NS=   0.
 IA=     2 L=0 SC=0 ISt=    0 NBk=    0 NP=    0 IndPr=    0.
 IA=     2 ShT= 1 ShC= 0 NL=   3 NS=   0.
 IA=     2 L=1 SC=0 ISt=    1 NBk=    3 NP=    9 IndPr=    0.
 DoElim1:  L=1 select primitive    1 from    2 using    1 C=-1.00D-01
 DoElim1:  L=1 select primitive    1 from    3 using    1 C=-1.00D-01
 DoElim1:  L=1 select primitive    4 from    3 using    2 C=-2.28D-01
 DoElim2:  L=1 select primitive    9 from    2 using    3 C= 1.13D+00
 DoElim2:  L=1 select primitive    9 from    1 using    3 C= 1.13D+00
 DoElim2:  L=1 select primitive    7 from    1 using    2 C= 9.17D-01
 DoElim1:  L=1 select primitive    1 from    2 using    1 C= 1.56D-01
 DoElim1:  L=1 select primitive    1 from    3 using    1 C= 1.56D-01
 DoElim1:  L=1 select primitive    4 from    3 using    2 C= 4.95D-03
 DoElim2:  L=1 select primitive    8 from    2 using    3 C= 5.72D-01
 DoElim2:  L=1 select primitive    8 from    1 using    3 C= 5.72D-01
 DoElim2:  L=1 select primitive    5 from    1 using    2 C= 5.78D-01
 Delete L=1 primitive    7 from    3 C=  0.00D+00.
 Delete L=1 primitive    5 from    3 C=  0.00D+00.
 Delete L=1 primitive    4 from    3 C=  0.00D+00.
 Delete L=1 primitive    3 from    3 C=  0.00D+00.
 Delete L=1 primitive    2 from    3 C=  0.00D+00.
 Delete L=1 primitive    1 from    3 C=  0.00D+00.
 Delete L=1 primitive    9 from    2 C=  0.00D+00.
 Delete L=1 primitive    8 from    2 C=  0.00D+00.
 Delete L=1 primitive    6 from    2 C=  0.00D+00.
 Delete L=1 primitive    3 from    2 C=  0.00D+00.
 Delete L=1 primitive    2 from    2 C=  0.00D+00.
 Delete L=1 primitive    1 from    2 C=  0.00D+00.
 Delete L=1 primitive    9 from    1 C=  0.00D+00.
 Delete L=1 primitive    8 from    1 C=  0.00D+00.
 Delete L=1 primitive    7 from    1 C=  0.00D+00.
 Delete L=1 primitive    6 from    1 C=  0.00D+00.
 Delete L=1 primitive    5 from    1 C=  0.00D+00.
 Delete L=1 primitive    4 from    1 C=  0.00D+00.
 IA=     2 L=1 SC=0 ISt=    0 NBk=    0 NP=    0 IndPr=    9.
 IA=     2 ShT= 2 ShC= 2 NL=   1 NS=   0.
 IA=     2 L=2 SC=2 ISt=    0 NBk=    0 NP=    0 IndPr=    0.
 LdAtmC:  AtmChg=     1.000000    22.000000
 AtZEff=     -1.0000000    -23.9800000
 NEqShl: 
              1            2            3            4
     1            1            1            1            1
     2            2            2            2            2
     3            3            3            3            3
     4            4            4            4            4
     5            5            5            5            5
     6            6            6            6            6
 NEqBas: 
              1            2            3            4
     1            1            1            1            1
     2            2            2            2            2
     3            3            3            3            3
     4            4           -4           -4            4
     5            5           -5            5           -5
     6            6            6            6            6
     7            7            7            7            7
     8            8           -8           -8            8
     9            9           -9            9           -9
    10           10           10           10           10
    11           11           11           11           11
    12           12          -12          -12           12
    13           13          -13           13          -13
    14           14           14           14           14
    15           15           15           15           15
    16           16           16           16           16
    17           17           17           17           17
    18           18           18          -18          -18
    19           19          -19          -19           19
    20           20          -20           20          -20
 There are    11 symmetry adapted cartesian basis functions of A1  symmetry.
   1         1   1   1   1
   2         2   2   2   2
   3         3   3   3   3
   4         6   6   6   6
   5         7   7   7   7
   6        10  10  10  10
   7        11  11  11  11
   8        14  14  14  14
   9        15  15  15  15
  10        16  16  16  16
  11        17  17  17  17
 There are     1 symmetry adapted cartesian basis functions of A2  symmetry.
  12        18  18  18  18
 There are     4 symmetry adapted cartesian basis functions of B1  symmetry.
  13         4   4   4   4
  14         8   8   8   8
  15        12  12  12  12
  16        19  19  19  19
 There are     4 symmetry adapted cartesian basis functions of B2  symmetry.
  17         5   5   5   5
  18         9   9   9   9
  19        13  13  13  13
  20        20  20  20  20
 Order= 1 2 4 3
 Reordered character table:
              1            2            3            4            5
     1            1            1            1            1            1
     2            2            1            1           -1           -1
     3            4            1           -1           -1            1
     4            3            1           -1            1           -1
 NEqShl: 
              1            2            3            4
     1            1            1            1            1
     2            2            2            2            2
     3            3            3            3            3
     4            4            4            4            4
     5            5            5            5            5
     6            6            6            6            6
 NEqBas: 
              1            2            3            4
     1            1            1            1            1
     2            2            2            2            2
     3            3            3            3            3
     4            4           -4           -4            4
     5            5           -5            5           -5
     6            6            6            6            6
     7            7            7            7            7
     8            8           -8           -8            8
     9            9           -9            9           -9
    10           10           10           10           10
    11           11           11           11           11
    12           12          -12          -12           12
    13           13          -13           13          -13
    14           14           14           14           14
    15           15           15           15           15
    16           16          -16          -16           16
    17           17          -17           17          -17
    18           18           18           18           18
    19           19           19          -19          -19
 There are    10 symmetry adapted basis functions of A1  symmetry.
   1         1   1   1   1
   2         2   2   2   2
   3         3   3   3   3
   4         6   6   6   6
   5         7   7   7   7
   6        10  10  10  10
   7        11  11  11  11
   8        14  14  14  14
   9        15  15  15  15
  10        18  18  18  18
 There are     1 symmetry adapted basis functions of A2  symmetry.
  11        19  19  19  19
 There are     4 symmetry adapted basis functions of B1  symmetry.
  12         4   4   4   4
  13         8   8   8   8
  14        12  12  12  12
  15        16  16  16  16
 There are     4 symmetry adapted basis functions of B2  symmetry.
  16         5   5   5   5
  17         9   9   9   9
  18        13  13  13  13
  19        17  17  17  17
 Order= 1 2 4 3
 Reordered character table:
              1            2            3            4            5
     1            1            1            1            1            1
     2            2            1            1           -1           -1
     3            4            1           -1           -1            1
     4            3            1           -1            1           -1
    19 basis functions,    60 primitive gaussians,    20 cartesian basis functions
    14 alpha electrons        9 beta electrons
       nuclear repulsion energy         3.5278480728 Hartrees.
 IS=     1 IAt=     1 ISR=     1 T=0 IP=      1 IndIP=      1 IndIPD=      0 C=  2.769344D-01  0.000000D+00                             NZ=T
 IS=     1 IAt=     1 ISR=     1 T=0 IP=      2 IndIP=      2 IndIPD=      1 C=  2.678389D-01  0.000000D+00                             NZ=T
 IS=     1 IAt=     1 ISR=     1 T=0 IP=      3 IndIP=      3 IndIPD=      2 C=  8.347367D-02  0.000000D+00                             NZ=T
 IS=     2 IAt=     2 ISR=     1 T=0 IP=      1 IndIP=      4 IndIPD=      0 C=  2.004993D+01  0.000000D+00                             NZ=T
 IS=     2 IAt=     2 ISR=     1 T=0 IP=      2 IndIP=      5 IndIPD=      1 C=  1.939142D+01  0.000000D+00                             NZ=T
 IS=     2 IAt=     2 ISR=     1 T=0 IP=      3 IndIP=      6 IndIPD=      2 C=  6.043458D+00  0.000000D+00                             NZ=T
 IS=     3 IAt=     2 ISR=     2 T=1 IP=      1 IndIP=      7 IndIPD=      0 C= -1.820341D+00  4.925761D+01                             NZ=T
 IS=     3 IAt=     2 ISR=     2 T=1 IP=      2 IndIP=      8 IndIPD=      1 C=  2.434854D+00  3.097451D+01                             NZ=T
 IS=     3 IAt=     2 ISR=     2 T=1 IP=      3 IndIP=      9 IndIPD=      2 C=  1.837620D+00  4.906883D+00                             NZ=T
 IS=     4 IAt=     2 ISR=     3 T=1 IP=      1 IndIP=     10 IndIPD=      0 C= -5.746721D-01  5.803915D-02                             NZ=T
 IS=     4 IAt=     2 ISR=     3 T=1 IP=      2 IndIP=     11 IndIPD=      1 C=  2.252897D-01  1.535208D+00                             NZ=T
 IS=     4 IAt=     2 ISR=     3 T=1 IP=      3 IndIP=     12 IndIPD=      2 C=  4.647390D-01  3.915940D-01                             NZ=T
 IS=     5 IAt=     2 ISR=     4 T=1 IP=      1 IndIP=     13 IndIPD=      0 C= -1.706594D-01 -1.133666D-01                             NZ=T
 IS=     5 IAt=     2 ISR=     4 T=1 IP=      2 IndIP=     14 IndIPD=      1 C=  5.129963D-03  1.533382D-01                             NZ=T
 IS=     5 IAt=     2 ISR=     4 T=1 IP=      3 IndIP=     15 IndIPD=      2 C=  1.603140D-01  5.311239D-02                             NZ=T
 IS=     6 IAt=     2 ISR=     5 T=2 IP=      1 IndIP=     16 IndIPD=      1 C=  0.000000D+00  0.000000D+00  8.652016D-01  0.000000D+00 NZ=T
 IS=     6 IAt=     2 ISR=     5 T=2 IP=      2 IndIP=     17 IndIPD=      2 C=  0.000000D+00  0.000000D+00  3.231180D-01  0.000000D+00 NZ=T
 IS=     6 IAt=     2 ISR=     5 T=2 IP=      3 IndIP=     18 IndIPD=      3 C=  0.000000D+00  0.000000D+00  2.668013D-02  0.000000D+00 NZ=T
 IExCor=    0 DFT=F Ex=HF Corr=None ExCW=0 ScaHFX=  1.000000
 ScaDFX=  1.000000  1.000000  1.000000  1.000000 ScalE2=  1.000000  1.000000
 IRadAn=      5 IRanWt=     -1 IRanGd=            0 ICorTp=0 IEmpDi=  4
 NAtoms=    2 NActive=    2 NUniq=    2 SFac= 1.00D+00 NAtFMM=   60 NAOKFM=F Big=F
 Integral buffers will be    131072 words long.
 Raffenetti 2 integral format.
 Two-electron integral symmetry is turned on.
 Leave Link  301 at Mon Mar 28 12:46:18 2022, MaxMem=  9663676416 cpu:               1.9 elap:               0.1
 (Enter /nopt/nrel/apps/gaussian/g16C_1/g16/l302.exe)
 NPDir=0 NMtPBC=     1 NCelOv=     1 NCel=       1 NClECP=     1 NCelD=      1
         NCelK=      1 NCelE2=     1 NClLst=     1 CellRange=     0.0.
 One-electron integrals computed using PRISM.
 One-electron integral symmetry used in STVInt
 Entering OneElI...
 Calculate overlap and kinetic energy integrals
    NBasis =  19  MinDer = 0  MaxDer = 0
 Requested accuracy = 0.1000D-12
 Symmetry will be used
 PrmmSu-InSpLW:  IPartL=    0 NPrtUS=   36 NPrtUL=    1 DoSpLW=F IThBeg=    0 IThEnd=   35 NThAct=   36.
 PrSmSu:  IncTry=   512 NBBP=             21 NTPThr=   100 NPartT=   36 Incr=           1 LDynOK=F GPUOK=F.
 PrsmSu:  NPrtUS=  36 ThrOK=T IAlg=1 LenDen=           0 ISkipM=0 DoSpLW=F IThBeg=    0 IThEnd=   35.
 Prism:   IPart=     0 DynPar=F LinDyn=F Incr=           1.
 PRISM was handed   268432696 working-precision words and    21 shell-pairs
 PRISM was handed   268432696 working-precision words and    21 shell-pairs
 PRISM was handed   268432696 working-precision words and    21 shell-pairs
 PRISM was handed   268432696 working-precision words and    21 shell-pairs
 PRISM was handed   268432696 working-precision words and    21 shell-pairs
 PRISM was handed   268432696 working-precision words and    21 shell-pairs
 IPart= 20 NShTot=           0 NBatch=           0 AvBLen=         0.0
 PRISM was handed   268432696 working-precision words and    21 shell-pairs
 IPart= 25 NShTot=           0 NBatch=           0 AvBLen=         0.0
 IPart= 13 NShTot=           0 NBatch=           0 AvBLen=         0.0
 IPart= 16 NShTot=           0 NBatch=           0 AvBLen=         0.0
 PRISM was handed   268432696 working-precision words and    21 shell-pairs
 IPart=  8 NShTot=           0 NBatch=           0 AvBLen=         0.0
 IPart= 15 NShTot=           0 NBatch=           0 AvBLen=         0.0
 PRISM was handed   268432696 working-precision words and    21 shell-pairs
 PRISM was handed   268432696 working-precision words and    21 shell-pairs
 IPart= 22 NShTot=           0 NBatch=           0 AvBLen=         0.0
 PRISM was handed   268432696 working-precision words and    21 shell-pairs
 PRISM was handed   268432696 working-precision words and    21 shell-pairs
 PRISM was handed   268432696 working-precision words and    21 shell-pairs
 IPart= 17 NShTot=           0 NBatch=           0 AvBLen=         0.0
 IPart= 24 NShTot=           0 NBatch=           0 AvBLen=         0.0
 PRISM was handed   268432696 working-precision words and    21 shell-pairs
 PRISM was handed   268432696 working-precision words and    21 shell-pairs
 PRISM was handed   268432696 working-precision words and    21 shell-pairs
 PRISM was handed   268432696 working-precision words and    21 shell-pairs
 PRISM was handed   268432696 working-precision words and    21 shell-pairs
 PRISM was handed   268432696 working-precision words and    21 shell-pairs
 PRISM was handed   268432696 working-precision words and    21 shell-pairs
 IPart=  7 NShTot=           0 NBatch=           0 AvBLen=         0.0
 PRISM was handed   268432696 working-precision words and    21 shell-pairs
 PRISM was handed   268432696 working-precision words and    21 shell-pairs
 PRISM was handed   268432696 working-precision words and    21 shell-pairs
 IPart= 11 NShTot=           0 NBatch=           0 AvBLen=         0.0
 IPart= 33 NShTot=           0 NBatch=           0 AvBLen=         0.0
 IPart=  9 NShTot=           0 NBatch=           0 AvBLen=         0.0
 IPart= 26 NShTot=           0 NBatch=           0 AvBLen=         0.0
 IPart= 23 NShTot=           0 NBatch=           0 AvBLen=         0.0
 IPart= 32 NShTot=           0 NBatch=           0 AvBLen=         0.0
 IPart=  6 NShTot=           0 NBatch=           0 AvBLen=         0.0
 IPart= 10 NShTot=           0 NBatch=           0 AvBLen=         0.0
 PRISM was handed   268432696 working-precision words and    21 shell-pairs
 PRISM was handed   268432696 working-precision words and    21 shell-pairs
 PRISM was handed   268432696 working-precision words and    21 shell-pairs
 PRISM was handed   268432696 working-precision words and    21 shell-pairs
 PRISM was handed   268432696 working-precision words and    21 shell-pairs
 PRISM was handed   268432696 working-precision words and    21 shell-pairs
 PRISM was handed   268432696 working-precision words and    21 shell-pairs
 IPart= 18 NShTot=           0 NBatch=           0 AvBLen=         0.0
 IPart= 12 NShTot=           0 NBatch=           0 AvBLen=         0.0
 IPart= 27 NShTot=           0 NBatch=           0 AvBLen=         0.0
 PRISM was handed   268432696 working-precision words and    21 shell-pairs
 PRISM was handed   268432696 working-precision words and    21 shell-pairs
 PRISM was handed   268432696 working-precision words and    21 shell-pairs
 PRISM was handed   268432696 working-precision words and    21 shell-pairs
 PRISM was handed   268432696 working-precision words and    21 shell-pairs
 PRISM was handed   268432696 working-precision words and    21 shell-pairs
 IPart= 30 NShTot=           0 NBatch=           0 AvBLen=         0.0
 IPart=  1 NShTot=           5 NBatch=           5 AvBLen=         1.0
 IPart= 14 NShTot=           0 NBatch=           0 AvBLen=         0.0
 IPart= 19 NShTot=           0 NBatch=           0 AvBLen=         0.0
 IPart=  3 NShTot=           2 NBatch=           2 AvBLen=         1.0
 IPart= 35 NShTot=           0 NBatch=           0 AvBLen=         0.0
 IPart=  2 NShTot=           3 NBatch=           3 AvBLen=         1.0
 IPart= 31 NShTot=           0 NBatch=           0 AvBLen=         0.0
 IPart=  0 NShTot=           9 NBatch=           9 AvBLen=         1.0
 IPart=  5 NShTot=           1 NBatch=           1 AvBLen=         1.0
 IPart= 21 NShTot=           0 NBatch=           0 AvBLen=         0.0
 IPart= 34 NShTot=           0 NBatch=           0 AvBLen=         0.0
 IPart= 28 NShTot=           0 NBatch=           0 AvBLen=         0.0
 IPart=  4 NShTot=           1 NBatch=           1 AvBLen=         1.0
 IPart= 29 NShTot=           0 NBatch=           0 AvBLen=         0.0
 PrSmSu:  NxtVal=             37.
 *** Overlap *** 
                1             2             3             4             5 
      1  0.100000D+01
      2  0.163719D-04  0.100000D+01
      3  0.123454D-03  0.371775D+00  0.100000D+01
      4  0.000000D+00  0.000000D+00  0.000000D+00  0.100000D+01
      5  0.000000D+00  0.000000D+00  0.000000D+00  0.000000D+00  0.100000D+01
      6 -0.672225D-04  0.000000D+00  0.000000D+00  0.000000D+00  0.000000D+00
      7  0.175308D-02  0.223608D-01  0.300384D+00  0.000000D+00  0.000000D+00
      8  0.000000D+00  0.000000D+00  0.000000D+00  0.313309D+00  0.000000D+00
      9  0.000000D+00  0.000000D+00  0.000000D+00  0.000000D+00  0.313309D+00
     10 -0.229421D-02  0.000000D+00  0.000000D+00  0.000000D+00  0.000000D+00
     11  0.422560D-01 -0.412730D-03  0.136941D-01  0.000000D+00  0.000000D+00
     12  0.000000D+00  0.000000D+00  0.000000D+00  0.250808D-01  0.000000D+00
     13  0.000000D+00  0.000000D+00  0.000000D+00  0.000000D+00  0.250808D-01
     14 -0.685901D-01  0.000000D+00  0.000000D+00  0.000000D+00  0.000000D+00
     15  0.235808D-01  0.000000D+00  0.000000D+00  0.000000D+00  0.000000D+00
     16  0.000000D+00  0.000000D+00  0.000000D+00  0.000000D+00  0.000000D+00
     17  0.000000D+00  0.000000D+00  0.000000D+00  0.000000D+00  0.000000D+00
     18  0.000000D+00  0.000000D+00  0.000000D+00  0.000000D+00  0.000000D+00
     19  0.000000D+00  0.000000D+00  0.000000D+00  0.000000D+00  0.000000D+00
                6             7             8             9            10 
      6  0.100000D+01
      7  0.000000D+00  0.100000D+01
      8  0.000000D+00  0.000000D+00  0.100000D+01
      9  0.000000D+00  0.000000D+00  0.000000D+00  0.100000D+01
     10  0.313309D+00  0.000000D+00  0.000000D+00  0.000000D+00  0.100000D+01
     11  0.000000D+00  0.395149D+00  0.000000D+00  0.000000D+00  0.000000D+00
     12  0.000000D+00  0.000000D+00  0.407435D+00  0.000000D+00  0.000000D+00
     13  0.000000D+00  0.000000D+00  0.000000D+00  0.407435D+00  0.000000D+00
     14  0.250808D-01  0.000000D+00  0.000000D+00  0.000000D+00  0.407435D+00
     15  0.000000D+00  0.000000D+00  0.000000D+00  0.000000D+00  0.000000D+00
     16  0.000000D+00  0.000000D+00  0.000000D+00  0.000000D+00  0.000000D+00
     17  0.000000D+00  0.000000D+00  0.000000D+00  0.000000D+00  0.000000D+00
     18  0.000000D+00  0.000000D+00  0.000000D+00  0.000000D+00  0.000000D+00
     19  0.000000D+00  0.000000D+00  0.000000D+00  0.000000D+00  0.000000D+00
               11            12            13            14            15 
     11  0.100000D+01
     12  0.000000D+00  0.100000D+01
     13  0.000000D+00  0.000000D+00  0.100000D+01
     14  0.000000D+00  0.000000D+00  0.000000D+00  0.100000D+01
     15  0.000000D+00  0.000000D+00  0.000000D+00  0.000000D+00  0.100000D+01
     16  0.000000D+00  0.000000D+00  0.000000D+00  0.000000D+00  0.000000D+00
     17  0.000000D+00  0.000000D+00  0.000000D+00  0.000000D+00  0.000000D+00
     18  0.000000D+00  0.000000D+00  0.000000D+00  0.000000D+00  0.000000D+00
     19  0.000000D+00  0.000000D+00  0.000000D+00  0.000000D+00  0.000000D+00
               16            17            18            19 
     16  0.100000D+01
     17  0.000000D+00  0.100000D+01
     18  0.000000D+00  0.000000D+00  0.100000D+01
     19  0.000000D+00  0.000000D+00  0.000000D+00  0.100000D+01
 *** Kinetic Energy *** 
                1             2             3             4             5 
      1  0.760032D+00
      2 -0.278524D-04  0.229340D+03
      3 -0.198983D-03  0.137973D+01  0.120824D+02
      4  0.000000D+00  0.000000D+00  0.000000D+00  0.378073D+02
      5  0.000000D+00  0.000000D+00  0.000000D+00  0.000000D+00  0.378073D+02
      6  0.867211D-04  0.000000D+00  0.000000D+00  0.000000D+00  0.000000D+00
      7 -0.175916D-02 -0.798994D+00 -0.840664D+00  0.000000D+00  0.000000D+00
      8  0.000000D+00  0.000000D+00  0.000000D+00  0.187471D+01  0.000000D+00
      9  0.000000D+00  0.000000D+00  0.000000D+00  0.000000D+00  0.187471D+01
     10  0.182878D-02  0.000000D+00  0.000000D+00  0.000000D+00  0.000000D+00
     11 -0.912730D-02 -0.407071D-01 -0.207745D+00  0.000000D+00  0.000000D+00
     12  0.000000D+00  0.000000D+00  0.000000D+00 -0.209473D-01  0.000000D+00
     13  0.000000D+00  0.000000D+00  0.000000D+00  0.000000D+00 -0.209473D-01
     14  0.989823D-02  0.000000D+00  0.000000D+00  0.000000D+00  0.000000D+00
     15 -0.509408D-02  0.000000D+00  0.000000D+00  0.000000D+00  0.000000D+00
     16  0.000000D+00  0.000000D+00  0.000000D+00  0.000000D+00  0.000000D+00
     17  0.000000D+00  0.000000D+00  0.000000D+00  0.000000D+00  0.000000D+00
     18  0.000000D+00  0.000000D+00  0.000000D+00  0.000000D+00  0.000000D+00
     19  0.000000D+00  0.000000D+00  0.000000D+00  0.000000D+00  0.000000D+00
                6             7             8             9            10 
      6  0.378073D+02
      7  0.000000D+00  0.116813D+01
      8  0.000000D+00  0.000000D+00  0.275070D+01
      9  0.000000D+00  0.000000D+00  0.000000D+00  0.275070D+01
     10  0.187471D+01  0.000000D+00  0.000000D+00  0.000000D+00  0.275070D+01
     11  0.000000D+00 -0.927537D-01  0.000000D+00  0.000000D+00  0.000000D+00
     12  0.000000D+00  0.000000D+00  0.199329D+00  0.000000D+00  0.000000D+00
     13  0.000000D+00  0.000000D+00  0.000000D+00  0.199329D+00  0.000000D+00
     14 -0.209473D-01  0.000000D+00  0.000000D+00  0.000000D+00  0.199329D+00
     15  0.000000D+00  0.000000D+00  0.000000D+00  0.000000D+00  0.000000D+00
     16  0.000000D+00  0.000000D+00  0.000000D+00  0.000000D+00  0.000000D+00
     17  0.000000D+00  0.000000D+00  0.000000D+00  0.000000D+00  0.000000D+00
     18  0.000000D+00  0.000000D+00  0.000000D+00  0.000000D+00  0.000000D+00
     19  0.000000D+00  0.000000D+00  0.000000D+00  0.000000D+00  0.000000D+00
               11            12            13            14            15 
     11  0.207443D+00
     12  0.000000D+00  0.409500D+00
     13  0.000000D+00  0.000000D+00  0.409500D+00
     14  0.000000D+00  0.000000D+00  0.000000D+00  0.409500D+00
     15  0.000000D+00  0.000000D+00  0.000000D+00  0.000000D+00  0.180044D+01
     16  0.000000D+00  0.000000D+00  0.000000D+00  0.000000D+00  0.000000D+00
     17  0.000000D+00  0.000000D+00  0.000000D+00  0.000000D+00  0.000000D+00
     18  0.000000D+00  0.000000D+00  0.000000D+00  0.000000D+00  0.000000D+00
     19  0.000000D+00  0.000000D+00  0.000000D+00  0.000000D+00  0.000000D+00
               16            17            18            19 
     16  0.180044D+01
     17  0.000000D+00  0.180044D+01
     18  0.000000D+00  0.000000D+00  0.180044D+01
     19  0.000000D+00  0.000000D+00  0.000000D+00  0.180044D+01
 Entering OneElI...
 Calculate potential energy integrals
    NBasis =  19  MinDer = 0  MaxDer = 0
 Requested accuracy = 0.1000D-12
 Symmetry will be used
 PrmmSu-InSpLW:  IPartL=    0 NPrtUS=   36 NPrtUL=    1 DoSpLW=F IThBeg=    0 IThEnd=   35 NThAct=   36.
 PrSmSu:  IncTry=   512 NBBP=             42 NTPThr=   100 NPartT=   36 Incr=           1 LDynOK=F GPUOK=F.
 PrsmSu:  NPrtUS=  36 ThrOK=T IAlg=1 LenDen=           0 ISkipM=0 DoSpLW=F IThBeg=    0 IThEnd=   35.
 Prism:   IPart=     0 DynPar=F LinDyn=F Incr=           1.
 PRISM was handed   268432905 working-precision words and    21 shell-pairs
 PRISM was handed   268432905 working-precision words and    21 shell-pairs
 PRISM was handed   268432905 working-precision words and    21 shell-pairs
 PRISM was handed   268432905 working-precision words and    21 shell-pairs
 PRISM was handed   268432905 working-precision words and    21 shell-pairs
 PRISM was handed   268432905 working-precision words and    21 shell-pairs
 PRISM was handed   268432905 working-precision words and    21 shell-pairs
 PRISM was handed   268432905 working-precision words and    21 shell-pairs
 PRISM was handed   268432905 working-precision words and    21 shell-pairs
 PRISM was handed   268432905 working-precision words and    21 shell-pairs
 PRISM was handed   268432905 working-precision words and    21 shell-pairs
 PRISM was handed   268432905 working-precision words and    21 shell-pairs
 PRISM was handed   268432905 working-precision words and    21 shell-pairs
 PRISM was handed   268432905 working-precision words and    21 shell-pairs
 PRISM was handed   268432905 working-precision words and    21 shell-pairs
 PRISM was handed   268432905 working-precision words and    21 shell-pairs
 PRISM was handed   268432905 working-precision words and    21 shell-pairs
 PRISM was handed   268432905 working-precision words and    21 shell-pairs
 PRISM was handed   268432905 working-precision words and    21 shell-pairs
 PRISM was handed   268432905 working-precision words and    21 shell-pairs
 PRISM was handed   268432905 working-precision words and    21 shell-pairs
 PRISM was handed   268432905 working-precision words and    21 shell-pairs
 PRISM was handed   268432905 working-precision words and    21 shell-pairs
 PRISM was handed   268432905 working-precision words and    21 shell-pairs
 PRISM was handed   268432905 working-precision words and    21 shell-pairs
 PRISM was handed   268432905 working-precision words and    21 shell-pairs
 PRISM was handed   268432905 working-precision words and    21 shell-pairs
 PRISM was handed   268432905 working-precision words and    21 shell-pairs
 PRISM was handed   268432905 working-precision words and    21 shell-pairs
 PRISM was handed   268432905 working-precision words and    21 shell-pairs
 PRISM was handed   268432905 working-precision words and    21 shell-pairs
 PRISM was handed   268432905 working-precision words and    21 shell-pairs
 PRISM was handed   268432905 working-precision words and    21 shell-pairs
 PRISM was handed   268432905 working-precision words and    21 shell-pairs
 PRISM was handed   268432905 working-precision words and    21 shell-pairs
 PRISM was handed   268432905 working-precision words and    21 shell-pairs
 IPart= 31 NShTot=           0 NBatch=           0 AvBLen=         0.0
 IPart= 32 NShTot=           0 NBatch=           0 AvBLen=         0.0
 IPart=  6 NShTot=           0 NBatch=           0 AvBLen=         0.0
 IPart=  7 NShTot=           0 NBatch=           0 AvBLen=         0.0
 IPart=  2 NShTot=           6 NBatch=           3 AvBLen=         2.0
 IPart= 33 NShTot=           0 NBatch=           0 AvBLen=         0.0
 IPart= 24 NShTot=           0 NBatch=           0 AvBLen=         0.0
 IPart= 14 NShTot=           0 NBatch=           0 AvBLen=         0.0
 IPart= 19 NShTot=           0 NBatch=           0 AvBLen=         0.0
 IPart= 26 NShTot=           0 NBatch=           0 AvBLen=         0.0
 IPart= 11 NShTot=           0 NBatch=           0 AvBLen=         0.0
 IPart= 10 NShTot=           0 NBatch=           0 AvBLen=         0.0
 IPart= 16 NShTot=           0 NBatch=           0 AvBLen=         0.0
 IPart=  8 NShTot=           0 NBatch=           0 AvBLen=         0.0
 IPart=  1 NShTot=           8 NBatch=           4 AvBLen=         2.0
 IPart= 17 NShTot=           0 NBatch=           0 AvBLen=         0.0
 IPart= 34 NShTot=           0 NBatch=           0 AvBLen=         0.0
 IPart= 30 NShTot=           0 NBatch=           0 AvBLen=         0.0
 IPart= 18 NShTot=           0 NBatch=           0 AvBLen=         0.0
 IPart= 29 NShTot=           0 NBatch=           0 AvBLen=         0.0
 IPart= 22 NShTot=           0 NBatch=           0 AvBLen=         0.0
 IPart= 15 NShTot=           0 NBatch=           0 AvBLen=         0.0
 IPart= 12 NShTot=           0 NBatch=           0 AvBLen=         0.0
 IPart=  4 NShTot=           2 NBatch=           1 AvBLen=         2.0
 IPart= 28 NShTot=           0 NBatch=           0 AvBLen=         0.0
 IPart=  5 NShTot=           2 NBatch=           1 AvBLen=         2.0
 IPart= 23 NShTot=           0 NBatch=           0 AvBLen=         0.0
 IPart= 21 NShTot=           0 NBatch=           0 AvBLen=         0.0
 IPart=  3 NShTot=           4 NBatch=           2 AvBLen=         2.0
 IPart=  0 NShTot=          20 NBatch=          10 AvBLen=         2.0
 IPart= 25 NShTot=           0 NBatch=           0 AvBLen=         0.0
 IPart= 35 NShTot=           0 NBatch=           0 AvBLen=         0.0
 IPart= 20 NShTot=           0 NBatch=           0 AvBLen=         0.0
 IPart= 13 NShTot=           0 NBatch=           0 AvBLen=         0.0
 IPart=  9 NShTot=           0 NBatch=           0 AvBLen=         0.0
 IPart= 27 NShTot=           0 NBatch=           0 AvBLen=         0.0
 PrSmSu:  NxtVal=             37.
 ***** Potential Energy ***** 
                1             2             3             4             5 
      1  0.475446D+01
      2  0.394104D-02  0.468925D+03
      3  0.774623D-02  0.902055D+02  0.964124D+02
      4  0.000000D+00  0.000000D+00  0.000000D+00  0.956418D+02
      5  0.000000D+00  0.000000D+00  0.000000D+00  0.000000D+00  0.956418D+02
      6 -0.320063D-02 -0.700557D-03 -0.426396D-02  0.000000D+00  0.000000D+00
      7  0.269352D-01  0.472368D+01  0.170098D+02  0.000000D+00  0.000000D+00
      8  0.000000D+00  0.000000D+00  0.000000D+00  0.174363D+02  0.000000D+00
      9  0.000000D+00  0.000000D+00  0.000000D+00  0.000000D+00  0.174363D+02
     10 -0.309259D-01 -0.486567D-04 -0.213329D-02  0.000000D+00  0.000000D+00
     11  0.250138D+00 -0.133734D+00  0.483604D+00  0.000000D+00  0.000000D+00
     12  0.000000D+00  0.000000D+00  0.000000D+00  0.120237D+01  0.000000D+00
     13  0.000000D+00  0.000000D+00  0.000000D+00  0.000000D+00  0.120237D+01
     14 -0.394898D+00 -0.248170D-05 -0.188782D-03  0.000000D+00  0.000000D+00
     15  0.156090D+00  0.000000D+00  0.464560D-04  0.000000D+00  0.000000D+00
     16  0.000000D+00  0.000000D+00  0.000000D+00 -0.509506D-03  0.000000D+00
     17  0.000000D+00  0.000000D+00  0.000000D+00  0.000000D+00 -0.509506D-03
     18  0.000000D+00  0.000000D+00  0.000000D+00  0.000000D+00  0.000000D+00
     19  0.000000D+00  0.000000D+00  0.000000D+00  0.000000D+00  0.000000D+00
                6             7             8             9            10 
      6  0.956421D+02
      7 -0.222795D-02  0.253943D+02
      8  0.000000D+00  0.000000D+00  0.254372D+02
      9  0.000000D+00  0.000000D+00  0.000000D+00  0.254372D+02
     10  0.174366D+02 -0.150952D-01  0.000000D+00  0.000000D+00  0.254401D+02
     11 -0.150383D-03  0.650512D+01  0.000000D+00  0.000000D+00 -0.930354D-02
     12  0.000000D+00  0.000000D+00  0.682299D+01  0.000000D+00  0.000000D+00
     13  0.000000D+00  0.000000D+00  0.000000D+00  0.682299D+01  0.000000D+00
     14  0.120239D+01 -0.892507D-02  0.000000D+00  0.000000D+00  0.682567D+01
     15 -0.595866D-03  0.258206D-02  0.000000D+00  0.000000D+00 -0.133760D-01
     16  0.000000D+00  0.000000D+00 -0.108164D-01  0.000000D+00  0.000000D+00
     17  0.000000D+00  0.000000D+00  0.000000D+00 -0.108164D-01  0.000000D+00
     18  0.000000D+00  0.000000D+00  0.000000D+00  0.000000D+00  0.000000D+00
     19  0.000000D+00  0.000000D+00  0.000000D+00  0.000000D+00  0.000000D+00
               11            12            13            14            15 
     11  0.951565D+01
     12  0.000000D+00  0.950940D+01
     13  0.000000D+00  0.000000D+00  0.950940D+01
     14 -0.392787D-01  0.000000D+00  0.000000D+00  0.952866D+01
     15  0.898079D-02  0.000000D+00  0.000000D+00 -0.287956D-01  0.140633D+02
     16  0.000000D+00 -0.206387D-01  0.000000D+00  0.000000D+00  0.000000D+00
     17  0.000000D+00  0.000000D+00 -0.206387D-01  0.000000D+00  0.000000D+00
     18  0.000000D+00  0.000000D+00  0.000000D+00  0.000000D+00  0.000000D+00
     19  0.000000D+00  0.000000D+00  0.000000D+00  0.000000D+00  0.000000D+00
               16            17            18            19 
     16  0.140598D+02
     17  0.000000D+00  0.140598D+02
     18  0.000000D+00  0.000000D+00  0.140535D+02
     19  0.000000D+00  0.000000D+00  0.000000D+00  0.140535D+02
 ****** Core Hamiltonian ****** 
                1             2             3             4             5 
      1 -0.399443D+01
      2 -0.396889D-02 -0.239585D+03
      3 -0.794521D-02 -0.888258D+02 -0.843300D+02
      4  0.000000D+00  0.000000D+00  0.000000D+00 -0.578345D+02
      5  0.000000D+00  0.000000D+00  0.000000D+00  0.000000D+00 -0.578345D+02
      6  0.328735D-02  0.700557D-03  0.426396D-02  0.000000D+00  0.000000D+00
      7 -0.286944D-01 -0.552267D+01 -0.178504D+02  0.000000D+00  0.000000D+00
      8  0.000000D+00  0.000000D+00  0.000000D+00 -0.155616D+02  0.000000D+00
      9  0.000000D+00  0.000000D+00  0.000000D+00  0.000000D+00 -0.155616D+02
     10  0.327546D-01  0.486567D-04  0.213329D-02  0.000000D+00  0.000000D+00
     11 -0.259265D+00  0.930270D-01 -0.691350D+00  0.000000D+00  0.000000D+00
     12  0.000000D+00  0.000000D+00  0.000000D+00 -0.122331D+01  0.000000D+00
     13  0.000000D+00  0.000000D+00  0.000000D+00  0.000000D+00 -0.122331D+01
     14  0.404796D+00  0.248170D-05  0.188782D-03  0.000000D+00  0.000000D+00
     15 -0.161184D+00  0.000000D+00 -0.464560D-04  0.000000D+00  0.000000D+00
     16  0.000000D+00  0.000000D+00  0.000000D+00  0.509506D-03  0.000000D+00
     17  0.000000D+00  0.000000D+00  0.000000D+00  0.000000D+00  0.509506D-03
     18  0.000000D+00  0.000000D+00  0.000000D+00  0.000000D+00  0.000000D+00
     19  0.000000D+00  0.000000D+00  0.000000D+00  0.000000D+00  0.000000D+00
                6             7             8             9            10 
      6 -0.578347D+02
      7  0.222795D-02 -0.242261D+02
      8  0.000000D+00  0.000000D+00 -0.226865D+02
      9  0.000000D+00  0.000000D+00  0.000000D+00 -0.226865D+02
     10 -0.155618D+02  0.150952D-01  0.000000D+00  0.000000D+00 -0.226894D+02
     11  0.150383D-03 -0.659787D+01  0.000000D+00  0.000000D+00  0.930354D-02
     12  0.000000D+00  0.000000D+00 -0.662366D+01  0.000000D+00  0.000000D+00
     13  0.000000D+00  0.000000D+00  0.000000D+00 -0.662366D+01  0.000000D+00
     14 -0.122334D+01  0.892507D-02  0.000000D+00  0.000000D+00 -0.662634D+01
     15  0.595866D-03 -0.258206D-02  0.000000D+00  0.000000D+00  0.133760D-01
     16  0.000000D+00  0.000000D+00  0.108164D-01  0.000000D+00  0.000000D+00
     17  0.000000D+00  0.000000D+00  0.000000D+00  0.108164D-01  0.000000D+00
     18  0.000000D+00  0.000000D+00  0.000000D+00  0.000000D+00  0.000000D+00
     19  0.000000D+00  0.000000D+00  0.000000D+00  0.000000D+00  0.000000D+00
               11            12            13            14            15 
     11 -0.930821D+01
     12  0.000000D+00 -0.909990D+01
     13  0.000000D+00  0.000000D+00 -0.909990D+01
     14  0.392787D-01  0.000000D+00  0.000000D+00 -0.911916D+01
     15 -0.898079D-02  0.000000D+00  0.000000D+00  0.287956D-01 -0.122629D+02
     16  0.000000D+00  0.206387D-01  0.000000D+00  0.000000D+00  0.000000D+00
     17  0.000000D+00  0.000000D+00  0.206387D-01  0.000000D+00  0.000000D+00
     18  0.000000D+00  0.000000D+00  0.000000D+00  0.000000D+00  0.000000D+00
     19  0.000000D+00  0.000000D+00  0.000000D+00  0.000000D+00  0.000000D+00
               16            17            18            19 
     16 -0.122593D+02
     17  0.000000D+00 -0.122593D+02
     18  0.000000D+00  0.000000D+00 -0.122531D+02
     19  0.000000D+00  0.000000D+00  0.000000D+00 -0.122531D+02
 SVDSVc IOpt=   1 NormSV=T IR=1
 SVDSVc V= 1.58D+00 1.53D+00 1.25D+00 1.04D+00 1.00D+00 9.94D-01 9.41D-01 7.20D-01 4.95D-01 4.54D-01
 SVDSVc IOpt=   1 NormSV=T IR=2
 SVDSVc V= 1.00D+00
 SVDSVc IOpt=   1 NormSV=T IR=3
 SVDSVc V= 1.53D+00 1.00D+00 9.76D-01 4.98D-01
 SVDSVc IOpt=   1 NormSV=T IR=4
 SVDSVc V= 1.53D+00 1.00D+00 9.76D-01 4.98D-01
 TstOVc:  Largest diagonal error= 1.55D-15 IB=1 I=    8.
 TstOVc:  Largest same sym error= 6.11D-16 IB=1 I=    7 J=    2.
 TstOVc:  Largest diff sym error= 0.00D+00 IB=0 JB=0 I=    0 J=    0.
 Orthogonalized basis functions: 
                 1             2             3             4             5 
      1   0.276304D-01 -0.613500D-01 -0.920276D-01  0.725641D+00  0.000000D+00
      2   0.306283D+00  0.115014D-01  0.530164D+00  0.667826D-01  0.000000D+00
      3   0.449492D+00  0.155998D-01  0.371989D+00  0.118200D-01  0.000000D+00
      4   0.000000D+00  0.000000D+00  0.000000D+00  0.000000D+00  0.000000D+00
      5   0.000000D+00  0.000000D+00  0.000000D+00  0.000000D+00  0.000000D+00
      6  -0.807854D-02  0.354051D+00 -0.151963D-01  0.384410D+00  0.000000D+00
      7   0.473098D+00  0.130413D-01 -0.326075D+00 -0.803166D-01  0.000000D+00
      8   0.000000D+00  0.000000D+00  0.000000D+00  0.000000D+00  0.000000D+00
      9   0.000000D+00  0.000000D+00  0.000000D+00  0.000000D+00  0.000000D+00
     10  -0.138712D-01  0.561568D+00 -0.123191D-01  0.710825D-01  0.000000D+00
     11   0.334901D+00  0.523254D-02 -0.516609D+00 -0.239584D-01  0.000000D+00
     12   0.000000D+00  0.000000D+00  0.000000D+00  0.000000D+00  0.000000D+00
     13   0.000000D+00  0.000000D+00  0.000000D+00  0.000000D+00  0.000000D+00
     14  -0.133680D-01  0.456974D+00  0.368400D-02 -0.284672D+00  0.000000D+00
     15   0.112394D-02 -0.273304D-02 -0.876794D-02  0.436124D+00  0.000000D+00
     16   0.000000D+00  0.000000D+00  0.000000D+00  0.000000D+00  0.000000D+00
     17   0.000000D+00  0.000000D+00  0.000000D+00  0.000000D+00  0.000000D+00
     18   0.000000D+00  0.000000D+00  0.000000D+00  0.000000D+00  0.100000D+01
     19   0.000000D+00  0.000000D+00  0.000000D+00  0.000000D+00  0.000000D+00
                 6             7             8             9            10 
      1  -0.206850D+00  0.634987D+00 -0.974884D-01 -0.103774D+00  0.494083D-01
      2  -0.178628D-01  0.558878D-01  0.709707D+00  0.203979D-01  0.535805D+00
      3  -0.104624D-02 -0.474323D-02 -0.507642D+00 -0.291552D-01 -0.842155D+00
      4   0.000000D+00  0.000000D+00  0.000000D+00  0.000000D+00  0.000000D+00
      5   0.000000D+00  0.000000D+00  0.000000D+00  0.000000D+00  0.000000D+00
      6  -0.368970D+00 -0.607934D+00  0.172254D-01 -0.587363D+00  0.148252D-01
      7   0.221031D-01 -0.688604D-01 -0.434958D+00  0.242173D-01  0.897491D+00
      8   0.000000D+00  0.000000D+00  0.000000D+00  0.000000D+00  0.000000D+00
      9   0.000000D+00  0.000000D+00  0.000000D+00  0.000000D+00  0.000000D+00
     10  -0.160299D-01  0.777635D-01 -0.151446D-01  0.101028D+01 -0.279546D-01
     11   0.240790D-02  0.790343D-02  0.654392D+00 -0.946384D-02 -0.631367D+00
     12   0.000000D+00  0.000000D+00  0.000000D+00  0.000000D+00  0.000000D+00
     13   0.000000D+00  0.000000D+00  0.000000D+00  0.000000D+00  0.000000D+00
     14   0.282787D+00  0.459807D+00 -0.338673D-02 -0.800444D+00  0.263668D-01
     15   0.863548D+00 -0.253890D+00  0.820984D-02  0.484828D-02 -0.213231D-02
     16   0.000000D+00  0.000000D+00  0.000000D+00  0.000000D+00  0.000000D+00
     17   0.000000D+00  0.000000D+00  0.000000D+00  0.000000D+00  0.000000D+00
     18   0.000000D+00  0.000000D+00  0.000000D+00  0.000000D+00  0.000000D+00
     19   0.000000D+00  0.000000D+00  0.000000D+00  0.000000D+00  0.000000D+00
                11            12            13            14            15 
      1   0.000000D+00  0.000000D+00  0.000000D+00  0.000000D+00  0.000000D+00
      2   0.000000D+00  0.000000D+00  0.000000D+00  0.000000D+00  0.000000D+00
      3   0.000000D+00  0.000000D+00  0.000000D+00  0.000000D+00  0.000000D+00
      4   0.000000D+00  0.358362D+00  0.000000D+00  0.802807D+00 -0.593005D+00
      5   0.000000D+00  0.000000D+00  0.000000D+00  0.000000D+00  0.000000D+00
      6   0.000000D+00  0.000000D+00  0.000000D+00  0.000000D+00  0.000000D+00
      7   0.000000D+00  0.000000D+00  0.000000D+00  0.000000D+00  0.000000D+00
      8   0.000000D+00  0.565532D+00  0.000000D+00 -0.127423D-01  0.101370D+01
      9   0.000000D+00  0.000000D+00  0.000000D+00  0.000000D+00  0.000000D+00
     10   0.000000D+00  0.000000D+00  0.000000D+00  0.000000D+00  0.000000D+00
     11   0.000000D+00  0.000000D+00  0.000000D+00  0.000000D+00  0.000000D+00
     12   0.000000D+00  0.454909D+00  0.000000D+00 -0.616584D+00 -0.793056D+00
     13   0.000000D+00  0.000000D+00  0.000000D+00  0.000000D+00  0.000000D+00
     14   0.000000D+00  0.000000D+00  0.000000D+00  0.000000D+00  0.000000D+00
     15   0.000000D+00  0.000000D+00  0.000000D+00  0.000000D+00  0.000000D+00
     16   0.000000D+00  0.000000D+00  0.100000D+01  0.000000D+00  0.000000D+00
     17   0.000000D+00  0.000000D+00  0.000000D+00  0.000000D+00  0.000000D+00
     18   0.000000D+00  0.000000D+00  0.000000D+00  0.000000D+00  0.000000D+00
     19   0.100000D+01  0.000000D+00  0.000000D+00  0.000000D+00  0.000000D+00
                16            17            18            19 
      1   0.000000D+00  0.000000D+00  0.000000D+00  0.000000D+00
      2   0.000000D+00  0.000000D+00  0.000000D+00  0.000000D+00
      3   0.000000D+00  0.000000D+00  0.000000D+00  0.000000D+00
      4   0.000000D+00  0.000000D+00  0.000000D+00  0.000000D+00
      5   0.358362D+00  0.000000D+00  0.802807D+00 -0.593005D+00
      6   0.000000D+00  0.000000D+00  0.000000D+00  0.000000D+00
      7   0.000000D+00  0.000000D+00  0.000000D+00  0.000000D+00
      8   0.000000D+00  0.000000D+00  0.000000D+00  0.000000D+00
      9   0.565532D+00  0.000000D+00 -0.127423D-01  0.101370D+01
     10   0.000000D+00  0.000000D+00  0.000000D+00  0.000000D+00
     11   0.000000D+00  0.000000D+00  0.000000D+00  0.000000D+00
     12   0.000000D+00  0.000000D+00  0.000000D+00  0.000000D+00
     13   0.454909D+00  0.000000D+00 -0.616584D+00 -0.793056D+00
     14   0.000000D+00  0.000000D+00  0.000000D+00  0.000000D+00
     15   0.000000D+00  0.000000D+00  0.000000D+00  0.000000D+00
     16   0.000000D+00  0.000000D+00  0.000000D+00  0.000000D+00
     17   0.000000D+00  0.100000D+01  0.000000D+00  0.000000D+00
     18   0.000000D+00  0.000000D+00  0.000000D+00  0.000000D+00
     19   0.000000D+00  0.000000D+00  0.000000D+00  0.000000D+00
 NBasis=    19 RedAO= T EigKep=  4.54D-01  NBF=    10     1     4     4
 NBsUse=    19 1.00D-06 EigRej= -1.00D+00 NBFU=    10     1     4     4
 Leave Link  302 at Mon Mar 28 12:46:19 2022, MaxMem=  9663676416 cpu:               4.1 elap:               0.1
 (Enter /nopt/nrel/apps/gaussian/g16C_1/g16/l303.exe)
 DipDrv will not compute anything.
 Fermi contact integrals: 
                 1             2 
      1   0.628247D+00  0.117412D-03
      2   0.000000D+00  0.454848D+02
      3   0.000000D+00  0.245213D+01
      4   0.000000D+00  0.000000D+00
      5   0.000000D+00  0.000000D+00
      6   0.000000D+00  0.000000D+00
      7   0.000000D+00  0.115357D+00
      8   0.000000D+00  0.000000D+00
      9   0.000000D+00  0.000000D+00
     10   0.000000D+00  0.000000D+00
     11   0.175554D-02 -0.521539D-02
     12   0.000000D+00  0.000000D+00
     13   0.000000D+00  0.000000D+00
     14  -0.366135D-02  0.000000D+00
     15   0.555032D-03  0.000000D+00
     16   0.000000D+00  0.000000D+00
     17   0.000000D+00  0.000000D+00
     18   0.000000D+00  0.000000D+00
     19   0.000000D+00  0.000000D+00
 Leave Link  303 at Mon Mar 28 12:46:19 2022, MaxMem=  9663676416 cpu:               1.5 elap:               0.1
 (Enter /nopt/nrel/apps/gaussian/g16C_1/g16/l401.exe)
 ExpMin= 1.16D-01 ExpMax= 1.03D+03 ExpMxC= 1.03D+03 IAcc=3 IRadAn=         5 AccDes= 0.00D+00
 Harris functional with IExCor=  205 and IRadAn=       5 diagonalized for initial guess.
 HarFok:  IExCor=  205 AccDes= 0.00D+00 IRadAn=         5 IDoV= 1 UseB2=F ITyADJ=14
 ICtDFT=  3500011 ScaDFX=  1.000000  1.000000  1.000000  1.000000
 FoFCou: FMM=F IPFlag=           0 FMFlag=      100000 FMFlg1=           0
         NFxFlg=           0 DoJE=T BraDBF=F KetDBF=T FulRan=T
         wScrn=  0.000000 ICntrl=       500 IOpCl=  0 I1Cent=   200000004 NGrid=           0
         NMat0=    1 NMatS0=      1 NMatT0=    0 NMatD0=    1 NMtDS0=    0 NMtDT0=    0
 Petite list used in FoFCou.
 Harris En= -839.025449372724    
 JPrj=0 DoOrth=F DoCkMO=F.
 Initial guess orbital symmetries:
 Alpha Orbitals:
       Occupied  (SG) (SG) (SG) (PI) (PI) (SG) (SG) (PI) (PI) (SG)
                 (SG) (PI) (PI) (DLTA)
       Virtual   (DLTA) (SG) (PI) (PI) (SG)
 Beta  Orbitals:
       Occupied  (SG) (SG) (SG) (PI) (PI) (SG) (SG) (PI) (PI)
       Virtual   (SG) (SG) (PI) (PI) (DLTA) (DLTA) (SG) (PI) (PI)
                 (SG)
 Initial guess <Sx>= 0.0000 <Sy>= 0.0000 <Sz>= 2.5000 <S**2>= 8.7500 S= 2.5000
 Leave Link  401 at Mon Mar 28 12:46:19 2022, MaxMem=  9663676416 cpu:               5.6 elap:               0.2
 (Enter /nopt/nrel/apps/gaussian/g16C_1/g16/l502.exe)
 Keep R1 and R2 ints in memory in symmetry-blocked form, NReq=7412859.
 FoFCou: FMM=F IPFlag=           0 FMFlag=           0 FMFlg1=           0
         NFxFlg=           0 DoJE=F BraDBF=F KetDBF=F FulRan=T
         wScrn=  0.000000 ICntrl=       600 IOpCl=  0 I1Cent=           0 NGrid=           0
         NMat0=    1 NMatS0=    190 NMatT0=    0 NMatD0=    1 NMtDS0=    0 NMtDT0=    0
 Petite list used in FoFCou.
 UHF open shell SCF:
 Using DIIS extrapolation, IDIIS=  1040.
 NGot=  9663676416 LenX=  9663662661 LenY=  9663661779
 Requested convergence on RMS density matrix=1.00D-08 within 128 cycles.
 Requested convergence on MAX density matrix=1.00D-06.
 Requested convergence on             energy=1.00D-06.
 No special actions if energy rises.

 Cycle   1  Pass 1  IDiag  1:
 E= -839.894229881019    
 DIIS: error= 6.76D-02 at cycle   1 NSaved=   1.
 NSaved= 1 IEnMin= 1 EnMin= -839.894229881019     IErMin= 1 ErrMin= 6.76D-02
 ErrMax= 6.76D-02  0.00D+00 EMaxC= 1.00D-01 BMatC= 2.09D-01 BMatP= 2.09D-01
 IDIUse=3 WtCom= 3.24D-01 WtEn= 6.76D-01
 Coeff-Com:  0.100D+01
 Coeff-En:   0.100D+01
 Coeff:      0.100D+01
 Gap=     0.358 Goal=   None    Shift=    0.000
 Gap=     1.882 Goal=   None    Shift=    0.000
 GapD=    0.358 DampG=1.000 DampE=0.250 DampFc=0.2500 IDamp=-1.
 Damping current iteration by 2.50D-01
 RMSDP=8.10D-03 MaxDP=6.45D-02              OVMax= 0.00D+00

 Cycle   2  Pass 1  IDiag  1:
 E= -839.900160736783     Delta-E=       -0.005930855764 Rises=F Damp=T
 DIIS: error= 5.10D-02 at cycle   2 NSaved=   2.
 NSaved= 2 IEnMin= 2 EnMin= -839.900160736783     IErMin= 2 ErrMin= 5.10D-02
 ErrMax= 5.10D-02  0.00D+00 EMaxC= 1.00D-01 BMatC= 1.20D-01 BMatP= 2.09D-01
 IDIUse=3 WtCom= 4.90D-01 WtEn= 5.10D-01
 Coeff-Com: -0.309D+01 0.409D+01
 Coeff-En:   0.000D+00 0.100D+01
 Coeff:     -0.151D+01 0.251D+01
 Gap=     0.352 Goal=   None    Shift=    0.000
 Gap=     1.839 Goal=   None    Shift=    0.000
 RMSDP=6.73D-03 MaxDP=5.86D-02 DE=-5.93D-03 OVMax= 0.00D+00

 Cycle   3  Pass 1  IDiag  1:
 E= -839.920003122300     Delta-E=       -0.019842385517 Rises=F Damp=F
 DIIS: error= 2.25D-03 at cycle   3 NSaved=   3.
 NSaved= 3 IEnMin= 3 EnMin= -839.920003122300     IErMin= 3 ErrMin= 2.25D-03
 ErrMax= 2.25D-03  0.00D+00 EMaxC= 1.00D-01 BMatC= 3.85D-04 BMatP= 1.20D-01
 IDIUse=3 WtCom= 9.77D-01 WtEn= 2.25D-02
 Coeff-Com:  0.327D+01-0.436D+01 0.210D+01
 Coeff-En:   0.000D+00 0.000D+00 0.100D+01
 Coeff:      0.319D+01-0.426D+01 0.207D+01
 Gap=     0.348 Goal=   None    Shift=    0.000
 Gap=     1.831 Goal=   None    Shift=    0.000
 RMSDP=9.16D-04 MaxDP=1.11D-02 DE=-1.98D-02 OVMax= 0.00D+00

 Cycle   4  Pass 1  IDiag  1:
 E= -839.920169202804     Delta-E=       -0.000166080504 Rises=F Damp=F
 DIIS: error= 5.95D-05 at cycle   4 NSaved=   4.
 NSaved= 4 IEnMin= 4 EnMin= -839.920169202804     IErMin= 4 ErrMin= 5.95D-05
 ErrMax= 5.95D-05  0.00D+00 EMaxC= 1.00D-01 BMatC= 2.25D-07 BMatP= 3.85D-04
 IDIUse=1 WtCom= 1.00D+00 WtEn= 0.00D+00
 Coeff-Com: -0.324D+00 0.433D+00-0.212D+00 0.110D+01
 Coeff:     -0.324D+00 0.433D+00-0.212D+00 0.110D+01
 Gap=     0.348 Goal=   None    Shift=    0.000
 Gap=     1.832 Goal=   None    Shift=    0.000
 RMSDP=4.87D-05 MaxDP=5.35D-04 DE=-1.66D-04 OVMax= 0.00D+00

 Cycle   5  Pass 1  IDiag  1:
 E= -839.920169577758     Delta-E=       -0.000000374954 Rises=F Damp=F
 DIIS: error= 5.88D-05 at cycle   5 NSaved=   5.
 NSaved= 5 IEnMin= 5 EnMin= -839.920169577758     IErMin= 5 ErrMin= 5.88D-05
 ErrMax= 5.88D-05  0.00D+00 EMaxC= 1.00D-01 BMatC= 1.15D-07 BMatP= 2.25D-07
 IDIUse=1 WtCom= 1.00D+00 WtEn= 0.00D+00
 Coeff-Com:  0.513D-01-0.685D-01 0.331D-01-0.341D+00 0.132D+01
 Coeff:      0.513D-01-0.685D-01 0.331D-01-0.341D+00 0.132D+01
 Gap=     0.348 Goal=   None    Shift=    0.000
 Gap=     1.832 Goal=   None    Shift=    0.000
 RMSDP=5.55D-05 MaxDP=6.41D-04 DE=-3.75D-07 OVMax= 0.00D+00

 Cycle   6  Pass 1  IDiag  1:
 E= -839.920169951601     Delta-E=       -0.000000373843 Rises=F Damp=F
 DIIS: error= 5.81D-05 at cycle   6 NSaved=   6.
 NSaved= 6 IEnMin= 6 EnMin= -839.920169951601     IErMin= 6 ErrMin= 5.81D-05
 ErrMax= 5.81D-05  0.00D+00 EMaxC= 1.00D-01 BMatC= 1.01D-07 BMatP= 1.15D-07
 IDIUse=1 WtCom= 1.00D+00 WtEn= 0.00D+00
 Coeff-Com:  0.460D-01-0.615D-01 0.309D-01 0.505D-01-0.136D+01 0.229D+01
 Coeff:      0.460D-01-0.615D-01 0.309D-01 0.505D-01-0.136D+01 0.229D+01
 Gap=     0.348 Goal=   None    Shift=    0.000
 Gap=     1.832 Goal=   None    Shift=    0.000
 RMSDP=1.07D-04 MaxDP=1.25D-03 DE=-3.74D-07 OVMax= 0.00D+00

 Cycle   7  Pass 1  IDiag  1:
 E= -839.920170638816     Delta-E=       -0.000000687215 Rises=F Damp=F
 DIIS: error= 5.67D-05 at cycle   7 NSaved=   7.
 NSaved= 7 IEnMin= 7 EnMin= -839.920170638816     IErMin= 7 ErrMin= 5.67D-05
 ErrMax= 5.67D-05  0.00D+00 EMaxC= 1.00D-01 BMatC= 9.30D-08 BMatP= 1.01D-07
 IDIUse=1 WtCom= 1.00D+00 WtEn= 0.00D+00
 Large coefficients: NSaved=  7 BigCof=   12.32 CofMax=   10.00 Det=-4.14D-11
 Inversion failed.  Reducing to  6 matrices.
 Coeff-Com: -0.186D-04-0.208D-02-0.147D+00 0.218D+01-0.439D+01 0.336D+01
 Coeff:     -0.186D-04-0.208D-02-0.147D+00 0.218D+01-0.439D+01 0.336D+01
 Gap=     0.348 Goal=   None    Shift=    0.000
 Gap=     1.832 Goal=   None    Shift=    0.000
 RMSDP=1.86D-04 MaxDP=2.17D-03 DE=-6.87D-07 OVMax= 0.00D+00

 Cycle   8  Pass 1  IDiag  1:
 E= -839.920171793759     Delta-E=       -0.000001154944 Rises=F Damp=F
 DIIS: error= 5.46D-05 at cycle   8 NSaved=   7.
 NSaved= 7 IEnMin= 7 EnMin= -839.920171793759     IErMin= 7 ErrMin= 5.46D-05
 ErrMax= 5.46D-05  0.00D+00 EMaxC= 1.00D-01 BMatC= 8.65D-08 BMatP= 9.30D-08
 IDIUse=1 WtCom= 1.00D+00 WtEn= 0.00D+00
 Large coefficients: NSaved=  7 BigCof=   61.99 CofMax=   10.00 Det=-1.74D-11
 Inversion failed.  Reducing to  6 matrices.
 Large coefficients: NSaved=  6 BigCof=   58.71 CofMax=   10.00 Det=-1.85D-11
 Inversion failed.  Reducing to  5 matrices.
 Large coefficients: NSaved=  5 BigCof=   19.67 CofMax=   10.00 Det=-6.83D-11
 Inversion failed.  Reducing to  4 matrices.
 Large coefficients: NSaved=  4 BigCof=   17.44 CofMax=   10.00 Det=-8.38D-11
 Inversion failed.  Reducing to  3 matrices.
 Coeff-Com:  0.177D+01-0.949D+01 0.872D+01
 Coeff:      0.177D+01-0.949D+01 0.872D+01
 Gap=     0.348 Goal=   None    Shift=    0.000
 Gap=     1.832 Goal=   None    Shift=    0.000
 RMSDP=1.27D-03 MaxDP=1.48D-02 DE=-1.15D-06 OVMax= 0.00D+00

 Cycle   9  Pass 1  IDiag  1:
 E= -839.920178529461     Delta-E=       -0.000006735702 Rises=F Damp=F
 DIIS: error= 4.02D-05 at cycle   9 NSaved=   4.
 NSaved= 4 IEnMin= 4 EnMin= -839.920178529461     IErMin= 4 ErrMin= 4.02D-05
 ErrMax= 4.02D-05  0.00D+00 EMaxC= 1.00D-01 BMatC= 5.04D-08 BMatP= 8.65D-08
 IDIUse=1 WtCom= 1.00D+00 WtEn= 0.00D+00
 Coeff-Com: -0.426D+00 0.321D+01-0.472D+01 0.294D+01
 Coeff:     -0.426D+00 0.321D+01-0.472D+01 0.294D+01
 Gap=     0.348 Goal=   None    Shift=    0.000
 Gap=     1.833 Goal=   None    Shift=    0.000
 RMSDP=2.00D-03 MaxDP=2.33D-02 DE=-6.74D-06 OVMax= 0.00D+00

 Cycle  10  Pass 1  IDiag  1:
 E= -839.920184921298     Delta-E=       -0.000006391837 Rises=F Damp=F
 DIIS: error= 2.31D-05 at cycle  10 NSaved=   5.
 NSaved= 5 IEnMin= 5 EnMin= -839.920184921298     IErMin= 5 ErrMin= 2.31D-05
 ErrMax= 2.31D-05  0.00D+00 EMaxC= 1.00D-01 BMatC= 3.80D-08 BMatP= 5.04D-08
 IDIUse=1 WtCom= 1.00D+00 WtEn= 0.00D+00
 Large coefficients: NSaved=  5 BigCof=   44.59 CofMax=   10.00 Det=-1.52D-11
 Inversion failed.  Reducing to  4 matrices.
 Coeff-Com:  0.452D+01-0.846D+01 0.594D+01-0.100D+01
 Coeff:      0.452D+01-0.846D+01 0.594D+01-0.100D+01
 Gap=     0.349 Goal=   None    Shift=    0.000
 Gap=     1.833 Goal=   None    Shift=    0.000
 RMSDP=1.71D-04 MaxDP=1.98D-03 DE=-6.39D-06 OVMax= 0.00D+00

 Cycle  11  Pass 1  IDiag  1:
 E= -839.920185202820     Delta-E=       -0.000000281522 Rises=F Damp=F
 DIIS: error= 4.60D-05 at cycle  11 NSaved=   5.
 NSaved= 5 IEnMin= 5 EnMin= -839.920185202820     IErMin= 4 ErrMin= 2.31D-05
 ErrMax= 4.60D-05  0.00D+00 EMaxC= 1.00D-01 BMatC= 1.36D-07 BMatP= 3.80D-08
 IDIUse=1 WtCom= 1.00D+00 WtEn= 0.00D+00
 Coeff-Com:  0.258D+01-0.452D+01 0.205D+01 0.216D+01-0.128D+01
 Coeff:      0.258D+01-0.452D+01 0.205D+01 0.216D+01-0.128D+01
 Gap=     0.349 Goal=   None    Shift=    0.000
 Gap=     1.833 Goal=   None    Shift=    0.000
 RMSDP=1.35D-03 MaxDP=1.56D-02 DE=-2.82D-07 OVMax= 0.00D+00

 Cycle  12  Pass 1  IDiag  1:
 E= -839.920186291745     Delta-E=       -0.000001088926 Rises=F Damp=F
 DIIS: error= 4.26D-05 at cycle  12 NSaved=   6.
 NSaved= 6 IEnMin= 6 EnMin= -839.920186291745     IErMin= 4 ErrMin= 2.31D-05
 ErrMax= 4.26D-05  0.00D+00 EMaxC= 1.00D-01 BMatC= 1.05D-07 BMatP= 3.80D-08
 IDIUse=1 WtCom= 1.00D+00 WtEn= 0.00D+00
 Coeff-Com:  0.324D+01-0.521D+01 0.284D+01 0.725D+00-0.163D+01 0.103D+01
 Coeff:      0.324D+01-0.521D+01 0.284D+01 0.725D+00-0.163D+01 0.103D+01
 Gap=     0.349 Goal=   None    Shift=    0.000
 Gap=     1.834 Goal=   None    Shift=    0.000
 RMSDP=5.26D-05 MaxDP=6.05D-04 DE=-1.09D-06 OVMax= 0.00D+00

 Cycle  13  Pass 1  IDiag  1:
 E= -839.920186316263     Delta-E=       -0.000000024518 Rises=F Damp=F
 DIIS: error= 2.04D-05 at cycle  13 NSaved=   7.
 NSaved= 7 IEnMin= 7 EnMin= -839.920186316263     IErMin= 7 ErrMin= 2.04D-05
 ErrMax= 2.04D-05  0.00D+00 EMaxC= 1.00D-01 BMatC= 2.39D-08 BMatP= 3.80D-08
 IDIUse=1 WtCom= 1.00D+00 WtEn= 0.00D+00
 Coeff-Com: -0.784D+00 0.130D+01-0.629D+00-0.414D+00 0.347D+00-0.123D+01
 Coeff-Com:  0.242D+01
 Coeff:     -0.784D+00 0.130D+01-0.629D+00-0.414D+00 0.347D+00-0.123D+01
 Coeff:      0.242D+01
 Gap=     0.348 Goal=   None    Shift=    0.000
 Gap=     1.834 Goal=   None    Shift=    0.000
 RMSDP=1.47D-05 MaxDP=1.44D-04 DE=-2.45D-08 OVMax= 0.00D+00

 Cycle  14  Pass 1  IDiag  1:
 E= -839.920186321915     Delta-E=       -0.000000005651 Rises=F Damp=F
 DIIS: error= 8.16D-06 at cycle  14 NSaved=   8.
 NSaved= 8 IEnMin= 8 EnMin= -839.920186321915     IErMin= 8 ErrMin= 8.16D-06
 ErrMax= 8.16D-06  0.00D+00 EMaxC= 1.00D-01 BMatC= 3.93D-09 BMatP= 2.39D-08
 IDIUse=1 WtCom= 1.00D+00 WtEn= 0.00D+00
 Coeff-Com: -0.207D+00 0.358D+00-0.195D+00-0.101D+00 0.140D+00 0.852D+00
 Coeff-Com: -0.134D+01 0.149D+01
 Coeff:     -0.207D+00 0.358D+00-0.195D+00-0.101D+00 0.140D+00 0.852D+00
 Coeff:     -0.134D+01 0.149D+01
 Gap=     0.348 Goal=   None    Shift=    0.000
 Gap=     1.834 Goal=   None    Shift=    0.000
 RMSDP=2.22D-06 MaxDP=2.11D-05 DE=-5.65D-09 OVMax= 0.00D+00

 Cycle  15  Pass 1  IDiag  1:
 E= -839.920186322853     Delta-E=       -0.000000000939 Rises=F Damp=F
 DIIS: error= 2.57D-06 at cycle  15 NSaved=   9.
 NSaved= 9 IEnMin= 9 EnMin= -839.920186322853     IErMin= 9 ErrMin= 2.57D-06
 ErrMax= 2.57D-06  0.00D+00 EMaxC= 1.00D-01 BMatC= 3.86D-10 BMatP= 3.93D-09
 IDIUse=1 WtCom= 1.00D+00 WtEn= 0.00D+00
 Coeff-Com: -0.375D-01 0.603D-01-0.251D-01-0.204D-01 0.736D-02-0.116D+00
 Coeff-Com:  0.228D+00-0.509D+00 0.141D+01
 Coeff:     -0.375D-01 0.603D-01-0.251D-01-0.204D-01 0.736D-02-0.116D+00
 Coeff:      0.228D+00-0.509D+00 0.141D+01
 Gap=     0.348 Goal=   None    Shift=    0.000
 Gap=     1.834 Goal=   None    Shift=    0.000
 RMSDP=2.35D-06 MaxDP=2.67D-05 DE=-9.39D-10 OVMax= 0.00D+00

 Cycle  16  Pass 1  IDiag  1:
 E= -839.920186322958     Delta-E=       -0.000000000104 Rises=F Damp=F
 DIIS: error= 4.05D-07 at cycle  16 NSaved=  10.
 NSaved=10 IEnMin=10 EnMin= -839.920186322958     IErMin=10 ErrMin= 4.05D-07
 ErrMax= 4.05D-07  0.00D+00 EMaxC= 1.00D-01 BMatC= 9.50D-12 BMatP= 3.86D-10
 IDIUse=1 WtCom= 1.00D+00 WtEn= 0.00D+00
 Coeff-Com:  0.146D-02-0.177D-02 0.344D-03-0.455D-03 0.114D-02 0.121D-01
 Coeff-Com: -0.140D-01 0.573D-01-0.267D+00 0.121D+01
 Coeff:      0.146D-02-0.177D-02 0.344D-03-0.455D-03 0.114D-02 0.121D-01
 Coeff:     -0.140D-01 0.573D-01-0.267D+00 0.121D+01
 Gap=     0.348 Goal=   None    Shift=    0.000
 Gap=     1.834 Goal=   None    Shift=    0.000
 RMSDP=2.17D-07 MaxDP=2.22D-06 DE=-1.04D-10 OVMax= 0.00D+00

 Cycle  17  Pass 1  IDiag  1:
 E= -839.920186322960     Delta-E=       -0.000000000003 Rises=F Damp=F
 DIIS: error= 2.81D-09 at cycle  17 NSaved=  11.
 NSaved=11 IEnMin=11 EnMin= -839.920186322960     IErMin=11 ErrMin= 2.81D-09
 ErrMax= 2.81D-09  0.00D+00 EMaxC= 1.00D-01 BMatC= 4.91D-16 BMatP= 9.50D-12
 IDIUse=1 WtCom= 1.00D+00 WtEn= 0.00D+00
 Coeff-Com: -0.179D-03 0.135D-03 0.322D-04 0.239D-03-0.300D-03-0.266D-02
 Coeff-Com:  0.263D-02-0.115D-01 0.576D-01-0.311D+00 0.126D+01
 Coeff:     -0.179D-03 0.135D-03 0.322D-04 0.239D-03-0.300D-03-0.266D-02
 Coeff:      0.263D-02-0.115D-01 0.576D-01-0.311D+00 0.126D+01
 Gap=     0.348 Goal=   None    Shift=    0.000
 Gap=     1.834 Goal=   None    Shift=    0.000
 RMSDP=6.34D-09 MaxDP=7.13D-08 DE=-2.73D-12 OVMax= 0.00D+00

 SCF Done:  E(UHF) =  -839.920186323     A.U. after   17 cycles
            NFock= 17  Conv=0.63D-08     -V/T= 2.0043
 <Sx>= 0.0000 <Sy>= 0.0000 <Sz>= 2.5000 <S**2>= 8.7536 S= 2.5006
 <L.S>= 0.000000000000E+00
 KE= 8.363355050269D+02 PE=-1.995489290834D+03 EE= 3.157057514111D+02
 Annihilation of the first spin contaminant:
 S**2 before annihilation     8.7536,   after     8.7500
 Leave Link  502 at Mon Mar 28 12:46:19 2022, MaxMem=  9663676416 cpu:               6.6 elap:               0.2
 (Enter /nopt/nrel/apps/gaussian/g16C_1/g16/l801.exe)
 Windowed orbitals will be sorted by symmetry type.
 ExpMin= 1.16D-01 ExpMax= 1.03D+03 ExpMxC= 1.03D+03 IAcc=3 IRadAn=         5 AccDes= 0.00D+00
 HarFok:  IExCor=  205 AccDes= 0.00D+00 IRadAn=         5 IDoV=-2 UseB2=F ITyADJ=14
 ICtDFT= 12500011 ScaDFX=  1.000000  1.000000  1.000000  1.000000
 Largest valence mixing into a core orbital is  3.25D-04
 Largest core mixing into a valence orbital is  7.21D-05
 Range of M.O.s used for correlation:    10    19
 NBasis=    19 NAE=    14 NBE=     9 NFC=     9 NFV=     0
 NROrb=     10 NOA=     5 NOB=     0 NVA=     5 NVB=    10
 Leave Link  801 at Mon Mar 28 12:46:19 2022, MaxMem=  9663676416 cpu:               4.2 elap:               0.2
 (Enter /nopt/nrel/apps/gaussian/g16C_1/g16/l804.exe)
 Open-shell transformation, MDV=  9663676416 ITran=4 ISComp=2.
 Unit  1 TFree=         25012 TCopy=        222819.
 Semi-Direct transformation.
 ModeAB=           2 MOrb=             5 LenV=    9663501477
 LASXX=          328 LTotXX=         328 LenRXX=         328
 LTotAB=         596 MaxLAS=       10500 LenRXY=       10500
 NonZer=       12150 LenScr=      785920 LnRSAI=           0
 LnScr1=           0 LExtra=      223847 Total=      1020595
 MaxDsk= 34359738368 SrtSym=           F ITran=            4
 DoSDTr:  NPSUse= 36
 JobTyp=1 Pass  1:  I=   1 to   5.
 (rs|ai) integrals will be sorted in core.
 Complete sort for first half transformation.
 First half transformation complete.
 Complete sort for second half transformation.
 Second half transformation complete.
 Spin components of T(2) and E(2):
     alpha-alpha T2 =       0.1254218822D-02 E2=     -0.8782025859D-03
     alpha-beta  T2 =       0.0000000000D+00 E2=      0.0000000000D+00
     beta-beta   T2 =       0.0000000000D+00 E2=      0.0000000000D+00
 ANorm=    0.1000626913D+01
 E2 =    -0.8782025859D-03 EUMP2 =    -0.83992106452555D+03
 Leave Link  804 at Mon Mar 28 12:46:20 2022, MaxMem=  9663676416 cpu:              11.6 elap:               0.4
 (Enter /nopt/nrel/apps/gaussian/g16C_1/g16/l913.exe)
 CIDS:  MDV=  9663676416.
 Frozen-core window:  NFC=   9 NFV=   0.
 IFCWin=0 IBDFC=1 NFBD=     0     0 NFCmp=     0     0 NFFFC=     0     0
 Using original routines for 1st iteration.
 Using DD4UQ or CC4UQ for 2nd and later iterations.
 Keep R2 and R3 ints in memory in symmetry-blocked form, NReq=7415301.
 FoFCou: FMM=F IPFlag=           0 FMFlag=           0 FMFlg1=           0
         NFxFlg=           0 DoJE=F BraDBF=F KetDBF=F FulRan=T
         wScrn=  0.000000 ICntrl=       600 IOpCl=  0 I1Cent=           0 NGrid=           0
         NMat0=    1 NMatS0=    190 NMatT0=    0 NMatD0=    1 NMtDS0=    0 NMtDT0=    0
 Petite list used in FoFCou.
 CIDS: In Core Option IDoMem=           1.
 Coupled Cluster theory with single and double substitutions
 ===========================================================
 Iterations= 300 Convergence= 0.100D-06
 Produce multiple copies of IABC intergrals
 Iteration Nr.   1
 **********************
 DD1Dir will call FoFMem   1 times, MxPair=        10
 NAB=     0 NAA=    10 NBB=     0.
 MP4(R+Q)=  0.11013352D-05
 Maximum subspace dimension=  5
 A-vector RMS=  3.5322433D-03 Max=  2.0514696D-02 conv= 1.00D-05.
 RLE energy=       -0.1334273802
 E3=       -0.87352371D-03        EUMP3=      -0.83992193805D+03
 E4(DQ)=   -0.86815548D-03        UMP4(DQ)=   -0.83992280620D+03
 E4(SDQ)=  -0.86815746D-03        UMP4(SDQ)=  -0.83992280621D+03
 VARIATIONAL ENERGIES WITH THE FIRST-ORDER WAVEFUNCTION:
 DE(Corr)= -0.17506250E-02 E(Corr)=     -839.92193695    
 NORM(A)=   0.54755812D+01
 Iteration Nr.   2
 **********************
 DD1Dir will call FoFMem   1 times, MxPair=        10
 NAB=     0 NAA=    10 NBB=     0.
 A-vector RMS=  1.0315696D-01 Max=  5.8808924D-01 conv= 1.00D-05.
 RLE energy=       -0.0032504627
 DE(Corr)= -0.10821523     E(CORR)=     -840.02840155     Delta=-1.06D-01
 NORM(A)=   0.10085686D+01
 Iteration Nr.   3
 **********************
 DD1Dir will call FoFMem   1 times, MxPair=        10
 NAB=     0 NAA=    10 NBB=     0.
 A-vector RMS=  3.4690578D-03 Max=  2.0168250D-02 conv= 1.00D-05.
 RLE energy=       -0.0005138345
 DE(Corr)= -0.40982533E-02 E(CORR)=     -839.92428458     Delta= 1.04D-01
 NORM(A)=   0.10002163D+01
 Iteration Nr.   4
 **********************
 DD1Dir will call FoFMem   1 times, MxPair=        10
 NAB=     0 NAA=    10 NBB=     0.
 A-vector RMS=  3.5426787D-03 Max=  2.0568679D-02 conv= 1.00D-05.
 RLE energy=       -0.0083779165
 DE(Corr)= -0.13878217E-02 E(CORR)=     -839.92157414     Delta= 2.71D-03
 NORM(A)=   0.10558533D+01
 Iteration Nr.   5
 **********************
 DD1Dir will call FoFMem   1 times, MxPair=        10
 NAB=     0 NAA=    10 NBB=     0.
 A-vector RMS=  3.1506919D-03 Max=  1.7842993D-02 conv= 1.00D-05.
 RLE energy=        0.0009700461
 DE(Corr)= -0.91214666E-02 E(CORR)=     -839.92930779     Delta=-7.73D-03
 NORM(A)=   0.10008013D+01
 Iteration Nr.   6
 **********************
 DD1Dir will call FoFMem   1 times, MxPair=        10
 NAB=     0 NAA=    10 NBB=     0.
 A-vector RMS=  3.5835772D-03 Max=  2.0609946D-02 conv= 1.00D-05.
 RLE energy=       -0.0005674876
 DE(Corr)=  0.91400705E-04 E(CORR)=     -839.92009492     Delta= 9.21D-03
 NORM(A)=   0.10002843D+01
 Iteration Nr.   7
 **********************
 DD1Dir will call FoFMem   1 times, MxPair=        10
 NAB=     0 NAA=    10 NBB=     0.
 A-vector RMS=  3.5398360D-03 Max=  2.0620093D-02 conv= 1.00D-05.
 RLE energy=       -0.0155749676
 DE(Corr)= -0.14403845E-02 E(CORR)=     -839.92162671     Delta=-1.53D-03
 NORM(A)=   0.11920111D+01
 Iteration Nr.   8
 **********************
 DD1Dir will call FoFMem   1 times, MxPair=        10
 NAB=     0 NAA=    10 NBB=     0.
 A-vector RMS=  2.8066883D-03 Max=  1.1894881D-02 conv= 1.00D-05.
 RLE energy=       -0.0427351102
 DE(Corr)= -0.16057929E-01 E(CORR)=     -839.93624425     Delta=-1.46D-02
 NORM(A)=   0.20177128D+01
 Iteration Nr.   9
 **********************
 DD1Dir will call FoFMem   1 times, MxPair=        10
 NAB=     0 NAA=    10 NBB=     0.
 A-vector RMS=  1.0771227D-02 Max=  5.0205516D-02 conv= 1.00D-05.
 RLE energy=       -0.0220523132
 DE(Corr)= -0.40864459E-01 E(CORR)=     -839.96105078     Delta=-2.48D-02
 NORM(A)=   0.13394589D+01
 Iteration Nr.  10
 **********************
 DD1Dir will call FoFMem   1 times, MxPair=        10
 NAB=     0 NAA=    10 NBB=     0.
 A-vector RMS=  9.7539668D-04 Max=  3.5318205D-03 conv= 1.00D-05.
 RLE energy=       -0.0039062479
 DE(Corr)= -0.22141441E-01 E(CORR)=     -839.94232776     Delta= 1.87D-02
 NORM(A)=   0.10123664D+01
 Iteration Nr.  11
 **********************
 DD1Dir will call FoFMem   1 times, MxPair=        10
 NAB=     0 NAA=    10 NBB=     0.
 A-vector RMS=  3.4410817D-03 Max=  2.0127123D-02 conv= 1.00D-05.
 RLE energy=       -0.0123193211
 DE(Corr)= -0.47427820E-02 E(CORR)=     -839.92492910     Delta= 1.74D-02
 NORM(A)=   0.11190470D+01
 Iteration Nr.  12
 **********************
 DD1Dir will call FoFMem   1 times, MxPair=        10
 NAB=     0 NAA=    10 NBB=     0.
 A-vector RMS=  2.5657526D-03 Max=  1.4429870D-02 conv= 1.00D-05.
 RLE energy=       -0.0250921842
 DE(Corr)= -0.12931093E-01 E(CORR)=     -839.93311742     Delta=-8.19D-03
 NORM(A)=   0.14322582D+01
 Iteration Nr.  13
 **********************
 DD1Dir will call FoFMem   1 times, MxPair=        10
 NAB=     0 NAA=    10 NBB=     0.
 A-vector RMS=  9.9713462D-04 Max=  3.2834953D-03 conv= 1.00D-05.
 RLE energy=       -0.0197853326
 DE(Corr)= -0.24972373E-01 E(CORR)=     -839.94515870     Delta=-1.20D-02
 NORM(A)=   0.12904100D+01
 Iteration Nr.  14
 **********************
 DD1Dir will call FoFMem   1 times, MxPair=        10
 NAB=     0 NAA=    10 NBB=     0.
 A-vector RMS=  1.3075484D-03 Max=  6.2485074D-03 conv= 1.00D-05.
 RLE energy=       -0.0172056616
 DE(Corr)= -0.20028455E-01 E(CORR)=     -839.94021478     Delta= 4.94D-03
 NORM(A)=   0.12399640D+01
 Iteration Nr.  15
 **********************
 DD1Dir will call FoFMem   1 times, MxPair=        10
 NAB=     0 NAA=    10 NBB=     0.
 A-vector RMS=  2.4296984D-03 Max=  1.0407450D-02 conv= 1.00D-05.
 RLE energy=       -0.0267053328
 DE(Corr)= -0.17574353E-01 E(CORR)=     -839.93776068     Delta= 2.45D-03
 NORM(A)=   0.14932280D+01
 Iteration Nr.  16
 **********************
 DD1Dir will call FoFMem   1 times, MxPair=        10
 NAB=     0 NAA=    10 NBB=     0.
 A-vector RMS=  1.8890872D-03 Max=  6.6042725D-03 conv= 1.00D-05.
 RLE energy=        0.0099328718
 DE(Corr)= -0.26461400E-01 E(CORR)=     -839.94664772     Delta=-8.89D-03
 NORM(A)=   0.22503905D+01
 Iteration Nr.  17
 **********************
 DD1Dir will call FoFMem   1 times, MxPair=        10
 NAB=     0 NAA=    10 NBB=     0.
 A-vector RMS=  3.8790869D-02 Max=  1.0384789D-01 conv= 1.00D-05.
 RLE energy=       -0.0245823982
 DE(Corr)=  0.10444462E-01 E(CORR)=     -839.90974186     Delta= 3.69D-02
 NORM(A)=   0.14232423D+01
 Iteration Nr.  18
 **********************
 DD1Dir will call FoFMem   1 times, MxPair=        10
 NAB=     0 NAA=    10 NBB=     0.
 A-vector RMS=  5.7707391D-04 Max=  2.2750588D-03 conv= 1.00D-05.
 RLE energy=       -0.0189972812
 DE(Corr)= -0.24494720E-01 E(CORR)=     -839.94468104     Delta=-3.49D-02
 NORM(A)=   0.13018561D+01
 Iteration Nr.  19
 **********************
 DD1Dir will call FoFMem   1 times, MxPair=        10
 NAB=     0 NAA=    10 NBB=     0.
 A-vector RMS=  1.7951151D-03 Max=  7.9211595D-03 conv= 1.00D-05.
 RLE energy=       -0.0254263924
 DE(Corr)= -0.19265762E-01 E(CORR)=     -839.93945209     Delta= 5.23D-03
 NORM(A)=   0.15208038D+01
 Iteration Nr.  20
 **********************
 DD1Dir will call FoFMem   1 times, MxPair=        10
 NAB=     0 NAA=    10 NBB=     0.
 A-vector RMS=  1.5703861D-03 Max=  4.2412021D-03 conv= 1.00D-05.
 RLE energy=       -0.0238615064
 DE(Corr)= -0.25275969E-01 E(CORR)=     -839.94546229     Delta=-6.01D-03
 NORM(A)=   0.14724587D+01
 Iteration Nr.  21
 **********************
 DD1Dir will call FoFMem   1 times, MxPair=        10
 NAB=     0 NAA=    10 NBB=     0.
 A-vector RMS=  5.1083288D-04 Max=  1.7746204D-03 conv= 1.00D-05.
 RLE energy=       -0.0211561937
 DE(Corr)= -0.23815914E-01 E(CORR)=     -839.94400224     Delta= 1.46D-03
 NORM(A)=   0.13766721D+01
 Iteration Nr.  22
 **********************
 DD1Dir will call FoFMem   1 times, MxPair=        10
 NAB=     0 NAA=    10 NBB=     0.
 A-vector RMS=  1.0414546D-03 Max=  4.4095853D-03 conv= 1.00D-05.
 RLE energy=       -0.0242513597
 DE(Corr)= -0.21291030E-01 E(CORR)=     -839.94147735     Delta= 2.52D-03
 NORM(A)=   0.14158639D+01
 Iteration Nr.  23
 **********************
 DD1Dir will call FoFMem   1 times, MxPair=        10
 NAB=     0 NAA=    10 NBB=     0.
 A-vector RMS=  5.2129146D-04 Max=  1.7321692D-03 conv= 1.00D-05.
 RLE energy=       -0.0241616835
 DE(Corr)= -0.24189826E-01 E(CORR)=     -839.94437615     Delta=-2.90D-03
 NORM(A)=   0.14189470D+01
 Iteration Nr.  24
 **********************
 DD1Dir will call FoFMem   1 times, MxPair=        10
 NAB=     0 NAA=    10 NBB=     0.
 A-vector RMS=  4.7735096D-04 Max=  1.5878981D-03 conv= 1.00D-05.
 RLE energy=       -0.0226109741
 DE(Corr)= -0.24105412E-01 E(CORR)=     -839.94429173     Delta= 8.44D-05
 NORM(A)=   0.14155355D+01
 Iteration Nr.  25
 **********************
 DD1Dir will call FoFMem   1 times, MxPair=        10
 NAB=     0 NAA=    10 NBB=     0.
 A-vector RMS=  3.8482423D-04 Max=  1.6621891D-03 conv= 1.00D-05.
 RLE energy=       -0.0232221913
 DE(Corr)= -0.22652455E-01 E(CORR)=     -839.94283878     Delta= 1.45D-03
 NORM(A)=   0.14128315D+01
 Iteration Nr.  26
 **********************
 DD1Dir will call FoFMem   1 times, MxPair=        10
 NAB=     0 NAA=    10 NBB=     0.
 A-vector RMS=  4.3909681D-05 Max=  2.3577601D-04 conv= 1.00D-05.
 RLE energy=       -0.0234086379
 DE(Corr)= -0.23227219E-01 E(CORR)=     -839.94341354     Delta=-5.75D-04
 NORM(A)=   0.14189529D+01
 Iteration Nr.  27
 **********************
 DD1Dir will call FoFMem   1 times, MxPair=        10
 NAB=     0 NAA=    10 NBB=     0.
 A-vector RMS=  7.7265121D-05 Max=  2.5331251D-04 conv= 1.00D-05.
 RLE energy=       -0.0242754329
 DE(Corr)= -0.23400576E-01 E(CORR)=     -839.94358690     Delta=-1.73D-04
 NORM(A)=   0.14360814D+01
 Iteration Nr.  28
 **********************
 DD1Dir will call FoFMem   1 times, MxPair=        10
 NAB=     0 NAA=    10 NBB=     0.
 A-vector RMS=  5.0964038D-04 Max=  1.6644614D-03 conv= 1.00D-05.
 RLE energy=       -0.0232346443
 DE(Corr)= -0.24208093E-01 E(CORR)=     -839.94439442     Delta=-8.08D-04
 NORM(A)=   0.14139460D+01
 Iteration Nr.  29
 **********************
 DD1Dir will call FoFMem   1 times, MxPair=        10
 NAB=     0 NAA=    10 NBB=     0.
 A-vector RMS=  3.7369867D-05 Max=  1.3900783D-04 conv= 1.00D-05.
 RLE energy=       -0.0227013442
 DE(Corr)= -0.23238369E-01 E(CORR)=     -839.94342469     Delta= 9.70D-04
 NORM(A)=   0.14007356D+01
 Iteration Nr.  30
 **********************
 DD1Dir will call FoFMem   1 times, MxPair=        10
 NAB=     0 NAA=    10 NBB=     0.
 A-vector RMS=  2.8920300D-04 Max=  1.0541742D-03 conv= 1.00D-05.
 RLE energy=       -0.0230395748
 DE(Corr)= -0.22740524E-01 E(CORR)=     -839.94292685     Delta= 4.98D-04
 NORM(A)=   0.14105302D+01
 Iteration Nr.  31
 **********************
 DD1Dir will call FoFMem   1 times, MxPair=        10
 NAB=     0 NAA=    10 NBB=     0.
 A-vector RMS=  1.2621528D-04 Max=  4.6262623D-04 conv= 1.00D-05.
 RLE energy=       -0.0232406738
 DE(Corr)= -0.23055999E-01 E(CORR)=     -839.94324232     Delta=-3.15D-04
 NORM(A)=   0.14152452D+01
 Iteration Nr.  32
 **********************
 DD1Dir will call FoFMem   1 times, MxPair=        10
 NAB=     0 NAA=    10 NBB=     0.
 A-vector RMS=  2.2999447D-05 Max=  8.4284344D-05 conv= 1.00D-05.
 RLE energy=       -0.0232935381
 DE(Corr)= -0.23243773E-01 E(CORR)=     -839.94343010     Delta=-1.88D-04
 NORM(A)=   0.14156702D+01
 Iteration Nr.  33
 **********************
 DD1Dir will call FoFMem   1 times, MxPair=        10
 NAB=     0 NAA=    10 NBB=     0.
 A-vector RMS=  9.6067779D-06 Max=  2.0358496D-05 conv= 1.00D-05.
 RLE energy=       -0.0232963674
 DE(Corr)= -0.23293266E-01 E(CORR)=     -839.94347959     Delta=-4.95D-05
 NORM(A)=   0.14159684D+01
 Iteration Nr.  34
 **********************
 DD1Dir will call FoFMem   1 times, MxPair=        10
 NAB=     0 NAA=    10 NBB=     0.
 A-vector RMS=  8.1449813D-06 Max=  1.6530624D-05 conv= 1.00D-05.
 RLE energy=       -0.0232608040
 DE(Corr)= -0.23295824E-01 E(CORR)=     -839.94348215     Delta=-2.56D-06
 NORM(A)=   0.14153214D+01
 Iteration Nr.  35
 **********************
 DD1Dir will call FoFMem   1 times, MxPair=        10
 NAB=     0 NAA=    10 NBB=     0.
 A-vector RMS=  1.4295341D-05 Max=  5.0898061D-05 conv= 1.00D-05.
 RLE energy=       -0.0232876433
 DE(Corr)= -0.23262569E-01 E(CORR)=     -839.94344889     Delta= 3.33D-05
 NORM(A)=   0.14157516D+01
 Iteration Nr.  36
 **********************
 DD1Dir will call FoFMem   1 times, MxPair=        10
 NAB=     0 NAA=    10 NBB=     0.
 A-vector RMS=  3.2338057D-07 Max=  1.0305053D-06 conv= 1.00D-05.
 RLE energy=       -0.0232876568
 DE(Corr)= -0.23287656E-01 E(CORR)=     -839.94347398     Delta=-2.51D-05
 NORM(A)=   0.14157488D+01
 Iteration Nr.  37
 **********************
 DD1Dir will call FoFMem   1 times, MxPair=        10
 NAB=     0 NAA=    10 NBB=     0.
 A-vector RMS=  2.7719842D-07 Max=  9.0522848D-07 conv= 1.00D-05.
 RLE energy=       -0.0232881745
 DE(Corr)= -0.23287670E-01 E(CORR)=     -839.94347399     Delta=-1.41D-08
 NORM(A)=   0.14157572D+01
 CI/CC converged in   37 iterations to DelEn=-1.41D-08 Conv= 1.00D-07 ErrA1= 2.77D-07 Conv= 1.00D-05
 Wavefunction amplitudes converged. E(Corr)=     -839.94347399    
 Dominant configurations:
 ***********************
 Spin Case        I    J    A    B          Value
    AA           14        16            0.164231D+00
    AA           13        15            0.164231D+00
   AAAA          14   13   16   15      -0.604974D+00
   AAAA          12   13   17   16       0.530216D+00
   AAAA          12   14   17   15       0.530216D+00
 Largest amplitude= 6.05D-01
 Discarding MO integrals.
 Leave Link  913 at Mon Mar 28 12:46:20 2022, MaxMem=  9663676416 cpu:               7.7 elap:               0.2
 (Enter /nopt/nrel/apps/gaussian/g16C_1/g16/l601.exe)
 Copying SCF densities to generalized density rwf, IOpCl= 1 IROHF=0.

 **********************************************************************

            Population analysis using the SCF Density.

 **********************************************************************

 Orbital symmetries:
 Alpha Orbitals:
       Occupied  (SG) (SG) (SG) (PI) (PI) (SG) (SG) (PI) (PI) (SG)
                 (SG) (DLTA) (PI) (PI)
       Virtual   (PI) (PI) (SG) (DLTA) (SG)
 Beta  Orbitals:
       Occupied  (SG) (SG) (SG) (PI) (PI) (SG) (SG) (PI) (PI)
       Virtual   (SG) (SG) (PI) (PI) (SG) (DLTA) (SG) (PI) (PI)
                 (DLTA)
 Unable to determine electronic state:  partially filled degenerate orbitals.
 Alpha  occ. eigenvalues -- -181.41137 -21.15591 -17.73819 -17.73818 -17.73818
 Alpha  occ. eigenvalues --   -2.79876  -1.75322  -1.75316  -1.75316  -0.46692
 Alpha  occ. eigenvalues --   -0.14397  -0.02981  -0.02938  -0.02938
 Alpha virt. eigenvalues --    0.31873   0.31873   0.32299   0.45512   0.45572
  Beta  occ. eigenvalues -- -181.40748 -21.14403 -17.73334 -17.73331 -17.73331
  Beta  occ. eigenvalues --   -2.66561  -1.59541  -1.59510  -1.59510
  Beta virt. eigenvalues --    0.23853   0.30726   0.45990   0.45990   0.47483
  Beta virt. eigenvalues --    0.54058   0.54293   0.56715   0.56715   0.56736
          Condensed to atoms (all electrons):
               1          2
     1  H    0.996558   0.000258
     2  Ti   0.000258  22.002927
          Atomic-Atomic Spin Densities.
               1          2
     1  H    0.996549   0.000282
     2  Ti   0.000282   4.002887
 Mulliken charges and spin densities:
               1          2
     1  H    0.003184   0.996831
     2  Ti  -0.003184   4.003169
 Sum of Mulliken charges =   0.00000   5.00000
 Mulliken charges and spin densities with hydrogens summed into heavy atoms:
               1          2
     2  Ti   0.000000   5.000000
 N-N= 3.527848072800D+00 E-N=-1.995489290616D+03  KE= 8.363355050269D+02
 Symmetry A1   KE= 6.580695584323D+02
 Symmetry A2   KE= 1.800435099804D+00
 Symmetry B1   KE= 8.823275574742D+01
 Symmetry B2   KE= 8.823275574742D+01
 Symmetry A1   SP= 2.000000000000D+00
 Symmetry A2   SP= 1.000000000000D+00
 Symmetry B1   SP= 1.000000000000D+00
 Symmetry B2   SP= 1.000000000000D+00

 Atomic contributions to Alpha molecular orbitals:
 Alpha occ 1 OE=-181.411 is Ti2-s=1.0000
 Alpha occ 2 OE=-21.156 is Ti2-s=1.0000
 Alpha occ 3 OE=-17.738 is Ti2-p=1.0000
 Alpha occ 4 OE=-17.738 is Ti2-p=1.0000
 Alpha occ 5 OE=-17.738 is Ti2-p=1.0000
 Alpha occ 6 OE=-2.799 is Ti2-s=1.0000
 Alpha occ 7 OE=-1.753 is Ti2-p=1.0000
 Alpha occ 8 OE=-1.753 is Ti2-p=1.0000
 Alpha occ 9 OE=-1.753 is Ti2-p=1.0000
 Alpha occ 10 OE=-0.467 is H1-s=0.9926
 Alpha occ 11 OE=-0.144 is Ti2-s=0.9952
 Alpha occ 12 OE=-0.030 is Ti2-d=1.0000
 Alpha occ 13 OE=-0.029 is Ti2-d=0.9958
 Alpha occ 14 OE=-0.029 is Ti2-d=0.9958
 Alpha vir 15 OE=0.319 is Ti2-p=0.9958
 Alpha vir 16 OE=0.319 is Ti2-p=0.9958
 Alpha vir 17 OE=0.323 is Ti2-p=0.9951
 Alpha vir 18 OE=0.455 is Ti2-d=1.0000
 Alpha vir 19 OE=0.456 is Ti2-d=0.9979

 Atomic contributions to Beta  molecular orbitals:
 Beta  occ 1 OE=-181.407 is Ti2-s=1.0000
 Beta  occ 2 OE=-21.144 is Ti2-s=1.0000
 Beta  occ 3 OE=-17.733 is Ti2-p=1.0000
 Beta  occ 4 OE=-17.733 is Ti2-p=1.0000
 Beta  occ 5 OE=-17.733 is Ti2-p=1.0000
 Beta  occ 6 OE=-2.666 is Ti2-s=1.0000
 Beta  occ 7 OE=-1.595 is Ti2-p=1.0000
 Beta  occ 8 OE=-1.595 is Ti2-p=1.0000
 Beta  occ 9 OE=-1.595 is Ti2-p=1.0000
 Beta  vir 10 OE=0.239 is Ti2-s=0.8778 H1-s=0.1207
 Beta  vir 11 OE=0.307 is H1-s=0.8047 Ti2-s=0.1181
 Beta  vir 12 OE=0.460 is Ti2-p=0.9979
 Beta  vir 13 OE=0.460 is Ti2-p=0.9979
 Beta  vir 14 OE=0.475 is Ti2-p=0.9128
 Beta  vir 15 OE=0.541 is Ti2-d=1.0000
 Beta  vir 16 OE=0.543 is Ti2-d=0.9771
 Beta  vir 17 OE=0.567 is Ti2-d=0.9979
 Beta  vir 18 OE=0.567 is Ti2-d=0.9979
 Beta  vir 19 OE=0.567 is Ti2-d=1.0000
 
 Leave Link  601 at Mon Mar 28 12:46:20 2022, MaxMem=  9663676416 cpu:               0.8 elap:               0.0
 (Enter /nopt/nrel/apps/gaussian/g16C_1/g16/l9999.exe)

 Test job not archived.
 1\1\GINC-R3I7N35\SP\UCCSD-FC\Gen\H1Ti1(6)\USER\28-Mar-2022\0\\#P C
 CSD(MaxCyc=300,SaveAmplitudes,ReadAmplitudes)/GEN sp pop=AllOrbitals i
 op(3/33=1,3/36=-1)\\test\\0,6\H,0,0.,0.,0.\Ti,0,0.,0.,3.3\\Version=ES6
 4L-G16RevC.01\HF=-839.9201863\MP2=-839.9210645\MP3=-839.921938\MP4D=-8
 39.9228073\MP4DQ=-839.9228062\MP4SDQ=-839.9228062\CCSD=-839.943474\S2=
 8.753584\S2-1=0.\S2A=8.750003\RMSD=6.340e-09\PG=C*V [C*(H1Ti1)]\\@


 "WHERE SHALL I START, PLEASE YOUR MAJESTY?" HE ASKED.
 "BEGIN AT THE BEGINNING," THE KING SAID GRAVELY,
 "AND GO ON TILL YOU COME TO THE END: THEN STOP." 

                                      -- LEWIS CARROLL
 Job cpu time:       0 days  0 hours  0 minutes 51.7 seconds.
 Elapsed time:       0 days  0 hours  0 minutes  1.9 seconds.
 File lengths (MBytes):  RWF=     13 Int=      0 D2E=      0 Chk=      1 Scr=      1
 Normal termination of Gaussian 16 at Mon Mar 28 12:46:20 2022.
