 Entering Gaussian System, Link 0=g16
 Initial command:
 /nopt/nrel/apps/gaussian/g16C_1/g16/l1.exe "/lustre/eaglefs/scratch/user/qc/lih-dissc/lih-3-ccsd-2.8-ccd/Gau-31844.inp" -scrdir="/lustre/eaglefs/scratch/user/qc/lih-dissc/lih-3-ccsd-2.8-ccd/"
 Default is to use a total of  36 processors:
                               36 via shared-memory
                                1 via Linda
 Entering Link 1 = /nopt/nrel/apps/gaussian/g16C_1/g16/l1.exe PID=     31845.
  
 Copyright (c) 1988-2019, Gaussian, Inc.  All Rights Reserved.
  
 This is part of the Gaussian(R) 16 program.  It is based on
 the Gaussian(R) 09 system (copyright 2009, Gaussian, Inc.),
 the Gaussian(R) 03 system (copyright 2003, Gaussian, Inc.),
 the Gaussian(R) 98 system (copyright 1998, Gaussian, Inc.),
 the Gaussian(R) 94 system (copyright 1995, Gaussian, Inc.),
 the Gaussian 92(TM) system (copyright 1992, Gaussian, Inc.),
 the Gaussian 90(TM) system (copyright 1990, Gaussian, Inc.),
 the Gaussian 88(TM) system (copyright 1988, Gaussian, Inc.),
 the Gaussian 86(TM) system (copyright 1986, Carnegie Mellon
 University), and the Gaussian 82(TM) system (copyright 1983,
 Carnegie Mellon University). Gaussian is a federally registered
 trademark of Gaussian, Inc.
  
 This software contains proprietary and confidential information,
 including trade secrets, belonging to Gaussian, Inc.
  
 This software is provided under written license and may be
 used, copied, transmitted, or stored only in accord with that
 written license.
  
 The following legend is applicable only to US Government
 contracts under FAR:
  
                    RESTRICTED RIGHTS LEGEND
  
 Use, reproduction and disclosure by the US Government is
 subject to restrictions as set forth in subparagraphs (a)
 and (c) of the Commercial Computer Software - Restricted
 Rights clause in FAR 52.227-19.
  
 Gaussian, Inc.
 340 Quinnipiac St., Bldg. 40, Wallingford CT 06492
  
  
 ---------------------------------------------------------------
 Warning -- This program may not be used in any manner that
 competes with the business of Gaussian, Inc. or will provide
 assistance to any competitor of Gaussian, Inc.  The licensee
 of this program is prohibited from giving any competitor of
 Gaussian, Inc. access to this program.  By using this program,
 the user acknowledges that Gaussian, Inc. is engaged in the
 business of creating and licensing software in the field of
 computational chemistry and represents and warrants to the
 licensee that it is not a competitor of Gaussian, Inc. and that
 it will not use this program in any manner prohibited above.
 ---------------------------------------------------------------
  

 Cite this work as:
 Gaussian 16, Revision C.01,
 M. J. Frisch, G. W. Trucks, H. B. Schlegel, G. E. Scuseria, 
 M. A. Robb, J. R. Cheeseman, G. Scalmani, V. Barone, 
 G. A. Petersson, H. Nakatsuji, X. Li, M. Caricato, A. V. Marenich, 
 J. Bloino, B. G. Janesko, R. Gomperts, B. Mennucci, H. P. Hratchian, 
 J. V. Ortiz, A. F. Izmaylov, J. L. Sonnenberg, D. Williams-Young, 
 F. Ding, F. Lipparini, F. Egidi, J. Goings, B. Peng, A. Petrone, 
 T. Henderson, D. Ranasinghe, V. G. Zakrzewski, J. Gao, N. Rega, 
 G. Zheng, W. Liang, M. Hada, M. Ehara, K. Toyota, R. Fukuda, 
 J. Hasegawa, M. Ishida, T. Nakajima, Y. Honda, O. Kitao, H. Nakai, 
 T. Vreven, K. Throssell, J. A. Montgomery, Jr., J. E. Peralta, 
 F. Ogliaro, M. J. Bearpark, J. J. Heyd, E. N. Brothers, K. N. Kudin, 
 V. N. Staroverov, T. A. Keith, R. Kobayashi, J. Normand, 
 K. Raghavachari, A. P. Rendell, J. C. Burant, S. S. Iyengar, 
 J. Tomasi, M. Cossi, J. M. Millam, M. Klene, C. Adamo, R. Cammi, 
 J. W. Ochterski, R. L. Martin, K. Morokuma, O. Farkas, 
 J. B. Foresman, and D. J. Fox, Gaussian, Inc., Wallingford CT, 2019.
 
 ******************************************
 Gaussian 16:  ES64L-G16RevC.01  3-Jul-2019
                28-Mar-2022 
 ******************************************
 %chk=molecule
 Default route: CacheSize=180224 MaxDisk=256GB
 ----------------------------------------------------------------------
 #P CCSD(MaxCyc=200,SaveAmplitudes,ReadAmplitudes)/GEN sp pop=AllOrbita
 ls iop(3/33=1,3/36=-1)
 ----------------------------------------------------------------------
 1/4=180224,38=1,172=1/1;
 2/4=180224,12=2,17=6,18=5,40=1/2;
 3/4=180224,5=7,11=9,25=1,30=1,33=1,36=-1/1,2,3;
 4/4=180224/1;
 5/4=180224,5=2,38=5/2;
 8/4=180224,6=4,9=120000,10=1,24=1/1,4;
 9/4=180224,5=7,6=200,77=1/13;
 6/4=180224,7=2,8=2,9=2,10=2,96=-1/1;
 99/4=180224,5=1,9=1/99;
 Leave Link    1 at Mon Mar 28 14:06:48 2022, MaxMem=           0 cpu:               1.9 elap:               0.1
 (Enter /nopt/nrel/apps/gaussian/g16C_1/g16/l101.exe)
 ----
 test
 ----
 Symbolic Z-matrix:
 Charge =  0 Multiplicity = 3
 H                     0.        0.        0. 
 Li                    0.        0.        2.8 
 
 ITRead=  0  0
 MicOpt= -1 -1
 NAtoms=      2 NQM=        2 NQMF=       0 NMMI=      0 NMMIF=      0
                NMic=       0 NMicF=      0.
                    Isotopes and Nuclear Properties:
 (Nuclear quadrupole moments (NQMom) in fm**2, nuclear magnetic moments (NMagM)
  in nuclear magnetons)

  Atom         1           2
 IAtWgt=           1           7
 AtmWgt=   1.0078250   7.0160045
 NucSpn=           1           3
 AtZEff=  -0.0000000  -0.0000000
 NQMom=    0.0000000  -4.0100000
 NMagM=    2.7928460   3.2564240
 AtZNuc=   1.0000000   3.0000000
 Leave Link  101 at Mon Mar 28 14:06:48 2022, MaxMem=  9663676416 cpu:               3.3 elap:               0.1
 (Enter /nopt/nrel/apps/gaussian/g16C_1/g16/l202.exe)
                          Input orientation:                          
 ---------------------------------------------------------------------
 Center     Atomic      Atomic             Coordinates (Angstroms)
 Number     Number       Type             X           Y           Z
 ---------------------------------------------------------------------
      1          1           0        0.000000    0.000000    0.000000
      2          3           0        0.000000    0.000000    2.800000
 ---------------------------------------------------------------------
 Stoichiometry    HLi(3)
 Framework group  C*V[C*(HLi)]
 Deg. of freedom     1
 Full point group                 C*V     NOp   4
 Largest Abelian subgroup         C2V     NOp   4
 Largest concise Abelian subgroup C1      NOp   1
                         Standard orientation:                         
 ---------------------------------------------------------------------
 Center     Atomic      Atomic             Coordinates (Angstroms)
 Number     Number       Type             X           Y           Z
 ---------------------------------------------------------------------
      1          1           0        0.000000    0.000000   -2.100000
      2          3           0        0.000000    0.000000    0.700000
 ---------------------------------------------------------------------
 Rotational constants (GHZ):           0.0000000          73.1489049          73.1489049
 Leave Link  202 at Mon Mar 28 14:06:48 2022, MaxMem=  9663676416 cpu:               1.1 elap:               0.1
 (Enter /nopt/nrel/apps/gaussian/g16C_1/g16/l301.exe)
 General basis read from cards:  (5D, 7F)
                         Coordinates in L301:                         
 ---------------------------------------------------------------------
 Center     Atomic      Atomic             Coordinates (Angstroms)
 Number     Number       Type             X           Y           Z
 ---------------------------------------------------------------------
      1          1           0        0.000000    0.000000   -2.100000
      2          3           0        0.000000    0.000000    0.700000
 ---------------------------------------------------------------------
 Centers:       1
 STO-3G
 ****
 Centers:       2
 cc-pVDZ
 ****
 FixB: optimizing general contractions.
 Ernie: Thresh=  0.10000D-02 Tol=  0.10000D-05 Strict=F.
 IA=     1 ShT= 0 ShC= 0 NL=   1 NS=   0.
 IA=     1 L=0 SC=0 ISt=    0 NBk=    0 NP=    0 IndPr=    0.
 IA=     2 ShT= 0 ShC= 0 NL=   3 NS=   1.
 IA=     2 L=0 SC=0 ISt=    1 NBk=    2 NP=    8 IndPr=    0.
 DoElim1:  L=0 select primitive    2 from    2 using    1 C= 5.89D-03
 DoElim2:  L=0 select primitive    8 from    1 using    2 C= 5.77D-01
 Delete L=0 primitive    2 from    2 C=  2.10D-22.
 Delete L=0 primitive    1 from    2 C=  3.73D-09.
 Delete L=0 primitive    8 from    1 C=  8.70D-19.
 IA=     2 L=0 SC=0 ISt=    0 NBk=    0 NP=    0 IndPr=   13.
 IA=     2 ShT= 1 ShC= 1 NL=   2 NS=   1.
 IA=     2 L=1 SC=1 ISt=    0 NBk=    0 NP=    0 IndPr=    0.
 IA=     2 ShT= 2 ShC= 2 NL=   1 NS=   1.
 IA=     2 L=2 SC=2 ISt=    0 NBk=    0 NP=    0 IndPr=    0.
 Ernie:  3 primitive shells out of 25 were deleted.
 LdAtmC:  AtmChg=     1.000000     3.000000
 AtZEff=     -1.0000000     -1.3500000
 NEqShl: 
              1            2            3            4
     1            1            1            1            1
     2            2            2            2            2
     3            3            3            3            3
     4            4            4            4            4
     5            5            5            5            5
     6            6            6            6            6
     7            7            7            7            7
 NEqBas: 
              1            2            3            4
     1            1            1            1            1
     2            2            2            2            2
     3            3            3            3            3
     4            4            4            4            4
     5            5           -5           -5            5
     6            6           -6            6           -6
     7            7            7            7            7
     8            8           -8           -8            8
     9            9           -9            9           -9
    10           10           10           10           10
    11           11           11           11           11
    12           12           12           12           12
    13           13           13           13           13
    14           14           14          -14          -14
    15           15          -15          -15           15
    16           16          -16           16          -16
 There are     9 symmetry adapted cartesian basis functions of A1  symmetry.
   1         1   1   1   1
   2         2   2   2   2
   3         3   3   3   3
   4         4   4   4   4
   5         7   7   7   7
   6        10  10  10  10
   7        11  11  11  11
   8        12  12  12  12
   9        13  13  13  13
 There are     1 symmetry adapted cartesian basis functions of A2  symmetry.
  10        14  14  14  14
 There are     3 symmetry adapted cartesian basis functions of B1  symmetry.
  11         5   5   5   5
  12         8   8   8   8
  13        15  15  15  15
 There are     3 symmetry adapted cartesian basis functions of B2  symmetry.
  14         6   6   6   6
  15         9   9   9   9
  16        16  16  16  16
 Order= 1 2 4 3
 Reordered character table:
              1            2            3            4            5
     1            1            1            1            1            1
     2            2            1            1           -1           -1
     3            4            1           -1           -1            1
     4            3            1           -1            1           -1
 NEqShl: 
              1            2            3            4
     1            1            1            1            1
     2            2            2            2            2
     3            3            3            3            3
     4            4            4            4            4
     5            5            5            5            5
     6            6            6            6            6
     7            7            7            7            7
 NEqBas: 
              1            2            3            4
     1            1            1            1            1
     2            2            2            2            2
     3            3            3            3            3
     4            4            4            4            4
     5            5           -5           -5            5
     6            6           -6            6           -6
     7            7            7            7            7
     8            8           -8           -8            8
     9            9           -9            9           -9
    10           10           10           10           10
    11           11           11           11           11
    12           12          -12          -12           12
    13           13          -13           13          -13
    14           14           14           14           14
    15           15           15          -15          -15
 There are     8 symmetry adapted basis functions of A1  symmetry.
   1         1   1   1   1
   2         2   2   2   2
   3         3   3   3   3
   4         4   4   4   4
   5         7   7   7   7
   6        10  10  10  10
   7        11  11  11  11
   8        14  14  14  14
 There are     1 symmetry adapted basis functions of A2  symmetry.
   9        15  15  15  15
 There are     3 symmetry adapted basis functions of B1  symmetry.
  10         5   5   5   5
  11         8   8   8   8
  12        12  12  12  12
 There are     3 symmetry adapted basis functions of B2  symmetry.
  13         6   6   6   6
  14         9   9   9   9
  15        13  13  13  13
 Order= 1 2 4 3
 Reordered character table:
              1            2            3            4            5
     1            1            1            1            1            1
     2            2            1            1           -1           -1
     3            4            1           -1           -1            1
     4            3            1           -1            1           -1
    15 basis functions,    35 primitive gaussians,    16 cartesian basis functions
     3 alpha electrons        1 beta electrons
       nuclear repulsion energy         0.5669755831 Hartrees.
 IS=     1 IAt=     1 ISR=     1 T=0 IP=      1 IndIP=      1 IndIPD=      0 C=  2.769344D-01  0.000000D+00                             NZ=T
 IS=     1 IAt=     1 ISR=     1 T=0 IP=      2 IndIP=      2 IndIPD=      1 C=  2.678389D-01  0.000000D+00                             NZ=T
 IS=     1 IAt=     1 ISR=     1 T=0 IP=      3 IndIP=      3 IndIPD=      2 C=  8.347367D-02  0.000000D+00                             NZ=T
 IS=     2 IAt=     2 ISR=     1 T=0 IP=      1 IndIP=      4 IndIPD=      0 C=  1.296301D-01  0.000000D+00                             NZ=T
 IS=     2 IAt=     2 ISR=     1 T=0 IP=      2 IndIP=      5 IndIPD=      1 C=  2.404528D-01  0.000000D+00                             NZ=T
 IS=     2 IAt=     2 ISR=     1 T=0 IP=      3 IndIP=      6 IndIPD=      2 C=  3.994569D-01  0.000000D+00                             NZ=T
 IS=     2 IAt=     2 ISR=     1 T=0 IP=      4 IndIP=      7 IndIPD=      3 C=  5.708542D-01  0.000000D+00                             NZ=T
 IS=     2 IAt=     2 ISR=     1 T=0 IP=      5 IndIP=      8 IndIPD=      4 C=  6.317030D-01  0.000000D+00                             NZ=T
 IS=     2 IAt=     2 ISR=     1 T=0 IP=      6 IndIP=      9 IndIPD=      5 C=  4.558532D-01  0.000000D+00                             NZ=T
 IS=     2 IAt=     2 ISR=     1 T=0 IP=      7 IndIP=     10 IndIPD=      6 C=  1.282724D-01  0.000000D+00                             NZ=T
 IS=     3 IAt=     2 ISR=     2 T=0 IP=      1 IndIP=     11 IndIPD=      0 C= -1.035279D-03  0.000000D+00                             NZ=T
 IS=     3 IAt=     2 ISR=     2 T=0 IP=      2 IndIP=     12 IndIPD=      1 C= -5.681325D-03  0.000000D+00                             NZ=T
 IS=     3 IAt=     2 ISR=     2 T=0 IP=      3 IndIP=     13 IndIPD=      2 C= -1.930258D-02  0.000000D+00                             NZ=T
 IS=     3 IAt=     2 ISR=     2 T=0 IP=      4 IndIP=     14 IndIPD=      3 C= -4.723991D-02  0.000000D+00                             NZ=T
 IS=     3 IAt=     2 ISR=     2 T=0 IP=      5 IndIP=     15 IndIPD=      4 C= -8.136441D-02  0.000000D+00                             NZ=T
 IS=     3 IAt=     2 ISR=     2 T=0 IP=      6 IndIP=     16 IndIPD=      5 C=  1.089727D-01  0.000000D+00                             NZ=T
 IS=     4 IAt=     2 ISR=     3 T=0 IP=      1 IndIP=     17 IndIPD=      0 C=  4.884946D-02  0.000000D+00                             NZ=T
 IS=     5 IAt=     2 ISR=     4 T=1 IP=      1 IndIP=     18 IndIPD=      0 C=  0.000000D+00  9.248065D-02                             NZ=T
 IS=     5 IAt=     2 ISR=     4 T=1 IP=      2 IndIP=     19 IndIPD=      1 C=  0.000000D+00  6.583497D-02                             NZ=T
 IS=     5 IAt=     2 ISR=     4 T=1 IP=      3 IndIP=     20 IndIPD=      2 C=  0.000000D+00  4.562255D-02                             NZ=T
 IS=     6 IAt=     2 ISR=     5 T=1 IP=      1 IndIP=     21 IndIPD=      0 C=  0.000000D+00  1.348597D-02                             NZ=T
 IS=     7 IAt=     2 ISR=     6 T=2 IP=      1 IndIP=     22 IndIPD=      1 C=  0.000000D+00  0.000000D+00  4.258771D-02  0.000000D+00 NZ=T
 IExCor=    0 DFT=F Ex=HF Corr=None ExCW=0 ScaHFX=  1.000000
 ScaDFX=  1.000000  1.000000  1.000000  1.000000 ScalE2=  1.000000  1.000000
 IRadAn=      5 IRanWt=     -1 IRanGd=            0 ICorTp=0 IEmpDi=  4
 NAtoms=    2 NActive=    2 NUniq=    2 SFac= 1.00D+00 NAtFMM=   60 NAOKFM=F Big=F
 Integral buffers will be    131072 words long.
 Raffenetti 2 integral format.
 Two-electron integral symmetry is turned on.
 Leave Link  301 at Mon Mar 28 14:06:48 2022, MaxMem=  9663676416 cpu:               2.0 elap:               0.1
 (Enter /nopt/nrel/apps/gaussian/g16C_1/g16/l302.exe)
 NPDir=0 NMtPBC=     1 NCelOv=     1 NCel=       1 NClECP=     1 NCelD=      1
         NCelK=      1 NCelE2=     1 NClLst=     1 CellRange=     0.0.
 One-electron integrals computed using PRISM.
 One-electron integral symmetry used in STVInt
 Entering OneElI...
 Calculate overlap and kinetic energy integrals
    NBasis =  15  MinDer = 0  MaxDer = 0
 Requested accuracy = 0.1000D-12
 Symmetry will be used
 PrmmSu-InSpLW:  IPartL=    0 NPrtUS=   36 NPrtUL=    1 DoSpLW=F IThBeg=    0 IThEnd=   35 NThAct=   36.
 PrSmSu:  IncTry=   512 NBBP=             28 NTPThr=   100 NPartT=   36 Incr=           1 LDynOK=F GPUOK=F.
 PrsmSu:  NPrtUS=  36 ThrOK=T IAlg=1 LenDen=           0 ISkipM=0 DoSpLW=F IThBeg=    0 IThEnd=   35.
 Prism:   IPart=     0 DynPar=F LinDyn=F Incr=           1.
 PRISM was handed   268432144 working-precision words and    28 shell-pairs
 PRISM was handed   268432144 working-precision words and    28 shell-pairs
 PRISM was handed   268432144 working-precision words and    28 shell-pairs
 PRISM was handed   268432144 working-precision words and    28 shell-pairs
 PRISM was handed   268432144 working-precision words and    28 shell-pairs
 PRISM was handed   268432144 working-precision words and    28 shell-pairs
 PRISM was handed   268432144 working-precision words and    28 shell-pairs
 PRISM was handed   268432144 working-precision words and    28 shell-pairs
 PRISM was handed   268432144 working-precision words and    28 shell-pairs
 PRISM was handed   268432144 working-precision words and    28 shell-pairs
 PRISM was handed   268432144 working-precision words and    28 shell-pairs
 PRISM was handed   268432144 working-precision words and    28 shell-pairs
 IPart= 15 NShTot=           0 NBatch=           0 AvBLen=         0.0
 IPart= 21 NShTot=           0 NBatch=           0 AvBLen=         0.0
 IPart= 35 NShTot=           0 NBatch=           0 AvBLen=         0.0
 IPart= 11 NShTot=           0 NBatch=           0 AvBLen=         0.0
 IPart= 34 NShTot=           0 NBatch=           0 AvBLen=         0.0
 PRISM was handed   268432144 working-precision words and    28 shell-pairs
 PRISM was handed   268432144 working-precision words and    28 shell-pairs
 IPart= 16 NShTot=           0 NBatch=           0 AvBLen=         0.0
 IPart= 14 NShTot=           0 NBatch=           0 AvBLen=         0.0
 IPart=  9 NShTot=           0 NBatch=           0 AvBLen=         0.0
 IPart= 25 NShTot=           0 NBatch=           0 AvBLen=         0.0
 IPart= 10 NShTot=           0 NBatch=           0 AvBLen=         0.0
 IPart= 32 NShTot=           0 NBatch=           0 AvBLen=         0.0
 PRISM was handed   268432144 working-precision words and    28 shell-pairs
 PRISM was handed   268432144 working-precision words and    28 shell-pairs
 PRISM was handed   268432144 working-precision words and    28 shell-pairs
 PRISM was handed   268432144 working-precision words and    28 shell-pairs
 PRISM was handed   268432144 working-precision words and    28 shell-pairs
 IPart= 22 NShTot=           0 NBatch=           0 AvBLen=         0.0
 IPart=  4 NShTot=           0 NBatch=           0 AvBLen=         0.0
 PRISM was handed   268432144 working-precision words and    28 shell-pairs
 IPart=  2 NShTot=           0 NBatch=           0 AvBLen=         0.0
 IPart= 23 NShTot=           0 NBatch=           0 AvBLen=         0.0
 IPart=  3 NShTot=           0 NBatch=           0 AvBLen=         0.0
 PRISM was handed   268432144 working-precision words and    28 shell-pairs
 PRISM was handed   268432144 working-precision words and    28 shell-pairs
 PRISM was handed   268432144 working-precision words and    28 shell-pairs
 IPart= 30 NShTot=           0 NBatch=           0 AvBLen=         0.0
 IPart= 13 NShTot=           0 NBatch=           0 AvBLen=         0.0
 IPart= 31 NShTot=           0 NBatch=           0 AvBLen=         0.0
 PRISM was handed   268432144 working-precision words and    28 shell-pairs
 PRISM was handed   268432144 working-precision words and    28 shell-pairs
 PRISM was handed   268432144 working-precision words and    28 shell-pairs
 PRISM was handed   268432144 working-precision words and    28 shell-pairs
 IPart= 33 NShTot=           0 NBatch=           0 AvBLen=         0.0
 PRISM was handed   268432144 working-precision words and    28 shell-pairs
 PRISM was handed   268432144 working-precision words and    28 shell-pairs
 IPart=  8 NShTot=           0 NBatch=           0 AvBLen=         0.0
 IPart=  5 NShTot=           0 NBatch=           0 AvBLen=         0.0
 IPart=  1 NShTot=           1 NBatch=           1 AvBLen=         1.0
 PRISM was handed   268432144 working-precision words and    28 shell-pairs
 PRISM was handed   268432144 working-precision words and    28 shell-pairs
 PRISM was handed   268432144 working-precision words and    28 shell-pairs
 PRISM was handed   268432144 working-precision words and    28 shell-pairs
 PRISM was handed   268432144 working-precision words and    28 shell-pairs
 PRISM was handed   268432144 working-precision words and    28 shell-pairs
 PRISM was handed   268432144 working-precision words and    28 shell-pairs
 IPart= 17 NShTot=           0 NBatch=           0 AvBLen=         0.0
 IPart= 26 NShTot=           0 NBatch=           0 AvBLen=         0.0
 IPart=  6 NShTot=           0 NBatch=           0 AvBLen=         0.0
 IPart= 12 NShTot=           0 NBatch=           0 AvBLen=         0.0
 IPart= 28 NShTot=           0 NBatch=           0 AvBLen=         0.0
 IPart= 18 NShTot=           0 NBatch=           0 AvBLen=         0.0
 IPart= 27 NShTot=           0 NBatch=           0 AvBLen=         0.0
 IPart= 19 NShTot=           0 NBatch=           0 AvBLen=         0.0
 IPart=  7 NShTot=           0 NBatch=           0 AvBLen=         0.0
 IPart= 29 NShTot=           0 NBatch=           0 AvBLen=         0.0
 IPart= 24 NShTot=           0 NBatch=           0 AvBLen=         0.0
 IPart= 20 NShTot=           0 NBatch=           0 AvBLen=         0.0
 IPart=  0 NShTot=          27 NBatch=          27 AvBLen=         1.0
 PrSmSu:  NxtVal=             37.
 *** Overlap *** 
                1             2             3             4             5 
      1  0.100000D+01
      2  0.416398D-02  0.100000D+01
      3  0.147328D+00  0.130369D+00  0.100000D+01
      4  0.203178D+00  0.157971D+00  0.861205D+00  0.100000D+01
      5  0.000000D+00  0.000000D+00  0.000000D+00  0.000000D+00  0.100000D+01
      6  0.000000D+00  0.000000D+00  0.000000D+00  0.000000D+00  0.000000D+00
      7 -0.264019D+00  0.000000D+00  0.000000D+00  0.000000D+00  0.000000D+00
      8  0.000000D+00  0.000000D+00  0.000000D+00  0.000000D+00  0.626620D+00
      9  0.000000D+00  0.000000D+00  0.000000D+00  0.000000D+00  0.000000D+00
     10 -0.301736D+00  0.000000D+00  0.000000D+00  0.000000D+00  0.000000D+00
     11  0.272352D+00  0.000000D+00  0.000000D+00  0.000000D+00  0.000000D+00
     12  0.000000D+00  0.000000D+00  0.000000D+00  0.000000D+00  0.000000D+00
     13  0.000000D+00  0.000000D+00  0.000000D+00  0.000000D+00  0.000000D+00
     14  0.000000D+00  0.000000D+00  0.000000D+00  0.000000D+00  0.000000D+00
     15  0.000000D+00  0.000000D+00  0.000000D+00  0.000000D+00  0.000000D+00
                6             7             8             9            10 
      6  0.100000D+01
      7  0.000000D+00  0.100000D+01
      8  0.000000D+00  0.000000D+00  0.100000D+01
      9  0.626620D+00  0.000000D+00  0.000000D+00  0.100000D+01
     10  0.000000D+00  0.626620D+00  0.000000D+00  0.000000D+00  0.100000D+01
     11  0.000000D+00  0.000000D+00  0.000000D+00  0.000000D+00  0.000000D+00
     12  0.000000D+00  0.000000D+00  0.000000D+00  0.000000D+00  0.000000D+00
     13  0.000000D+00  0.000000D+00  0.000000D+00  0.000000D+00  0.000000D+00
     14  0.000000D+00  0.000000D+00  0.000000D+00  0.000000D+00  0.000000D+00
     15  0.000000D+00  0.000000D+00  0.000000D+00  0.000000D+00  0.000000D+00
               11            12            13            14            15 
     11  0.100000D+01
     12  0.000000D+00  0.100000D+01
     13  0.000000D+00  0.000000D+00  0.100000D+01
     14  0.000000D+00  0.000000D+00  0.000000D+00  0.100000D+01
     15  0.000000D+00  0.000000D+00  0.000000D+00  0.000000D+00  0.100000D+01
 *** Kinetic Energy *** 
                1             2             3             4             5 
      1  0.760032D+00
      2 -0.297696D-02  0.362154D+01
      3 -0.440362D-03 -0.261904D+00  0.139297D+00
      4  0.810840D-02  0.128893D-01  0.513567D-01  0.420750D-01
      5  0.000000D+00  0.000000D+00  0.000000D+00  0.000000D+00  0.249967D+00
      6  0.000000D+00  0.000000D+00  0.000000D+00  0.000000D+00  0.000000D+00
      7 -0.216740D-01  0.000000D+00  0.000000D+00  0.000000D+00  0.000000D+00
      8  0.000000D+00  0.000000D+00  0.000000D+00  0.000000D+00  0.578002D-01
      9  0.000000D+00  0.000000D+00  0.000000D+00  0.000000D+00  0.000000D+00
     10 -0.248678D-01  0.000000D+00  0.000000D+00  0.000000D+00  0.000000D+00
     11  0.473271D-01  0.000000D+00  0.000000D+00  0.000000D+00  0.000000D+00
     12  0.000000D+00  0.000000D+00  0.000000D+00  0.000000D+00  0.000000D+00
     13  0.000000D+00  0.000000D+00  0.000000D+00  0.000000D+00  0.000000D+00
     14  0.000000D+00  0.000000D+00  0.000000D+00  0.000000D+00  0.000000D+00
     15  0.000000D+00  0.000000D+00  0.000000D+00  0.000000D+00  0.000000D+00
                6             7             8             9            10 
      6  0.249967D+00
      7  0.000000D+00  0.249967D+00
      8  0.000000D+00  0.000000D+00  0.600750D-01
      9  0.578002D-01  0.000000D+00  0.000000D+00  0.600750D-01
     10  0.000000D+00  0.578002D-01  0.000000D+00  0.000000D+00  0.600750D-01
     11  0.000000D+00  0.000000D+00  0.000000D+00  0.000000D+00  0.000000D+00
     12  0.000000D+00  0.000000D+00  0.000000D+00  0.000000D+00  0.000000D+00
     13  0.000000D+00  0.000000D+00  0.000000D+00  0.000000D+00  0.000000D+00
     14  0.000000D+00  0.000000D+00  0.000000D+00  0.000000D+00  0.000000D+00
     15  0.000000D+00  0.000000D+00  0.000000D+00  0.000000D+00  0.000000D+00
               11            12            13            14            15 
     11  0.433650D+00
     12  0.000000D+00  0.433650D+00
     13  0.000000D+00  0.000000D+00  0.433650D+00
     14  0.000000D+00  0.000000D+00  0.000000D+00  0.433650D+00
     15  0.000000D+00  0.000000D+00  0.000000D+00  0.000000D+00  0.433650D+00
 Entering OneElI...
 Calculate potential energy integrals
    NBasis =  15  MinDer = 0  MaxDer = 0
 Requested accuracy = 0.1000D-12
 Symmetry will be used
 PrmmSu-InSpLW:  IPartL=    0 NPrtUS=   36 NPrtUL=    1 DoSpLW=F IThBeg=    0 IThEnd=   35 NThAct=   36.
 PrSmSu:  IncTry=   512 NBBP=             56 NTPThr=   100 NPartT=   36 Incr=           1 LDynOK=F GPUOK=F.
 PrsmSu:  NPrtUS=  36 ThrOK=T IAlg=1 LenDen=           0 ISkipM=0 DoSpLW=F IThBeg=    0 IThEnd=   35.
 Prism:   IPart=     0 DynPar=F LinDyn=F Incr=           1.
 PRISM was handed   268432289 working-precision words and    28 shell-pairs
 PRISM was handed   268432289 working-precision words and    28 shell-pairs
 PRISM was handed   268432289 working-precision words and    28 shell-pairs
 PRISM was handed   268432289 working-precision words and    28 shell-pairs
 PRISM was handed   268432289 working-precision words and    28 shell-pairs
 PRISM was handed   268432289 working-precision words and    28 shell-pairs
 PRISM was handed   268432289 working-precision words and    28 shell-pairs
 PRISM was handed   268432289 working-precision words and    28 shell-pairs
 PRISM was handed   268432289 working-precision words and    28 shell-pairs
 PRISM was handed   268432289 working-precision words and    28 shell-pairs
 PRISM was handed   268432289 working-precision words and    28 shell-pairs
 PRISM was handed   268432289 working-precision words and    28 shell-pairs
 PRISM was handed   268432289 working-precision words and    28 shell-pairs
 PRISM was handed   268432289 working-precision words and    28 shell-pairs
 PRISM was handed   268432289 working-precision words and    28 shell-pairs
 PRISM was handed   268432289 working-precision words and    28 shell-pairs
 PRISM was handed   268432289 working-precision words and    28 shell-pairs
 PRISM was handed   268432289 working-precision words and    28 shell-pairs
 PRISM was handed   268432289 working-precision words and    28 shell-pairs
 PRISM was handed   268432289 working-precision words and    28 shell-pairs
 PRISM was handed   268432289 working-precision words and    28 shell-pairs
 PRISM was handed   268432289 working-precision words and    28 shell-pairs
 PRISM was handed   268432289 working-precision words and    28 shell-pairs
 PRISM was handed   268432289 working-precision words and    28 shell-pairs
 PRISM was handed   268432289 working-precision words and    28 shell-pairs
 PRISM was handed   268432289 working-precision words and    28 shell-pairs
 PRISM was handed   268432289 working-precision words and    28 shell-pairs
 PRISM was handed   268432289 working-precision words and    28 shell-pairs
 PRISM was handed   268432289 working-precision words and    28 shell-pairs
 PRISM was handed   268432289 working-precision words and    28 shell-pairs
 PRISM was handed   268432289 working-precision words and    28 shell-pairs
 PRISM was handed   268432289 working-precision words and    28 shell-pairs
 PRISM was handed   268432289 working-precision words and    28 shell-pairs
 PRISM was handed   268432289 working-precision words and    28 shell-pairs
 PRISM was handed   268432289 working-precision words and    28 shell-pairs
 PRISM was handed   268432289 working-precision words and    28 shell-pairs
 IPart=  0 NShTot=          54 NBatch=          27 AvBLen=         2.0
 IPart= 11 NShTot=           0 NBatch=           0 AvBLen=         0.0
 IPart=  7 NShTot=           0 NBatch=           0 AvBLen=         0.0
 IPart= 35 NShTot=           0 NBatch=           0 AvBLen=         0.0
 IPart=  6 NShTot=           0 NBatch=           0 AvBLen=         0.0
 IPart= 30 NShTot=           0 NBatch=           0 AvBLen=         0.0
 IPart= 10 NShTot=           0 NBatch=           0 AvBLen=         0.0
 IPart= 19 NShTot=           0 NBatch=           0 AvBLen=         0.0
 IPart=  5 NShTot=           0 NBatch=           0 AvBLen=         0.0
 IPart= 26 NShTot=           0 NBatch=           0 AvBLen=         0.0
 IPart= 22 NShTot=           0 NBatch=           0 AvBLen=         0.0
 IPart= 23 NShTot=           0 NBatch=           0 AvBLen=         0.0
 IPart= 17 NShTot=           0 NBatch=           0 AvBLen=         0.0
 IPart= 34 NShTot=           0 NBatch=           0 AvBLen=         0.0
 IPart= 20 NShTot=           0 NBatch=           0 AvBLen=         0.0
 IPart= 13 NShTot=           0 NBatch=           0 AvBLen=         0.0
 IPart= 21 NShTot=           0 NBatch=           0 AvBLen=         0.0
 IPart= 24 NShTot=           0 NBatch=           0 AvBLen=         0.0
 IPart= 27 NShTot=           0 NBatch=           0 AvBLen=         0.0
 IPart= 14 NShTot=           0 NBatch=           0 AvBLen=         0.0
 IPart=  1 NShTot=           2 NBatch=           1 AvBLen=         2.0
 IPart= 16 NShTot=           0 NBatch=           0 AvBLen=         0.0
 IPart=  4 NShTot=           0 NBatch=           0 AvBLen=         0.0
 IPart= 28 NShTot=           0 NBatch=           0 AvBLen=         0.0
 IPart= 29 NShTot=           0 NBatch=           0 AvBLen=         0.0
 IPart= 32 NShTot=           0 NBatch=           0 AvBLen=         0.0
 IPart=  2 NShTot=           0 NBatch=           0 AvBLen=         0.0
 IPart=  8 NShTot=           0 NBatch=           0 AvBLen=         0.0
 IPart=  3 NShTot=           0 NBatch=           0 AvBLen=         0.0
 IPart= 15 NShTot=           0 NBatch=           0 AvBLen=         0.0
 IPart= 18 NShTot=           0 NBatch=           0 AvBLen=         0.0
 IPart=  9 NShTot=           0 NBatch=           0 AvBLen=         0.0
 IPart= 31 NShTot=           0 NBatch=           0 AvBLen=         0.0
 IPart= 25 NShTot=           0 NBatch=           0 AvBLen=         0.0
 IPart= 33 NShTot=           0 NBatch=           0 AvBLen=         0.0
 IPart= 12 NShTot=           0 NBatch=           0 AvBLen=         0.0
 PrSmSu:  NxtVal=             37.
 ***** Potential Energy ***** 
                1             2             3             4             5 
      1  0.179359D+01
      2  0.140337D-01  0.825532D+01
      3  0.199834D+00  0.222412D+00  0.126288D+01
      4  0.263018D+00  0.661820D+00  0.990541D+00  0.976350D+00
      5  0.000000D+00  0.000000D+00  0.000000D+00  0.000000D+00  0.122419D+01
      6  0.000000D+00  0.000000D+00  0.000000D+00  0.000000D+00  0.000000D+00
      7 -0.361116D+00 -0.496804D-02 -0.651612D-01 -0.651391D-01  0.000000D+00
      8  0.000000D+00  0.000000D+00  0.000000D+00  0.000000D+00  0.569740D+00
      9  0.000000D+00  0.000000D+00  0.000000D+00  0.000000D+00  0.000000D+00
     10 -0.380163D+00 -0.856034D-03 -0.418750D-01 -0.630028D-01  0.000000D+00
     11  0.390271D+00  0.658594D-03  0.360152D-01  0.372948D-01  0.000000D+00
     12  0.000000D+00  0.000000D+00  0.000000D+00  0.000000D+00 -0.409881D-01
     13  0.000000D+00  0.000000D+00  0.000000D+00  0.000000D+00  0.000000D+00
     14  0.000000D+00  0.000000D+00  0.000000D+00  0.000000D+00  0.000000D+00
     15  0.000000D+00  0.000000D+00  0.000000D+00  0.000000D+00  0.000000D+00
                6             7             8             9            10 
      6  0.122419D+01
      7  0.000000D+00  0.127309D+01
      8  0.000000D+00  0.000000D+00  0.625455D+00
      9  0.569740D+00  0.000000D+00  0.000000D+00  0.625455D+00
     10  0.000000D+00  0.609515D+00  0.000000D+00  0.000000D+00  0.678657D+00
     11  0.000000D+00 -0.827204D-01  0.000000D+00  0.000000D+00 -0.584782D-01
     12  0.000000D+00  0.000000D+00 -0.257624D-01  0.000000D+00  0.000000D+00
     13 -0.409881D-01  0.000000D+00  0.000000D+00 -0.257624D-01  0.000000D+00
     14  0.000000D+00  0.000000D+00  0.000000D+00  0.000000D+00  0.000000D+00
     15  0.000000D+00  0.000000D+00  0.000000D+00  0.000000D+00  0.000000D+00
               11            12            13            14            15 
     11  0.112842D+01
     12  0.000000D+00  0.108967D+01
     13  0.000000D+00  0.000000D+00  0.108967D+01
     14  0.000000D+00  0.000000D+00  0.000000D+00  0.106342D+01
     15  0.000000D+00  0.000000D+00  0.000000D+00  0.000000D+00  0.106342D+01
 ****** Core Hamiltonian ****** 
                1             2             3             4             5 
      1 -0.103356D+01
      2 -0.170106D-01 -0.463378D+01
      3 -0.200274D+00 -0.484315D+00 -0.112359D+01
      4 -0.254910D+00 -0.648931D+00 -0.939184D+00 -0.934275D+00
      5  0.000000D+00  0.000000D+00  0.000000D+00  0.000000D+00 -0.974226D+00
      6  0.000000D+00  0.000000D+00  0.000000D+00  0.000000D+00  0.000000D+00
      7  0.339442D+00  0.496804D-02  0.651612D-01  0.651391D-01  0.000000D+00
      8  0.000000D+00  0.000000D+00  0.000000D+00  0.000000D+00 -0.511940D+00
      9  0.000000D+00  0.000000D+00  0.000000D+00  0.000000D+00  0.000000D+00
     10  0.355295D+00  0.856034D-03  0.418750D-01  0.630028D-01  0.000000D+00
     11 -0.342944D+00 -0.658594D-03 -0.360152D-01 -0.372948D-01  0.000000D+00
     12  0.000000D+00  0.000000D+00  0.000000D+00  0.000000D+00  0.409881D-01
     13  0.000000D+00  0.000000D+00  0.000000D+00  0.000000D+00  0.000000D+00
     14  0.000000D+00  0.000000D+00  0.000000D+00  0.000000D+00  0.000000D+00
     15  0.000000D+00  0.000000D+00  0.000000D+00  0.000000D+00  0.000000D+00
                6             7             8             9            10 
      6 -0.974226D+00
      7  0.000000D+00 -0.102312D+01
      8  0.000000D+00  0.000000D+00 -0.565380D+00
      9 -0.511940D+00  0.000000D+00  0.000000D+00 -0.565380D+00
     10  0.000000D+00 -0.551715D+00  0.000000D+00  0.000000D+00 -0.618582D+00
     11  0.000000D+00  0.827204D-01  0.000000D+00  0.000000D+00  0.584782D-01
     12  0.000000D+00  0.000000D+00  0.257624D-01  0.000000D+00  0.000000D+00
     13  0.409881D-01  0.000000D+00  0.000000D+00  0.257624D-01  0.000000D+00
     14  0.000000D+00  0.000000D+00  0.000000D+00  0.000000D+00  0.000000D+00
     15  0.000000D+00  0.000000D+00  0.000000D+00  0.000000D+00  0.000000D+00
               11            12            13            14            15 
     11 -0.694771D+00
     12  0.000000D+00 -0.656020D+00
     13  0.000000D+00  0.000000D+00 -0.656020D+00
     14  0.000000D+00  0.000000D+00  0.000000D+00 -0.629767D+00
     15  0.000000D+00  0.000000D+00  0.000000D+00  0.000000D+00 -0.629767D+00
 SVDSVc IOpt=   1 NormSV=T IR=1
 SVDSVc V= 2.02D+00 1.77D+00 1.14D+00 1.00D+00 9.56D-01 6.08D-01 3.71D-01 1.36D-01
 SVDSVc IOpt=   1 NormSV=T IR=2
 SVDSVc V= 1.00D+00
 SVDSVc IOpt=   1 NormSV=T IR=3
 SVDSVc V= 1.63D+00 1.00D+00 3.73D-01
 SVDSVc IOpt=   1 NormSV=T IR=4
 SVDSVc V= 1.63D+00 1.00D+00 3.73D-01
 TstOVc:  Largest diagonal error= 1.78D-15 IB=3 I=   12.
 TstOVc:  Largest same sym error= 2.06D-15 IB=1 I=    8 J=    4.
 TstOVc:  Largest diff sym error= 0.00D+00 IB=0 JB=0 I=    0 J=    0.
 Orthogonalized basis functions: 
                 1             2             3             4             5 
      1   0.267511D+00 -0.217178D+00  0.394505D+00  0.000000D+00 -0.257828D-01
      2   0.116378D+00  0.982089D-01 -0.130283D+00  0.000000D+00  0.986492D+00
      3   0.401650D+00  0.269036D+00 -0.790247D-01  0.000000D+00 -0.167885D+00
      4   0.411310D+00  0.263267D+00 -0.606093D-01  0.000000D+00 -0.136322D+00
      5   0.000000D+00  0.000000D+00  0.000000D+00  0.000000D+00  0.000000D+00
      6   0.000000D+00  0.000000D+00  0.000000D+00  0.000000D+00  0.000000D+00
      7  -0.190371D+00  0.421410D+00  0.239016D+00  0.000000D+00 -0.117082D-01
      8   0.000000D+00  0.000000D+00  0.000000D+00  0.000000D+00  0.000000D+00
      9   0.000000D+00  0.000000D+00  0.000000D+00  0.000000D+00  0.000000D+00
     10  -0.196506D+00  0.427269D+00  0.219606D+00  0.000000D+00 -0.100388D-01
     11   0.715819D-01 -0.766778D-01  0.767687D+00  0.000000D+00  0.159137D+00
     12   0.000000D+00  0.000000D+00  0.000000D+00  0.000000D+00  0.000000D+00
     13   0.000000D+00  0.000000D+00  0.000000D+00  0.000000D+00  0.000000D+00
     14   0.000000D+00  0.000000D+00  0.000000D+00  0.100000D+01  0.000000D+00
     15   0.000000D+00  0.000000D+00  0.000000D+00  0.000000D+00  0.000000D+00
                 6             7             8             9            10 
      1   0.980338D+00  0.125446D+00 -0.171686D+00  0.000000D+00  0.000000D+00
      2   0.940195D-01  0.550566D-02 -0.680039D-01  0.000000D+00  0.000000D+00
      3  -0.209023D+00 -0.306801D-01 -0.189041D+01  0.000000D+00  0.000000D+00
      4  -0.867547D-01  0.102249D-03  0.193665D+01  0.000000D+00  0.000000D+00
      5   0.000000D+00  0.000000D+00  0.000000D+00  0.000000D+00  0.554424D+00
      6   0.000000D+00  0.000000D+00  0.000000D+00  0.000000D+00  0.000000D+00
      7   0.351056D+00 -0.112753D+01 -0.189490D-01  0.000000D+00  0.000000D+00
      8   0.000000D+00  0.000000D+00  0.000000D+00  0.000000D+00  0.554424D+00
      9   0.000000D+00  0.000000D+00  0.000000D+00  0.000000D+00  0.000000D+00
     10   0.193339D+00  0.118407D+01 -0.462046D-01  0.000000D+00  0.000000D+00
     11  -0.680800D+00 -0.543460D-01  0.541068D-01  0.000000D+00  0.000000D+00
     12   0.000000D+00  0.000000D+00  0.000000D+00  0.000000D+00  0.000000D+00
     13   0.000000D+00  0.000000D+00  0.000000D+00  0.000000D+00  0.000000D+00
     14   0.000000D+00  0.000000D+00  0.000000D+00  0.000000D+00  0.000000D+00
     15   0.000000D+00  0.000000D+00  0.000000D+00  0.100000D+01  0.000000D+00
                11            12            13            14            15 
      1   0.000000D+00  0.000000D+00  0.000000D+00  0.000000D+00  0.000000D+00
      2   0.000000D+00  0.000000D+00  0.000000D+00  0.000000D+00  0.000000D+00
      3   0.000000D+00  0.000000D+00  0.000000D+00  0.000000D+00  0.000000D+00
      4   0.000000D+00  0.000000D+00  0.000000D+00  0.000000D+00  0.000000D+00
      5   0.000000D+00  0.115720D+01  0.000000D+00  0.000000D+00  0.000000D+00
      6   0.000000D+00  0.000000D+00  0.554424D+00  0.000000D+00  0.115720D+01
      7   0.000000D+00  0.000000D+00  0.000000D+00  0.000000D+00  0.000000D+00
      8   0.000000D+00 -0.115720D+01  0.000000D+00  0.000000D+00  0.000000D+00
      9   0.000000D+00  0.000000D+00  0.554424D+00  0.000000D+00 -0.115720D+01
     10   0.000000D+00  0.000000D+00  0.000000D+00  0.000000D+00  0.000000D+00
     11   0.000000D+00  0.000000D+00  0.000000D+00  0.000000D+00  0.000000D+00
     12   0.100000D+01  0.000000D+00  0.000000D+00  0.000000D+00  0.000000D+00
     13   0.000000D+00  0.000000D+00  0.000000D+00  0.100000D+01  0.000000D+00
     14   0.000000D+00  0.000000D+00  0.000000D+00  0.000000D+00  0.000000D+00
     15   0.000000D+00  0.000000D+00  0.000000D+00  0.000000D+00  0.000000D+00
 NBasis=    15 RedAO= T EigKep=  1.36D-01  NBF=     8     1     3     3
 NBsUse=    15 1.00D-06 EigRej= -1.00D+00 NBFU=     8     1     3     3
 Leave Link  302 at Mon Mar 28 14:06:48 2022, MaxMem=  9663676416 cpu:               3.5 elap:               0.1
 (Enter /nopt/nrel/apps/gaussian/g16C_1/g16/l303.exe)
 DipDrv will not compute anything.
 Fermi contact integrals: 
                 1             2 
      1   0.628247D+00  0.738651D-03
      2   0.000000D+00  0.255622D+01
      3   0.139392D-01 -0.456508D-01
      4   0.222741D-01  0.488495D-01
      5   0.000000D+00  0.000000D+00
      6   0.000000D+00  0.000000D+00
      7  -0.308903D-01  0.000000D+00
      8   0.000000D+00  0.000000D+00
      9   0.000000D+00  0.000000D+00
     10  -0.364132D-01  0.000000D+00
     11   0.371447D-01  0.000000D+00
     12   0.000000D+00  0.000000D+00
     13   0.000000D+00  0.000000D+00
     14   0.000000D+00  0.000000D+00
     15   0.000000D+00  0.000000D+00
 Leave Link  303 at Mon Mar 28 14:06:49 2022, MaxMem=  9663676416 cpu:               1.2 elap:               0.1
 (Enter /nopt/nrel/apps/gaussian/g16C_1/g16/l401.exe)
 ExpMin= 2.40D-02 ExpMax= 1.47D+03 ExpMxC= 5.03D+01 IAcc=3 IRadAn=         5 AccDes= 0.00D+00
 Harris functional with IExCor=  205 and IRadAn=       5 diagonalized for initial guess.
 HarFok:  IExCor=  205 AccDes= 0.00D+00 IRadAn=         5 IDoV= 1 UseB2=F ITyADJ=14
 ICtDFT=  3500011 ScaDFX=  1.000000  1.000000  1.000000  1.000000
 FoFCou: FMM=F IPFlag=           0 FMFlag=      100000 FMFlg1=           0
         NFxFlg=           0 DoJE=T BraDBF=F KetDBF=T FulRan=T
         wScrn=  0.000000 ICntrl=       500 IOpCl=  0 I1Cent=   200000004 NGrid=           0
         NMat0=    1 NMatS0=      1 NMatT0=    0 NMatD0=    1 NMtDS0=    0 NMtDT0=    0
 Petite list used in FoFCou.
 Harris En= -7.82305530458154    
 JPrj=0 DoOrth=F DoCkMO=F.
 Initial guess orbital symmetries:
 Alpha Orbitals:
       Occupied  (SG) (SG) (SG)
       Virtual   (PI) (PI) (SG) (SG) (PI) (PI) (SG) (PI) (PI) (DLTA)
                 (DLTA) (SG)
 Beta  Orbitals:
       Occupied  (SG)
       Virtual   (SG) (SG) (PI) (PI) (SG) (SG) (PI) (PI) (SG) (PI)
                 (PI) (DLTA) (DLTA) (SG)
 The electronic state of the initial guess is 3-SG.
 Initial guess <Sx>= 0.0000 <Sy>= 0.0000 <Sz>= 1.0000 <S**2>= 2.0000 S= 1.0000
 Leave Link  401 at Mon Mar 28 14:06:49 2022, MaxMem=  9663676416 cpu:               5.0 elap:               0.2
 (Enter /nopt/nrel/apps/gaussian/g16C_1/g16/l502.exe)
 Keep R1 and R2 ints in memory in symmetry-blocked form, NReq=7407854.
 FoFCou: FMM=F IPFlag=           0 FMFlag=           0 FMFlg1=           0
         NFxFlg=           0 DoJE=F BraDBF=F KetDBF=F FulRan=T
         wScrn=  0.000000 ICntrl=       600 IOpCl=  0 I1Cent=           0 NGrid=           0
         NMat0=    1 NMatS0=    120 NMatT0=    0 NMatD0=    1 NMtDS0=    0 NMtDT0=    0
 Petite list used in FoFCou.
 UHF open shell SCF:
 Using DIIS extrapolation, IDIIS=  1040.
 NGot=  9663676416 LenX=  9663669219 LenY=  9663668337
 Requested convergence on RMS density matrix=1.00D-08 within 128 cycles.
 Requested convergence on MAX density matrix=1.00D-06.
 Requested convergence on             energy=1.00D-06.
 No special actions if energy rises.

 Cycle   1  Pass 1  IDiag  1:
 E= -7.88604585732478    
 DIIS: error= 2.36D-02 at cycle   1 NSaved=   1.
 NSaved= 1 IEnMin= 1 EnMin= -7.88604585732478     IErMin= 1 ErrMin= 2.36D-02
 ErrMax= 2.36D-02  0.00D+00 EMaxC= 1.00D-01 BMatC= 1.71D-02 BMatP= 1.71D-02
 IDIUse=3 WtCom= 7.64D-01 WtEn= 2.36D-01
 Coeff-Com:  0.100D+01
 Coeff-En:   0.100D+01
 Coeff:      0.100D+01
 Gap=     0.222 Goal=   None    Shift=    0.000
 Gap=     2.491 Goal=   None    Shift=    0.000
 GapD=    0.222 DampG=1.000 DampE=0.500 DampFc=0.5000 IDamp=-1.
 Damping current iteration by 5.00D-01
 RMSDP=9.28D-03 MaxDP=1.48D-01              OVMax= 1.20D-01

 Cycle   2  Pass 1  IDiag  1:
 E= -7.89255895076363     Delta-E=       -0.006513093439 Rises=F Damp=T
 DIIS: error= 1.66D-02 at cycle   2 NSaved=   2.
 NSaved= 2 IEnMin= 2 EnMin= -7.89255895076363     IErMin= 2 ErrMin= 1.66D-02
 ErrMax= 1.66D-02  0.00D+00 EMaxC= 1.00D-01 BMatC= 7.26D-03 BMatP= 1.71D-02
 IDIUse=3 WtCom= 8.34D-01 WtEn= 1.66D-01
 Coeff-Com: -0.176D+01 0.276D+01
 Coeff-En:   0.000D+00 0.100D+01
 Coeff:     -0.147D+01 0.247D+01
 Gap=     0.208 Goal=   None    Shift=    0.000
 Gap=     2.465 Goal=   None    Shift=    0.000
 RMSDP=8.62D-03 MaxDP=1.37D-01 DE=-6.51D-03 OVMax= 4.94D-02

 Cycle   3  Pass 1  IDiag  1:
 E= -7.90301965010162     Delta-E=       -0.010460699338 Rises=F Damp=F
 DIIS: error= 2.37D-03 at cycle   3 NSaved=   3.
 NSaved= 3 IEnMin= 3 EnMin= -7.90301965010162     IErMin= 3 ErrMin= 2.37D-03
 ErrMax= 2.37D-03  0.00D+00 EMaxC= 1.00D-01 BMatC= 1.05D-04 BMatP= 7.26D-03
 IDIUse=3 WtCom= 9.76D-01 WtEn= 2.37D-02
 Coeff-Com:  0.693D+00-0.120D+01 0.151D+01
 Coeff-En:   0.000D+00 0.000D+00 0.100D+01
 Coeff:      0.677D+00-0.117D+01 0.149D+01
 Gap=     0.209 Goal=   None    Shift=    0.000
 Gap=     2.465 Goal=   None    Shift=    0.000
 RMSDP=1.38D-03 MaxDP=1.88D-02 DE=-1.05D-02 OVMax= 1.27D-02

 Cycle   4  Pass 1  IDiag  1:
 E= -7.90315932475615     Delta-E=       -0.000139674655 Rises=F Damp=F
 DIIS: error= 2.13D-04 at cycle   4 NSaved=   4.
 NSaved= 4 IEnMin= 4 EnMin= -7.90315932475615     IErMin= 4 ErrMin= 2.13D-04
 ErrMax= 2.13D-04  0.00D+00 EMaxC= 1.00D-01 BMatC= 1.72D-06 BMatP= 1.05D-04
 IDIUse=3 WtCom= 9.98D-01 WtEn= 2.13D-03
 Coeff-Com: -0.267D+00 0.468D+00-0.663D+00 0.146D+01
 Coeff-En:   0.000D+00 0.000D+00 0.000D+00 0.100D+01
 Coeff:     -0.267D+00 0.467D+00-0.662D+00 0.146D+01
 Gap=     0.209 Goal=   None    Shift=    0.000
 Gap=     2.464 Goal=   None    Shift=    0.000
 RMSDP=3.08D-04 MaxDP=3.55D-03 DE=-1.40D-04 OVMax= 4.29D-03

 Cycle   5  Pass 1  IDiag  1:
 E= -7.90316466148847     Delta-E=       -0.000005336732 Rises=F Damp=F
 DIIS: error= 9.18D-05 at cycle   5 NSaved=   5.
 NSaved= 5 IEnMin= 5 EnMin= -7.90316466148847     IErMin= 5 ErrMin= 9.18D-05
 ErrMax= 9.18D-05  0.00D+00 EMaxC= 1.00D-01 BMatC= 2.50D-07 BMatP= 1.72D-06
 IDIUse=1 WtCom= 1.00D+00 WtEn= 0.00D+00
 Coeff-Com:  0.151D+00-0.264D+00 0.378D+00-0.107D+01 0.180D+01
 Coeff:      0.151D+00-0.264D+00 0.378D+00-0.107D+01 0.180D+01
 Gap=     0.209 Goal=   None    Shift=    0.000
 Gap=     2.464 Goal=   None    Shift=    0.000
 RMSDP=1.56D-04 MaxDP=1.86D-03 DE=-5.34D-06 OVMax= 2.44D-03

 Cycle   6  Pass 1  IDiag  1:
 E= -7.90316574937322     Delta-E=       -0.000001087885 Rises=F Damp=F
 DIIS: error= 2.34D-05 at cycle   6 NSaved=   6.
 NSaved= 6 IEnMin= 6 EnMin= -7.90316574937322     IErMin= 6 ErrMin= 2.34D-05
 ErrMax= 2.34D-05  0.00D+00 EMaxC= 1.00D-01 BMatC= 2.17D-08 BMatP= 2.50D-07
 IDIUse=1 WtCom= 1.00D+00 WtEn= 0.00D+00
 Coeff-Com: -0.383D-01 0.674D-01-0.997D-01 0.336D+00-0.914D+00 0.165D+01
 Coeff:     -0.383D-01 0.674D-01-0.997D-01 0.336D+00-0.914D+00 0.165D+01
 Gap=     0.209 Goal=   None    Shift=    0.000
 Gap=     2.464 Goal=   None    Shift=    0.000
 RMSDP=5.15D-05 MaxDP=4.56D-04 DE=-1.09D-06 OVMax= 7.61D-04

 Cycle   7  Pass 1  IDiag  1:
 E= -7.90316583791932     Delta-E=       -0.000000088546 Rises=F Damp=F
 DIIS: error= 6.66D-06 at cycle   7 NSaved=   7.
 NSaved= 7 IEnMin= 7 EnMin= -7.90316583791932     IErMin= 7 ErrMin= 6.66D-06
 ErrMax= 6.66D-06  0.00D+00 EMaxC= 1.00D-01 BMatC= 9.49D-10 BMatP= 2.17D-08
 IDIUse=1 WtCom= 1.00D+00 WtEn= 0.00D+00
 Coeff-Com:  0.798D-02-0.141D-01 0.216D-01-0.727D-01 0.279D+00-0.672D+00
 Coeff-Com:  0.145D+01
 Coeff:      0.798D-02-0.141D-01 0.216D-01-0.727D-01 0.279D+00-0.672D+00
 Coeff:      0.145D+01
 Gap=     0.209 Goal=   None    Shift=    0.000
 Gap=     2.464 Goal=   None    Shift=    0.000
 RMSDP=1.04D-05 MaxDP=9.43D-05 DE=-8.85D-08 OVMax= 5.58D-05

 Cycle   8  Pass 1  IDiag  1:
 E= -7.90316584062780     Delta-E=       -0.000000002708 Rises=F Damp=F
 DIIS: error= 1.52D-06 at cycle   8 NSaved=   8.
 NSaved= 8 IEnMin= 8 EnMin= -7.90316584062780     IErMin= 8 ErrMin= 1.52D-06
 ErrMax= 1.52D-06  0.00D+00 EMaxC= 1.00D-01 BMatC= 4.02D-11 BMatP= 9.49D-10
 IDIUse=1 WtCom= 1.00D+00 WtEn= 0.00D+00
 Coeff-Com: -0.339D-03 0.621D-03-0.119D-02 0.408D-02-0.471D-01 0.144D+00
 Coeff-Com: -0.528D+00 0.143D+01
 Coeff:     -0.339D-03 0.621D-03-0.119D-02 0.408D-02-0.471D-01 0.144D+00
 Coeff:     -0.528D+00 0.143D+01
 Gap=     0.209 Goal=   None    Shift=    0.000
 Gap=     2.464 Goal=   None    Shift=    0.000
 RMSDP=2.26D-06 MaxDP=1.85D-05 DE=-2.71D-09 OVMax= 8.01D-06

 Cycle   9  Pass 1  IDiag  1:
 E= -7.90316584073675     Delta-E=       -0.000000000109 Rises=F Damp=F
 DIIS: error= 4.91D-08 at cycle   9 NSaved=   9.
 NSaved= 9 IEnMin= 9 EnMin= -7.90316584073675     IErMin= 9 ErrMin= 4.91D-08
 ErrMax= 4.91D-08  0.00D+00 EMaxC= 1.00D-01 BMatC= 9.50D-14 BMatP= 4.02D-11
 IDIUse=1 WtCom= 1.00D+00 WtEn= 0.00D+00
 Coeff-Com:  0.103D-04-0.235D-04 0.928D-04-0.311D-03 0.924D-02-0.297D-01
 Coeff-Com:  0.117D+00-0.344D+00 0.125D+01
 Coeff:      0.103D-04-0.235D-04 0.928D-04-0.311D-03 0.924D-02-0.297D-01
 Coeff:      0.117D+00-0.344D+00 0.125D+01
 Gap=     0.209 Goal=   None    Shift=    0.000
 Gap=     2.464 Goal=   None    Shift=    0.000
 RMSDP=7.82D-08 MaxDP=1.16D-06 DE=-1.09D-10 OVMax= 6.99D-07

 Cycle  10  Pass 1  IDiag  1:
 E= -7.90316584073690     Delta-E=       -0.000000000000 Rises=F Damp=F
 DIIS: error= 8.29D-09 at cycle  10 NSaved=  10.
 NSaved=10 IEnMin=10 EnMin= -7.90316584073690     IErMin=10 ErrMin= 8.29D-09
 ErrMax= 8.29D-09  0.00D+00 EMaxC= 1.00D-01 BMatC= 2.85D-15 BMatP= 9.50D-14
 IDIUse=1 WtCom= 1.00D+00 WtEn= 0.00D+00
 Coeff-Com:  0.377D-05-0.430D-05-0.183D-04 0.694D-04-0.374D-02 0.122D-01
 Coeff-Com: -0.490D-01 0.145D+00-0.582D+00 0.148D+01
 Coeff:      0.377D-05-0.430D-05-0.183D-04 0.694D-04-0.374D-02 0.122D-01
 Coeff:     -0.490D-01 0.145D+00-0.582D+00 0.148D+01
 Gap=     0.209 Goal=   None    Shift=    0.000
 Gap=     2.464 Goal=   None    Shift=    0.000
 RMSDP=1.57D-08 MaxDP=2.13D-07 DE=-1.53D-13 OVMax= 1.11D-07

 Cycle  11  Pass 1  IDiag  1:
 E= -7.90316584073691     Delta-E=       -0.000000000000 Rises=F Damp=F
 DIIS: error= 1.54D-09 at cycle  11 NSaved=  11.
 NSaved=11 IEnMin=11 EnMin= -7.90316584073691     IErMin=11 ErrMin= 1.54D-09
 ErrMax= 1.54D-09  0.00D+00 EMaxC= 1.00D-01 BMatC= 6.42D-17 BMatP= 2.85D-15
 IDIUse=1 WtCom= 1.00D+00 WtEn= 0.00D+00
 Coeff-Com:  0.510D-06-0.126D-05 0.569D-05-0.183D-04 0.609D-03-0.196D-02
 Coeff-Com:  0.782D-02-0.232D-01 0.939D-01-0.367D+00 0.129D+01
 Coeff:      0.510D-06-0.126D-05 0.569D-05-0.183D-04 0.609D-03-0.196D-02
 Coeff:      0.782D-02-0.232D-01 0.939D-01-0.367D+00 0.129D+01
 Gap=     0.209 Goal=   None    Shift=    0.000
 Gap=     2.464 Goal=   None    Shift=    0.000
 RMSDP=3.19D-09 MaxDP=4.20D-08 DE=-1.24D-14 OVMax= 2.52D-08

 SCF Done:  E(UHF) =  -7.90316584074     A.U. after   11 cycles
            NFock= 11  Conv=0.32D-08     -V/T= 1.9777
 <Sx>= 0.0000 <Sy>= 0.0000 <Sz>= 1.0000 <S**2>= 2.0000 S= 1.0000
 <L.S>= 0.000000000000E+00
 KE= 8.083475949022D+00 PE=-1.937658460132D+01 EE= 2.822967228437D+00
 Annihilation of the first spin contaminant:
 S**2 before annihilation     2.0000,   after     2.0000
 Leave Link  502 at Mon Mar 28 14:06:49 2022, MaxMem=  9663676416 cpu:               4.9 elap:               0.2
 (Enter /nopt/nrel/apps/gaussian/g16C_1/g16/l801.exe)
 Windowed orbitals will be sorted by symmetry type.
 ExpMin= 2.40D-02 ExpMax= 1.47D+03 ExpMxC= 5.03D+01 IAcc=3 IRadAn=         5 AccDes= 0.00D+00
 HarFok:  IExCor=  205 AccDes= 0.00D+00 IRadAn=         5 IDoV=-2 UseB2=F ITyADJ=14
 ICtDFT= 12500011 ScaDFX=  1.000000  1.000000  1.000000  1.000000
 Largest valence mixing into a core orbital is  3.56D-04
 Largest core mixing into a valence orbital is  2.29D-04
 Range of M.O.s used for correlation:     2    15
 NBasis=    15 NAE=     3 NBE=     1 NFC=     1 NFV=     0
 NROrb=     14 NOA=     2 NOB=     0 NVA=    12 NVB=    14
 Leave Link  801 at Mon Mar 28 14:06:49 2022, MaxMem=  9663676416 cpu:               1.6 elap:               0.1
 (Enter /nopt/nrel/apps/gaussian/g16C_1/g16/l804.exe)
 Open-shell transformation, MDV=  9663676416 ITran=4 ISComp=2.
 Unit  1 TFree=         15923 TCopy=        220880.
 Semi-Direct transformation.
 ModeAB=           2 MOrb=             2 LenV=    9663496568
 LASXX=          607 LTotXX=         607 LenRXX=         607
 LTotAB=         853 MaxLAS=        3808 LenRXY=        3808
 NonZer=        4396 LenScr=      785920 LnRSAI=           0
 LnScr1=           0 LExtra=      221865 Total=      1012200
 MaxDsk= 34359738368 SrtSym=           F ITran=            4
 DoSDTr:  NPSUse= 36
 JobTyp=1 Pass  1:  I=   1 to   2.
 (rs|ai) integrals will be sorted in core.
 Complete sort for first half transformation.
 First half transformation complete.
 Complete sort for second half transformation.
 Second half transformation complete.
 Spin components of T(2) and E(2):
     alpha-alpha T2 =       0.1064939674D-03 E2=     -0.1133578530D-03
     alpha-beta  T2 =       0.0000000000D+00 E2=      0.0000000000D+00
     beta-beta   T2 =       0.0000000000D+00 E2=      0.0000000000D+00
 ANorm=    0.1000053246D+01
 E2 =    -0.1133578530D-03 EUMP2 =    -0.79032791985899D+01
 Leave Link  804 at Mon Mar 28 14:06:49 2022, MaxMem=  9663676416 cpu:               3.6 elap:               0.1
 (Enter /nopt/nrel/apps/gaussian/g16C_1/g16/l913.exe)
 CIDS:  MDV=  9663676416.
 Frozen-core window:  NFC=   1 NFV=   0.
 IFCWin=0 IBDFC=1 NFBD=     0     0 NFCmp=     0     0 NFFFC=     0     0
 Using original routines for 1st iteration.
 Using DD4UQ or CC4UQ for 2nd and later iterations.
 Keep R2 and R3 ints in memory in symmetry-blocked form, NReq=7410290.
 FoFCou: FMM=F IPFlag=           0 FMFlag=           0 FMFlg1=           0
         NFxFlg=           0 DoJE=F BraDBF=F KetDBF=F FulRan=T
         wScrn=  0.000000 ICntrl=       600 IOpCl=  0 I1Cent=           0 NGrid=           0
         NMat0=    1 NMatS0=    120 NMatT0=    0 NMatD0=    1 NMtDS0=    0 NMtDT0=    0
 Petite list used in FoFCou.
 CIDS: In Core Option IDoMem=           1.
 Coupled Cluster theory with single and double substitutions
 ===========================================================
 Iterations= 200 Convergence= 0.100D-06
 Produce multiple copies of IABC intergrals
 Iteration Nr.   1
 **********************
 DD1Dir will call FoFMem   1 times, MxPair=         2
 NAB=     0 NAA=     1 NBB=     0.
 MP4(R+Q)=  0.12071928D-07
 Maximum subspace dimension=  5
 A-vector RMS=  6.6403466D-04 Max=  1.8529714D-03 conv= 1.00D-05.
 RLE energy=       -0.0001803343
 E3=       -0.42111988D-04        EUMP3=      -0.79033213106D+01
 E4(DQ)=   -0.15915967D-04        UMP4(DQ)=   -0.79033372265D+01
 E4(SDQ)=  -0.16382320D-04        UMP4(SDQ)=  -0.79033376929D+01
 VARIATIONAL ENERGIES WITH THE FIRST-ORDER WAVEFUNCTION:
 DE(Corr)= -0.15545916E-03 E(Corr)=     -7.9033212999    
 NORM(A)=   0.10001371D+01
 Iteration Nr.   2
 **********************
 DD1Dir will call FoFMem   1 times, MxPair=         2
 NAB=     0 NAA=     1 NBB=     0.
 A-vector RMS=  1.4407536D-04 Max=  3.5334354D-04 conv= 1.00D-05.
 RLE energy=       -0.0001832159
 DE(Corr)= -0.18151622E-03 E(CORR)=     -7.9033473570     Delta=-2.61D-05
 NORM(A)=   0.10001440D+01
 Iteration Nr.   3
 **********************
 DD1Dir will call FoFMem   1 times, MxPair=         2
 NAB=     0 NAA=     1 NBB=     0.
 A-vector RMS=  2.8862130D-05 Max=  6.6655144D-05 conv= 1.00D-05.
 RLE energy=       -0.0001833244
 DE(Corr)= -0.18322158E-03 E(CORR)=     -7.9033490623     Delta=-1.71D-06
 NORM(A)=   0.10001445D+01
 Iteration Nr.   4
 **********************
 DD1Dir will call FoFMem   1 times, MxPair=         2
 NAB=     0 NAA=     1 NBB=     0.
 A-vector RMS=  7.2813760D-06 Max=  2.1212917D-05 conv= 1.00D-05.
 RLE energy=       -0.0001833219
 DE(Corr)= -0.18332238E-03 E(CORR)=     -7.9033491631     Delta=-1.01D-07
 NORM(A)=   0.10001446D+01
 Iteration Nr.   5
 **********************
 DD1Dir will call FoFMem   1 times, MxPair=         2
 NAB=     0 NAA=     1 NBB=     0.
 A-vector RMS=  1.6741194D-06 Max=  6.3488235D-06 conv= 1.00D-05.
 RLE energy=       -0.0001833268
 DE(Corr)= -0.18332343E-03 E(CORR)=     -7.9033491642     Delta=-1.05D-09
 NORM(A)=   0.10001446D+01
 CI/CC converged in    5 iterations to DelEn=-1.05D-09 Conv= 1.00D-07 ErrA1= 1.67D-06 Conv= 1.00D-05
 Wavefunction amplitudes converged. E(Corr)=     -7.9033491642    
 Largest amplitude= 7.70D-03
 Discarding MO integrals.
 Leave Link  913 at Mon Mar 28 14:06:49 2022, MaxMem=  9663676416 cpu:               3.9 elap:               0.1
 (Enter /nopt/nrel/apps/gaussian/g16C_1/g16/l601.exe)
 Copying SCF densities to generalized density rwf, IOpCl= 1 IROHF=0.

 **********************************************************************

            Population analysis using the SCF Density.

 **********************************************************************

 Orbital symmetries:
 Alpha Orbitals:
       Occupied  (SG) (SG) (SG)
       Virtual   (PI) (PI) (SG) (SG) (PI) (PI) (SG) (PI) (PI) (DLTA)
                 (DLTA) (SG)
 Beta  Orbitals:
       Occupied  (SG)
       Virtual   (SG) (PI) (PI) (SG) (SG) (PI) (PI) (SG) (SG) (DLTA)
                 (DLTA) (PI) (PI) (SG)
 The electronic state is 3-SG.
 Alpha  occ. eigenvalues --   -2.47920  -0.51903  -0.18398
 Alpha virt. eigenvalues --    0.02539   0.02539   0.07438   0.13921   0.15924
 Alpha virt. eigenvalues --    0.15924   0.16158   0.34727   0.34727   0.35179
 Alpha virt. eigenvalues --    0.35179   0.40522
  Beta  occ. eigenvalues --   -2.46497
  Beta virt. eigenvalues --   -0.00054   0.05126   0.05126   0.05230   0.16900
  Beta virt. eigenvalues --    0.19302   0.19302   0.19796   0.27454   0.37741
  Beta virt. eigenvalues --    0.37741   0.37784   0.37784   0.49962
          Condensed to atoms (all electrons):
               1          2
     1  H    0.826220   0.065075
     2  Li   0.065075   3.043631
          Atomic-Atomic Spin Densities.
               1          2
     1  H    0.826220   0.065079
     2  Li   0.065079   1.043622
 Mulliken charges and spin densities:
               1          2
     1  H    0.108705   0.891299
     2  Li  -0.108705   1.108701
 Sum of Mulliken charges =  -0.00000   2.00000
 Mulliken charges and spin densities with hydrogens summed into heavy atoms:
               1          2
     2  Li  -0.000000   2.000000
 N-N= 5.669755831286D-01 E-N=-1.937658459527D+01  KE= 8.083475949022D+00
 Symmetry A1   KE= 8.083475949022D+00
 Symmetry A2   KE=-3.536868791208D-52
 Symmetry B1   KE= 0.000000000000D+00
 Symmetry B2   KE= 0.000000000000D+00
 Symmetry A1   SP= 2.000000000000D+00
 Symmetry A2   SP=-8.156070949914D-52
 Symmetry B1   SP= 0.000000000000D+00
 Symmetry B2   SP= 0.000000000000D+00

 Atomic contributions to Alpha molecular orbitals:
 Alpha occ 1 OE=-2.479 is Li2-s=1.0000
 Alpha occ 2 OE=-0.519 is H1-s=0.8772
 Alpha occ 3 OE=-0.184 is Li2-s=0.9089
 Alpha vir 4 OE=0.025 is Li2-p=0.9998
 Alpha vir 5 OE=0.025 is Li2-p=0.9998
 Alpha vir 6 OE=0.074 is Li2-p=0.8693
 Alpha vir 7 OE=0.139 is Li2-s=0.7069 Li2-p=0.2910
 Alpha vir 8 OE=0.159 is Li2-p=0.9994
 Alpha vir 9 OE=0.159 is Li2-p=0.9994
 Alpha vir 10 OE=0.162 is Li2-p=0.6932 Li2-s=0.2903
 Alpha vir 11 OE=0.347 is Li2-d=0.9992
 Alpha vir 12 OE=0.347 is Li2-d=0.9992
 Alpha vir 13 OE=0.352 is Li2-d=1.0000
 Alpha vir 14 OE=0.352 is Li2-d=1.0000
 Alpha vir 15 OE=0.405 is Li2-d=0.9423

 Atomic contributions to Beta  molecular orbitals:
 Beta  occ 1 OE=-2.465 is Li2-s=1.0000
 Beta  vir 2 OE=-0.001 is Li2-s=0.6073 Li2-p=0.2878 H1-s=0.1004
 Beta  vir 3 OE=0.051 is Li2-p=0.9991
 Beta  vir 4 OE=0.051 is Li2-p=0.9991
 Beta  vir 5 OE=0.052 is Li2-p=0.6239 Li2-s=0.3546
 Beta  vir 6 OE=0.169 is Li2-p=0.5231 Li2-s=0.4285
 Beta  vir 7 OE=0.193 is Li2-p=0.9943
 Beta  vir 8 OE=0.193 is Li2-p=0.9943
 Beta  vir 9 OE=0.198 is Li2-s=0.5770 Li2-p=0.3216
 Beta  vir 10 OE=0.275 is H1-s=0.4147 Li2-d=0.3336 Li2-p=0.2274
 Beta  vir 11 OE=0.377 is Li2-d=1.0000
 Beta  vir 12 OE=0.377 is Li2-d=1.0000
 Beta  vir 13 OE=0.378 is Li2-d=0.9935
 Beta  vir 14 OE=0.378 is Li2-d=0.9935
 Beta  vir 15 OE=0.500 is Li2-d=0.6123 H1-s=0.3631
 
 Leave Link  601 at Mon Mar 28 14:06:49 2022, MaxMem=  9663676416 cpu:               0.9 elap:               0.0
 (Enter /nopt/nrel/apps/gaussian/g16C_1/g16/l9999.exe)

 Test job not archived.
 1\1\GINC-R102U34\SP\UCCSD-FC\Gen\H1Li1(3)\USER\28-Mar-2022\0\\#P C
 CSD(MaxCyc=200,SaveAmplitudes,ReadAmplitudes)/GEN sp pop=AllOrbitals i
 op(3/33=1,3/36=-1)\\test\\0,3\H,0,0.,0.,0.\Li,0,0.,0.,2.8\\Version=ES6
 4L-G16RevC.01\State=3-SG\HF=-7.9031658\MP2=-7.9032792\MP3=-7.9033213\M
 P4D=-7.9033372\MP4DQ=-7.9033372\MP4SDQ=-7.9033377\CCSD=-7.9033492\S2=2
 .000001\S2-1=0.\S2A=2.\RMSD=3.193e-09\PG=C*V [C*(H1Li1)]\\@


 THE MOST SERIOUS THREAT TO THE SURVIVAL OF MANKIND IS NOT NOW
 IGNORANCE IN THE TRADITIONAL SENSE,
 BUT A MORALLY NEUTRAL, AN INSENSITIVE OR INHIBITED HUMAN INTELLIGENCE.

                     -- MARGO JEFFERSON IN NEWSWEEK, SEPTEMBER 2, 1974
 Job cpu time:       0 days  0 hours  0 minutes 34.5 seconds.
 Elapsed time:       0 days  0 hours  0 minutes  1.3 seconds.
 File lengths (MBytes):  RWF=     13 Int=      0 D2E=      0 Chk=      1 Scr=      1
 Normal termination of Gaussian 16 at Mon Mar 28 14:06:49 2022.
