 Entering Gaussian System, Link 0=g16
 Initial command:
 /nopt/nrel/apps/gaussian/g16C_1/g16/l1.exe "/lustre/eaglefs/scratch/user/qc/nah-dissc/nah-3-ccsd-1.4-631g/Gau-15137.inp" -scrdir="/lustre/eaglefs/scratch/user/qc/nah-dissc/nah-3-ccsd-1.4-631g/"
 Default is to use a total of  36 processors:
                               36 via shared-memory
                                1 via Linda
 Entering Link 1 = /nopt/nrel/apps/gaussian/g16C_1/g16/l1.exe PID=     15138.
  
 Copyright (c) 1988-2019, Gaussian, Inc.  All Rights Reserved.
  
 This is part of the Gaussian(R) 16 program.  It is based on
 the Gaussian(R) 09 system (copyright 2009, Gaussian, Inc.),
 the Gaussian(R) 03 system (copyright 2003, Gaussian, Inc.),
 the Gaussian(R) 98 system (copyright 1998, Gaussian, Inc.),
 the Gaussian(R) 94 system (copyright 1995, Gaussian, Inc.),
 the Gaussian 92(TM) system (copyright 1992, Gaussian, Inc.),
 the Gaussian 90(TM) system (copyright 1990, Gaussian, Inc.),
 the Gaussian 88(TM) system (copyright 1988, Gaussian, Inc.),
 the Gaussian 86(TM) system (copyright 1986, Carnegie Mellon
 University), and the Gaussian 82(TM) system (copyright 1983,
 Carnegie Mellon University). Gaussian is a federally registered
 trademark of Gaussian, Inc.
  
 This software contains proprietary and confidential information,
 including trade secrets, belonging to Gaussian, Inc.
  
 This software is provided under written license and may be
 used, copied, transmitted, or stored only in accord with that
 written license.
  
 The following legend is applicable only to US Government
 contracts under FAR:
  
                    RESTRICTED RIGHTS LEGEND
  
 Use, reproduction and disclosure by the US Government is
 subject to restrictions as set forth in subparagraphs (a)
 and (c) of the Commercial Computer Software - Restricted
 Rights clause in FAR 52.227-19.
  
 Gaussian, Inc.
 340 Quinnipiac St., Bldg. 40, Wallingford CT 06492
  
  
 ---------------------------------------------------------------
 Warning -- This program may not be used in any manner that
 competes with the business of Gaussian, Inc. or will provide
 assistance to any competitor of Gaussian, Inc.  The licensee
 of this program is prohibited from giving any competitor of
 Gaussian, Inc. access to this program.  By using this program,
 the user acknowledges that Gaussian, Inc. is engaged in the
 business of creating and licensing software in the field of
 computational chemistry and represents and warrants to the
 licensee that it is not a competitor of Gaussian, Inc. and that
 it will not use this program in any manner prohibited above.
 ---------------------------------------------------------------
  

 Cite this work as:
 Gaussian 16, Revision C.01,
 M. J. Frisch, G. W. Trucks, H. B. Schlegel, G. E. Scuseria, 
 M. A. Robb, J. R. Cheeseman, G. Scalmani, V. Barone, 
 G. A. Petersson, H. Nakatsuji, X. Li, M. Caricato, A. V. Marenich, 
 J. Bloino, B. G. Janesko, R. Gomperts, B. Mennucci, H. P. Hratchian, 
 J. V. Ortiz, A. F. Izmaylov, J. L. Sonnenberg, D. Williams-Young, 
 F. Ding, F. Lipparini, F. Egidi, J. Goings, B. Peng, A. Petrone, 
 T. Henderson, D. Ranasinghe, V. G. Zakrzewski, J. Gao, N. Rega, 
 G. Zheng, W. Liang, M. Hada, M. Ehara, K. Toyota, R. Fukuda, 
 J. Hasegawa, M. Ishida, T. Nakajima, Y. Honda, O. Kitao, H. Nakai, 
 T. Vreven, K. Throssell, J. A. Montgomery, Jr., J. E. Peralta, 
 F. Ogliaro, M. J. Bearpark, J. J. Heyd, E. N. Brothers, K. N. Kudin, 
 V. N. Staroverov, T. A. Keith, R. Kobayashi, J. Normand, 
 K. Raghavachari, A. P. Rendell, J. C. Burant, S. S. Iyengar, 
 J. Tomasi, M. Cossi, J. M. Millam, M. Klene, C. Adamo, R. Cammi, 
 J. W. Ochterski, R. L. Martin, K. Morokuma, O. Farkas, 
 J. B. Foresman, and D. J. Fox, Gaussian, Inc., Wallingford CT, 2019.
 
 ******************************************
 Gaussian 16:  ES64L-G16RevC.01  3-Jul-2019
                28-Mar-2022 
 ******************************************
 %chk=molecule
 Default route: CacheSize=180224 MaxDisk=256GB
 ----------------------------------------------------------------------
 #P CCSD(MaxCyc=200,SaveAmplitudes,ReadAmplitudes)/GEN sp pop=AllOrbita
 ls iop(3/33=1,3/36=-1)
 ----------------------------------------------------------------------
 1/4=180224,38=1,172=1/1;
 2/4=180224,12=2,17=6,18=5,40=1/2;
 3/4=180224,5=7,11=9,25=1,30=1,33=1,36=-1/1,2,3;
 4/4=180224/1;
 5/4=180224,5=2,38=5/2;
 8/4=180224,6=4,9=120000,10=1,24=1/1,4;
 9/4=180224,5=7,6=200,77=1/13;
 6/4=180224,7=2,8=2,9=2,10=2,96=-1/1;
 99/4=180224,5=1,9=1/99;
 Leave Link    1 at Mon Mar 28 14:25:19 2022, MaxMem=           0 cpu:               2.9 elap:               0.1
 (Enter /nopt/nrel/apps/gaussian/g16C_1/g16/l101.exe)
 ----
 test
 ----
 Symbolic Z-matrix:
 Charge =  0 Multiplicity = 3
 H                     0.        0.        0. 
 Na                    0.        0.        1.4 
 
 ITRead=  0  0
 MicOpt= -1 -1
 NAtoms=      2 NQM=        2 NQMF=       0 NMMI=      0 NMMIF=      0
                NMic=       0 NMicF=      0.
                    Isotopes and Nuclear Properties:
 (Nuclear quadrupole moments (NQMom) in fm**2, nuclear magnetic moments (NMagM)
  in nuclear magnetons)

  Atom         1           2
 IAtWgt=           1          23
 AtmWgt=   1.0078250  22.9897697
 NucSpn=           1           3
 AtZEff=  -0.0000000  -0.0000000
 NQMom=    0.0000000  10.4000000
 NMagM=    2.7928460   2.2175200
 AtZNuc=   1.0000000  11.0000000
 Leave Link  101 at Mon Mar 28 14:25:19 2022, MaxMem=  9663676416 cpu:               3.2 elap:               0.1
 (Enter /nopt/nrel/apps/gaussian/g16C_1/g16/l202.exe)
                          Input orientation:                          
 ---------------------------------------------------------------------
 Center     Atomic      Atomic             Coordinates (Angstroms)
 Number     Number       Type             X           Y           Z
 ---------------------------------------------------------------------
      1          1           0        0.000000    0.000000    0.000000
      2         11           0        0.000000    0.000000    1.400000
 ---------------------------------------------------------------------
 Stoichiometry    HNa(3)
 Framework group  C*V[C*(HNa)]
 Deg. of freedom     1
 Full point group                 C*V     NOp   4
 Largest Abelian subgroup         C2V     NOp   4
 Largest concise Abelian subgroup C1      NOp   1
                         Standard orientation:                         
 ---------------------------------------------------------------------
 Center     Atomic      Atomic             Coordinates (Angstroms)
 Number     Number       Type             X           Y           Z
 ---------------------------------------------------------------------
      1          1           0        0.000000    0.000000   -1.283333
      2         11           0        0.000000    0.000000    0.116667
 ---------------------------------------------------------------------
 Rotational constants (GHZ):           0.0000000         267.0601442         267.0601442
 Leave Link  202 at Mon Mar 28 14:25:19 2022, MaxMem=  9663676416 cpu:               0.7 elap:               0.0
 (Enter /nopt/nrel/apps/gaussian/g16C_1/g16/l301.exe)
 General basis read from cards:  (5D, 7F)
                         Coordinates in L301:                         
 ---------------------------------------------------------------------
 Center     Atomic      Atomic             Coordinates (Angstroms)
 Number     Number       Type             X           Y           Z
 ---------------------------------------------------------------------
      1          1           0        0.000000    0.000000   -1.283333
      2         11           0        0.000000    0.000000    0.116667
 ---------------------------------------------------------------------
 Centers:       1
 STO-3G
 ****
 Centers:       2
 6-31G
 ****
 FixB: optimizing general contractions.
 Ernie: Thresh=  0.10000D-02 Tol=  0.10000D-05 Strict=F.
 IA=     1 ShT= 0 ShC= 0 NL=   1 NS=   0.
 IA=     1 L=0 SC=0 ISt=    0 NBk=    0 NP=    0 IndPr=    0.
 IA=     2 ShT= 0 ShC= 0 NL=   1 NS=   0.
 IA=     2 L=0 SC=0 ISt=    0 NBk=    0 NP=    0 IndPr=    0.
 IA=     2 ShT= 1 ShC= 0 NL=   3 NS=   1.
 IA=     2 L=1 SC=0 ISt=    1 NBk=    2 NP=    9 IndPr=    0.
 DoElim1:  L=1 select primitive    1 from    2 using    1 C=-3.54D-03
 DoElim2:  L=1 select primitive    9 from    1 using    2 C= 1.23D+00
 DoElim1:  L=1 select primitive    1 from    2 using    1 C= 5.00D-03
 DoElim2:  L=1 select primitive    8 from    1 using    2 C= 9.50D-01
 Delete L=1 primitive    7 from    2 C=  0.00D+00.
 Delete L=1 primitive    5 from    2 C=  0.00D+00.
 Delete L=1 primitive    4 from    2 C=  0.00D+00.
 Delete L=1 primitive    3 from    2 C=  0.00D+00.
 Delete L=1 primitive    2 from    2 C=  0.00D+00.
 Delete L=1 primitive    1 from    2 C=  0.00D+00.
 Delete L=1 primitive    9 from    1 C=  0.00D+00.
 Delete L=1 primitive    8 from    1 C=  0.00D+00.
 Delete L=1 primitive    6 from    1 C=  0.00D+00.
 IA=     2 L=1 SC=0 ISt=    0 NBk=    0 NP=    0 IndPr=    9.
 LdAtmC:  AtmChg=     1.000000    11.000000
 AtZEff=     -1.0000000    -10.0400000
 NEqShl: 
              1            2            3            4
     1            1            1            1            1
     2            2            2            2            2
     3            3            3            3            3
     4            4            4            4            4
     5            5            5            5            5
 NEqBas: 
              1            2            3            4
     1            1            1            1            1
     2            2            2            2            2
     3            3            3            3            3
     4            4           -4           -4            4
     5            5           -5            5           -5
     6            6            6            6            6
     7            7            7            7            7
     8            8           -8           -8            8
     9            9           -9            9           -9
    10           10           10           10           10
    11           11           11           11           11
    12           12          -12          -12           12
    13           13          -13           13          -13
    14           14           14           14           14
 There are     8 symmetry adapted cartesian basis functions of A1  symmetry.
   1         1   1   1   1
   2         2   2   2   2
   3         3   3   3   3
   4         6   6   6   6
   5         7   7   7   7
   6        10  10  10  10
   7        11  11  11  11
   8        14  14  14  14
 There are     0 symmetry adapted cartesian basis functions of A2  symmetry.
 There are     3 symmetry adapted cartesian basis functions of B1  symmetry.
   9         4   4   4   4
  10         8   8   8   8
  11        12  12  12  12
 There are     3 symmetry adapted cartesian basis functions of B2  symmetry.
  12         5   5   5   5
  13         9   9   9   9
  14        13  13  13  13
 Order= 1 2 4 3
 Reordered character table:
              1            2            3            4            5
     1            1            1            1            1            1
     2            2            1            1           -1           -1
     3            4            1           -1           -1            1
     4            3            1           -1            1           -1
 NEqShl: 
              1            2            3            4
     1            1            1            1            1
     2            2            2            2            2
     3            3            3            3            3
     4            4            4            4            4
     5            5            5            5            5
 NEqBas: 
              1            2            3            4
     1            1            1            1            1
     2            2            2            2            2
     3            3            3            3            3
     4            4           -4           -4            4
     5            5           -5            5           -5
     6            6            6            6            6
     7            7            7            7            7
     8            8           -8           -8            8
     9            9           -9            9           -9
    10           10           10           10           10
    11           11           11           11           11
    12           12          -12          -12           12
    13           13          -13           13          -13
    14           14           14           14           14
 There are     8 symmetry adapted basis functions of A1  symmetry.
   1         1   1   1   1
   2         2   2   2   2
   3         3   3   3   3
   4         6   6   6   6
   5         7   7   7   7
   6        10  10  10  10
   7        11  11  11  11
   8        14  14  14  14
 There are     0 symmetry adapted basis functions of A2  symmetry.
 There are     3 symmetry adapted basis functions of B1  symmetry.
   9         4   4   4   4
  10         8   8   8   8
  11        12  12  12  12
 There are     3 symmetry adapted basis functions of B2  symmetry.
  12         5   5   5   5
  13         9   9   9   9
  14        13  13  13  13
 Order= 1 2 4 3
 Reordered character table:
              1            2            3            4            5
     1            1            1            1            1            1
     2            2            1            1           -1           -1
     3            4            1           -1           -1            1
     4            3            1           -1            1           -1
    14 basis functions,    49 primitive gaussians,    14 cartesian basis functions
     7 alpha electrons        5 beta electrons
       nuclear repulsion energy         4.1578209429 Hartrees.
 IS=     1 IAt=     1 ISR=     1 T=0 IP=      1 IndIP=      1 IndIPD=      0 C=  2.769344D-01  0.000000D+00                             NZ=T
 IS=     1 IAt=     1 ISR=     1 T=0 IP=      2 IndIP=      2 IndIPD=      1 C=  2.678389D-01  0.000000D+00                             NZ=T
 IS=     1 IAt=     1 ISR=     1 T=0 IP=      3 IndIP=      3 IndIPD=      2 C=  8.347367D-02  0.000000D+00                             NZ=T
 IS=     2 IAt=     2 ISR=     1 T=0 IP=      1 IndIP=      4 IndIPD=      0 C=  1.380276D+00  0.000000D+00                             NZ=T
 IS=     2 IAt=     2 ISR=     1 T=0 IP=      2 IndIP=      5 IndIPD=      1 C=  2.543440D+00  0.000000D+00                             NZ=T
 IS=     2 IAt=     2 ISR=     1 T=0 IP=      3 IndIP=      6 IndIPD=      2 C=  4.120502D+00  0.000000D+00                             NZ=T
 IS=     2 IAt=     2 ISR=     1 T=0 IP=      4 IndIP=      7 IndIPD=      3 C=  5.464941D+00  0.000000D+00                             NZ=T
 IS=     2 IAt=     2 ISR=     1 T=0 IP=      5 IndIP=      8 IndIPD=      4 C=  4.476262D+00  0.000000D+00                             NZ=T
 IS=     2 IAt=     2 ISR=     1 T=0 IP=      6 IndIP=      9 IndIPD=      5 C=  1.255723D+00  0.000000D+00                             NZ=T
 IS=     3 IAt=     2 ISR=     2 T=1 IP=      1 IndIP=     10 IndIPD=      0 C= -1.087231D-01  3.772614D+00                             NZ=T
 IS=     3 IAt=     2 ISR=     2 T=1 IP=      2 IndIP=     11 IndIPD=      1 C= -4.564910D-01  4.399752D+00                             NZ=T
 IS=     3 IAt=     2 ISR=     2 T=1 IP=      3 IndIP=     12 IndIPD=      2 C= -4.778739D-01  4.156503D+00                             NZ=T
 IS=     3 IAt=     2 ISR=     2 T=1 IP=      4 IndIP=     13 IndIPD=      3 C=  3.708017D-01  2.647056D+00                             NZ=T
 IS=     3 IAt=     2 ISR=     2 T=1 IP=      5 IndIP=     14 IndIPD=      4 C=  5.874076D-01  9.643141D-01                             NZ=T
 IS=     3 IAt=     2 ISR=     2 T=1 IP=      6 IndIP=     15 IndIPD=      5 C=  1.231036D-01  1.501277D-01                             NZ=T
 IS=     4 IAt=     2 ISR=     3 T=1 IP=      1 IndIP=     16 IndIPD=      0 C= -1.049885D-01 -1.372752D-02                             NZ=T
 IS=     4 IAt=     2 ISR=     3 T=1 IP=      2 IndIP=     17 IndIPD=      1 C= -1.469212D-02  6.158186D-02                             NZ=T
 IS=     4 IAt=     2 ISR=     3 T=1 IP=      3 IndIP=     18 IndIPD=      2 C=  1.153011D-01  2.888614D-03                             NZ=T
 IS=     5 IAt=     2 ISR=     4 T=1 IP=      1 IndIP=     19 IndIPD=      0 C=  4.608593D-02  1.484923D-02                             NZ=T
 IExCor=    0 DFT=F Ex=HF Corr=None ExCW=0 ScaHFX=  1.000000
 ScaDFX=  1.000000  1.000000  1.000000  1.000000 ScalE2=  1.000000  1.000000
 IRadAn=      5 IRanWt=     -1 IRanGd=            0 ICorTp=0 IEmpDi=  4
 NAtoms=    2 NActive=    2 NUniq=    2 SFac= 1.00D+00 NAtFMM=   60 NAOKFM=F Big=F
 Integral buffers will be    131072 words long.
 Raffenetti 2 integral format.
 Two-electron integral symmetry is turned on.
 Leave Link  301 at Mon Mar 28 14:25:19 2022, MaxMem=  9663676416 cpu:               2.1 elap:               0.1
 (Enter /nopt/nrel/apps/gaussian/g16C_1/g16/l302.exe)
 NPDir=0 NMtPBC=     1 NCelOv=     1 NCel=       1 NClECP=     1 NCelD=      1
         NCelK=      1 NCelE2=     1 NClLst=     1 CellRange=     0.0.
 One-electron integrals computed using PRISM.
 One-electron integral symmetry used in STVInt
 Entering OneElI...
 Calculate overlap and kinetic energy integrals
    NBasis =  14  MinDer = 0  MaxDer = 0
 Requested accuracy = 0.1000D-12
 Symmetry will be used
 PrmmSu-InSpLW:  IPartL=    0 NPrtUS=   36 NPrtUL=    1 DoSpLW=F IThBeg=    0 IThEnd=   35 NThAct=   36.
 PrSmSu:  IncTry=   512 NBBP=             15 NTPThr=   100 NPartT=   36 Incr=           1 LDynOK=F GPUOK=F.
 PrsmSu:  NPrtUS=  36 ThrOK=T IAlg=1 LenDen=           0 ISkipM=0 DoSpLW=F IThBeg=    0 IThEnd=   35.
 Prism:   IPart=     0 DynPar=F LinDyn=F Incr=           1.
 PRISM was handed   268432468 working-precision words and    15 shell-pairs
 PRISM was handed   268432468 working-precision words and    15 shell-pairs
 PRISM was handed   268432468 working-precision words and    15 shell-pairs
 PRISM was handed   268432468 working-precision words and    15 shell-pairs
 PRISM was handed   268432468 working-precision words and    15 shell-pairs
 PRISM was handed   268432468 working-precision words and    15 shell-pairs
 PRISM was handed   268432468 working-precision words and    15 shell-pairs
 PRISM was handed   268432468 working-precision words and    15 shell-pairs
 PRISM was handed   268432468 working-precision words and    15 shell-pairs
 PRISM was handed   268432468 working-precision words and    15 shell-pairs
 PRISM was handed   268432468 working-precision words and    15 shell-pairs
 PRISM was handed   268432468 working-precision words and    15 shell-pairs
 IPart= 16 NShTot=           0 NBatch=           0 AvBLen=         0.0
 IPart= 21 NShTot=           0 NBatch=           0 AvBLen=         0.0
 IPart= 17 NShTot=           0 NBatch=           0 AvBLen=         0.0
 IPart= 12 NShTot=           0 NBatch=           0 AvBLen=         0.0
 IPart=  2 NShTot=           0 NBatch=           0 AvBLen=         0.0
 IPart=  6 NShTot=           0 NBatch=           0 AvBLen=         0.0
 IPart= 35 NShTot=           0 NBatch=           0 AvBLen=         0.0
 IPart= 10 NShTot=           0 NBatch=           0 AvBLen=         0.0
 PRISM was handed   268432468 working-precision words and    15 shell-pairs
 IPart= 27 NShTot=           0 NBatch=           0 AvBLen=         0.0
 PRISM was handed   268432468 working-precision words and    15 shell-pairs
 PRISM was handed   268432468 working-precision words and    15 shell-pairs
 PRISM was handed   268432468 working-precision words and    15 shell-pairs
 IPart= 26 NShTot=           0 NBatch=           0 AvBLen=         0.0
 IPart= 13 NShTot=           0 NBatch=           0 AvBLen=         0.0
 IPart=  9 NShTot=           0 NBatch=           0 AvBLen=         0.0
 PRISM was handed   268432468 working-precision words and    15 shell-pairs
 IPart= 29 NShTot=           0 NBatch=           0 AvBLen=         0.0
 PRISM was handed   268432468 working-precision words and    15 shell-pairs
 PRISM was handed   268432468 working-precision words and    15 shell-pairs
 PRISM was handed   268432468 working-precision words and    15 shell-pairs
 IPart= 19 NShTot=           0 NBatch=           0 AvBLen=         0.0
 PRISM was handed   268432468 working-precision words and    15 shell-pairs
 IPart=  7 NShTot=           0 NBatch=           0 AvBLen=         0.0
 IPart= 23 NShTot=           0 NBatch=           0 AvBLen=         0.0
 IPart=  8 NShTot=           0 NBatch=           0 AvBLen=         0.0
 IPart= 31 NShTot=           0 NBatch=           0 AvBLen=         0.0
 IPart=  5 NShTot=           0 NBatch=           0 AvBLen=         0.0
 PRISM was handed   268432468 working-precision words and    15 shell-pairs
 PRISM was handed   268432468 working-precision words and    15 shell-pairs
 IPart=  4 NShTot=           0 NBatch=           0 AvBLen=         0.0
 PRISM was handed   268432468 working-precision words and    15 shell-pairs
 PRISM was handed   268432468 working-precision words and    15 shell-pairs
 PRISM was handed   268432468 working-precision words and    15 shell-pairs
 PRISM was handed   268432468 working-precision words and    15 shell-pairs
 IPart= 24 NShTot=           0 NBatch=           0 AvBLen=         0.0
 IPart= 28 NShTot=           0 NBatch=           0 AvBLen=         0.0
 PRISM was handed   268432468 working-precision words and    15 shell-pairs
 PRISM was handed   268432468 working-precision words and    15 shell-pairs
 IPart=  0 NShTot=          14 NBatch=          14 AvBLen=         1.0
 IPart= 33 NShTot=           0 NBatch=           0 AvBLen=         0.0
 IPart= 32 NShTot=           0 NBatch=           0 AvBLen=         0.0
 IPart= 25 NShTot=           0 NBatch=           0 AvBLen=         0.0
 PRISM was handed   268432468 working-precision words and    15 shell-pairs
 IPart=  1 NShTot=           1 NBatch=           1 AvBLen=         1.0
 IPart= 22 NShTot=           0 NBatch=           0 AvBLen=         0.0
 IPart= 18 NShTot=           0 NBatch=           0 AvBLen=         0.0
 PRISM was handed   268432468 working-precision words and    15 shell-pairs
 IPart= 11 NShTot=           0 NBatch=           0 AvBLen=         0.0
 PRISM was handed   268432468 working-precision words and    15 shell-pairs
 PRISM was handed   268432468 working-precision words and    15 shell-pairs
 PRISM was handed   268432468 working-precision words and    15 shell-pairs
 IPart= 20 NShTot=           0 NBatch=           0 AvBLen=         0.0
 PRISM was handed   268432468 working-precision words and    15 shell-pairs
 PRISM was handed   268432468 working-precision words and    15 shell-pairs
 IPart= 14 NShTot=           0 NBatch=           0 AvBLen=         0.0
 IPart= 15 NShTot=           0 NBatch=           0 AvBLen=         0.0
 IPart= 34 NShTot=           0 NBatch=           0 AvBLen=         0.0
 IPart=  3 NShTot=           0 NBatch=           0 AvBLen=         0.0
 IPart= 30 NShTot=           0 NBatch=           0 AvBLen=         0.0
 PrSmSu:  NxtVal=             37.
 *** Overlap *** 
                1             2             3             4             5 
      1  0.100000D+01
      2  0.120654D-01  0.100000D+01
      3  0.144032D+00  0.230835D+00  0.100000D+01
      4  0.000000D+00  0.000000D+00  0.000000D+00  0.100000D+01
      5  0.000000D+00  0.000000D+00  0.000000D+00  0.000000D+00  0.100000D+01
      6 -0.144602D+00  0.000000D+00  0.000000D+00  0.000000D+00  0.000000D+00
      7  0.432553D+00 -0.127644D-04  0.161245D+00  0.000000D+00  0.000000D+00
      8  0.000000D+00  0.000000D+00  0.000000D+00  0.186871D+00  0.000000D+00
      9  0.000000D+00  0.000000D+00  0.000000D+00  0.000000D+00  0.186871D+00
     10 -0.523433D+00  0.000000D+00  0.000000D+00  0.000000D+00  0.000000D+00
     11  0.332291D+00  0.189170D-01  0.190082D+00  0.000000D+00  0.000000D+00
     12  0.000000D+00  0.000000D+00  0.000000D+00  0.574619D-01  0.000000D+00
     13  0.000000D+00  0.000000D+00  0.000000D+00  0.000000D+00  0.574619D-01
     14 -0.255275D+00  0.000000D+00  0.000000D+00  0.000000D+00  0.000000D+00
                6             7             8             9            10 
      6  0.100000D+01
      7  0.000000D+00  0.100000D+01
      8  0.000000D+00  0.000000D+00  0.100000D+01
      9  0.000000D+00  0.000000D+00  0.000000D+00  0.100000D+01
     10  0.186871D+00  0.000000D+00  0.000000D+00  0.000000D+00  0.100000D+01
     11  0.000000D+00  0.876272D+00  0.000000D+00  0.000000D+00  0.000000D+00
     12  0.000000D+00  0.000000D+00  0.672925D+00  0.000000D+00  0.000000D+00
     13  0.000000D+00  0.000000D+00  0.000000D+00  0.672925D+00  0.000000D+00
     14  0.574619D-01  0.000000D+00  0.000000D+00  0.000000D+00  0.672925D+00
               11            12            13            14 
     11  0.100000D+01
     12  0.000000D+00  0.100000D+01
     13  0.000000D+00  0.000000D+00  0.100000D+01
     14  0.000000D+00  0.000000D+00  0.000000D+00  0.100000D+01
 *** Kinetic Energy *** 
                1             2             3             4             5 
      1  0.760032D+00
      2 -0.388590D-02  0.565455D+02
      3 -0.147195D-01 -0.266647D+01  0.196759D+01
      4  0.000000D+00  0.000000D+00  0.000000D+00  0.588848D+01
      5  0.000000D+00  0.000000D+00  0.000000D+00  0.000000D+00  0.588848D+01
      6 -0.267852D-01  0.000000D+00  0.000000D+00  0.000000D+00  0.000000D+00
      7  0.574622D-01 -0.516638D-01 -0.152029D+00  0.000000D+00  0.000000D+00
      8  0.000000D+00  0.000000D+00  0.000000D+00  0.478086D-01  0.000000D+00
      9  0.000000D+00  0.000000D+00  0.000000D+00  0.000000D+00  0.478086D-01
     10 -0.137033D+00  0.000000D+00  0.000000D+00  0.000000D+00  0.000000D+00
     11  0.207656D-01  0.147038D-02  0.142898D-01  0.000000D+00  0.000000D+00
     12  0.000000D+00  0.000000D+00  0.000000D+00  0.716353D-02  0.000000D+00
     13  0.000000D+00  0.000000D+00  0.000000D+00  0.000000D+00  0.716353D-02
     14 -0.279629D-01  0.000000D+00  0.000000D+00  0.000000D+00  0.000000D+00
                6             7             8             9            10 
      6  0.588848D+01
      7  0.000000D+00  0.116833D+00
      8  0.000000D+00  0.000000D+00  0.205703D+00
      9  0.000000D+00  0.000000D+00  0.000000D+00  0.205703D+00
     10  0.478086D-01  0.000000D+00  0.000000D+00  0.000000D+00  0.205703D+00
     11  0.000000D+00  0.474660D-01  0.000000D+00  0.000000D+00  0.000000D+00
     12  0.000000D+00  0.000000D+00  0.664432D-01  0.000000D+00  0.000000D+00
     13  0.000000D+00  0.000000D+00  0.000000D+00  0.664432D-01  0.000000D+00
     14  0.716353D-02  0.000000D+00  0.000000D+00  0.000000D+00  0.664432D-01
               11            12            13            14 
     11  0.389316D-01
     12  0.000000D+00  0.648860D-01
     13  0.000000D+00  0.000000D+00  0.648860D-01
     14  0.000000D+00  0.000000D+00  0.000000D+00  0.648860D-01
 Entering OneElI...
 Calculate potential energy integrals
    NBasis =  14  MinDer = 0  MaxDer = 0
 Requested accuracy = 0.1000D-12
 Symmetry will be used
 PrmmSu-InSpLW:  IPartL=    0 NPrtUS=   36 NPrtUL=    1 DoSpLW=F IThBeg=    0 IThEnd=   35 NThAct=   36.
 PrSmSu:  IncTry=   512 NBBP=             30 NTPThr=   100 NPartT=   36 Incr=           1 LDynOK=F GPUOK=F.
 PrsmSu:  NPrtUS=  36 ThrOK=T IAlg=1 LenDen=           0 ISkipM=0 DoSpLW=F IThBeg=    0 IThEnd=   35.
 Prism:   IPart=     0 DynPar=F LinDyn=F Incr=           1.
 PRISM was handed   268432566 working-precision words and    15 shell-pairs
 PRISM was handed   268432566 working-precision words and    15 shell-pairs
 PRISM was handed   268432566 working-precision words and    15 shell-pairs
 PRISM was handed   268432566 working-precision words and    15 shell-pairs
 PRISM was handed   268432566 working-precision words and    15 shell-pairs
 PRISM was handed   268432566 working-precision words and    15 shell-pairs
 PRISM was handed   268432566 working-precision words and    15 shell-pairs
 PRISM was handed   268432566 working-precision words and    15 shell-pairs
 PRISM was handed   268432566 working-precision words and    15 shell-pairs
 PRISM was handed   268432566 working-precision words and    15 shell-pairs
 PRISM was handed   268432566 working-precision words and    15 shell-pairs
 PRISM was handed   268432566 working-precision words and    15 shell-pairs
 PRISM was handed   268432566 working-precision words and    15 shell-pairs
 PRISM was handed   268432566 working-precision words and    15 shell-pairs
 PRISM was handed   268432566 working-precision words and    15 shell-pairs
 PRISM was handed   268432566 working-precision words and    15 shell-pairs
 PRISM was handed   268432566 working-precision words and    15 shell-pairs
 PRISM was handed   268432566 working-precision words and    15 shell-pairs
 PRISM was handed   268432566 working-precision words and    15 shell-pairs
 PRISM was handed   268432566 working-precision words and    15 shell-pairs
 PRISM was handed   268432566 working-precision words and    15 shell-pairs
 PRISM was handed   268432566 working-precision words and    15 shell-pairs
 PRISM was handed   268432566 working-precision words and    15 shell-pairs
 PRISM was handed   268432566 working-precision words and    15 shell-pairs
 PRISM was handed   268432566 working-precision words and    15 shell-pairs
 PRISM was handed   268432566 working-precision words and    15 shell-pairs
 PRISM was handed   268432566 working-precision words and    15 shell-pairs
 PRISM was handed   268432566 working-precision words and    15 shell-pairs
 PRISM was handed   268432566 working-precision words and    15 shell-pairs
 PRISM was handed   268432566 working-precision words and    15 shell-pairs
 PRISM was handed   268432566 working-precision words and    15 shell-pairs
 PRISM was handed   268432566 working-precision words and    15 shell-pairs
 PRISM was handed   268432566 working-precision words and    15 shell-pairs
 PRISM was handed   268432566 working-precision words and    15 shell-pairs
 PRISM was handed   268432566 working-precision words and    15 shell-pairs
 PRISM was handed   268432566 working-precision words and    15 shell-pairs
 IPart=  1 NShTot=           2 NBatch=           1 AvBLen=         2.0
 IPart=  0 NShTot=          28 NBatch=          14 AvBLen=         2.0
 IPart= 16 NShTot=           0 NBatch=           0 AvBLen=         0.0
 IPart= 32 NShTot=           0 NBatch=           0 AvBLen=         0.0
 IPart= 17 NShTot=           0 NBatch=           0 AvBLen=         0.0
 IPart=  4 NShTot=           0 NBatch=           0 AvBLen=         0.0
 IPart=  6 NShTot=           0 NBatch=           0 AvBLen=         0.0
 IPart=  8 NShTot=           0 NBatch=           0 AvBLen=         0.0
 IPart= 23 NShTot=           0 NBatch=           0 AvBLen=         0.0
 IPart= 28 NShTot=           0 NBatch=           0 AvBLen=         0.0
 IPart= 15 NShTot=           0 NBatch=           0 AvBLen=         0.0
 IPart= 19 NShTot=           0 NBatch=           0 AvBLen=         0.0
 IPart= 26 NShTot=           0 NBatch=           0 AvBLen=         0.0
 IPart= 18 NShTot=           0 NBatch=           0 AvBLen=         0.0
 IPart= 13 NShTot=           0 NBatch=           0 AvBLen=         0.0
 IPart=  3 NShTot=           0 NBatch=           0 AvBLen=         0.0
 IPart= 34 NShTot=           0 NBatch=           0 AvBLen=         0.0
 IPart= 25 NShTot=           0 NBatch=           0 AvBLen=         0.0
 IPart= 31 NShTot=           0 NBatch=           0 AvBLen=         0.0
 IPart=  2 NShTot=           0 NBatch=           0 AvBLen=         0.0
 IPart= 11 NShTot=           0 NBatch=           0 AvBLen=         0.0
 IPart= 14 NShTot=           0 NBatch=           0 AvBLen=         0.0
 IPart= 35 NShTot=           0 NBatch=           0 AvBLen=         0.0
 IPart= 22 NShTot=           0 NBatch=           0 AvBLen=         0.0
 IPart= 10 NShTot=           0 NBatch=           0 AvBLen=         0.0
 IPart= 24 NShTot=           0 NBatch=           0 AvBLen=         0.0
 IPart= 30 NShTot=           0 NBatch=           0 AvBLen=         0.0
 IPart= 12 NShTot=           0 NBatch=           0 AvBLen=         0.0
 IPart= 33 NShTot=           0 NBatch=           0 AvBLen=         0.0
 IPart=  5 NShTot=           0 NBatch=           0 AvBLen=         0.0
 IPart= 20 NShTot=           0 NBatch=           0 AvBLen=         0.0
 IPart= 21 NShTot=           0 NBatch=           0 AvBLen=         0.0
 IPart= 27 NShTot=           0 NBatch=           0 AvBLen=         0.0
 IPart=  7 NShTot=           0 NBatch=           0 AvBLen=         0.0
 IPart= 29 NShTot=           0 NBatch=           0 AvBLen=         0.0
 IPart=  9 NShTot=           0 NBatch=           0 AvBLen=         0.0
 PrSmSu:  NxtVal=             37.
 ***** Potential Energy ***** 
                1             2             3             4             5 
      1  0.535873D+01
      2  0.705399D+00  0.117339D+03
      3  0.168230D+01  0.106939D+02  0.182041D+02
      4  0.000000D+00  0.000000D+00  0.000000D+00  0.190265D+02
      5  0.000000D+00  0.000000D+00  0.000000D+00  0.000000D+00  0.190265D+02
      6 -0.125400D+01 -0.656948D-02 -0.637340D-01  0.000000D+00  0.000000D+00
      7  0.208628D+01 -0.498364D-01  0.134819D+01  0.000000D+00  0.000000D+00
      8  0.000000D+00  0.000000D+00  0.000000D+00  0.157849D+01  0.000000D+00
      9  0.000000D+00  0.000000D+00  0.000000D+00  0.000000D+00  0.157849D+01
     10 -0.242463D+01 -0.100493D-03 -0.179620D-01  0.000000D+00  0.000000D+00
     11  0.160420D+01  0.111295D+01  0.231869D+01  0.000000D+00  0.000000D+00
     12  0.000000D+00  0.000000D+00  0.000000D+00  0.469034D+00  0.000000D+00
     13  0.000000D+00  0.000000D+00  0.000000D+00  0.000000D+00  0.469034D+00
     14 -0.103581D+01 -0.291205D-04 -0.549272D-02  0.000000D+00  0.000000D+00
                6             7             8             9            10 
      6  0.190529D+02
      7 -0.284342D-01  0.389603D+01
      8  0.000000D+00  0.000000D+00  0.357237D+01
      9  0.000000D+00  0.000000D+00  0.000000D+00  0.357237D+01
     10  0.159622D+01 -0.124056D+00  0.000000D+00  0.000000D+00  0.366840D+01
     11 -0.242576D-01  0.314254D+01  0.000000D+00  0.000000D+00 -0.958857D-01
     12  0.000000D+00  0.000000D+00  0.197453D+01  0.000000D+00  0.000000D+00
     13  0.000000D+00  0.000000D+00  0.000000D+00  0.197453D+01  0.000000D+00
     14  0.474716D+00 -0.605088D-01  0.000000D+00  0.000000D+00  0.201937D+01
               11            12            13            14 
     11  0.305700D+01
     12  0.000000D+00  0.204513D+01
     13  0.000000D+00  0.000000D+00  0.204513D+01
     14 -0.590103D-01  0.000000D+00  0.000000D+00  0.207404D+01
 ****** Core Hamiltonian ****** 
                1             2             3             4             5 
      1 -0.459870D+01
      2 -0.709285D+00 -0.607932D+02
      3 -0.169702D+01 -0.133604D+02 -0.162365D+02
      4  0.000000D+00  0.000000D+00  0.000000D+00 -0.131380D+02
      5  0.000000D+00  0.000000D+00  0.000000D+00  0.000000D+00 -0.131380D+02
      6  0.122722D+01  0.656948D-02  0.637340D-01  0.000000D+00  0.000000D+00
      7 -0.202881D+01 -0.182735D-02 -0.150022D+01  0.000000D+00  0.000000D+00
      8  0.000000D+00  0.000000D+00  0.000000D+00 -0.153068D+01  0.000000D+00
      9  0.000000D+00  0.000000D+00  0.000000D+00  0.000000D+00 -0.153068D+01
     10  0.228760D+01  0.100493D-03  0.179620D-01  0.000000D+00  0.000000D+00
     11 -0.158344D+01 -0.111148D+01 -0.230440D+01  0.000000D+00  0.000000D+00
     12  0.000000D+00  0.000000D+00  0.000000D+00 -0.461871D+00  0.000000D+00
     13  0.000000D+00  0.000000D+00  0.000000D+00  0.000000D+00 -0.461871D+00
     14  0.100785D+01  0.291205D-04  0.549272D-02  0.000000D+00  0.000000D+00
                6             7             8             9            10 
      6 -0.131644D+02
      7  0.284342D-01 -0.377920D+01
      8  0.000000D+00  0.000000D+00 -0.336667D+01
      9  0.000000D+00  0.000000D+00  0.000000D+00 -0.336667D+01
     10 -0.154841D+01  0.124056D+00  0.000000D+00  0.000000D+00 -0.346270D+01
     11  0.242576D-01 -0.309507D+01  0.000000D+00  0.000000D+00  0.958857D-01
     12  0.000000D+00  0.000000D+00 -0.190809D+01  0.000000D+00  0.000000D+00
     13  0.000000D+00  0.000000D+00  0.000000D+00 -0.190809D+01  0.000000D+00
     14 -0.467552D+00  0.605088D-01  0.000000D+00  0.000000D+00 -0.195292D+01
               11            12            13            14 
     11 -0.301806D+01
     12  0.000000D+00 -0.198024D+01
     13  0.000000D+00  0.000000D+00 -0.198024D+01
     14  0.590103D-01  0.000000D+00  0.000000D+00 -0.200915D+01
 SVDSVc IOpt=   1 NormSV=T IR=1
 SVDSVc V= 2.34D+00 1.82D+00 1.19D+00 9.72D-01 7.44D-01 5.95D-01 2.36D-01 1.09D-01
 SVDSVc IOpt=   1 NormSV=T IR=3
 SVDSVc V= 1.72D+00 9.71D-01 3.14D-01
 SVDSVc IOpt=   1 NormSV=T IR=4
 SVDSVc V= 1.72D+00 9.71D-01 3.14D-01
 TstOVc:  Largest diagonal error= 2.89D-15 IB=1 I=    8.
 TstOVc:  Largest same sym error= 1.11D-15 IB=1 I=    8 J=    7.
 TstOVc:  Largest diff sym error= 0.00D+00 IB=0 JB=0 I=    0 J=    0.
 Orthogonalized basis functions: 
                 1             2             3             4             5 
      1   0.331948D+00 -0.104273D+00 -0.247391D-01 -0.515125D-01  0.623699D-01
      2   0.289766D-01  0.404508D-01  0.689827D+00 -0.128092D-02 -0.757898D+00
      3   0.124980D+00  0.123528D+00  0.570150D+00  0.824081D-03  0.848969D+00
      4   0.000000D+00  0.000000D+00  0.000000D+00  0.000000D+00  0.000000D+00
      5   0.000000D+00  0.000000D+00  0.000000D+00  0.000000D+00  0.000000D+00
      6  -0.761082D-01  0.140108D+00 -0.320977D-02  0.961693D+00  0.214272D-01
      7   0.328533D+00  0.298920D+00 -0.156059D+00  0.186022D-01 -0.149579D+00
      8   0.000000D+00  0.000000D+00  0.000000D+00  0.000000D+00  0.000000D+00
      9   0.000000D+00  0.000000D+00  0.000000D+00  0.000000D+00  0.000000D+00
     10  -0.232375D+00  0.414398D+00 -0.153956D-01 -0.891644D-01  0.659248D-02
     11   0.315388D+00  0.307647D+00 -0.125979D+00  0.246881D-01 -0.143322D+00
     12   0.000000D+00  0.000000D+00  0.000000D+00  0.000000D+00  0.000000D+00
     13   0.000000D+00  0.000000D+00  0.000000D+00  0.000000D+00  0.000000D+00
     14  -0.183251D+00  0.383474D+00 -0.226280D-01 -0.303459D+00  0.400560D-01
                 6             7             8             9            10 
      1   0.946435D+00  0.787361D+00 -0.584274D+00  0.000000D+00  0.000000D+00
      2   0.681747D-01  0.186432D-01  0.207194D-01  0.000000D+00  0.000000D+00
      3  -0.139067D+00 -0.590515D-01  0.110378D+00  0.000000D+00  0.000000D+00
      4   0.000000D+00  0.000000D+00  0.000000D+00  0.180764D+00  0.976429D+00
      5   0.000000D+00  0.000000D+00  0.000000D+00  0.000000D+00  0.000000D+00
      6   0.280537D+00 -0.136277D+00 -0.304082D-02  0.000000D+00  0.000000D+00
      7  -0.160225D+00  0.179426D+00  0.217968D+01  0.000000D+00  0.000000D+00
      8   0.000000D+00  0.000000D+00  0.000000D+00  0.532957D+00 -0.716361D-01
      9   0.000000D+00  0.000000D+00  0.000000D+00  0.000000D+00  0.000000D+00
     10  -0.963810D-01  0.148430D+01 -0.502983D+00  0.000000D+00  0.000000D+00
     11  -0.367486D+00 -0.534186D+00 -0.194902D+01  0.000000D+00  0.000000D+00
     12   0.000000D+00  0.000000D+00  0.000000D+00  0.516103D+00 -0.268016D+00
     13   0.000000D+00  0.000000D+00  0.000000D+00  0.000000D+00  0.000000D+00
     14   0.716328D+00 -0.103436D+01  0.212598D+00  0.000000D+00  0.000000D+00
                11            12            13            14 
      1   0.000000D+00  0.000000D+00  0.000000D+00  0.000000D+00
      2   0.000000D+00  0.000000D+00  0.000000D+00  0.000000D+00
      3   0.000000D+00  0.000000D+00  0.000000D+00  0.000000D+00
      4  -0.243572D+00  0.000000D+00  0.000000D+00  0.000000D+00
      5   0.000000D+00  0.180764D+00  0.976429D+00 -0.243572D+00
      6   0.000000D+00  0.000000D+00  0.000000D+00  0.000000D+00
      7   0.000000D+00  0.000000D+00  0.000000D+00  0.000000D+00
      8   0.127086D+01  0.000000D+00  0.000000D+00  0.000000D+00
      9   0.000000D+00  0.532957D+00 -0.716361D-01  0.127086D+01
     10   0.000000D+00  0.000000D+00  0.000000D+00  0.000000D+00
     11   0.000000D+00  0.000000D+00  0.000000D+00  0.000000D+00
     12  -0.122706D+01  0.000000D+00  0.000000D+00  0.000000D+00
     13   0.000000D+00  0.516103D+00 -0.268016D+00 -0.122706D+01
     14   0.000000D+00  0.000000D+00  0.000000D+00  0.000000D+00
 NBasis=    14 RedAO= T EigKep=  1.09D-01  NBF=     8     0     3     3
 NBsUse=    14 1.00D-06 EigRej= -1.00D+00 NBFU=     8     0     3     3
 Leave Link  302 at Mon Mar 28 14:25:19 2022, MaxMem=  9663676416 cpu:               3.3 elap:               0.1
 (Enter /nopt/nrel/apps/gaussian/g16C_1/g16/l303.exe)
 DipDrv will not compute anything.
 Fermi contact integrals: 
                 1             2 
      1   0.628247D+00  0.290007D-01
      2   0.000000D+00  0.192411D+02
      3   0.474232D-02  0.382249D-01
      4   0.000000D+00  0.000000D+00
      5   0.000000D+00  0.000000D+00
      6  -0.153419D-01  0.000000D+00
      7   0.609656D-01 -0.437955D-02
      8   0.000000D+00  0.000000D+00
      9   0.000000D+00  0.000000D+00
     10  -0.939559D-01  0.000000D+00
     11   0.384303D-01  0.460859D-01
     12   0.000000D+00  0.000000D+00
     13   0.000000D+00  0.000000D+00
     14  -0.327594D-01  0.000000D+00
 Leave Link  303 at Mon Mar 28 14:25:19 2022, MaxMem=  9663676416 cpu:               0.9 elap:               0.0
 (Enter /nopt/nrel/apps/gaussian/g16C_1/g16/l401.exe)
 ExpMin= 2.60D-02 ExpMax= 9.99D+03 ExpMxC= 1.50D+03 IAcc=3 IRadAn=         5 AccDes= 0.00D+00
 Harris functional with IExCor=  205 and IRadAn=       5 diagonalized for initial guess.
 HarFok:  IExCor=  205 AccDes= 0.00D+00 IRadAn=         5 IDoV= 1 UseB2=F ITyADJ=14
 ICtDFT=  3500011 ScaDFX=  1.000000  1.000000  1.000000  1.000000
 FoFCou: FMM=F IPFlag=           0 FMFlag=      100000 FMFlg1=           0
         NFxFlg=           0 DoJE=T BraDBF=F KetDBF=T FulRan=T
         wScrn=  0.000000 ICntrl=       500 IOpCl=  0 I1Cent=   200000004 NGrid=           0
         NMat0=    1 NMatS0=      1 NMatT0=    0 NMatD0=    1 NMtDS0=    0 NMtDT0=    0
 Petite list used in FoFCou.
 Harris En= -161.984998808599    
 JPrj=0 DoOrth=F DoCkMO=F.
 Initial guess orbital symmetries:
 Alpha Orbitals:
       Occupied  (SG) (SG) (SG) (PI) (PI) (SG) (SG)
       Virtual   (PI) (PI) (SG) (SG) (PI) (PI) (SG)
 Beta  Orbitals:
       Occupied  (SG) (SG) (SG) (PI) (PI)
       Virtual   (SG) (SG) (PI) (PI) (SG) (SG) (PI) (PI) (SG)
 The electronic state of the initial guess is 3-SG.
 Initial guess <Sx>= 0.0000 <Sy>= 0.0000 <Sz>= 1.0000 <S**2>= 2.0000 S= 1.0000
 Leave Link  401 at Mon Mar 28 14:25:20 2022, MaxMem=  9663676416 cpu:               4.8 elap:               0.2
 (Enter /nopt/nrel/apps/gaussian/g16C_1/g16/l502.exe)
 Keep R1 and R2 ints in memory in symmetry-blocked form, NReq=7223415.
 FoFCou: FMM=F IPFlag=           0 FMFlag=           0 FMFlg1=           0
         NFxFlg=           0 DoJE=F BraDBF=F KetDBF=F FulRan=T
         wScrn=  0.000000 ICntrl=       600 IOpCl=  0 I1Cent=           0 NGrid=           0
         NMat0=    1 NMatS0=    105 NMatT0=    0 NMatD0=    1 NMtDS0=    0 NMtDT0=    0
 Petite list used in FoFCou.
 UHF open shell SCF:
 Using DIIS extrapolation, IDIIS=  1040.
 NGot=  9663676416 LenX=  9663669932 LenY=  9663669050
 Requested convergence on RMS density matrix=1.00D-08 within 128 cycles.
 Requested convergence on MAX density matrix=1.00D-06.
 Requested convergence on             energy=1.00D-06.
 No special actions if energy rises.

 Cycle   1  Pass 1  IDiag  1:
 E= -162.218375823388    
 DIIS: error= 2.70D-02 at cycle   1 NSaved=   1.
 NSaved= 1 IEnMin= 1 EnMin= -162.218375823388     IErMin= 1 ErrMin= 2.70D-02
 ErrMax= 2.70D-02  0.00D+00 EMaxC= 1.00D-01 BMatC= 3.81D-02 BMatP= 3.81D-02
 IDIUse=3 WtCom= 7.30D-01 WtEn= 2.70D-01
 Coeff-Com:  0.100D+01
 Coeff-En:   0.100D+01
 Coeff:      0.100D+01
 Gap=     0.187 Goal=   None    Shift=    0.000
 Gap=     1.557 Goal=   None    Shift=    0.000
 GapD=    0.187 DampG=1.000 DampE=0.500 DampFc=0.5000 IDamp=-1.
 Damping current iteration by 5.00D-01
 RMSDP=1.17D-02 MaxDP=1.56D-01              OVMax= 3.55D-02

 Cycle   2  Pass 1  IDiag  1:
 E= -162.226139234438     Delta-E=       -0.007763411050 Rises=F Damp=T
 DIIS: error= 1.82D-02 at cycle   2 NSaved=   2.
 NSaved= 2 IEnMin= 2 EnMin= -162.226139234438     IErMin= 2 ErrMin= 1.82D-02
 ErrMax= 1.82D-02  0.00D+00 EMaxC= 1.00D-01 BMatC= 1.36D-02 BMatP= 3.81D-02
 IDIUse=3 WtCom= 8.18D-01 WtEn= 1.82D-01
 Coeff-Com: -0.138D+01 0.238D+01
 Coeff-En:   0.000D+00 0.100D+01
 Coeff:     -0.113D+01 0.213D+01
 Gap=     0.180 Goal=   None    Shift=    0.000
 Gap=     1.513 Goal=   None    Shift=    0.000
 RMSDP=9.69D-03 MaxDP=1.39D-01 DE=-7.76D-03 OVMax= 6.65D-03

 Cycle   3  Pass 1  IDiag  1:
 E= -162.237102134228     Delta-E=       -0.010962899791 Rises=F Damp=F
 DIIS: error= 2.81D-03 at cycle   3 NSaved=   3.
 NSaved= 3 IEnMin= 3 EnMin= -162.237102134228     IErMin= 3 ErrMin= 2.81D-03
 ErrMax= 2.81D-03  0.00D+00 EMaxC= 1.00D-01 BMatC= 1.92D-04 BMatP= 1.36D-02
 IDIUse=3 WtCom= 9.72D-01 WtEn= 2.81D-02
 Coeff-Com:  0.567D+00-0.107D+01 0.151D+01
 Coeff-En:   0.000D+00 0.000D+00 0.100D+01
 Coeff:      0.551D+00-0.104D+01 0.149D+01
 Gap=     0.180 Goal=   None    Shift=    0.000
 Gap=     1.514 Goal=   None    Shift=    0.000
 RMSDP=2.03D-03 MaxDP=2.80D-02 DE=-1.10D-02 OVMax= 2.20D-03

 Cycle   4  Pass 1  IDiag  1:
 E= -162.237274664703     Delta-E=       -0.000172530475 Rises=F Damp=F
 DIIS: error= 2.54D-04 at cycle   4 NSaved=   4.
 NSaved= 4 IEnMin= 4 EnMin= -162.237274664703     IErMin= 4 ErrMin= 2.54D-04
 ErrMax= 2.54D-04  0.00D+00 EMaxC= 1.00D-01 BMatC= 1.08D-06 BMatP= 1.92D-04
 IDIUse=3 WtCom= 9.97D-01 WtEn= 2.54D-03
 Coeff-Com: -0.994D-01 0.191D+00-0.313D+00 0.122D+01
 Coeff-En:   0.000D+00 0.000D+00 0.000D+00 0.100D+01
 Coeff:     -0.992D-01 0.190D+00-0.312D+00 0.122D+01
 Gap=     0.180 Goal=   None    Shift=    0.000
 Gap=     1.514 Goal=   None    Shift=    0.000
 RMSDP=3.77D-04 MaxDP=5.21D-03 DE=-1.73D-04 OVMax= 5.44D-05

 Cycle   5  Pass 1  IDiag  1:
 E= -162.237278470544     Delta-E=       -0.000003805841 Rises=F Damp=F
 DIIS: error= 1.08D-04 at cycle   5 NSaved=   5.
 NSaved= 5 IEnMin= 5 EnMin= -162.237278470544     IErMin= 5 ErrMin= 1.08D-04
 ErrMax= 1.08D-04  0.00D+00 EMaxC= 1.00D-01 BMatC= 1.91D-07 BMatP= 1.08D-06
 IDIUse=3 WtCom= 9.99D-01 WtEn= 1.08D-03
 Coeff-Com:  0.529D-01-0.103D+00 0.182D+00-0.109D+01 0.196D+01
 Coeff-En:   0.000D+00 0.000D+00 0.000D+00 0.000D+00 0.100D+01
 Coeff:      0.529D-01-0.103D+00 0.182D+00-0.109D+01 0.196D+01
 Gap=     0.180 Goal=   None    Shift=    0.000
 Gap=     1.514 Goal=   None    Shift=    0.000
 RMSDP=2.99D-04 MaxDP=4.13D-03 DE=-3.81D-06 OVMax= 1.58D-05

 Cycle   6  Pass 1  IDiag  1:
 E= -162.237279521923     Delta-E=       -0.000001051379 Rises=F Damp=F
 DIIS: error= 1.18D-05 at cycle   6 NSaved=   6.
 NSaved= 6 IEnMin= 6 EnMin= -162.237279521923     IErMin= 6 ErrMin= 1.18D-05
 ErrMax= 1.18D-05  0.00D+00 EMaxC= 1.00D-01 BMatC= 3.01D-09 BMatP= 1.91D-07
 IDIUse=1 WtCom= 1.00D+00 WtEn= 0.00D+00
 Coeff-Com: -0.657D-02 0.130D-01-0.254D-01 0.193D+00-0.467D+00 0.129D+01
 Coeff:     -0.657D-02 0.130D-01-0.254D-01 0.193D+00-0.467D+00 0.129D+01
 Gap=     0.180 Goal=   None    Shift=    0.000
 Gap=     1.514 Goal=   None    Shift=    0.000
 RMSDP=3.49D-05 MaxDP=4.42D-04 DE=-1.05D-06 OVMax= 5.69D-06

 Cycle   7  Pass 1  IDiag  1:
 E= -162.237279535559     Delta-E=       -0.000000013636 Rises=F Damp=F
 DIIS: error= 1.67D-06 at cycle   7 NSaved=   7.
 NSaved= 7 IEnMin= 7 EnMin= -162.237279535559     IErMin= 7 ErrMin= 1.67D-06
 ErrMax= 1.67D-06  0.00D+00 EMaxC= 1.00D-01 BMatC= 4.94D-11 BMatP= 3.01D-09
 IDIUse=1 WtCom= 1.00D+00 WtEn= 0.00D+00
 Coeff-Com:  0.159D-02-0.315D-02 0.626D-02-0.495D-01 0.129D+00-0.414D+00
 Coeff-Com:  0.133D+01
 Coeff:      0.159D-02-0.315D-02 0.626D-02-0.495D-01 0.129D+00-0.414D+00
 Coeff:      0.133D+01
 Gap=     0.180 Goal=   None    Shift=    0.000
 Gap=     1.514 Goal=   None    Shift=    0.000
 RMSDP=2.67D-06 MaxDP=2.81D-05 DE=-1.36D-08 OVMax= 5.32D-07

 Cycle   8  Pass 1  IDiag  1:
 E= -162.237279535686     Delta-E=       -0.000000000127 Rises=F Damp=F
 DIIS: error= 4.54D-07 at cycle   8 NSaved=   8.
 NSaved= 8 IEnMin= 8 EnMin= -162.237279535686     IErMin= 8 ErrMin= 4.54D-07
 ErrMax= 4.54D-07  0.00D+00 EMaxC= 1.00D-01 BMatC= 4.95D-12 BMatP= 4.94D-11
 IDIUse=1 WtCom= 1.00D+00 WtEn= 0.00D+00
 Coeff-Com: -0.434D-03 0.866D-03-0.174D-02 0.138D-01-0.391D-01 0.137D+00
 Coeff-Com: -0.717D+00 0.161D+01
 Coeff:     -0.434D-03 0.866D-03-0.174D-02 0.138D-01-0.391D-01 0.137D+00
 Coeff:     -0.717D+00 0.161D+01
 Gap=     0.180 Goal=   None    Shift=    0.000
 Gap=     1.514 Goal=   None    Shift=    0.000
 RMSDP=1.22D-06 MaxDP=1.14D-05 DE=-1.27D-10 OVMax= 1.32D-07

 Cycle   9  Pass 1  IDiag  1:
 E= -162.237279535702     Delta-E=       -0.000000000017 Rises=F Damp=F
 DIIS: error= 7.51D-08 at cycle   9 NSaved=   9.
 NSaved= 9 IEnMin= 9 EnMin= -162.237279535702     IErMin= 9 ErrMin= 7.51D-08
 ErrMax= 7.51D-08  0.00D+00 EMaxC= 1.00D-01 BMatC= 6.89D-14 BMatP= 4.95D-12
 IDIUse=1 WtCom= 1.00D+00 WtEn= 0.00D+00
 Coeff-Com:  0.583D-04-0.116D-03 0.223D-03-0.161D-02 0.479D-02-0.158D-01
 Coeff-Com:  0.991D-01-0.318D+00 0.123D+01
 Coeff:      0.583D-04-0.116D-03 0.223D-03-0.161D-02 0.479D-02-0.158D-01
 Coeff:      0.991D-01-0.318D+00 0.123D+01
 Gap=     0.180 Goal=   None    Shift=    0.000
 Gap=     1.514 Goal=   None    Shift=    0.000
 RMSDP=1.88D-07 MaxDP=2.74D-06 DE=-1.65D-11 OVMax= 4.41D-08

 Cycle  10  Pass 1  IDiag  1:
 E= -162.237279535703     Delta-E=       -0.000000000000 Rises=F Damp=F
 DIIS: error= 7.76D-09 at cycle  10 NSaved=  10.
 NSaved=10 IEnMin=10 EnMin= -162.237279535703     IErMin=10 ErrMin= 7.76D-09
 ErrMax= 7.76D-09  0.00D+00 EMaxC= 1.00D-01 BMatC= 1.06D-15 BMatP= 6.89D-14
 IDIUse=1 WtCom= 1.00D+00 WtEn= 0.00D+00
 Coeff-Com:  0.979D-06-0.187D-05 0.474D-05-0.600D-04 0.359D-04-0.108D-03
 Coeff-Com: -0.670D-02 0.419D-01-0.300D+00 0.127D+01
 Coeff:      0.979D-06-0.187D-05 0.474D-05-0.600D-04 0.359D-04-0.108D-03
 Coeff:     -0.670D-02 0.419D-01-0.300D+00 0.127D+01
 Gap=     0.180 Goal=   None    Shift=    0.000
 Gap=     1.514 Goal=   None    Shift=    0.000
 RMSDP=1.25D-08 MaxDP=1.45D-07 DE=-2.56D-13 OVMax= 1.99D-09

 Cycle  11  Pass 1  IDiag  1:
 E= -162.237279535703     Delta-E=        0.000000000000 Rises=F Damp=F
 DIIS: error= 5.94D-10 at cycle  11 NSaved=  11.
 NSaved=11 IEnMin=10 EnMin= -162.237279535703     IErMin=11 ErrMin= 5.94D-10
 ErrMax= 5.94D-10  0.00D+00 EMaxC= 1.00D-01 BMatC= 1.32D-17 BMatP= 1.06D-15
 IDIUse=1 WtCom= 1.00D+00 WtEn= 0.00D+00
 Coeff-Com:  0.179D-06-0.358D-06 0.352D-06 0.445D-05 0.130D-04-0.249D-04
 Coeff-Com:  0.151D-02-0.898D-02 0.669D-01-0.339D+00 0.128D+01
 Coeff:      0.179D-06-0.358D-06 0.352D-06 0.445D-05 0.130D-04-0.249D-04
 Coeff:      0.151D-02-0.898D-02 0.669D-01-0.339D+00 0.128D+01
 Gap=     0.180 Goal=   None    Shift=    0.000
 Gap=     1.514 Goal=   None    Shift=    0.000
 RMSDP=1.35D-09 MaxDP=1.60D-08 DE= 0.00D+00 OVMax= 8.09D-10

 SCF Done:  E(UHF) =  -162.237279536     A.U. after   11 cycles
            NFock= 11  Conv=0.13D-08     -V/T= 1.9980
 <Sx>= 0.0000 <Sy>= 0.0000 <Sz>= 1.0000 <S**2>= 2.0001 S= 1.0000
 <L.S>= 0.000000000000E+00
 KE= 1.625686290517D+02 PE=-3.985425279557D+02 EE= 6.957879842538D+01
 Annihilation of the first spin contaminant:
 S**2 before annihilation     2.0001,   after     2.0000
 Leave Link  502 at Mon Mar 28 14:25:20 2022, MaxMem=  9663676416 cpu:               3.9 elap:               0.1
 (Enter /nopt/nrel/apps/gaussian/g16C_1/g16/l801.exe)
 Windowed orbitals will be sorted by symmetry type.
 ExpMin= 2.60D-02 ExpMax= 9.99D+03 ExpMxC= 1.50D+03 IAcc=3 IRadAn=         5 AccDes= 0.00D+00
 HarFok:  IExCor=  205 AccDes= 0.00D+00 IRadAn=         5 IDoV=-2 UseB2=F ITyADJ=14
 ICtDFT= 12500011 ScaDFX=  1.000000  1.000000  1.000000  1.000000
 Largest valence mixing into a core orbital is  2.55D-03
 Largest core mixing into a valence orbital is  2.07D-03
 Range of M.O.s used for correlation:     6    14
 NBasis=    14 NAE=     7 NBE=     5 NFC=     5 NFV=     0
 NROrb=      9 NOA=     2 NOB=     0 NVA=     7 NVB=     9
 Leave Link  801 at Mon Mar 28 14:25:20 2022, MaxMem=  9663676416 cpu:               2.5 elap:               0.1
 (Enter /nopt/nrel/apps/gaussian/g16C_1/g16/l804.exe)
 Open-shell transformation, MDV=  9663676416 ITran=4 ISComp=2.
 Unit  1 TFree=         14304 TCopy=        117557.
 Semi-Direct transformation.
 ModeAB=           2 MOrb=             2 LenV=    9663552252
 LASXX=          158 LTotXX=         158 LenRXX=         158
 LTotAB=         269 MaxLAS=        1890 LenRXY=        1890
 NonZer=        2214 LenScr=      785920 LnRSAI=           0
 LnScr1=           0 LExtra=      220944 Total=      1008912
 MaxDsk= 34359738368 SrtSym=           F ITran=            4
 DoSDTr:  NPSUse= 36
 JobTyp=1 Pass  1:  I=   1 to   2.
 (rs|ai) integrals will be sorted in core.
 Complete sort for first half transformation.
 First half transformation complete.
 Complete sort for second half transformation.
 Second half transformation complete.
 Spin components of T(2) and E(2):
     alpha-alpha T2 =       0.2515272893D-04 E2=     -0.2526607634D-04
     alpha-beta  T2 =       0.0000000000D+00 E2=      0.0000000000D+00
     beta-beta   T2 =       0.0000000000D+00 E2=      0.0000000000D+00
 ANorm=    0.1000012576D+01
 E2 =    -0.2526607634D-04 EUMP2 =    -0.16223730480178D+03
 Leave Link  804 at Mon Mar 28 14:25:20 2022, MaxMem=  9663676416 cpu:               2.6 elap:               0.1
 (Enter /nopt/nrel/apps/gaussian/g16C_1/g16/l913.exe)
 CIDS:  MDV=  9663676416.
 Frozen-core window:  NFC=   5 NFV=   0.
 IFCWin=0 IBDFC=1 NFBD=     0     0 NFCmp=     0     0 NFFFC=     0     0
 Using original routines for 1st iteration.
 Using DD4UQ or CC4UQ for 2nd and later iterations.
 Keep R2 and R3 ints in memory in symmetry-blocked form, NReq=7225821.
 FoFCou: FMM=F IPFlag=           0 FMFlag=           0 FMFlg1=           0
         NFxFlg=           0 DoJE=F BraDBF=F KetDBF=F FulRan=T
         wScrn=  0.000000 ICntrl=       600 IOpCl=  0 I1Cent=           0 NGrid=           0
         NMat0=    1 NMatS0=    105 NMatT0=    0 NMatD0=    1 NMtDS0=    0 NMtDT0=    0
 Petite list used in FoFCou.
 CIDS: In Core Option IDoMem=           1.
 Coupled Cluster theory with single and double substitutions
 ===========================================================
 Iterations= 200 Convergence= 0.100D-06
 Produce multiple copies of IABC intergrals
 Iteration Nr.   1
 **********************
 DD1Dir will call FoFMem   1 times, MxPair=         2
 NAB=     0 NAA=     1 NBB=     0.
 MP4(R+Q)=  0.63551077D-09
 Maximum subspace dimension=  5
 A-vector RMS=  4.2914742D-04 Max=  1.0210138D-03 conv= 1.00D-05.
 RLE energy=       -0.0000385640
 E3=       -0.87130902D-05        EUMP3=      -0.16223731351D+03
 E4(DQ)=   -0.30142037D-05        UMP4(DQ)=   -0.16223731653D+03
 E4(SDQ)=  -0.30382187D-05        UMP4(SDQ)=  -0.16223731655D+03
 VARIATIONAL ENERGIES WITH THE FIRST-ORDER WAVEFUNCTION:
 DE(Corr)= -0.33978513E-04 E(Corr)=     -162.23731351    
 NORM(A)=   0.10000294D+01
 Iteration Nr.   2
 **********************
 DD1Dir will call FoFMem   1 times, MxPair=         2
 NAB=     0 NAA=     1 NBB=     0.
 A-vector RMS=  3.4024911D-05 Max=  5.7789119D-05 conv= 1.00D-05.
 RLE energy=       -0.0000386708
 DE(Corr)= -0.38615566E-04 E(CORR)=     -162.23731815     Delta=-4.64D-06
 NORM(A)=   0.10000296D+01
 Iteration Nr.   3
 **********************
 DD1Dir will call FoFMem   1 times, MxPair=         2
 NAB=     0 NAA=     1 NBB=     0.
 A-vector RMS=  7.6318664D-06 Max=  1.9379264D-05 conv= 1.00D-05.
 RLE energy=       -0.0000386735
 DE(Corr)= -0.38670955E-04 E(CORR)=     -162.23731821     Delta=-5.54D-08
 NORM(A)=   0.10000296D+01
 Iteration Nr.   4
 **********************
 DD1Dir will call FoFMem   1 times, MxPair=         2
 NAB=     0 NAA=     1 NBB=     0.
 A-vector RMS=  1.7048783D-06 Max=  3.9324554D-06 conv= 1.00D-05.
 RLE energy=       -0.0000386734
 DE(Corr)= -0.38673434E-04 E(CORR)=     -162.23731821     Delta=-2.48D-09
 NORM(A)=   0.10000296D+01
 CI/CC converged in    4 iterations to DelEn=-2.48D-09 Conv= 1.00D-07 ErrA1= 1.70D-06 Conv= 1.00D-05
 Wavefunction amplitudes converged. E(Corr)=     -162.23731821    
 Largest amplitude= 4.46D-03
 Discarding MO integrals.
 Leave Link  913 at Mon Mar 28 14:25:20 2022, MaxMem=  9663676416 cpu:               7.8 elap:               0.2
 (Enter /nopt/nrel/apps/gaussian/g16C_1/g16/l601.exe)
 Copying SCF densities to generalized density rwf, IOpCl= 1 IROHF=0.

 **********************************************************************

            Population analysis using the SCF Density.

 **********************************************************************

 Orbital symmetries:
 Alpha Orbitals:
       Occupied  (SG) (SG) (SG) (PI) (PI) (SG) (SG)
       Virtual   (PI) (PI) (SG) (SG) (PI) (PI) (SG)
 Beta  Orbitals:
       Occupied  (SG) (SG) (SG) (PI) (PI)
       Virtual   (SG) (PI) (PI) (SG) (SG) (PI) (PI) (SG) (SG)
 The electronic state is 3-SG.
 Alpha  occ. eigenvalues --  -40.51220  -2.84354  -1.57973  -1.55561  -1.55561
 Alpha  occ. eigenvalues --   -0.61876  -0.15628
 Alpha virt. eigenvalues --    0.02377   0.02377   0.04610   0.15405   0.18375
 Alpha virt. eigenvalues --    0.18375   0.36014
  Beta  occ. eigenvalues --  -40.50702  -2.83057  -1.55428  -1.55135  -1.55135
  Beta virt. eigenvalues --   -0.03716   0.04994   0.04994   0.06565   0.09744
  Beta virt. eigenvalues --    0.21411   0.21411   0.21715   0.52881
          Condensed to atoms (all electrons):
               1          2
     1  H    0.832921   0.049523
     2  Na   0.049523  11.068034
          Atomic-Atomic Spin Densities.
               1          2
     1  H    0.831666   0.041342
     2  Na   0.041342   1.085650
 Mulliken charges and spin densities:
               1          2
     1  H    0.117557   0.873008
     2  Na  -0.117557   1.126992
 Sum of Mulliken charges =   0.00000   2.00000
 Mulliken charges and spin densities with hydrogens summed into heavy atoms:
               1          2
     2  Na   0.000000   2.000000
 N-N= 4.157820942943D+00 E-N=-3.985425279601D+02  KE= 1.625686290517D+02
 Symmetry A1   KE= 1.390992245062D+02
 Symmetry A2   KE= 0.000000000000D+00
 Symmetry B1   KE= 1.173470227274D+01
 Symmetry B2   KE= 1.173470227274D+01
 Symmetry A1   SP= 2.000000000000D+00
 Symmetry A2   SP= 0.000000000000D+00
 Symmetry B1   SP= 1.007678887686D-15
 Symmetry B2   SP= 1.278488247139D-16

 Atomic contributions to Alpha molecular orbitals:
 Alpha occ 1 OE=-40.512 is Na2-s=1.0000
 Alpha occ 2 OE=-2.844 is Na2-s=0.9981
 Alpha occ 3 OE=-1.580 is Na2-p=0.9870
 Alpha occ 4 OE=-1.556 is Na2-p=1.0000
 Alpha occ 5 OE=-1.556 is Na2-p=1.0000
 Alpha occ 6 OE=-0.619 is H1-s=0.8542
 Alpha occ 7 OE=-0.156 is Na2-s=0.7495 Na2-p=0.2407
 Alpha vir 8 OE=0.024 is Na2-p=1.0000
 Alpha vir 9 OE=0.024 is Na2-p=1.0000
 Alpha vir 10 OE=0.046 is Na2-p=0.7316 Na2-s=0.2575
 Alpha vir 11 OE=0.154 is Na2-s=0.7293 Na2-p=0.2676
 Alpha vir 12 OE=0.184 is Na2-p=1.0000
 Alpha vir 13 OE=0.184 is Na2-p=1.0000
 Alpha vir 14 OE=0.360 is Na2-p=0.6985 Na2-s=0.1931 H1-s=0.1084

 Atomic contributions to Beta  molecular orbitals:
 Beta  occ 1 OE=-40.507 is Na2-s=1.0000
 Beta  occ 2 OE=-2.831 is Na2-s=0.9990
 Beta  occ 3 OE=-1.554 is Na2-p=0.9955
 Beta  occ 4 OE=-1.551 is Na2-p=1.0000
 Beta  occ 5 OE=-1.551 is Na2-p=1.0000
 Beta  vir 6 OE=-0.037 is Na2-s=0.5882 Na2-p=0.2134 H1-s=0.1984
 Beta  vir 7 OE=0.050 is Na2-p=1.0000
 Beta  vir 8 OE=0.050 is Na2-p=1.0000
 Beta  vir 9 OE=0.066 is Na2-p=0.7657 Na2-s=0.2319
 Beta  vir 10 OE=0.097 is Na2-s=0.6100 Na2-p=0.2366 H1-s=0.1534
 Beta  vir 11 OE=0.214 is Na2-p=1.0000
 Beta  vir 12 OE=0.214 is Na2-p=1.0000
 Beta  vir 13 OE=0.217 is Na2-s=0.4821 Na2-p=0.4794
 Beta  vir 14 OE=0.529 is H1-s=0.6026 Na2-p=0.3090
 
 Leave Link  601 at Mon Mar 28 14:25:20 2022, MaxMem=  9663676416 cpu:               2.5 elap:               0.1
 (Enter /nopt/nrel/apps/gaussian/g16C_1/g16/l9999.exe)

 Test job not archived.
 1\1\GINC-R102U34\SP\UCCSD-FC\Gen\H1Na1(3)\USER\28-Mar-2022\0\\#P C
 CSD(MaxCyc=200,SaveAmplitudes,ReadAmplitudes)/GEN sp pop=AllOrbitals i
 op(3/33=1,3/36=-1)\\test\\0,3\H,0,0.,0.,0.\Na,0,0.,0.,1.4\\Version=ES6
 4L-G16RevC.01\State=3-SG\HF=-162.2372795\MP2=-162.2373048\MP3=-162.237
 3135\MP4D=-162.2373165\MP4DQ=-162.2373165\MP4SDQ=-162.2373166\CCSD=-16
 2.2373182\S2=2.00009\S2-1=0.\S2A=2.\RMSD=1.348e-09\PG=C*V [C*(H1Na1)]\
 \@


 POCKETA-POCKETA
 BARON VON RICHTOFEN
 SLAUGHTERED THE ALLIES WITH
 HARDLY A CARE.
 KILLED EIGHTY-ONE WITH HIS
 BLOOD-COLORED TRIPLANE, THEN
 UN-AEROBATICALLY
 PLUNGED FROM THE AIR.
   -- TONY HOFFMAN
 Job cpu time:       0 days  0 hours  0 minutes 38.7 seconds.
 Elapsed time:       0 days  0 hours  0 minutes  1.4 seconds.
 File lengths (MBytes):  RWF=     13 Int=      0 D2E=      0 Chk=      1 Scr=      1
 Normal termination of Gaussian 16 at Mon Mar 28 14:25:20 2022.
