 Entering Gaussian System, Link 0=g16
 Initial command:
 /nopt/nrel/apps/gaussian/g16C_1/g16/l1.exe "/lustre/eaglefs/scratch/user/qc/tih-dissc-sto3g/tih-4-ccsd-2.8-sto3g/Gau-11223.inp" -scrdir="/lustre/eaglefs/scratch/user/qc/tih-dissc-sto3g/tih-4-ccsd-2.8-sto3g/"
 Default is to use a total of  36 processors:
                               36 via shared-memory
                                1 via Linda
 Entering Link 1 = /nopt/nrel/apps/gaussian/g16C_1/g16/l1.exe PID=     11224.
  
 Copyright (c) 1988-2019, Gaussian, Inc.  All Rights Reserved.
  
 This is part of the Gaussian(R) 16 program.  It is based on
 the Gaussian(R) 09 system (copyright 2009, Gaussian, Inc.),
 the Gaussian(R) 03 system (copyright 2003, Gaussian, Inc.),
 the Gaussian(R) 98 system (copyright 1998, Gaussian, Inc.),
 the Gaussian(R) 94 system (copyright 1995, Gaussian, Inc.),
 the Gaussian 92(TM) system (copyright 1992, Gaussian, Inc.),
 the Gaussian 90(TM) system (copyright 1990, Gaussian, Inc.),
 the Gaussian 88(TM) system (copyright 1988, Gaussian, Inc.),
 the Gaussian 86(TM) system (copyright 1986, Carnegie Mellon
 University), and the Gaussian 82(TM) system (copyright 1983,
 Carnegie Mellon University). Gaussian is a federally registered
 trademark of Gaussian, Inc.
  
 This software contains proprietary and confidential information,
 including trade secrets, belonging to Gaussian, Inc.
  
 This software is provided under written license and may be
 used, copied, transmitted, or stored only in accord with that
 written license.
  
 The following legend is applicable only to US Government
 contracts under FAR:
  
                    RESTRICTED RIGHTS LEGEND
  
 Use, reproduction and disclosure by the US Government is
 subject to restrictions as set forth in subparagraphs (a)
 and (c) of the Commercial Computer Software - Restricted
 Rights clause in FAR 52.227-19.
  
 Gaussian, Inc.
 340 Quinnipiac St., Bldg. 40, Wallingford CT 06492
  
  
 ---------------------------------------------------------------
 Warning -- This program may not be used in any manner that
 competes with the business of Gaussian, Inc. or will provide
 assistance to any competitor of Gaussian, Inc.  The licensee
 of this program is prohibited from giving any competitor of
 Gaussian, Inc. access to this program.  By using this program,
 the user acknowledges that Gaussian, Inc. is engaged in the
 business of creating and licensing software in the field of
 computational chemistry and represents and warrants to the
 licensee that it is not a competitor of Gaussian, Inc. and that
 it will not use this program in any manner prohibited above.
 ---------------------------------------------------------------
  

 Cite this work as:
 Gaussian 16, Revision C.01,
 M. J. Frisch, G. W. Trucks, H. B. Schlegel, G. E. Scuseria, 
 M. A. Robb, J. R. Cheeseman, G. Scalmani, V. Barone, 
 G. A. Petersson, H. Nakatsuji, X. Li, M. Caricato, A. V. Marenich, 
 J. Bloino, B. G. Janesko, R. Gomperts, B. Mennucci, H. P. Hratchian, 
 J. V. Ortiz, A. F. Izmaylov, J. L. Sonnenberg, D. Williams-Young, 
 F. Ding, F. Lipparini, F. Egidi, J. Goings, B. Peng, A. Petrone, 
 T. Henderson, D. Ranasinghe, V. G. Zakrzewski, J. Gao, N. Rega, 
 G. Zheng, W. Liang, M. Hada, M. Ehara, K. Toyota, R. Fukuda, 
 J. Hasegawa, M. Ishida, T. Nakajima, Y. Honda, O. Kitao, H. Nakai, 
 T. Vreven, K. Throssell, J. A. Montgomery, Jr., J. E. Peralta, 
 F. Ogliaro, M. J. Bearpark, J. J. Heyd, E. N. Brothers, K. N. Kudin, 
 V. N. Staroverov, T. A. Keith, R. Kobayashi, J. Normand, 
 K. Raghavachari, A. P. Rendell, J. C. Burant, S. S. Iyengar, 
 J. Tomasi, M. Cossi, J. M. Millam, M. Klene, C. Adamo, R. Cammi, 
 J. W. Ochterski, R. L. Martin, K. Morokuma, O. Farkas, 
 J. B. Foresman, and D. J. Fox, Gaussian, Inc., Wallingford CT, 2019.
 
 ******************************************
 Gaussian 16:  ES64L-G16RevC.01  3-Jul-2019
                25-Mar-2022 
 ******************************************
 %chk=molecule
 Default route: CacheSize=180224 MaxDisk=256GB
 --------------------------------------------------
 #P CCSD/GEN sp pop=AllOrbitals iop(3/33=1,3/36=-1)
 --------------------------------------------------
 1/4=180224,38=1,172=1/1;
 2/4=180224,12=2,17=6,18=5,40=1/2;
 3/4=180224,5=7,11=9,25=1,30=1,33=1,36=-1/1,2,3;
 4/4=180224/1;
 5/4=180224,5=2,38=5/2;
 8/4=180224,6=4,9=120000,10=1/1,4;
 9/4=180224,5=7/13;
 6/4=180224,7=2,8=2,9=2,10=2,96=-1/1;
 99/4=180224,5=1,9=1/99;
 Leave Link    1 at Fri Mar 25 14:39:11 2022, MaxMem=           0 cpu:               3.0 elap:               0.1
 (Enter /nopt/nrel/apps/gaussian/g16C_1/g16/l101.exe)
 ----
 test
 ----
 Symbolic Z-matrix:
 Charge =  0 Multiplicity = 4
 H                     0.        0.        0. 
 Ti                    0.        0.        2.8 
 
 ITRead=  0  0
 MicOpt= -1 -1
 NAtoms=      2 NQM=        2 NQMF=       0 NMMI=      0 NMMIF=      0
                NMic=       0 NMicF=      0.
                    Isotopes and Nuclear Properties:
 (Nuclear quadrupole moments (NQMom) in fm**2, nuclear magnetic moments (NMagM)
  in nuclear magnetons)

  Atom         1           2
 IAtWgt=           1          48
 AtmWgt=   1.0078250  47.9479467
 NucSpn=           1           0
 AtZEff=  -0.0000000  -0.0000000
 NQMom=    0.0000000   0.0000000
 NMagM=    2.7928460   0.0000000
 AtZNuc=   1.0000000  22.0000000
 Leave Link  101 at Fri Mar 25 14:39:11 2022, MaxMem=  9663676416 cpu:               3.2 elap:               0.1
 (Enter /nopt/nrel/apps/gaussian/g16C_1/g16/l202.exe)
                          Input orientation:                          
 ---------------------------------------------------------------------
 Center     Atomic      Atomic             Coordinates (Angstroms)
 Number     Number       Type             X           Y           Z
 ---------------------------------------------------------------------
      1          1           0        0.000000    0.000000    0.000000
      2         22           0        0.000000    0.000000    2.800000
 ---------------------------------------------------------------------
 Stoichiometry    HTi(4)
 Framework group  C*V[C*(HTi)]
 Deg. of freedom     1
 Full point group                 C*V     NOp   4
 Largest Abelian subgroup         C2V     NOp   4
 Largest concise Abelian subgroup C1      NOp   1
                         Standard orientation:                         
 ---------------------------------------------------------------------
 Center     Atomic      Atomic             Coordinates (Angstroms)
 Number     Number       Type             X           Y           Z
 ---------------------------------------------------------------------
      1          1           0        0.000000    0.000000   -2.678261
      2         22           0        0.000000    0.000000    0.121739
 ---------------------------------------------------------------------
 Rotational constants (GHZ):           0.0000000          65.3055184          65.3055184
 Leave Link  202 at Fri Mar 25 14:39:11 2022, MaxMem=  9663676416 cpu:               0.6 elap:               0.0
 (Enter /nopt/nrel/apps/gaussian/g16C_1/g16/l301.exe)
 General basis read from cards:  (5D, 7F)
                         Coordinates in L301:                         
 ---------------------------------------------------------------------
 Center     Atomic      Atomic             Coordinates (Angstroms)
 Number     Number       Type             X           Y           Z
 ---------------------------------------------------------------------
      1          1           0        0.000000    0.000000   -2.678261
      2         22           0        0.000000    0.000000    0.121739
 ---------------------------------------------------------------------
 Centers:       1
 STO-3G
 ****
 Centers:       2
 STO-3G
 ****
 FixB: optimizing general contractions.
 Ernie: Thresh=  0.10000D-02 Tol=  0.10000D-05 Strict=F.
 IA=     1 ShT= 0 ShC= 0 NL=   1 NS=   0.
 IA=     1 L=0 SC=0 ISt=    0 NBk=    0 NP=    0 IndPr=    0.
 IA=     2 ShT= 0 ShC= 0 NL=   1 NS=   0.
 IA=     2 L=0 SC=0 ISt=    0 NBk=    0 NP=    0 IndPr=    0.
 IA=     2 ShT= 1 ShC= 0 NL=   3 NS=   0.
 IA=     2 L=1 SC=0 ISt=    1 NBk=    3 NP=    9 IndPr=    0.
 DoElim1:  L=1 select primitive    1 from    2 using    1 C=-1.00D-01
 DoElim1:  L=1 select primitive    1 from    3 using    1 C=-1.00D-01
 DoElim1:  L=1 select primitive    4 from    3 using    2 C=-2.28D-01
 DoElim2:  L=1 select primitive    9 from    2 using    3 C= 1.13D+00
 DoElim2:  L=1 select primitive    9 from    1 using    3 C= 1.13D+00
 DoElim2:  L=1 select primitive    7 from    1 using    2 C= 9.17D-01
 DoElim1:  L=1 select primitive    1 from    2 using    1 C= 1.56D-01
 DoElim1:  L=1 select primitive    1 from    3 using    1 C= 1.56D-01
 DoElim1:  L=1 select primitive    4 from    3 using    2 C= 4.95D-03
 DoElim2:  L=1 select primitive    8 from    2 using    3 C= 5.72D-01
 DoElim2:  L=1 select primitive    8 from    1 using    3 C= 5.72D-01
 DoElim2:  L=1 select primitive    5 from    1 using    2 C= 5.78D-01
 Delete L=1 primitive    7 from    3 C=  0.00D+00.
 Delete L=1 primitive    5 from    3 C=  0.00D+00.
 Delete L=1 primitive    4 from    3 C=  0.00D+00.
 Delete L=1 primitive    3 from    3 C=  0.00D+00.
 Delete L=1 primitive    2 from    3 C=  0.00D+00.
 Delete L=1 primitive    1 from    3 C=  0.00D+00.
 Delete L=1 primitive    9 from    2 C=  0.00D+00.
 Delete L=1 primitive    8 from    2 C=  0.00D+00.
 Delete L=1 primitive    6 from    2 C=  0.00D+00.
 Delete L=1 primitive    3 from    2 C=  0.00D+00.
 Delete L=1 primitive    2 from    2 C=  0.00D+00.
 Delete L=1 primitive    1 from    2 C=  0.00D+00.
 Delete L=1 primitive    9 from    1 C=  0.00D+00.
 Delete L=1 primitive    8 from    1 C=  0.00D+00.
 Delete L=1 primitive    7 from    1 C=  0.00D+00.
 Delete L=1 primitive    6 from    1 C=  0.00D+00.
 Delete L=1 primitive    5 from    1 C=  0.00D+00.
 Delete L=1 primitive    4 from    1 C=  0.00D+00.
 IA=     2 L=1 SC=0 ISt=    0 NBk=    0 NP=    0 IndPr=    9.
 IA=     2 ShT= 2 ShC= 2 NL=   1 NS=   0.
 IA=     2 L=2 SC=2 ISt=    0 NBk=    0 NP=    0 IndPr=    0.
 LdAtmC:  AtmChg=     1.000000    22.000000
 AtZEff=     -1.0000000    -23.9800000
 NEqShl: 
              1            2            3            4
     1            1            1            1            1
     2            2            2            2            2
     3            3            3            3            3
     4            4            4            4            4
     5            5            5            5            5
     6            6            6            6            6
 NEqBas: 
              1            2            3            4
     1            1            1            1            1
     2            2            2            2            2
     3            3            3            3            3
     4            4           -4           -4            4
     5            5           -5            5           -5
     6            6            6            6            6
     7            7            7            7            7
     8            8           -8           -8            8
     9            9           -9            9           -9
    10           10           10           10           10
    11           11           11           11           11
    12           12          -12          -12           12
    13           13          -13           13          -13
    14           14           14           14           14
    15           15           15           15           15
    16           16           16           16           16
    17           17           17           17           17
    18           18           18          -18          -18
    19           19          -19          -19           19
    20           20          -20           20          -20
 There are    11 symmetry adapted cartesian basis functions of A1  symmetry.
   1         1   1   1   1
   2         2   2   2   2
   3         3   3   3   3
   4         6   6   6   6
   5         7   7   7   7
   6        10  10  10  10
   7        11  11  11  11
   8        14  14  14  14
   9        15  15  15  15
  10        16  16  16  16
  11        17  17  17  17
 There are     1 symmetry adapted cartesian basis functions of A2  symmetry.
  12        18  18  18  18
 There are     4 symmetry adapted cartesian basis functions of B1  symmetry.
  13         4   4   4   4
  14         8   8   8   8
  15        12  12  12  12
  16        19  19  19  19
 There are     4 symmetry adapted cartesian basis functions of B2  symmetry.
  17         5   5   5   5
  18         9   9   9   9
  19        13  13  13  13
  20        20  20  20  20
 Order= 1 2 4 3
 Reordered character table:
              1            2            3            4            5
     1            1            1            1            1            1
     2            2            1            1           -1           -1
     3            4            1           -1           -1            1
     4            3            1           -1            1           -1
 NEqShl: 
              1            2            3            4
     1            1            1            1            1
     2            2            2            2            2
     3            3            3            3            3
     4            4            4            4            4
     5            5            5            5            5
     6            6            6            6            6
 NEqBas: 
              1            2            3            4
     1            1            1            1            1
     2            2            2            2            2
     3            3            3            3            3
     4            4           -4           -4            4
     5            5           -5            5           -5
     6            6            6            6            6
     7            7            7            7            7
     8            8           -8           -8            8
     9            9           -9            9           -9
    10           10           10           10           10
    11           11           11           11           11
    12           12          -12          -12           12
    13           13          -13           13          -13
    14           14           14           14           14
    15           15           15           15           15
    16           16          -16          -16           16
    17           17          -17           17          -17
    18           18           18           18           18
    19           19           19          -19          -19
 There are    10 symmetry adapted basis functions of A1  symmetry.
   1         1   1   1   1
   2         2   2   2   2
   3         3   3   3   3
   4         6   6   6   6
   5         7   7   7   7
   6        10  10  10  10
   7        11  11  11  11
   8        14  14  14  14
   9        15  15  15  15
  10        18  18  18  18
 There are     1 symmetry adapted basis functions of A2  symmetry.
  11        19  19  19  19
 There are     4 symmetry adapted basis functions of B1  symmetry.
  12         4   4   4   4
  13         8   8   8   8
  14        12  12  12  12
  15        16  16  16  16
 There are     4 symmetry adapted basis functions of B2  symmetry.
  16         5   5   5   5
  17         9   9   9   9
  18        13  13  13  13
  19        17  17  17  17
 Order= 1 2 4 3
 Reordered character table:
              1            2            3            4            5
     1            1            1            1            1            1
     2            2            1            1           -1           -1
     3            4            1           -1           -1            1
     4            3            1           -1            1           -1
    19 basis functions,    60 primitive gaussians,    20 cartesian basis functions
    13 alpha electrons       10 beta electrons
       nuclear repulsion energy         4.1578209429 Hartrees.
 IS=     1 IAt=     1 ISR=     1 T=0 IP=      1 IndIP=      1 IndIPD=      0 C=  2.769344D-01  0.000000D+00                             NZ=T
 IS=     1 IAt=     1 ISR=     1 T=0 IP=      2 IndIP=      2 IndIPD=      1 C=  2.678389D-01  0.000000D+00                             NZ=T
 IS=     1 IAt=     1 ISR=     1 T=0 IP=      3 IndIP=      3 IndIPD=      2 C=  8.347367D-02  0.000000D+00                             NZ=T
 IS=     2 IAt=     2 ISR=     1 T=0 IP=      1 IndIP=      4 IndIPD=      0 C=  2.004993D+01  0.000000D+00                             NZ=T
 IS=     2 IAt=     2 ISR=     1 T=0 IP=      2 IndIP=      5 IndIPD=      1 C=  1.939142D+01  0.000000D+00                             NZ=T
 IS=     2 IAt=     2 ISR=     1 T=0 IP=      3 IndIP=      6 IndIPD=      2 C=  6.043458D+00  0.000000D+00                             NZ=T
 IS=     3 IAt=     2 ISR=     2 T=1 IP=      1 IndIP=      7 IndIPD=      0 C= -1.820341D+00  4.925761D+01                             NZ=T
 IS=     3 IAt=     2 ISR=     2 T=1 IP=      2 IndIP=      8 IndIPD=      1 C=  2.434854D+00  3.097451D+01                             NZ=T
 IS=     3 IAt=     2 ISR=     2 T=1 IP=      3 IndIP=      9 IndIPD=      2 C=  1.837620D+00  4.906883D+00                             NZ=T
 IS=     4 IAt=     2 ISR=     3 T=1 IP=      1 IndIP=     10 IndIPD=      0 C= -5.746721D-01  5.803915D-02                             NZ=T
 IS=     4 IAt=     2 ISR=     3 T=1 IP=      2 IndIP=     11 IndIPD=      1 C=  2.252897D-01  1.535208D+00                             NZ=T
 IS=     4 IAt=     2 ISR=     3 T=1 IP=      3 IndIP=     12 IndIPD=      2 C=  4.647390D-01  3.915940D-01                             NZ=T
 IS=     5 IAt=     2 ISR=     4 T=1 IP=      1 IndIP=     13 IndIPD=      0 C= -1.706594D-01 -1.133666D-01                             NZ=T
 IS=     5 IAt=     2 ISR=     4 T=1 IP=      2 IndIP=     14 IndIPD=      1 C=  5.129963D-03  1.533382D-01                             NZ=T
 IS=     5 IAt=     2 ISR=     4 T=1 IP=      3 IndIP=     15 IndIPD=      2 C=  1.603140D-01  5.311239D-02                             NZ=T
 IS=     6 IAt=     2 ISR=     5 T=2 IP=      1 IndIP=     16 IndIPD=      1 C=  0.000000D+00  0.000000D+00  8.652016D-01  0.000000D+00 NZ=T
 IS=     6 IAt=     2 ISR=     5 T=2 IP=      2 IndIP=     17 IndIPD=      2 C=  0.000000D+00  0.000000D+00  3.231180D-01  0.000000D+00 NZ=T
 IS=     6 IAt=     2 ISR=     5 T=2 IP=      3 IndIP=     18 IndIPD=      3 C=  0.000000D+00  0.000000D+00  2.668013D-02  0.000000D+00 NZ=T
 IExCor=    0 DFT=F Ex=HF Corr=None ExCW=0 ScaHFX=  1.000000
 ScaDFX=  1.000000  1.000000  1.000000  1.000000 ScalE2=  1.000000  1.000000
 IRadAn=      5 IRanWt=     -1 IRanGd=            0 ICorTp=0 IEmpDi=  4
 NAtoms=    2 NActive=    2 NUniq=    2 SFac= 1.00D+00 NAtFMM=   60 NAOKFM=F Big=F
 Integral buffers will be    131072 words long.
 Raffenetti 2 integral format.
 Two-electron integral symmetry is turned on.
 Leave Link  301 at Fri Mar 25 14:39:11 2022, MaxMem=  9663676416 cpu:               2.0 elap:               0.1
 (Enter /nopt/nrel/apps/gaussian/g16C_1/g16/l302.exe)
 NPDir=0 NMtPBC=     1 NCelOv=     1 NCel=       1 NClECP=     1 NCelD=      1
         NCelK=      1 NCelE2=     1 NClLst=     1 CellRange=     0.0.
 One-electron integrals computed using PRISM.
 One-electron integral symmetry used in STVInt
 Entering OneElI...
 Calculate overlap and kinetic energy integrals
    NBasis =  19  MinDer = 0  MaxDer = 0
 Requested accuracy = 0.1000D-12
 Symmetry will be used
 PrmmSu-InSpLW:  IPartL=    0 NPrtUS=   36 NPrtUL=    1 DoSpLW=F IThBeg=    0 IThEnd=   35 NThAct=   36.
 PrSmSu:  IncTry=   512 NBBP=             21 NTPThr=   100 NPartT=   36 Incr=           1 LDynOK=F GPUOK=F.
 PrsmSu:  NPrtUS=  36 ThrOK=T IAlg=1 LenDen=           0 ISkipM=0 DoSpLW=F IThBeg=    0 IThEnd=   35.
 Prism:   IPart=     0 DynPar=F LinDyn=F Incr=           1.
 PRISM was handed   268432696 working-precision words and    21 shell-pairs
 PRISM was handed   268432696 working-precision words and    21 shell-pairs
 PRISM was handed   268432696 working-precision words and    21 shell-pairs
 PRISM was handed   268432696 working-precision words and    21 shell-pairs
 PRISM was handed   268432696 working-precision words and    21 shell-pairs
 PRISM was handed   268432696 working-precision words and    21 shell-pairs
 PRISM was handed   268432696 working-precision words and    21 shell-pairs
 PRISM was handed   268432696 working-precision words and    21 shell-pairs
 PRISM was handed   268432696 working-precision words and    21 shell-pairs
 PRISM was handed   268432696 working-precision words and    21 shell-pairs
 PRISM was handed   268432696 working-precision words and    21 shell-pairs
 PRISM was handed   268432696 working-precision words and    21 shell-pairs
 IPart= 17 NShTot=           0 NBatch=           0 AvBLen=         0.0
 IPart=  8 NShTot=           0 NBatch=           0 AvBLen=         0.0
 IPart=  6 NShTot=           0 NBatch=           0 AvBLen=         0.0
 IPart= 21 NShTot=           0 NBatch=           0 AvBLen=         0.0
 IPart= 29 NShTot=           0 NBatch=           0 AvBLen=         0.0
 IPart= 16 NShTot=           0 NBatch=           0 AvBLen=         0.0
 PRISM was handed   268432696 working-precision words and    21 shell-pairs
 PRISM was handed   268432696 working-precision words and    21 shell-pairs
 PRISM was handed   268432696 working-precision words and    21 shell-pairs
 PRISM was handed   268432696 working-precision words and    21 shell-pairs
 PRISM was handed   268432696 working-precision words and    21 shell-pairs
 PRISM was handed   268432696 working-precision words and    21 shell-pairs
 PRISM was handed   268432696 working-precision words and    21 shell-pairs
 IPart= 12 NShTot=           0 NBatch=           0 AvBLen=         0.0
 IPart= 13 NShTot=           0 NBatch=           0 AvBLen=         0.0
 PRISM was handed   268432696 working-precision words and    21 shell-pairs
 PRISM was handed   268432696 working-precision words and    21 shell-pairs
 IPart=  4 NShTot=           1 NBatch=           1 AvBLen=         1.0
 IPart=  5 NShTot=           1 NBatch=           1 AvBLen=         1.0
 IPart=  1 NShTot=           5 NBatch=           5 AvBLen=         1.0
 IPart= 27 NShTot=           0 NBatch=           0 AvBLen=         0.0
 IPart= 14 NShTot=           0 NBatch=           0 AvBLen=         0.0
 IPart= 23 NShTot=           0 NBatch=           0 AvBLen=         0.0
 IPart= 32 NShTot=           0 NBatch=           0 AvBLen=         0.0
 IPart= 31 NShTot=           0 NBatch=           0 AvBLen=         0.0
 IPart= 33 NShTot=           0 NBatch=           0 AvBLen=         0.0
 IPart= 25 NShTot=           0 NBatch=           0 AvBLen=         0.0
 PRISM was handed   268432696 working-precision words and    21 shell-pairs
 PRISM was handed   268432696 working-precision words and    21 shell-pairs
 IPart= 22 NShTot=           0 NBatch=           0 AvBLen=         0.0
 IPart=  9 NShTot=           0 NBatch=           0 AvBLen=         0.0
 PRISM was handed   268432696 working-precision words and    21 shell-pairs
 PRISM was handed   268432696 working-precision words and    21 shell-pairs
 PRISM was handed   268432696 working-precision words and    21 shell-pairs
 PRISM was handed   268432696 working-precision words and    21 shell-pairs
 PRISM was handed   268432696 working-precision words and    21 shell-pairs
 PRISM was handed   268432696 working-precision words and    21 shell-pairs
 PRISM was handed   268432696 working-precision words and    21 shell-pairs
 PRISM was handed   268432696 working-precision words and    21 shell-pairs
 IPart= 24 NShTot=           0 NBatch=           0 AvBLen=         0.0
 PRISM was handed   268432696 working-precision words and    21 shell-pairs
 PRISM was handed   268432696 working-precision words and    21 shell-pairs
 IPart=  3 NShTot=           2 NBatch=           2 AvBLen=         1.0
 IPart= 19 NShTot=           0 NBatch=           0 AvBLen=         0.0
 PRISM was handed   268432696 working-precision words and    21 shell-pairs
 PRISM was handed   268432696 working-precision words and    21 shell-pairs
 PRISM was handed   268432696 working-precision words and    21 shell-pairs
 IPart= 35 NShTot=           0 NBatch=           0 AvBLen=         0.0
 IPart= 30 NShTot=           0 NBatch=           0 AvBLen=         0.0
 IPart= 15 NShTot=           0 NBatch=           0 AvBLen=         0.0
 IPart= 28 NShTot=           0 NBatch=           0 AvBLen=         0.0
 IPart=  0 NShTot=           9 NBatch=           9 AvBLen=         1.0
 IPart= 26 NShTot=           0 NBatch=           0 AvBLen=         0.0
 IPart=  2 NShTot=           3 NBatch=           3 AvBLen=         1.0
 IPart= 10 NShTot=           0 NBatch=           0 AvBLen=         0.0
 IPart= 18 NShTot=           0 NBatch=           0 AvBLen=         0.0
 IPart= 11 NShTot=           0 NBatch=           0 AvBLen=         0.0
 IPart= 20 NShTot=           0 NBatch=           0 AvBLen=         0.0
 IPart=  7 NShTot=           0 NBatch=           0 AvBLen=         0.0
 IPart= 34 NShTot=           0 NBatch=           0 AvBLen=         0.0
 PrSmSu:  NxtVal=             37.
 *** Overlap *** 
                1             2             3             4             5 
      1  0.100000D+01
      2  0.102525D-03  0.100000D+01
      3  0.740939D-03  0.371775D+00  0.100000D+01
      4  0.000000D+00  0.000000D+00  0.000000D+00  0.100000D+01
      5  0.000000D+00  0.000000D+00  0.000000D+00  0.000000D+00  0.100000D+01
      6 -0.343675D-03  0.000000D+00  0.000000D+00  0.000000D+00  0.000000D+00
      7  0.761339D-02  0.223608D-01  0.300384D+00  0.000000D+00  0.000000D+00
      8  0.000000D+00  0.000000D+00  0.000000D+00  0.313309D+00  0.000000D+00
      9  0.000000D+00  0.000000D+00  0.000000D+00  0.000000D+00  0.313309D+00
     10 -0.884747D-02  0.000000D+00  0.000000D+00  0.000000D+00  0.000000D+00
     11  0.956521D-01 -0.412730D-03  0.136941D-01  0.000000D+00  0.000000D+00
     12  0.000000D+00  0.000000D+00  0.000000D+00  0.250808D-01  0.000000D+00
     13  0.000000D+00  0.000000D+00  0.000000D+00  0.000000D+00  0.250808D-01
     14 -0.146435D+00  0.000000D+00  0.000000D+00  0.000000D+00  0.000000D+00
     15  0.585527D-01  0.000000D+00  0.000000D+00  0.000000D+00  0.000000D+00
     16  0.000000D+00  0.000000D+00  0.000000D+00  0.000000D+00  0.000000D+00
     17  0.000000D+00  0.000000D+00  0.000000D+00  0.000000D+00  0.000000D+00
     18  0.000000D+00  0.000000D+00  0.000000D+00  0.000000D+00  0.000000D+00
     19  0.000000D+00  0.000000D+00  0.000000D+00  0.000000D+00  0.000000D+00
                6             7             8             9            10 
      6  0.100000D+01
      7  0.000000D+00  0.100000D+01
      8  0.000000D+00  0.000000D+00  0.100000D+01
      9  0.000000D+00  0.000000D+00  0.000000D+00  0.100000D+01
     10  0.313309D+00  0.000000D+00  0.000000D+00  0.000000D+00  0.100000D+01
     11  0.000000D+00  0.395149D+00  0.000000D+00  0.000000D+00  0.000000D+00
     12  0.000000D+00  0.000000D+00  0.407435D+00  0.000000D+00  0.000000D+00
     13  0.000000D+00  0.000000D+00  0.000000D+00  0.407435D+00  0.000000D+00
     14  0.250808D-01  0.000000D+00  0.000000D+00  0.000000D+00  0.407435D+00
     15  0.000000D+00  0.000000D+00  0.000000D+00  0.000000D+00  0.000000D+00
     16  0.000000D+00  0.000000D+00  0.000000D+00  0.000000D+00  0.000000D+00
     17  0.000000D+00  0.000000D+00  0.000000D+00  0.000000D+00  0.000000D+00
     18  0.000000D+00  0.000000D+00  0.000000D+00  0.000000D+00  0.000000D+00
     19  0.000000D+00  0.000000D+00  0.000000D+00  0.000000D+00  0.000000D+00
               11            12            13            14            15 
     11  0.100000D+01
     12  0.000000D+00  0.100000D+01
     13  0.000000D+00  0.000000D+00  0.100000D+01
     14  0.000000D+00  0.000000D+00  0.000000D+00  0.100000D+01
     15  0.000000D+00  0.000000D+00  0.000000D+00  0.000000D+00  0.100000D+01
     16  0.000000D+00  0.000000D+00  0.000000D+00  0.000000D+00  0.000000D+00
     17  0.000000D+00  0.000000D+00  0.000000D+00  0.000000D+00  0.000000D+00
     18  0.000000D+00  0.000000D+00  0.000000D+00  0.000000D+00  0.000000D+00
     19  0.000000D+00  0.000000D+00  0.000000D+00  0.000000D+00  0.000000D+00
               16            17            18            19 
     16  0.100000D+01
     17  0.000000D+00  0.100000D+01
     18  0.000000D+00  0.000000D+00  0.100000D+01
     19  0.000000D+00  0.000000D+00  0.000000D+00  0.100000D+01
 *** Kinetic Energy *** 
                1             2             3             4             5 
      1  0.760032D+00
      2 -0.111080D-03  0.229340D+03
      3 -0.757926D-03  0.137973D+01  0.120824D+02
      4  0.000000D+00  0.000000D+00  0.000000D+00  0.378073D+02
      5  0.000000D+00  0.000000D+00  0.000000D+00  0.000000D+00  0.378073D+02
      6  0.240530D-03  0.000000D+00  0.000000D+00  0.000000D+00  0.000000D+00
      7 -0.490013D-02 -0.798994D+00 -0.840664D+00  0.000000D+00  0.000000D+00
      8  0.000000D+00  0.000000D+00  0.000000D+00  0.187471D+01  0.000000D+00
      9  0.000000D+00  0.000000D+00  0.000000D+00  0.000000D+00  0.187471D+01
     10  0.396312D-02  0.000000D+00  0.000000D+00  0.000000D+00  0.000000D+00
     11 -0.946059D-02 -0.407071D-01 -0.207745D+00  0.000000D+00  0.000000D+00
     12  0.000000D+00  0.000000D+00  0.000000D+00 -0.209473D-01  0.000000D+00
     13  0.000000D+00  0.000000D+00  0.000000D+00  0.000000D+00 -0.209473D-01
     14  0.394237D-02  0.000000D+00  0.000000D+00  0.000000D+00  0.000000D+00
     15 -0.208538D-02  0.000000D+00  0.000000D+00  0.000000D+00  0.000000D+00
     16  0.000000D+00  0.000000D+00  0.000000D+00  0.000000D+00  0.000000D+00
     17  0.000000D+00  0.000000D+00  0.000000D+00  0.000000D+00  0.000000D+00
     18  0.000000D+00  0.000000D+00  0.000000D+00  0.000000D+00  0.000000D+00
     19  0.000000D+00  0.000000D+00  0.000000D+00  0.000000D+00  0.000000D+00
                6             7             8             9            10 
      6  0.378073D+02
      7  0.000000D+00  0.116813D+01
      8  0.000000D+00  0.000000D+00  0.275070D+01
      9  0.000000D+00  0.000000D+00  0.000000D+00  0.275070D+01
     10  0.187471D+01  0.000000D+00  0.000000D+00  0.000000D+00  0.275070D+01
     11  0.000000D+00 -0.927537D-01  0.000000D+00  0.000000D+00  0.000000D+00
     12  0.000000D+00  0.000000D+00  0.199329D+00  0.000000D+00  0.000000D+00
     13  0.000000D+00  0.000000D+00  0.000000D+00  0.199329D+00  0.000000D+00
     14 -0.209473D-01  0.000000D+00  0.000000D+00  0.000000D+00  0.199329D+00
     15  0.000000D+00  0.000000D+00  0.000000D+00  0.000000D+00  0.000000D+00
     16  0.000000D+00  0.000000D+00  0.000000D+00  0.000000D+00  0.000000D+00
     17  0.000000D+00  0.000000D+00  0.000000D+00  0.000000D+00  0.000000D+00
     18  0.000000D+00  0.000000D+00  0.000000D+00  0.000000D+00  0.000000D+00
     19  0.000000D+00  0.000000D+00  0.000000D+00  0.000000D+00  0.000000D+00
               11            12            13            14            15 
     11  0.207443D+00
     12  0.000000D+00  0.409500D+00
     13  0.000000D+00  0.000000D+00  0.409500D+00
     14  0.000000D+00  0.000000D+00  0.000000D+00  0.409500D+00
     15  0.000000D+00  0.000000D+00  0.000000D+00  0.000000D+00  0.180044D+01
     16  0.000000D+00  0.000000D+00  0.000000D+00  0.000000D+00  0.000000D+00
     17  0.000000D+00  0.000000D+00  0.000000D+00  0.000000D+00  0.000000D+00
     18  0.000000D+00  0.000000D+00  0.000000D+00  0.000000D+00  0.000000D+00
     19  0.000000D+00  0.000000D+00  0.000000D+00  0.000000D+00  0.000000D+00
               16            17            18            19 
     16  0.180044D+01
     17  0.000000D+00  0.180044D+01
     18  0.000000D+00  0.000000D+00  0.180044D+01
     19  0.000000D+00  0.000000D+00  0.000000D+00  0.180044D+01
 Entering OneElI...
 Calculate potential energy integrals
    NBasis =  19  MinDer = 0  MaxDer = 0
 Requested accuracy = 0.1000D-12
 Symmetry will be used
 PrmmSu-InSpLW:  IPartL=    0 NPrtUS=   36 NPrtUL=    1 DoSpLW=F IThBeg=    0 IThEnd=   35 NThAct=   36.
 PrSmSu:  IncTry=   512 NBBP=             42 NTPThr=   100 NPartT=   36 Incr=           1 LDynOK=F GPUOK=F.
 PrsmSu:  NPrtUS=  36 ThrOK=T IAlg=1 LenDen=           0 ISkipM=0 DoSpLW=F IThBeg=    0 IThEnd=   35.
 PRISM was handed   268432888 working-precision words and    21 shell-pairs
 PRISM was handed   268432888 working-precision words and    21 shell-pairs
 Prism:   IPart=     0 DynPar=F LinDyn=F Incr=           1.
 PRISM was handed   268432888 working-precision words and    21 shell-pairs
 PRISM was handed   268432888 working-precision words and    21 shell-pairs
 PRISM was handed   268432888 working-precision words and    21 shell-pairs
 PRISM was handed   268432888 working-precision words and    21 shell-pairs
 PRISM was handed   268432888 working-precision words and    21 shell-pairs
 PRISM was handed   268432888 working-precision words and    21 shell-pairs
 PRISM was handed   268432888 working-precision words and    21 shell-pairs
 PRISM was handed   268432888 working-precision words and    21 shell-pairs
 PRISM was handed   268432888 working-precision words and    21 shell-pairs
 PRISM was handed   268432888 working-precision words and    21 shell-pairs
 PRISM was handed   268432888 working-precision words and    21 shell-pairs
 PRISM was handed   268432888 working-precision words and    21 shell-pairs
 PRISM was handed   268432888 working-precision words and    21 shell-pairs
 PRISM was handed   268432888 working-precision words and    21 shell-pairs
 PRISM was handed   268432888 working-precision words and    21 shell-pairs
 PRISM was handed   268432888 working-precision words and    21 shell-pairs
 PRISM was handed   268432888 working-precision words and    21 shell-pairs
 PRISM was handed   268432888 working-precision words and    21 shell-pairs
 PRISM was handed   268432888 working-precision words and    21 shell-pairs
 PRISM was handed   268432888 working-precision words and    21 shell-pairs
 PRISM was handed   268432888 working-precision words and    21 shell-pairs
 PRISM was handed   268432888 working-precision words and    21 shell-pairs
 PRISM was handed   268432888 working-precision words and    21 shell-pairs
 PRISM was handed   268432888 working-precision words and    21 shell-pairs
 PRISM was handed   268432888 working-precision words and    21 shell-pairs
 PRISM was handed   268432888 working-precision words and    21 shell-pairs
 PRISM was handed   268432888 working-precision words and    21 shell-pairs
 PRISM was handed   268432888 working-precision words and    21 shell-pairs
 PRISM was handed   268432888 working-precision words and    21 shell-pairs
 PRISM was handed   268432888 working-precision words and    21 shell-pairs
 PRISM was handed   268432888 working-precision words and    21 shell-pairs
 PRISM was handed   268432888 working-precision words and    21 shell-pairs
 PRISM was handed   268432888 working-precision words and    21 shell-pairs
 PRISM was handed   268432888 working-precision words and    21 shell-pairs
 IPart= 19 NShTot=           0 NBatch=           0 AvBLen=         0.0
 IPart= 29 NShTot=           0 NBatch=           0 AvBLen=         0.0
 IPart=  6 NShTot=           0 NBatch=           0 AvBLen=         0.0
 IPart= 10 NShTot=           0 NBatch=           0 AvBLen=         0.0
 IPart= 18 NShTot=           0 NBatch=           0 AvBLen=         0.0
 IPart= 21 NShTot=           0 NBatch=           0 AvBLen=         0.0
 IPart= 23 NShTot=           0 NBatch=           0 AvBLen=         0.0
 IPart= 22 NShTot=           0 NBatch=           0 AvBLen=         0.0
 IPart= 32 NShTot=           0 NBatch=           0 AvBLen=         0.0
 IPart= 24 NShTot=           0 NBatch=           0 AvBLen=         0.0
 IPart=  7 NShTot=           0 NBatch=           0 AvBLen=         0.0
 IPart= 27 NShTot=           0 NBatch=           0 AvBLen=         0.0
 IPart= 26 NShTot=           0 NBatch=           0 AvBLen=         0.0
 IPart= 16 NShTot=           0 NBatch=           0 AvBLen=         0.0
 IPart= 14 NShTot=           0 NBatch=           0 AvBLen=         0.0
 IPart= 34 NShTot=           0 NBatch=           0 AvBLen=         0.0
 IPart=  9 NShTot=           0 NBatch=           0 AvBLen=         0.0
 IPart= 35 NShTot=           0 NBatch=           0 AvBLen=         0.0
 IPart= 12 NShTot=           0 NBatch=           0 AvBLen=         0.0
 IPart= 17 NShTot=           0 NBatch=           0 AvBLen=         0.0
 IPart= 25 NShTot=           0 NBatch=           0 AvBLen=         0.0
 IPart= 30 NShTot=           0 NBatch=           0 AvBLen=         0.0
 IPart= 15 NShTot=           0 NBatch=           0 AvBLen=         0.0
 IPart= 11 NShTot=           0 NBatch=           0 AvBLen=         0.0
 IPart= 33 NShTot=           0 NBatch=           0 AvBLen=         0.0
 IPart= 31 NShTot=           0 NBatch=           0 AvBLen=         0.0
 IPart= 13 NShTot=           0 NBatch=           0 AvBLen=         0.0
 IPart= 20 NShTot=           0 NBatch=           0 AvBLen=         0.0
 IPart= 28 NShTot=           0 NBatch=           0 AvBLen=         0.0
 IPart=  8 NShTot=           0 NBatch=           0 AvBLen=         0.0
 IPart=  1 NShTot=          10 NBatch=           5 AvBLen=         2.0
 IPart=  4 NShTot=           2 NBatch=           1 AvBLen=         2.0
 IPart=  2 NShTot=           6 NBatch=           3 AvBLen=         2.0
 IPart=  5 NShTot=           2 NBatch=           1 AvBLen=         2.0
 IPart=  3 NShTot=           4 NBatch=           2 AvBLen=         2.0
 IPart=  0 NShTot=          18 NBatch=           9 AvBLen=         2.0
 PrSmSu:  NxtVal=             37.
 ***** Potential Energy ***** 
                1             2             3             4             5 
      1  0.538442D+01
      2  0.247348D-01  0.468953D+03
      3  0.472923D-01  0.902162D+02  0.964411D+02
      4  0.000000D+00  0.000000D+00  0.000000D+00  0.956704D+02
      5  0.000000D+00  0.000000D+00  0.000000D+00  0.000000D+00  0.956704D+02
      6 -0.165807D-01 -0.973095D-03 -0.592277D-02  0.000000D+00  0.000000D+00
      7  0.127178D+00  0.472432D+01  0.170184D+02  0.000000D+00  0.000000D+00
      8  0.000000D+00  0.000000D+00  0.000000D+00  0.174453D+02  0.000000D+00
      9  0.000000D+00  0.000000D+00  0.000000D+00  0.000000D+00  0.174453D+02
     10 -0.127541D+00 -0.675857D-04 -0.296321D-02  0.000000D+00  0.000000D+00
     11  0.638614D+00 -0.133746D+00  0.483996D+00  0.000000D+00  0.000000D+00
     12  0.000000D+00  0.000000D+00  0.000000D+00  0.120308D+01  0.000000D+00
     13  0.000000D+00  0.000000D+00  0.000000D+00  0.000000D+00  0.120308D+01
     14 -0.948996D+00 -0.344715D-05 -0.262224D-03  0.000000D+00  0.000000D+00
     15  0.427264D+00  0.000000D+00  0.760519D-04  0.000000D+00  0.000000D+00
     16  0.000000D+00  0.000000D+00  0.000000D+00 -0.706309D-03  0.000000D+00
     17  0.000000D+00  0.000000D+00  0.000000D+00  0.000000D+00 -0.706309D-03
     18  0.000000D+00  0.000000D+00  0.000000D+00  0.000000D+00  0.000000D+00
     19  0.000000D+00  0.000000D+00  0.000000D+00  0.000000D+00  0.000000D+00
                6             7             8             9            10 
      6  0.956708D+02
      7 -0.309470D-02  0.254229D+02
      8  0.000000D+00  0.000000D+00  0.254652D+02
      9  0.000000D+00  0.000000D+00  0.000000D+00  0.254652D+02
     10  0.174456D+02 -0.209677D-01  0.000000D+00  0.000000D+00  0.254700D+02
     11 -0.208887D-03  0.651643D+01  0.000000D+00  0.000000D+00 -0.129229D-01
     12  0.000000D+00  0.000000D+00  0.683409D+01  0.000000D+00  0.000000D+00
     13  0.000000D+00  0.000000D+00  0.000000D+00  0.683409D+01  0.000000D+00
     14  0.120312D+01 -0.123972D-01  0.000000D+00  0.000000D+00  0.683848D+01
     15 -0.830120D-03  0.422701D-02  0.000000D+00  0.000000D+00 -0.188671D-01
     16  0.000000D+00  0.000000D+00 -0.148584D-01  0.000000D+00  0.000000D+00
     17  0.000000D+00  0.000000D+00  0.000000D+00 -0.148584D-01  0.000000D+00
     18  0.000000D+00  0.000000D+00  0.000000D+00  0.000000D+00  0.000000D+00
     19  0.000000D+00  0.000000D+00  0.000000D+00  0.000000D+00  0.000000D+00
               11            12            13            14            15 
     11  0.954422D+01
     12  0.000000D+00  0.953394D+01
     13  0.000000D+00  0.000000D+00  0.953394D+01
     14 -0.544195D-01  0.000000D+00  0.000000D+00  0.956519D+01
     15  0.146754D-01  0.000000D+00  0.000000D+00 -0.415543D-01  0.140958D+02
     16  0.000000D+00 -0.277386D-01  0.000000D+00  0.000000D+00  0.000000D+00
     17  0.000000D+00  0.000000D+00 -0.277386D-01  0.000000D+00  0.000000D+00
     18  0.000000D+00  0.000000D+00  0.000000D+00  0.000000D+00  0.000000D+00
     19  0.000000D+00  0.000000D+00  0.000000D+00  0.000000D+00  0.000000D+00
               16            17            18            19 
     16  0.140892D+02
     17  0.000000D+00  0.140892D+02
     18  0.000000D+00  0.000000D+00  0.140794D+02
     19  0.000000D+00  0.000000D+00  0.000000D+00  0.140794D+02
 ****** Core Hamiltonian ****** 
                1             2             3             4             5 
      1 -0.462439D+01
      2 -0.248459D-01 -0.239613D+03
      3 -0.480502D-01 -0.888364D+02 -0.843586D+02
      4  0.000000D+00  0.000000D+00  0.000000D+00 -0.578631D+02
      5  0.000000D+00  0.000000D+00  0.000000D+00  0.000000D+00 -0.578631D+02
      6  0.168212D-01  0.973095D-03  0.592277D-02  0.000000D+00  0.000000D+00
      7 -0.132078D+00 -0.552331D+01 -0.178590D+02  0.000000D+00  0.000000D+00
      8  0.000000D+00  0.000000D+00  0.000000D+00 -0.155706D+02  0.000000D+00
      9  0.000000D+00  0.000000D+00  0.000000D+00  0.000000D+00 -0.155706D+02
     10  0.131504D+00  0.675857D-04  0.296321D-02  0.000000D+00  0.000000D+00
     11 -0.648075D+00  0.930389D-01 -0.691742D+00  0.000000D+00  0.000000D+00
     12  0.000000D+00  0.000000D+00  0.000000D+00 -0.122403D+01  0.000000D+00
     13  0.000000D+00  0.000000D+00  0.000000D+00  0.000000D+00 -0.122403D+01
     14  0.952939D+00  0.344715D-05  0.262224D-03  0.000000D+00  0.000000D+00
     15 -0.429349D+00  0.000000D+00 -0.760519D-04  0.000000D+00  0.000000D+00
     16  0.000000D+00  0.000000D+00  0.000000D+00  0.706309D-03  0.000000D+00
     17  0.000000D+00  0.000000D+00  0.000000D+00  0.000000D+00  0.706309D-03
     18  0.000000D+00  0.000000D+00  0.000000D+00  0.000000D+00  0.000000D+00
     19  0.000000D+00  0.000000D+00  0.000000D+00  0.000000D+00  0.000000D+00
                6             7             8             9            10 
      6 -0.578635D+02
      7  0.309470D-02 -0.242548D+02
      8  0.000000D+00  0.000000D+00 -0.227145D+02
      9  0.000000D+00  0.000000D+00  0.000000D+00 -0.227145D+02
     10 -0.155709D+02  0.209677D-01  0.000000D+00  0.000000D+00 -0.227193D+02
     11  0.208887D-03 -0.660918D+01  0.000000D+00  0.000000D+00  0.129229D-01
     12  0.000000D+00  0.000000D+00 -0.663476D+01  0.000000D+00  0.000000D+00
     13  0.000000D+00  0.000000D+00  0.000000D+00 -0.663476D+01  0.000000D+00
     14 -0.122406D+01  0.123972D-01  0.000000D+00  0.000000D+00 -0.663915D+01
     15  0.830120D-03 -0.422701D-02  0.000000D+00  0.000000D+00  0.188671D-01
     16  0.000000D+00  0.000000D+00  0.148584D-01  0.000000D+00  0.000000D+00
     17  0.000000D+00  0.000000D+00  0.000000D+00  0.148584D-01  0.000000D+00
     18  0.000000D+00  0.000000D+00  0.000000D+00  0.000000D+00  0.000000D+00
     19  0.000000D+00  0.000000D+00  0.000000D+00  0.000000D+00  0.000000D+00
               11            12            13            14            15 
     11 -0.933677D+01
     12  0.000000D+00 -0.912444D+01
     13  0.000000D+00  0.000000D+00 -0.912444D+01
     14  0.544195D-01  0.000000D+00  0.000000D+00 -0.915569D+01
     15 -0.146754D-01  0.000000D+00  0.000000D+00  0.415543D-01 -0.122953D+02
     16  0.000000D+00  0.277386D-01  0.000000D+00  0.000000D+00  0.000000D+00
     17  0.000000D+00  0.000000D+00  0.277386D-01  0.000000D+00  0.000000D+00
     18  0.000000D+00  0.000000D+00  0.000000D+00  0.000000D+00  0.000000D+00
     19  0.000000D+00  0.000000D+00  0.000000D+00  0.000000D+00  0.000000D+00
               16            17            18            19 
     16 -0.122888D+02
     17  0.000000D+00 -0.122888D+02
     18  0.000000D+00  0.000000D+00 -0.122790D+02
     19  0.000000D+00  0.000000D+00  0.000000D+00 -0.122790D+02
 SVDSVc IOpt=   1 NormSV=T IR=1
 SVDSVc V= 1.58D+00 1.54D+00 1.26D+00 1.09D+00 1.00D+00 9.93D-01 8.88D-01 7.12D-01 4.87D-01 4.51D-01
 SVDSVc IOpt=   1 NormSV=T IR=2
 SVDSVc V= 1.00D+00
 SVDSVc IOpt=   1 NormSV=T IR=3
 SVDSVc V= 1.53D+00 1.00D+00 9.76D-01 4.98D-01
 SVDSVc IOpt=   1 NormSV=T IR=4
 SVDSVc V= 1.53D+00 1.00D+00 9.76D-01 4.98D-01
 TstOVc:  Largest diagonal error= 1.55D-15 IB=1 I=    2.
 TstOVc:  Largest same sym error= 6.66D-16 IB=1 I=    7 J=    4.
 TstOVc:  Largest diff sym error= 0.00D+00 IB=0 JB=0 I=    0 J=    0.
 Orthogonalized basis functions: 
                 1             2             3             4             5 
      1   0.856410D-01 -0.125513D+00 -0.207630D+00  0.629380D+00  0.000000D+00
      2   0.294231D+00  0.682510D-01  0.514352D+00  0.153865D+00  0.000000D+00
      3   0.434570D+00  0.942795D-01  0.375127D+00  0.460637D-01  0.000000D+00
      4   0.000000D+00  0.000000D+00  0.000000D+00  0.000000D+00  0.000000D+00
      5   0.000000D+00  0.000000D+00  0.000000D+00  0.000000D+00  0.000000D+00
      6  -0.507722D-01  0.334046D+00 -0.735939D-01  0.423088D+00  0.000000D+00
      7   0.465071D+00  0.836035D-01 -0.289960D+00 -0.174413D+00  0.000000D+00
      8   0.000000D+00  0.000000D+00  0.000000D+00  0.000000D+00  0.000000D+00
      9   0.000000D+00  0.000000D+00  0.000000D+00  0.000000D+00  0.000000D+00
     10  -0.877498D-01  0.539621D+00 -0.620536D-01  0.140232D+00  0.000000D+00
     11   0.338688D+00  0.412448D-01 -0.500249D+00 -0.940852D-01  0.000000D+00
     12   0.000000D+00  0.000000D+00  0.000000D+00  0.000000D+00  0.000000D+00
     13   0.000000D+00  0.000000D+00  0.000000D+00  0.000000D+00  0.000000D+00
     14  -0.848744D-01  0.456270D+00  0.126526D-01 -0.281863D+00  0.000000D+00
     15   0.858650D-02 -0.135966D-01 -0.469579D-01  0.425415D+00  0.000000D+00
     16   0.000000D+00  0.000000D+00  0.000000D+00  0.000000D+00  0.000000D+00
     17   0.000000D+00  0.000000D+00  0.000000D+00  0.000000D+00  0.000000D+00
     18   0.000000D+00  0.000000D+00  0.000000D+00  0.000000D+00  0.100000D+01
     19   0.000000D+00  0.000000D+00  0.000000D+00  0.000000D+00  0.000000D+00
                 6             7             8             9            10 
      1  -0.104227D+00  0.673919D+00 -0.223420D+00 -0.209005D+00  0.138487D+00
      2  -0.202458D-01  0.150603D+00  0.700238D+00  0.105361D+00  0.519737D+00
      3  -0.108290D-02 -0.349294D-01 -0.517215D+00 -0.153649D+00 -0.822075D+00
      4   0.000000D+00  0.000000D+00  0.000000D+00  0.000000D+00  0.000000D+00
      5   0.000000D+00  0.000000D+00  0.000000D+00  0.000000D+00  0.000000D+00
      6  -0.436170D+00 -0.553818D+00  0.821423D-01 -0.562391D+00  0.794055D-01
      7   0.251810D-01 -0.177532D+00 -0.400169D+00  0.135495D+00  0.888885D+00
      8   0.000000D+00  0.000000D+00  0.000000D+00  0.000000D+00  0.000000D+00
      9   0.000000D+00  0.000000D+00  0.000000D+00  0.000000D+00  0.000000D+00
     10  -0.166066D-01  0.167642D+00 -0.744644D-01  0.986522D+00 -0.150666D+00
     11   0.351011D-02  0.554900D-01  0.649308D+00 -0.611673D-01 -0.642713D+00
     12   0.000000D+00  0.000000D+00  0.000000D+00  0.000000D+00  0.000000D+00
     13   0.000000D+00  0.000000D+00  0.000000D+00  0.000000D+00  0.000000D+00
     14   0.333441D+00  0.394311D+00 -0.154184D-01 -0.815093D+00  0.145057D+00
     15   0.832921D+00 -0.351446D+00  0.454551D-01  0.238382D-01 -0.147631D-01
     16   0.000000D+00  0.000000D+00  0.000000D+00  0.000000D+00  0.000000D+00
     17   0.000000D+00  0.000000D+00  0.000000D+00  0.000000D+00  0.000000D+00
     18   0.000000D+00  0.000000D+00  0.000000D+00  0.000000D+00  0.000000D+00
     19   0.000000D+00  0.000000D+00  0.000000D+00  0.000000D+00  0.000000D+00
                11            12            13            14            15 
      1   0.000000D+00  0.000000D+00  0.000000D+00  0.000000D+00  0.000000D+00
      2   0.000000D+00  0.000000D+00  0.000000D+00  0.000000D+00  0.000000D+00
      3   0.000000D+00  0.000000D+00  0.000000D+00  0.000000D+00  0.000000D+00
      4   0.000000D+00  0.358362D+00  0.000000D+00  0.802807D+00 -0.593005D+00
      5   0.000000D+00  0.000000D+00  0.000000D+00  0.000000D+00  0.000000D+00
      6   0.000000D+00  0.000000D+00  0.000000D+00  0.000000D+00  0.000000D+00
      7   0.000000D+00  0.000000D+00  0.000000D+00  0.000000D+00  0.000000D+00
      8   0.000000D+00  0.565532D+00  0.000000D+00 -0.127423D-01  0.101370D+01
      9   0.000000D+00  0.000000D+00  0.000000D+00  0.000000D+00  0.000000D+00
     10   0.000000D+00  0.000000D+00  0.000000D+00  0.000000D+00  0.000000D+00
     11   0.000000D+00  0.000000D+00  0.000000D+00  0.000000D+00  0.000000D+00
     12   0.000000D+00  0.454909D+00  0.000000D+00 -0.616584D+00 -0.793056D+00
     13   0.000000D+00  0.000000D+00  0.000000D+00  0.000000D+00  0.000000D+00
     14   0.000000D+00  0.000000D+00  0.000000D+00  0.000000D+00  0.000000D+00
     15   0.000000D+00  0.000000D+00  0.000000D+00  0.000000D+00  0.000000D+00
     16   0.000000D+00  0.000000D+00  0.100000D+01  0.000000D+00  0.000000D+00
     17   0.000000D+00  0.000000D+00  0.000000D+00  0.000000D+00  0.000000D+00
     18   0.000000D+00  0.000000D+00  0.000000D+00  0.000000D+00  0.000000D+00
     19   0.100000D+01  0.000000D+00  0.000000D+00  0.000000D+00  0.000000D+00
                16            17            18            19 
      1   0.000000D+00  0.000000D+00  0.000000D+00  0.000000D+00
      2   0.000000D+00  0.000000D+00  0.000000D+00  0.000000D+00
      3   0.000000D+00  0.000000D+00  0.000000D+00  0.000000D+00
      4   0.000000D+00  0.000000D+00  0.000000D+00  0.000000D+00
      5   0.358362D+00  0.000000D+00  0.802807D+00 -0.593005D+00
      6   0.000000D+00  0.000000D+00  0.000000D+00  0.000000D+00
      7   0.000000D+00  0.000000D+00  0.000000D+00  0.000000D+00
      8   0.000000D+00  0.000000D+00  0.000000D+00  0.000000D+00
      9   0.565532D+00  0.000000D+00 -0.127423D-01  0.101370D+01
     10   0.000000D+00  0.000000D+00  0.000000D+00  0.000000D+00
     11   0.000000D+00  0.000000D+00  0.000000D+00  0.000000D+00
     12   0.000000D+00  0.000000D+00  0.000000D+00  0.000000D+00
     13   0.454909D+00  0.000000D+00 -0.616584D+00 -0.793056D+00
     14   0.000000D+00  0.000000D+00  0.000000D+00  0.000000D+00
     15   0.000000D+00  0.000000D+00  0.000000D+00  0.000000D+00
     16   0.000000D+00  0.000000D+00  0.000000D+00  0.000000D+00
     17   0.000000D+00  0.100000D+01  0.000000D+00  0.000000D+00
     18   0.000000D+00  0.000000D+00  0.000000D+00  0.000000D+00
     19   0.000000D+00  0.000000D+00  0.000000D+00  0.000000D+00
 NBasis=    19 RedAO= T EigKep=  4.51D-01  NBF=    10     1     4     4
 NBsUse=    19 1.00D-06 EigRej= -1.00D+00 NBFU=    10     1     4     4
 Leave Link  302 at Fri Mar 25 14:39:11 2022, MaxMem=  9663676416 cpu:               3.9 elap:               0.1
 (Enter /nopt/nrel/apps/gaussian/g16C_1/g16/l303.exe)
 DipDrv will not compute anything.
 Fermi contact integrals: 
                 1             2 
      1   0.628247D+00  0.738651D-03
      2   0.000000D+00  0.454848D+02
      3   0.000000D+00  0.245213D+01
      4   0.000000D+00  0.000000D+00
      5   0.000000D+00  0.000000D+00
      6   0.000000D+00  0.000000D+00
      7   0.000000D+00  0.115357D+00
      8   0.000000D+00  0.000000D+00
      9   0.000000D+00  0.000000D+00
     10   0.000000D+00  0.000000D+00
     11   0.621879D-02 -0.521539D-02
     12   0.000000D+00  0.000000D+00
     13   0.000000D+00  0.000000D+00
     14  -0.114122D-01  0.000000D+00
     15   0.330243D-02  0.000000D+00
     16   0.000000D+00  0.000000D+00
     17   0.000000D+00  0.000000D+00
     18   0.000000D+00  0.000000D+00
     19   0.000000D+00  0.000000D+00
 Leave Link  303 at Fri Mar 25 14:39:12 2022, MaxMem=  9663676416 cpu:               1.1 elap:               0.1
 (Enter /nopt/nrel/apps/gaussian/g16C_1/g16/l401.exe)
 ExpMin= 1.16D-01 ExpMax= 1.03D+03 ExpMxC= 1.03D+03 IAcc=3 IRadAn=         5 AccDes= 0.00D+00
 Harris functional with IExCor=  205 and IRadAn=       5 diagonalized for initial guess.
 HarFok:  IExCor=  205 AccDes= 0.00D+00 IRadAn=         5 IDoV= 1 UseB2=F ITyADJ=14
 ICtDFT=  3500011 ScaDFX=  1.000000  1.000000  1.000000  1.000000
 FoFCou: FMM=F IPFlag=           0 FMFlag=      100000 FMFlg1=           0
         NFxFlg=           0 DoJE=T BraDBF=F KetDBF=T FulRan=T
         wScrn=  0.000000 ICntrl=       500 IOpCl=  0 I1Cent=   200000004 NGrid=           0
         NMat0=    1 NMatS0=      1 NMatT0=    0 NMatD0=    1 NMtDS0=    0 NMtDT0=    0
 Petite list used in FoFCou.
 Harris En= -839.296177649257    
 JPrj=0 DoOrth=F DoCkMO=F.
 Initial guess orbital symmetries:
 Alpha Orbitals:
       Occupied  (SG) (SG) (SG) (PI) (PI) (SG) (SG) (PI) (PI) (SG)
                 (SG) (PI) (PI)
       Virtual   (DLTA) (DLTA) (SG) (PI) (PI) (SG)
 Beta  Orbitals:
       Occupied  (SG) (SG) (SG) (PI) (PI) (SG) (SG) (PI) (PI) (SG)
       Virtual   (SG) (PI) (PI) (DLTA) (DLTA) (SG) (PI) (PI) (SG)
 The electronic state of the initial guess is 4-SG.
 Initial guess <Sx>= 0.0000 <Sy>= 0.0000 <Sz>= 1.5000 <S**2>= 3.7500 S= 1.5000
 Leave Link  401 at Fri Mar 25 14:39:12 2022, MaxMem=  9663676416 cpu:               4.4 elap:               0.2
 (Enter /nopt/nrel/apps/gaussian/g16C_1/g16/l502.exe)
 Keep R1 and R2 ints in memory in symmetry-blocked form, NReq=7412976.
 FoFCou: FMM=F IPFlag=           0 FMFlag=           0 FMFlg1=           0
         NFxFlg=           0 DoJE=F BraDBF=F KetDBF=F FulRan=T
         wScrn=  0.000000 ICntrl=       600 IOpCl=  0 I1Cent=           0 NGrid=           0
         NMat0=    1 NMatS0=    190 NMatT0=    0 NMatD0=    1 NMtDS0=    0 NMtDT0=    0
 Petite list used in FoFCou.
 UHF open shell SCF:
 Using DIIS extrapolation, IDIIS=  1040.
 NGot=  9663676416 LenX=  9663662661 LenY=  9663661779
 Requested convergence on RMS density matrix=1.00D-08 within 128 cycles.
 Requested convergence on MAX density matrix=1.00D-06.
 Requested convergence on             energy=1.00D-06.
 No special actions if energy rises.

 Cycle   1  Pass 1  IDiag  1:
 E= -839.859529255585    
 DIIS: error= 7.10D-02 at cycle   1 NSaved=   1.
 NSaved= 1 IEnMin= 1 EnMin= -839.859529255585     IErMin= 1 ErrMin= 7.10D-02
 ErrMax= 7.10D-02  0.00D+00 EMaxC= 1.00D-01 BMatC= 3.63D-01 BMatP= 3.63D-01
 IDIUse=3 WtCom= 2.90D-01 WtEn= 7.10D-01
 Coeff-Com:  0.100D+01
 Coeff-En:   0.100D+01
 Coeff:      0.100D+01
 Gap=     0.378 Goal=   None    Shift=    0.000
 Gap=     0.137 Goal=   None    Shift=    0.000
 GapD=    0.137 DampG=1.000 DampE=0.250 DampFc=0.2500 IDamp=-1.
 Damping current iteration by 2.50D-01
 RMSDP=3.54D-02 MaxDP=5.01D-01              OVMax= 0.00D+00

 Cycle   2  Pass 1  IDiag  1:
 E= -839.887982852660     Delta-E=       -0.028453597075 Rises=F Damp=T
 DIIS: error= 5.25D-02 at cycle   2 NSaved=   2.
 NSaved= 2 IEnMin= 2 EnMin= -839.887982852660     IErMin= 2 ErrMin= 5.25D-02
 ErrMax= 5.25D-02  0.00D+00 EMaxC= 1.00D-01 BMatC= 1.99D-01 BMatP= 3.63D-01
 IDIUse=3 WtCom= 4.75D-01 WtEn= 5.25D-01
 Coeff-Com: -0.273D+01 0.373D+01
 Coeff-En:   0.000D+00 0.100D+01
 Coeff:     -0.130D+01 0.230D+01
 Gap=     0.389 Goal=   None    Shift=    0.000
 Gap=     0.258 Goal=   None    Shift=    0.000
 RMSDP=2.70D-02 MaxDP=4.11D-01 DE=-2.85D-02 OVMax= 0.00D+00

 Cycle   3  Pass 1  IDiag  1:
 E= -839.990400867082     Delta-E=       -0.102418014423 Rises=F Damp=F
 DIIS: error= 1.44D-02 at cycle   3 NSaved=   3.
 NSaved= 3 IEnMin= 3 EnMin= -839.990400867082     IErMin= 3 ErrMin= 1.44D-02
 ErrMax= 1.44D-02  0.00D+00 EMaxC= 1.00D-01 BMatC= 1.13D-02 BMatP= 1.99D-01
 IDIUse=3 WtCom= 8.56D-01 WtEn= 1.44D-01
 Coeff-Com: -0.317D+01 0.432D+01-0.156D+00
 Coeff-En:   0.000D+00 0.000D+00 0.100D+01
 Coeff:     -0.271D+01 0.370D+01 0.110D-01
 Gap=     0.394 Goal=   None    Shift=    0.000
 Gap=     0.288 Goal=   None    Shift=    0.000
 RMSDP=3.23D-03 MaxDP=3.13D-02 DE=-1.02D-01 OVMax= 0.00D+00

 Cycle   4  Pass 1  IDiag  1:
 E= -839.997205726889     Delta-E=       -0.006804859807 Rises=F Damp=F
 DIIS: error= 1.20D-02 at cycle   4 NSaved=   4.
 NSaved= 4 IEnMin= 4 EnMin= -839.997205726889     IErMin= 4 ErrMin= 1.20D-02
 ErrMax= 1.20D-02  0.00D+00 EMaxC= 1.00D-01 BMatC= 9.40D-03 BMatP= 1.13D-02
 IDIUse=3 WtCom= 8.80D-01 WtEn= 1.20D-01
 Coeff-Com: -0.359D+01 0.482D+01-0.353D+01 0.330D+01
 Coeff-En:   0.000D+00 0.000D+00 0.000D+00 0.100D+01
 Coeff:     -0.316D+01 0.425D+01-0.311D+01 0.302D+01
 Gap=     0.396 Goal=   None    Shift=    0.000
 Gap=     0.311 Goal=   None    Shift=    0.000
 RMSDP=8.51D-03 MaxDP=9.94D-02 DE=-6.80D-03 OVMax= 0.00D+00

 Cycle   5  Pass 1  IDiag  1:
 E= -840.012635047647     Delta-E=       -0.015429320758 Rises=F Damp=F
 DIIS: error= 9.31D-03 at cycle   5 NSaved=   5.
 NSaved= 5 IEnMin= 5 EnMin= -840.012635047647     IErMin= 5 ErrMin= 9.31D-03
 ErrMax= 9.31D-03  0.00D+00 EMaxC= 1.00D-01 BMatC= 6.09D-03 BMatP= 9.40D-03
 IDIUse=3 WtCom= 9.07D-01 WtEn= 9.31D-02
 Coeff-Com:  0.977D-01-0.932D-01 0.804D+00-0.457D+01 0.477D+01
 Coeff-En:   0.000D+00 0.000D+00 0.000D+00 0.000D+00 0.100D+01
 Coeff:      0.886D-01-0.845D-01 0.729D+00-0.415D+01 0.442D+01
 Gap=     0.400 Goal=   None    Shift=    0.000
 Gap=     0.410 Goal=   None    Shift=    0.000
 RMSDP=2.26D-02 MaxDP=2.14D-01 DE=-1.54D-02 OVMax= 0.00D+00

 Cycle   6  Pass 1  IDiag  1:
 E= -840.028301719051     Delta-E=       -0.015666671404 Rises=F Damp=F
 DIIS: error= 5.05D-03 at cycle   6 NSaved=   6.
 NSaved= 6 IEnMin= 6 EnMin= -840.028301719051     IErMin= 6 ErrMin= 5.05D-03
 ErrMax= 5.05D-03  0.00D+00 EMaxC= 1.00D-01 BMatC= 1.14D-03 BMatP= 6.09D-03
 IDIUse=3 WtCom= 9.49D-01 WtEn= 5.05D-02
 Coeff-Com:  0.133D+00-0.180D+00 0.515D+00-0.726D+00 0.536D+00 0.723D+00
 Coeff-En:   0.000D+00 0.000D+00 0.000D+00 0.000D+00 0.000D+00 0.100D+01
 Coeff:      0.126D+00-0.171D+00 0.489D+00-0.689D+00 0.509D+00 0.737D+00
 Gap=     0.399 Goal=   None    Shift=    0.000
 Gap=     0.393 Goal=   None    Shift=    0.000
 RMSDP=4.44D-03 MaxDP=4.78D-02 DE=-1.57D-02 OVMax= 0.00D+00

 Cycle   7  Pass 1  IDiag  1:
 E= -840.029319245658     Delta-E=       -0.001017526607 Rises=F Damp=F
 DIIS: error= 1.74D-03 at cycle   7 NSaved=   7.
 NSaved= 7 IEnMin= 7 EnMin= -840.029319245658     IErMin= 7 ErrMin= 1.74D-03
 ErrMax= 1.74D-03  0.00D+00 EMaxC= 1.00D-01 BMatC= 1.03D-04 BMatP= 1.14D-03
 IDIUse=3 WtCom= 9.83D-01 WtEn= 1.74D-02
 Coeff-Com: -0.599D-01 0.785D-01-0.703D+00 0.119D+01-0.107D+01-0.111D+01
 Coeff-Com:  0.267D+01
 Coeff-En:   0.000D+00 0.000D+00 0.000D+00 0.000D+00 0.000D+00 0.000D+00
 Coeff-En:   0.100D+01
 Coeff:     -0.589D-01 0.771D-01-0.690D+00 0.117D+01-0.105D+01-0.109D+01
 Coeff:      0.264D+01
 Gap=     0.404 Goal=   None    Shift=    0.000
 Gap=     0.404 Goal=   None    Shift=    0.000
 RMSDP=4.00D-03 MaxDP=3.87D-02 DE=-1.02D-03 OVMax= 0.00D+00

 Cycle   8  Pass 1  IDiag  1:
 E= -840.029859709897     Delta-E=       -0.000540464240 Rises=F Damp=F
 DIIS: error= 1.01D-03 at cycle   8 NSaved=   8.
 NSaved= 8 IEnMin= 8 EnMin= -840.029859709897     IErMin= 8 ErrMin= 1.01D-03
 ErrMax= 1.01D-03  0.00D+00 EMaxC= 1.00D-01 BMatC= 6.63D-05 BMatP= 1.03D-04
 IDIUse=3 WtCom= 9.90D-01 WtEn= 1.01D-02
 Coeff-Com: -0.222D+00 0.300D+00-0.616D-01-0.493D+00 0.735D+00-0.364D-01
 Coeff-Com: -0.936D+00 0.171D+01
 Coeff-En:   0.000D+00 0.000D+00 0.000D+00 0.000D+00 0.000D+00 0.000D+00
 Coeff-En:   0.000D+00 0.100D+01
 Coeff:     -0.220D+00 0.297D+00-0.610D-01-0.488D+00 0.728D+00-0.361D-01
 Coeff:     -0.926D+00 0.171D+01
 Gap=     0.402 Goal=   None    Shift=    0.000
 Gap=     0.401 Goal=   None    Shift=    0.000
 RMSDP=2.01D-03 MaxDP=1.92D-02 DE=-5.40D-04 OVMax= 0.00D+00

 Cycle   9  Pass 1  IDiag  1:
 E= -840.030110318096     Delta-E=       -0.000250608199 Rises=F Damp=F
 DIIS: error= 7.19D-04 at cycle   9 NSaved=   9.
 NSaved= 9 IEnMin= 9 EnMin= -840.030110318096     IErMin= 9 ErrMin= 7.19D-04
 ErrMax= 7.19D-04  0.00D+00 EMaxC= 1.00D-01 BMatC= 3.84D-05 BMatP= 6.63D-05
 IDIUse=3 WtCom= 9.93D-01 WtEn= 7.19D-03
 Coeff-Com: -0.176D+00 0.238D+00-0.928D-01-0.213D+00 0.304D+00-0.698D-01
 Coeff-Com:  0.359D-01-0.511D+00 0.149D+01
 Coeff-En:   0.000D+00 0.000D+00 0.000D+00 0.000D+00 0.000D+00 0.000D+00
 Coeff-En:   0.000D+00 0.000D+00 0.100D+01
 Coeff:     -0.175D+00 0.236D+00-0.921D-01-0.212D+00 0.302D+00-0.693D-01
 Coeff:      0.357D-01-0.507D+00 0.148D+01
 Gap=     0.403 Goal=   None    Shift=    0.000
 Gap=     0.402 Goal=   None    Shift=    0.000
 RMSDP=1.39D-03 MaxDP=1.20D-02 DE=-2.51D-04 OVMax= 0.00D+00

 Cycle  10  Pass 1  IDiag  1:
 E= -840.030260567703     Delta-E=       -0.000150249607 Rises=F Damp=F
 DIIS: error= 6.18D-04 at cycle  10 NSaved=  10.
 NSaved=10 IEnMin=10 EnMin= -840.030260567703     IErMin=10 ErrMin= 6.18D-04
 ErrMax= 6.18D-04  0.00D+00 EMaxC= 1.00D-01 BMatC= 3.04D-05 BMatP= 3.84D-05
 IDIUse=3 WtCom= 9.94D-01 WtEn= 6.18D-03
 Large coefficients: NSaved= 10 BigCof=   10.36 CofMax=   10.00 Det=-1.37D-07
 Inversion failed.  Reducing to  9 matrices.
 Large coefficients: NSaved=  9 BigCof=   10.34 CofMax=   10.00 Det=-1.49D-07
 Inversion failed.  Reducing to  8 matrices.
 Large coefficients: NSaved=  8 BigCof=   10.35 CofMax=   10.00 Det=-1.49D-07
 Inversion failed.  Reducing to  7 matrices.
 Large coefficients: NSaved=  7 BigCof=   10.16 CofMax=   10.00 Det=-1.54D-07
 Inversion failed.  Reducing to  6 matrices.
 Coeff-Com: -0.221D-01-0.209D+00 0.497D-02 0.185D+01-0.952D+01 0.890D+01
 Coeff-En:   0.000D+00 0.000D+00 0.000D+00 0.000D+00 0.000D+00 0.100D+01
 Coeff:     -0.219D-01-0.208D+00 0.494D-02 0.184D+01-0.946D+01 0.885D+01
 Gap=     0.404 Goal=   None    Shift=    0.000
 Gap=     0.408 Goal=   None    Shift=    0.000
 RMSDP=8.50D-03 MaxDP=6.76D-02 DE=-1.50D-04 OVMax= 0.00D+00

 Cycle  11  Pass 1  IDiag  1:
 E= -840.030706673512     Delta-E=       -0.000446105809 Rises=F Damp=F
 DIIS: error= 1.48D-04 at cycle  11 NSaved=   7.
 NSaved= 7 IEnMin= 7 EnMin= -840.030706673512     IErMin= 7 ErrMin= 1.48D-04
 ErrMax= 1.48D-04  0.00D+00 EMaxC= 1.00D-01 BMatC= 1.95D-06 BMatP= 3.04D-05
 IDIUse=3 WtCom= 9.99D-01 WtEn= 1.48D-03
 Coeff-Com: -0.451D-01-0.756D-01 0.260D+00-0.328D+00-0.425D+00 0.758D+00
 Coeff-Com:  0.855D+00
 Coeff-En:   0.000D+00 0.000D+00 0.000D+00 0.000D+00 0.000D+00 0.000D+00
 Coeff-En:   0.100D+01
 Coeff:     -0.450D-01-0.755D-01 0.260D+00-0.328D+00-0.424D+00 0.757D+00
 Coeff:      0.856D+00
 Gap=     0.405 Goal=   None    Shift=    0.000
 Gap=     0.409 Goal=   None    Shift=    0.000
 RMSDP=2.29D-04 MaxDP=2.30D-03 DE=-4.46D-04 OVMax= 0.00D+00

 Cycle  12  Pass 1  IDiag  1:
 E= -840.030706942781     Delta-E=       -0.000000269269 Rises=F Damp=F
 DIIS: error= 1.24D-04 at cycle  12 NSaved=   8.
 NSaved= 8 IEnMin= 8 EnMin= -840.030706942781     IErMin= 8 ErrMin= 1.24D-04
 ErrMax= 1.24D-04  0.00D+00 EMaxC= 1.00D-01 BMatC= 7.13D-07 BMatP= 1.95D-06
 IDIUse=3 WtCom= 9.99D-01 WtEn= 1.24D-03
 Coeff-Com:  0.263D-01 0.233D-01-0.882D-01 0.489D-01 0.686D+00-0.843D+00
 Coeff-Com: -0.652D+00 0.180D+01
 Coeff-En:   0.000D+00 0.000D+00 0.000D+00 0.000D+00 0.000D+00 0.000D+00
 Coeff-En:   0.000D+00 0.100D+01
 Coeff:      0.263D-01 0.233D-01-0.881D-01 0.488D-01 0.685D+00-0.842D+00
 Coeff:     -0.651D+00 0.180D+01
 Gap=     0.403 Goal=   None    Shift=    0.000
 Gap=     0.407 Goal=   None    Shift=    0.000
 RMSDP=1.95D-04 MaxDP=1.89D-03 DE=-2.69D-07 OVMax= 0.00D+00

 Cycle  13  Pass 1  IDiag  1:
 E= -840.030707630579     Delta-E=       -0.000000687798 Rises=F Damp=F
 DIIS: error= 6.76D-05 at cycle  13 NSaved=   9.
 NSaved= 9 IEnMin= 9 EnMin= -840.030707630579     IErMin= 9 ErrMin= 6.76D-05
 ErrMax= 6.76D-05  0.00D+00 EMaxC= 1.00D-01 BMatC= 2.56D-07 BMatP= 7.13D-07
 IDIUse=1 WtCom= 1.00D+00 WtEn= 0.00D+00
 Coeff-Com: -0.147D-02 0.143D-01-0.815D-02-0.715D-01 0.311D+00-0.258D+00
 Coeff-Com:  0.222D+00-0.191D+00 0.983D+00
 Coeff:     -0.147D-02 0.143D-01-0.815D-02-0.715D-01 0.311D+00-0.258D+00
 Coeff:      0.222D+00-0.191D+00 0.983D+00
 Gap=     0.404 Goal=   None    Shift=    0.000
 Gap=     0.408 Goal=   None    Shift=    0.000
 RMSDP=7.59D-05 MaxDP=7.06D-04 DE=-6.88D-07 OVMax= 0.00D+00

 Cycle  14  Pass 1  IDiag  1:
 E= -840.030707880825     Delta-E=       -0.000000250245 Rises=F Damp=F
 DIIS: error= 4.65D-06 at cycle  14 NSaved=  10.
 NSaved=10 IEnMin=10 EnMin= -840.030707880825     IErMin=10 ErrMin= 4.65D-06
 ErrMax= 4.65D-06  0.00D+00 EMaxC= 1.00D-01 BMatC= 2.31D-09 BMatP= 2.56D-07
 IDIUse=1 WtCom= 1.00D+00 WtEn= 0.00D+00
 Coeff-Com:  0.739D-03 0.263D-02-0.525D-03-0.200D-01 0.130D+00-0.134D+00
 Coeff-Com: -0.130D-01 0.337D-02-0.108D+00 0.114D+01
 Coeff:      0.739D-03 0.263D-02-0.525D-03-0.200D-01 0.130D+00-0.134D+00
 Coeff:     -0.130D-01 0.337D-02-0.108D+00 0.114D+01
 Gap=     0.404 Goal=   None    Shift=    0.000
 Gap=     0.408 Goal=   None    Shift=    0.000
 RMSDP=3.46D-05 MaxDP=2.43D-04 DE=-2.50D-07 OVMax= 0.00D+00

 Cycle  15  Pass 1  IDiag  1:
 E= -840.030707894666     Delta-E=       -0.000000013842 Rises=F Damp=F
 DIIS: error= 3.02D-06 at cycle  15 NSaved=  11.
 NSaved=11 IEnMin=11 EnMin= -840.030707894666     IErMin=11 ErrMin= 3.02D-06
 ErrMax= 3.02D-06  0.00D+00 EMaxC= 1.00D-01 BMatC= 8.10D-10 BMatP= 2.31D-09
 IDIUse=1 WtCom= 1.00D+00 WtEn= 0.00D+00
 Coeff-Com:  0.578D-03-0.610D-03-0.188D-02 0.468D-02-0.182D-01 0.214D-01
 Coeff-Com: -0.886D-02 0.890D-01-0.135D-01-0.140D+01 0.232D+01
 Coeff:      0.578D-03-0.610D-03-0.188D-02 0.468D-02-0.182D-01 0.214D-01
 Coeff:     -0.886D-02 0.890D-01-0.135D-01-0.140D+01 0.232D+01
 Gap=     0.404 Goal=   None    Shift=    0.000
 Gap=     0.408 Goal=   None    Shift=    0.000
 RMSDP=8.60D-06 MaxDP=5.96D-05 DE=-1.38D-08 OVMax= 0.00D+00

 Cycle  16  Pass 1  IDiag  1:
 E= -840.030707895923     Delta-E=       -0.000000001257 Rises=F Damp=F
 DIIS: error= 1.39D-06 at cycle  16 NSaved=  12.
 NSaved=12 IEnMin=12 EnMin= -840.030707895923     IErMin=12 ErrMin= 1.39D-06
 ErrMax= 1.39D-06  0.00D+00 EMaxC= 1.00D-01 BMatC= 8.48D-11 BMatP= 8.10D-10
 IDIUse=1 WtCom= 1.00D+00 WtEn= 0.00D+00
 Coeff-Com: -0.135D-03 0.223D-03 0.400D-03-0.314D-03 0.340D-02-0.597D-02
 Coeff-Com: -0.151D-02-0.261D-01-0.165D-01 0.570D+00-0.109D+01 0.156D+01
 Coeff:     -0.135D-03 0.223D-03 0.400D-03-0.314D-03 0.340D-02-0.597D-02
 Coeff:     -0.151D-02-0.261D-01-0.165D-01 0.570D+00-0.109D+01 0.156D+01
 Gap=     0.404 Goal=   None    Shift=    0.000
 Gap=     0.408 Goal=   None    Shift=    0.000
 RMSDP=1.70D-06 MaxDP=1.28D-05 DE=-1.26D-09 OVMax= 0.00D+00

 Cycle  17  Pass 1  IDiag  1:
 E= -840.030707896016     Delta-E=       -0.000000000093 Rises=F Damp=F
 DIIS: error= 2.66D-07 at cycle  17 NSaved=  13.
 NSaved=13 IEnMin=13 EnMin= -840.030707896016     IErMin=13 ErrMin= 2.66D-07
 ErrMax= 2.66D-07  0.00D+00 EMaxC= 1.00D-01 BMatC= 6.02D-12 BMatP= 8.48D-11
 IDIUse=1 WtCom= 1.00D+00 WtEn= 0.00D+00
 Coeff-Com: -0.760D-04-0.125D-03 0.228D-03 0.105D-03-0.338D-02 0.404D-02
 Coeff-Com:  0.258D-02-0.410D-02 0.113D-01-0.357D-01 0.114D+00-0.423D+00
 Coeff-Com:  0.133D+01
 Coeff:     -0.760D-04-0.125D-03 0.228D-03 0.105D-03-0.338D-02 0.404D-02
 Coeff:      0.258D-02-0.410D-02 0.113D-01-0.357D-01 0.114D+00-0.423D+00
 Coeff:      0.133D+01
 Gap=     0.404 Goal=   None    Shift=    0.000
 Gap=     0.408 Goal=   None    Shift=    0.000
 RMSDP=6.36D-07 MaxDP=4.45D-06 DE=-9.28D-11 OVMax= 0.00D+00

 Cycle  18  Pass 1  IDiag  1:
 E= -840.030707896022     Delta-E=       -0.000000000005 Rises=F Damp=F
 DIIS: error= 2.09D-07 at cycle  18 NSaved=  14.
 NSaved=14 IEnMin=14 EnMin= -840.030707896022     IErMin=14 ErrMin= 2.09D-07
 ErrMax= 2.09D-07  0.00D+00 EMaxC= 1.00D-01 BMatC= 2.39D-12 BMatP= 6.02D-12
 IDIUse=1 WtCom= 1.00D+00 WtEn= 0.00D+00
 Coeff-Com:  0.369D-05 0.100D-04-0.317D-04 0.220D-04-0.248D-03 0.333D-03
 Coeff-Com:  0.979D-05 0.276D-03 0.153D-02-0.231D-01 0.238D-01 0.571D-01
 Coeff-Com: -0.531D+00 0.147D+01
 Coeff:      0.369D-05 0.100D-04-0.317D-04 0.220D-04-0.248D-03 0.333D-03
 Coeff:      0.979D-05 0.276D-03 0.153D-02-0.231D-01 0.238D-01 0.571D-01
 Coeff:     -0.531D+00 0.147D+01
 Gap=     0.404 Goal=   None    Shift=    0.000
 Gap=     0.408 Goal=   None    Shift=    0.000
 RMSDP=2.01D-07 MaxDP=1.96D-06 DE=-5.46D-12 OVMax= 0.00D+00

 Cycle  19  Pass 1  IDiag  1:
 E= -840.030707896024     Delta-E=       -0.000000000003 Rises=F Damp=F
 DIIS: error= 9.35D-09 at cycle  19 NSaved=  15.
 NSaved=15 IEnMin=15 EnMin= -840.030707896024     IErMin=15 ErrMin= 9.35D-09
 ErrMax= 9.35D-09  0.00D+00 EMaxC= 1.00D-01 BMatC= 4.37D-15 BMatP= 2.39D-12
 IDIUse=1 WtCom= 1.00D+00 WtEn= 0.00D+00
 Coeff-Com: -0.572D-06-0.105D-05 0.100D-05 0.708D-05-0.429D-04 0.472D-04
 Coeff-Com:  0.576D-05 0.921D-04 0.406D-04-0.856D-03 0.256D-02-0.595D-02
 Coeff-Com:  0.215D-01-0.617D-01 0.104D+01
 Coeff:     -0.572D-06-0.105D-05 0.100D-05 0.708D-05-0.429D-04 0.472D-04
 Coeff:      0.576D-05 0.921D-04 0.406D-04-0.856D-03 0.256D-02-0.595D-02
 Coeff:      0.215D-01-0.617D-01 0.104D+01
 Gap=     0.404 Goal=   None    Shift=    0.000
 Gap=     0.408 Goal=   None    Shift=    0.000
 RMSDP=2.36D-08 MaxDP=2.23D-07 DE=-2.50D-12 OVMax= 0.00D+00

 Cycle  20  Pass 1  IDiag  1:
 E= -840.030707896024     Delta-E=       -0.000000000000 Rises=F Damp=F
 DIIS: error= 1.28D-09 at cycle  20 NSaved=  16.
 NSaved=16 IEnMin=16 EnMin= -840.030707896024     IErMin=16 ErrMin= 1.28D-09
 ErrMax= 1.28D-09  0.00D+00 EMaxC= 1.00D-01 BMatC= 9.46D-17 BMatP= 4.37D-15
 IDIUse=1 WtCom= 1.00D+00 WtEn= 0.00D+00
 Large coefficients: NSaved= 16 BigCof=    0.00 CofMax=   10.00 Det=-1.13D-17
 Inversion failed.  Reducing to 15 matrices.
 Coeff-Com:  0.187D-06 0.250D-06-0.217D-05 0.104D-04-0.114D-04 0.218D-05
 Coeff-Com: -0.289D-04 0.310D-05 0.326D-03-0.775D-03 0.947D-03-0.711D-03
 Coeff-Com:  0.105D-02-0.193D+00 0.119D+01
 Coeff:      0.187D-06 0.250D-06-0.217D-05 0.104D-04-0.114D-04 0.218D-05
 Coeff:     -0.289D-04 0.310D-05 0.326D-03-0.775D-03 0.947D-03-0.711D-03
 Coeff:      0.105D-02-0.193D+00 0.119D+01
 Gap=     0.404 Goal=   None    Shift=    0.000
 Gap=     0.408 Goal=   None    Shift=    0.000
 RMSDP=3.51D-09 MaxDP=2.99D-08 DE=-1.14D-13 OVMax= 0.00D+00

 SCF Done:  E(UHF) =  -840.030707896     A.U. after   20 cycles
            NFock= 20  Conv=0.35D-08     -V/T= 2.0042
 <Sx>= 0.0000 <Sy>= 0.0000 <Sz>= 1.5000 <S**2>= 3.9486 S= 1.5490
 <L.S>= 0.000000000000E+00
 KE= 8.364839577690D+02 PE=-1.993368919209D+03 EE= 3.126964326007D+02
 Annihilation of the first spin contaminant:
 S**2 before annihilation     3.9486,   after     3.7501
 Leave Link  502 at Fri Mar 25 14:39:12 2022, MaxMem=  9663676416 cpu:               8.1 elap:               0.3
 (Enter /nopt/nrel/apps/gaussian/g16C_1/g16/l801.exe)
 Windowed orbitals will be sorted by symmetry type.
 ExpMin= 1.16D-01 ExpMax= 1.03D+03 ExpMxC= 1.03D+03 IAcc=3 IRadAn=         5 AccDes= 0.00D+00
 HarFok:  IExCor=  205 AccDes= 0.00D+00 IRadAn=         5 IDoV=-2 UseB2=F ITyADJ=14
 ICtDFT= 12500011 ScaDFX=  1.000000  1.000000  1.000000  1.000000
 Largest valence mixing into a core orbital is  3.42D-04
 Largest core mixing into a valence orbital is  4.20D-04
 Largest valence mixing into a core orbital is  8.21D-04
 Largest core mixing into a valence orbital is  6.30D-04
 Range of M.O.s used for correlation:    10    19
 NBasis=    19 NAE=    13 NBE=    10 NFC=     9 NFV=     0
 NROrb=     10 NOA=     4 NOB=     1 NVA=     6 NVB=     9
 Leave Link  801 at Fri Mar 25 14:39:12 2022, MaxMem=  9663676416 cpu:               1.4 elap:               0.1
 (Enter /nopt/nrel/apps/gaussian/g16C_1/g16/l804.exe)
 Open-shell transformation, MDV=  9663676416 ITran=4 ISComp=2.
 Unit  1 TFree=         25012 TCopy=        222819.
 Semi-Direct transformation.
 ModeAB=           2 MOrb=             4 LenV=    9663501562
 LASXX=          307 LTotXX=         307 LenRXX=         307
 LTotAB=         523 MaxLAS=        8400 LenRXY=        8400
 NonZer=        9720 LenScr=      785920 LnRSAI=           0
 LnScr1=           0 LExtra=      224069 Total=      1018696
 MaxDsk= 34359738368 SrtSym=           F ITran=            4
 DoSDTr:  NPSUse= 36
 JobTyp=1 Pass  1:  I=   1 to   4.
 (rs|ai) integrals will be sorted in core.
 Complete sort for first half transformation.
 First half transformation complete.
 Complete sort for second half transformation.
 Second half transformation complete.
 ModeAB=           2 MOrb=             1 LenV=    9663501562
 LASXX=          105 LTotXX=         105 LenRXX=        2100
 LTotAB=          65 MaxLAS=        2100 LenRXY=          65
 NonZer=        2430 LenScr=      785920 LnRSAI=           0
 LnScr1=           0 LExtra=      232776 Total=      1020861
 MaxDsk= 34359738368 SrtSym=           F ITran=            4
 DoSDTr:  NPSUse= 36
 JobTyp=2 Pass  1:  I=   1 to   1.
 (rs|ai) integrals will be sorted in core.
 Complete sort for first half transformation.
 First half transformation complete.
 Complete sort for second half transformation.
 Second half transformation complete.
 Spin components of T(2) and E(2):
     alpha-alpha T2 =       0.1248163081D-02 E2=     -0.1099302050D-02
     alpha-beta  T2 =       0.1745185870D-01 E2=     -0.1699557858D-01
     beta-beta   T2 =       0.0000000000D+00 E2=      0.0000000000D+00
 ANorm=    0.1009306704D+01
 E2 =    -0.1809488063D-01 EUMP2 =    -0.84004880277666D+03
 (S**2,0)=  0.39486D+01           (S**2,1)=  0.39015D+01
 E(PUHF)=      -0.84003596792D+03        E(PMP2)=      -0.84005343908D+03
 Leave Link  804 at Fri Mar 25 14:39:12 2022, MaxMem=  9663676416 cpu:              12.9 elap:               0.4
 (Enter /nopt/nrel/apps/gaussian/g16C_1/g16/l913.exe)
 CIDS:  MDV=  9663676416.
 Frozen-core window:  NFC=   9 NFV=   0.
 IFCWin=0 IBDFC=1 NFBD=     0     0 NFCmp=     0     0 NFFFC=     0     0
 Using original routines for 1st iteration.
 Using DD4UQ or CC4UQ for 2nd and later iterations.
 Keep R2 and R3 ints in memory in symmetry-blocked form, NReq=7415434.
 FoFCou: FMM=F IPFlag=           0 FMFlag=           0 FMFlg1=           0
         NFxFlg=           0 DoJE=F BraDBF=F KetDBF=F FulRan=T
         wScrn=  0.000000 ICntrl=       600 IOpCl=  0 I1Cent=           0 NGrid=           0
         NMat0=    1 NMatS0=    190 NMatT0=    0 NMatD0=    1 NMtDS0=    0 NMtDT0=    0
 Petite list used in FoFCou.
 CIDS: In Core Option IDoMem=           1.
 Coupled Cluster theory with single and double substitutions
 ===========================================================
 Iterations=  50 Convergence= 0.100D-06
 Produce multiple copies of IABC intergrals
 Iteration Nr.   1
 **********************
 DD1Dir will call FoFMem   1 times, MxPair=        14
 NAB=     4 NAA=     6 NBB=     0.
 E(PMP3)=      -0.84006280075D+03
 MP4(R+Q)=  0.32017226D-03
 Maximum subspace dimension=  5
 A-vector RMS=  1.8772396D-02 Max=  3.0181057D-02 conv= 1.00D-05.
 RLE energy=       -0.0397555958
 E3=       -0.10157594D-01        EUMP3=      -0.84005896037D+03
 E4(DQ)=   -0.57918837D-02        UMP4(DQ)=   -0.84006475225D+03
 E4(SDQ)=  -0.61830368D-02        UMP4(SDQ)=  -0.84006514341D+03
 VARIATIONAL ENERGIES WITH THE FIRST-ORDER WAVEFUNCTION:
 DE(Corr)= -0.27953877E-01 E(Corr)=     -840.05866177    
 NORM(A)=   0.10471109D+01
 Iteration Nr.   2
 **********************
 DD1Dir will call FoFMem   1 times, MxPair=        14
 NAB=     4 NAA=     6 NBB=     0.
 A-vector RMS=  1.6502595D-02 Max=  1.8761685D-02 conv= 1.00D-05.
 RLE energy=       -0.0451167578
 DE(Corr)= -0.40741437E-01 E(CORR)=     -840.07144933     Delta=-1.28D-02
 NORM(A)=   0.10747239D+01
 Iteration Nr.   3
 **********************
 DD1Dir will call FoFMem   1 times, MxPair=        14
 NAB=     4 NAA=     6 NBB=     0.
 A-vector RMS=  7.4343326D-03 Max=  1.2674251D-02 conv= 1.00D-05.
 RLE energy=       -0.0584925424
 DE(Corr)= -0.46117403E-01 E(CORR)=     -840.07682530     Delta=-5.38D-03
 NORM(A)=   0.11416125D+01
 Iteration Nr.   4
 **********************
 DD1Dir will call FoFMem   1 times, MxPair=        14
 NAB=     4 NAA=     6 NBB=     0.
 A-vector RMS=  7.1674853D-03 Max=  1.0202092D-02 conv= 1.00D-05.
 RLE energy=       -0.0415969346
 DE(Corr)= -0.54941424E-01 E(CORR)=     -840.08564932     Delta=-8.82D-03
 NORM(A)=   0.10841866D+01
 Iteration Nr.   5
 **********************
 DD1Dir will call FoFMem   1 times, MxPair=        14
 NAB=     4 NAA=     6 NBB=     0.
 A-vector RMS=  5.1748853D-03 Max=  1.1904239D-02 conv= 1.00D-05.
 RLE energy=       -0.0687076996
 DE(Corr)= -0.45177965E-01 E(CORR)=     -840.07588586     Delta= 9.76D-03
 NORM(A)=   0.12601748D+01
 Iteration Nr.   6
 **********************
 DD1Dir will call FoFMem   1 times, MxPair=        14
 NAB=     4 NAA=     6 NBB=     0.
 A-vector RMS=  1.0672059D-02 Max=  1.5272634D-02 conv= 1.00D-05.
 RLE energy=       -0.0474464733
 DE(Corr)= -0.62817632E-01 E(CORR)=     -840.09352553     Delta=-1.76D-02
 NORM(A)=   0.11118838D+01
 Iteration Nr.   7
 **********************
 DD1Dir will call FoFMem   1 times, MxPair=        14
 NAB=     4 NAA=     6 NBB=     0.
 A-vector RMS=  3.3271919D-03 Max=  6.5769221D-03 conv= 1.00D-05.
 RLE energy=       -0.0497069816
 DE(Corr)= -0.48739086E-01 E(CORR)=     -840.07944698     Delta= 1.41D-02
 NORM(A)=   0.11363697D+01
 Iteration Nr.   8
 **********************
 DD1Dir will call FoFMem   1 times, MxPair=        14
 NAB=     4 NAA=     6 NBB=     0.
 A-vector RMS=  2.0172063D-03 Max=  3.3731493D-03 conv= 1.00D-05.
 RLE energy=       -0.0526441173
 DE(Corr)= -0.50556408E-01 E(CORR)=     -840.08126430     Delta=-1.82D-03
 NORM(A)=   0.11563477D+01
 Iteration Nr.   9
 **********************
 DD1Dir will call FoFMem   1 times, MxPair=        14
 NAB=     4 NAA=     6 NBB=     0.
 A-vector RMS=  1.0580517D-03 Max=  1.3408995D-03 conv= 1.00D-05.
 RLE energy=       -0.0523677838
 DE(Corr)= -0.52585351E-01 E(CORR)=     -840.08329325     Delta=-2.03D-03
 NORM(A)=   0.11530495D+01
 Iteration Nr.  10
 **********************
 DD1Dir will call FoFMem   1 times, MxPair=        14
 NAB=     4 NAA=     6 NBB=     0.
 A-vector RMS=  5.3240893D-04 Max=  8.3713223D-04 conv= 1.00D-05.
 RLE energy=       -0.0521616495
 DE(Corr)= -0.52377130E-01 E(CORR)=     -840.08308503     Delta= 2.08D-04
 NORM(A)=   0.11526255D+01
 Iteration Nr.  11
 **********************
 DD1Dir will call FoFMem   1 times, MxPair=        14
 NAB=     4 NAA=     6 NBB=     0.
 A-vector RMS=  4.0091126D-04 Max=  5.3479406D-04 conv= 1.00D-05.
 RLE energy=       -0.0523512600
 DE(Corr)= -0.52248202E-01 E(CORR)=     -840.08295610     Delta= 1.29D-04
 NORM(A)=   0.11538031D+01
 Iteration Nr.  12
 **********************
 DD1Dir will call FoFMem   1 times, MxPair=        14
 NAB=     4 NAA=     6 NBB=     0.
 A-vector RMS=  2.7324729D-04 Max=  2.7939746D-04 conv= 1.00D-05.
 RLE energy=       -0.0524601652
 DE(Corr)= -0.52383650E-01 E(CORR)=     -840.08309155     Delta=-1.35D-04
 NORM(A)=   0.11545110D+01
 Iteration Nr.  13
 **********************
 DD1Dir will call FoFMem   1 times, MxPair=        14
 NAB=     4 NAA=     6 NBB=     0.
 A-vector RMS=  1.7157572D-04 Max=  2.3967138D-04 conv= 1.00D-05.
 RLE energy=       -0.0524470379
 DE(Corr)= -0.52459944E-01 E(CORR)=     -840.08316784     Delta=-7.63D-05
 NORM(A)=   0.11546375D+01
 Iteration Nr.  14
 **********************
 DD1Dir will call FoFMem   1 times, MxPair=        14
 NAB=     4 NAA=     6 NBB=     0.
 A-vector RMS=  9.1810475D-05 Max=  1.2285343D-04 conv= 1.00D-05.
 RLE energy=       -0.0525016946
 DE(Corr)= -0.52457474E-01 E(CORR)=     -840.08316537     Delta= 2.47D-06
 NORM(A)=   0.11548509D+01
 Iteration Nr.  15
 **********************
 DD1Dir will call FoFMem   1 times, MxPair=        14
 NAB=     4 NAA=     6 NBB=     0.
 A-vector RMS=  7.4069857D-05 Max=  1.0673622D-04 conv= 1.00D-05.
 RLE energy=       -0.0524511126
 DE(Corr)= -0.52492043E-01 E(CORR)=     -840.08319994     Delta=-3.46D-05
 NORM(A)=   0.11544517D+01
 Iteration Nr.  16
 **********************
 DD1Dir will call FoFMem   1 times, MxPair=        14
 NAB=     4 NAA=     6 NBB=     0.
 A-vector RMS=  5.0976817D-05 Max=  8.8500005D-05 conv= 1.00D-05.
 RLE energy=       -0.0524894963
 DE(Corr)= -0.52458240E-01 E(CORR)=     -840.08316614     Delta= 3.38D-05
 NORM(A)=   0.11544672D+01
 Iteration Nr.  17
 **********************
 DD1Dir will call FoFMem   1 times, MxPair=        14
 NAB=     4 NAA=     6 NBB=     0.
 A-vector RMS=  3.5252823D-05 Max=  4.6774552D-05 conv= 1.00D-05.
 RLE energy=       -0.0524492280
 DE(Corr)= -0.52478785E-01 E(CORR)=     -840.08318668     Delta=-2.05D-05
 NORM(A)=   0.11541237D+01
 Iteration Nr.  18
 **********************
 DD1Dir will call FoFMem   1 times, MxPair=        14
 NAB=     4 NAA=     6 NBB=     0.
 A-vector RMS=  1.7191468D-05 Max=  1.6440952D-05 conv= 1.00D-05.
 RLE energy=       -0.0524609140
 DE(Corr)= -0.52451863E-01 E(CORR)=     -840.08315976     Delta= 2.69D-05
 NORM(A)=   0.11541825D+01
 Iteration Nr.  19
 **********************
 DD1Dir will call FoFMem   1 times, MxPair=        14
 NAB=     4 NAA=     6 NBB=     0.
 A-vector RMS=  7.8595516D-06 Max=  8.6890020D-06 conv= 1.00D-05.
 RLE energy=       -0.0524502732
 DE(Corr)= -0.52459118E-01 E(CORR)=     -840.08316701     Delta=-7.26D-06
 NORM(A)=   0.11540986D+01
 Iteration Nr.  20
 **********************
 DD1Dir will call FoFMem   1 times, MxPair=        14
 NAB=     4 NAA=     6 NBB=     0.
 A-vector RMS=  3.4889879D-06 Max=  5.1897984D-06 conv= 1.00D-05.
 RLE energy=       -0.0524538000
 DE(Corr)= -0.52451833E-01 E(CORR)=     -840.08315973     Delta= 7.28D-06
 NORM(A)=   0.11541226D+01
 Iteration Nr.  21
 **********************
 DD1Dir will call FoFMem   1 times, MxPair=        14
 NAB=     4 NAA=     6 NBB=     0.
 A-vector RMS=  1.4985409D-06 Max=  1.7257666D-06 conv= 1.00D-05.
 RLE energy=       -0.0524542154
 DE(Corr)= -0.52454001E-01 E(CORR)=     -840.08316190     Delta=-2.17D-06
 NORM(A)=   0.11541262D+01
 Iteration Nr.  22
 **********************
 DD1Dir will call FoFMem   1 times, MxPair=        14
 NAB=     4 NAA=     6 NBB=     0.
 A-vector RMS=  9.9424445D-07 Max=  1.2317398D-06 conv= 1.00D-05.
 RLE energy=       -0.0524545593
 DE(Corr)= -0.52454272E-01 E(CORR)=     -840.08316217     Delta=-2.71D-07
 NORM(A)=   0.11541287D+01
 Iteration Nr.  23
 **********************
 DD1Dir will call FoFMem   1 times, MxPair=        14
 NAB=     4 NAA=     6 NBB=     0.
 A-vector RMS=  5.5273913D-07 Max=  7.5157208D-07 conv= 1.00D-05.
 RLE energy=       -0.0524539708
 DE(Corr)= -0.52454486E-01 E(CORR)=     -840.08316238     Delta=-2.15D-07
 NORM(A)=   0.11541259D+01
 Iteration Nr.  24
 **********************
 DD1Dir will call FoFMem   1 times, MxPair=        14
 NAB=     4 NAA=     6 NBB=     0.
 A-vector RMS=  4.0860815D-07 Max=  4.0881705D-07 conv= 1.00D-05.
 RLE energy=       -0.0524546791
 DE(Corr)= -0.52454093E-01 E(CORR)=     -840.08316199     Delta= 3.93D-07
 NORM(A)=   0.11541305D+01
 Iteration Nr.  25
 **********************
 DD1Dir will call FoFMem   1 times, MxPair=        14
 NAB=     4 NAA=     6 NBB=     0.
 A-vector RMS=  1.9591151D-07 Max=  4.0046422D-07 conv= 1.00D-05.
 RLE energy=       -0.0524542236
 DE(Corr)= -0.52454547E-01 E(CORR)=     -840.08316244     Delta=-4.54D-07
 NORM(A)=   0.11541282D+01
 Iteration Nr.  26
 **********************
 DD1Dir will call FoFMem   1 times, MxPair=        14
 NAB=     4 NAA=     6 NBB=     0.
 A-vector RMS=  8.4544978D-08 Max=  1.4003923D-07 conv= 1.00D-05.
 RLE energy=       -0.0524543804
 DE(Corr)= -0.52454268E-01 E(CORR)=     -840.08316216     Delta= 2.79D-07
 NORM(A)=   0.11541292D+01
 Iteration Nr.  27
 **********************
 DD1Dir will call FoFMem   1 times, MxPair=        14
 NAB=     4 NAA=     6 NBB=     0.
 A-vector RMS=  4.9318149D-08 Max=  5.6852756D-08 conv= 1.00D-05.
 RLE energy=       -0.0524543524
 DE(Corr)= -0.52454371E-01 E(CORR)=     -840.08316227     Delta=-1.03D-07
 NORM(A)=   0.11541291D+01
 Iteration Nr.  28
 **********************
 DD1Dir will call FoFMem   1 times, MxPair=        14
 NAB=     4 NAA=     6 NBB=     0.
 A-vector RMS=  1.2869738D-08 Max=  1.8609007D-08 conv= 1.00D-05.
 RLE energy=       -0.0524543535
 DE(Corr)= -0.52454354E-01 E(CORR)=     -840.08316225     Delta= 1.68D-08
 NORM(A)=   0.11541291D+01
 CI/CC converged in   28 iterations to DelEn= 1.68D-08 Conv= 1.00D-07 ErrA1= 1.29D-08 Conv= 1.00D-05
 Wavefunction amplitudes converged. E(Corr)=     -840.08316225    
 Dominant configurations:
 ***********************
 Spin Case        I    J    A    B          Value
    AA           13        15           -0.162195D+00
    AA           12        14           -0.162195D+00
    BB           10        11           -0.101103D+00
   AAAA          13   12   17   18      -0.337231D+00
   ABAB          11   10   16   11       0.108664D+00
   ABAB          11   10   15   13      -0.132021D+00
   ABAB          11   10   14   12      -0.132021D+00
   ABAB          13   10   16   13      -0.110070D+00
   ABAB          12   10   16   12      -0.110070D+00
 Largest amplitude= 3.37D-01

 S**2, projected HF & approx projected MPn energies after annihilation of
 unwanted spin states (see manual for definitions):

 spins       (S**2,0) (S**2,1)    PUHF        PMP2        PMP3        PMP4
 annihilated
 s+1         3.74993  3.74996 -840.035968 -840.053439 -840.062801

 Discarding MO integrals.
 Leave Link  913 at Fri Mar 25 14:39:13 2022, MaxMem=  9663676416 cpu:              13.5 elap:               0.4
 (Enter /nopt/nrel/apps/gaussian/g16C_1/g16/l601.exe)
 Copying SCF densities to generalized density rwf, IOpCl= 1 IROHF=0.

 **********************************************************************

            Population analysis using the SCF Density.

 **********************************************************************

 Orbital symmetries:
 Alpha Orbitals:
       Occupied  (SG) (SG) (PI) (PI) (SG) (SG) (SG) (PI) (PI) (SG)
                 (SG) (PI) (PI)
       Virtual   (PI) (PI) (SG) (DLTA) (DLTA) (SG)
 Beta  Orbitals:
       Occupied  (SG) (SG) (PI) (PI) (SG) (SG) (PI) (PI) (SG) (SG)
       Virtual   (SG) (PI) (PI) (DLTA) (DLTA) (SG) (SG) (PI) (PI)
 The electronic state is 4-SG.
 Alpha  occ. eigenvalues -- -181.57823 -21.34899 -17.93294 -17.93294 -17.92694
 Alpha  occ. eigenvalues --   -2.96638  -1.91570  -1.90074  -1.90074  -0.44264
 Alpha  occ. eigenvalues --   -0.19780  -0.12460  -0.12460
 Alpha virt. eigenvalues --    0.27970   0.27970   0.30583   0.31992   0.31992
 Alpha virt. eigenvalues --    0.36808
  Beta  occ. eigenvalues -- -181.57763 -21.34514 -17.92999 -17.92999 -17.92454
  Beta  occ. eigenvalues --   -2.89231  -1.82573  -1.82573  -1.78642  -0.16138
  Beta virt. eigenvalues --    0.24653   0.30957   0.30957   0.37493   0.37493
  Beta virt. eigenvalues --    0.41573   0.42417   0.42830   0.42830
          Condensed to atoms (all electrons):
               1          2
     1  H    1.012621   0.039344
     2  Ti   0.039344  21.908691
          Atomic-Atomic Spin Densities.
               1          2
     1  H    0.924754  -0.019548
     2  Ti  -0.019548   2.114341
 Mulliken charges and spin densities:
               1          2
     1  H   -0.051965   0.905206
     2  Ti   0.051965   2.094794
 Sum of Mulliken charges =  -0.00000   3.00000
 Mulliken charges and spin densities with hydrogens summed into heavy atoms:
               1          2
     2  Ti  -0.000000   3.000000
 N-N= 4.157820942943D+00 E-N=-1.993368919125D+03  KE= 8.364839577690D+02
 Symmetry A1   KE= 6.596209120848D+02
 Symmetry A2   KE= 2.982009232041D-52
 Symmetry B1   KE= 8.843152284207D+01
 Symmetry B2   KE= 8.843152284207D+01
 Symmetry A1   SP= 1.000000000000D+00
 Symmetry A2   SP=-6.162007317800D-52
 Symmetry B1   SP= 1.000000000000D+00
 Symmetry B2   SP= 1.000000000000D+00

 Atomic contributions to Alpha molecular orbitals:
 Alpha occ 1 OE=-181.578 is Ti2-s=1.0000
 Alpha occ 2 OE=-21.349 is Ti2-s=1.0000
 Alpha occ 3 OE=-17.933 is Ti2-p=1.0000
 Alpha occ 4 OE=-17.933 is Ti2-p=1.0000
 Alpha occ 5 OE=-17.927 is Ti2-p=1.0000
 Alpha occ 6 OE=-2.966 is Ti2-s=1.0000
 Alpha occ 7 OE=-1.916 is Ti2-p=0.9999
 Alpha occ 8 OE=-1.901 is Ti2-p=1.0000
 Alpha occ 9 OE=-1.901 is Ti2-p=1.0000
 Alpha occ 10 OE=-0.443 is H1-s=0.9629
 Alpha occ 11 OE=-0.198 is Ti2-s=0.9351
 Alpha occ 12 OE=-0.125 is Ti2-d=0.8941 Ti2-p=0.1059
 Alpha occ 13 OE=-0.125 is Ti2-d=0.8941 Ti2-p=0.1059
 Alpha vir 14 OE=0.280 is Ti2-p=0.8941 Ti2-d=0.1059
 Alpha vir 15 OE=0.280 is Ti2-p=0.8941 Ti2-d=0.1059
 Alpha vir 16 OE=0.306 is Ti2-p=0.9115
 Alpha vir 17 OE=0.320 is Ti2-d=1.0000
 Alpha vir 18 OE=0.320 is Ti2-d=1.0000
 Alpha vir 19 OE=0.368 is Ti2-d=0.9572

 Atomic contributions to Beta  molecular orbitals:
 Beta  occ 1 OE=-181.578 is Ti2-s=1.0000
 Beta  occ 2 OE=-21.345 is Ti2-s=1.0000
 Beta  occ 3 OE=-17.930 is Ti2-p=1.0000
 Beta  occ 4 OE=-17.930 is Ti2-p=1.0000
 Beta  occ 5 OE=-17.925 is Ti2-p=1.0000
 Beta  occ 6 OE=-2.892 is Ti2-s=0.9998
 Beta  occ 7 OE=-1.826 is Ti2-p=0.9999
 Beta  occ 8 OE=-1.826 is Ti2-p=0.9999
 Beta  occ 9 OE=-1.786 is Ti2-p=0.9998
 Beta  occ 10 OE=-0.161 is Ti2-s=0.8219 Ti2-p=0.1032
 Beta  vir 11 OE=0.247 is H1-s=0.5154 Ti2-p=0.2231 Ti2-s=0.1598 Ti2-d=0.1017
 Beta  vir 12 OE=0.310 is Ti2-p=0.8885 Ti2-d=0.1115
 Beta  vir 13 OE=0.310 is Ti2-p=0.8885 Ti2-d=0.1115
 Beta  vir 14 OE=0.375 is Ti2-d=1.0000
 Beta  vir 15 OE=0.375 is Ti2-d=1.0000
 Beta  vir 16 OE=0.416 is Ti2-d=0.8303 Ti2-p=0.1477
 Beta  vir 17 OE=0.424 is Ti2-p=0.5260 H1-s=0.4043
 Beta  vir 18 OE=0.428 is Ti2-d=0.8884 Ti2-p=0.1116
 Beta  vir 19 OE=0.428 is Ti2-d=0.8884 Ti2-p=0.1116
 
 Leave Link  601 at Fri Mar 25 14:39:13 2022, MaxMem=  9663676416 cpu:               3.2 elap:               0.1
 (Enter /nopt/nrel/apps/gaussian/g16C_1/g16/l9999.exe)

 Test job not archived.
 1\1\GINC-R3I7N35\SP\UCCSD-FC\Gen\H1Ti1(4)\USER\25-Mar-2022\0\\#P C
 CSD/GEN sp pop=AllOrbitals iop(3/33=1,3/36=-1)\\test\\0,4\H,0,0.,0.,0.
 \Ti,0,0.,0.,2.8\\Version=ES64L-G16RevC.01\State=4-SG\HF=-840.0307079\M
 P2=-840.0488028\MP3=-840.0589604\MP4D=-840.0650724\MP4DQ=-840.0647523\
 PUHF=-840.0359679\PMP2-0=-840.0534391\PMP3-0=-840.0628008\MP4SDQ=-840.
 0651434\CCSD=-840.0831623\S2=3.948555\S2-1=3.90145\S2A=3.750097\RMSD=3
 .513e-09\PG=C*V [C*(H1Ti1)]\\@


 ...THOSE SCIENCES ARE VAIN AND FULL OF ERRORS WHICH 
 ARE NOT BORN FROM EXPERIMENT, THE MOTHER OF CERTAINTY...

                          -- LEONARDO DA VINCI, 1452-1519
 Job cpu time:       0 days  0 hours  0 minutes 59.0 seconds.
 Elapsed time:       0 days  0 hours  0 minutes  2.1 seconds.
 File lengths (MBytes):  RWF=     13 Int=      0 D2E=      0 Chk=      1 Scr=      1
 Normal termination of Gaussian 16 at Fri Mar 25 14:39:13 2022.
