 Entering Gaussian System, Link 0=g16
 Initial command:
 /nopt/nrel/apps/gaussian/g16C_1/g16/l1.exe "/lustre/eaglefs/scratch/user/qc/tih-dissc/tih-4-ccsd-1.0-augccq/Gau-28021.inp" -scrdir="/lustre/eaglefs/scratch/user/qc/tih-dissc/tih-4-ccsd-1.0-augccq/"
 Default is to use a total of  36 processors:
                               36 via shared-memory
                                1 via Linda
 Entering Link 1 = /nopt/nrel/apps/gaussian/g16C_1/g16/l1.exe PID=     28022.
  
 Copyright (c) 1988-2019, Gaussian, Inc.  All Rights Reserved.
  
 This is part of the Gaussian(R) 16 program.  It is based on
 the Gaussian(R) 09 system (copyright 2009, Gaussian, Inc.),
 the Gaussian(R) 03 system (copyright 2003, Gaussian, Inc.),
 the Gaussian(R) 98 system (copyright 1998, Gaussian, Inc.),
 the Gaussian(R) 94 system (copyright 1995, Gaussian, Inc.),
 the Gaussian 92(TM) system (copyright 1992, Gaussian, Inc.),
 the Gaussian 90(TM) system (copyright 1990, Gaussian, Inc.),
 the Gaussian 88(TM) system (copyright 1988, Gaussian, Inc.),
 the Gaussian 86(TM) system (copyright 1986, Carnegie Mellon
 University), and the Gaussian 82(TM) system (copyright 1983,
 Carnegie Mellon University). Gaussian is a federally registered
 trademark of Gaussian, Inc.
  
 This software contains proprietary and confidential information,
 including trade secrets, belonging to Gaussian, Inc.
  
 This software is provided under written license and may be
 used, copied, transmitted, or stored only in accord with that
 written license.
  
 The following legend is applicable only to US Government
 contracts under FAR:
  
                    RESTRICTED RIGHTS LEGEND
  
 Use, reproduction and disclosure by the US Government is
 subject to restrictions as set forth in subparagraphs (a)
 and (c) of the Commercial Computer Software - Restricted
 Rights clause in FAR 52.227-19.
  
 Gaussian, Inc.
 340 Quinnipiac St., Bldg. 40, Wallingford CT 06492
  
  
 ---------------------------------------------------------------
 Warning -- This program may not be used in any manner that
 competes with the business of Gaussian, Inc. or will provide
 assistance to any competitor of Gaussian, Inc.  The licensee
 of this program is prohibited from giving any competitor of
 Gaussian, Inc. access to this program.  By using this program,
 the user acknowledges that Gaussian, Inc. is engaged in the
 business of creating and licensing software in the field of
 computational chemistry and represents and warrants to the
 licensee that it is not a competitor of Gaussian, Inc. and that
 it will not use this program in any manner prohibited above.
 ---------------------------------------------------------------
  

 Cite this work as:
 Gaussian 16, Revision C.01,
 M. J. Frisch, G. W. Trucks, H. B. Schlegel, G. E. Scuseria, 
 M. A. Robb, J. R. Cheeseman, G. Scalmani, V. Barone, 
 G. A. Petersson, H. Nakatsuji, X. Li, M. Caricato, A. V. Marenich, 
 J. Bloino, B. G. Janesko, R. Gomperts, B. Mennucci, H. P. Hratchian, 
 J. V. Ortiz, A. F. Izmaylov, J. L. Sonnenberg, D. Williams-Young, 
 F. Ding, F. Lipparini, F. Egidi, J. Goings, B. Peng, A. Petrone, 
 T. Henderson, D. Ranasinghe, V. G. Zakrzewski, J. Gao, N. Rega, 
 G. Zheng, W. Liang, M. Hada, M. Ehara, K. Toyota, R. Fukuda, 
 J. Hasegawa, M. Ishida, T. Nakajima, Y. Honda, O. Kitao, H. Nakai, 
 T. Vreven, K. Throssell, J. A. Montgomery, Jr., J. E. Peralta, 
 F. Ogliaro, M. J. Bearpark, J. J. Heyd, E. N. Brothers, K. N. Kudin, 
 V. N. Staroverov, T. A. Keith, R. Kobayashi, J. Normand, 
 K. Raghavachari, A. P. Rendell, J. C. Burant, S. S. Iyengar, 
 J. Tomasi, M. Cossi, J. M. Millam, M. Klene, C. Adamo, R. Cammi, 
 J. W. Ochterski, R. L. Martin, K. Morokuma, O. Farkas, 
 J. B. Foresman, and D. J. Fox, Gaussian, Inc., Wallingford CT, 2019.
 
 ******************************************
 Gaussian 16:  ES64L-G16RevC.01  3-Jul-2019
                28-Mar-2022 
 ******************************************
 %chk=molecule
 Default route: CacheSize=180224 MaxDisk=256GB
 ----------------------------------------------------------------------
 #P CCSD(MaxCyc=200,SaveAmplitudes,ReadAmplitudes)/GEN sp pop=AllOrbita
 ls iop(3/33=1,3/36=-1)
 ----------------------------------------------------------------------
 1/4=180224,38=1,172=1/1;
 2/4=180224,12=2,17=6,18=5,40=1/2;
 3/4=180224,5=7,11=9,25=1,30=1,33=1,36=-1/1,2,3;
 4/4=180224/1;
 5/4=180224,5=2,38=5/2;
 8/4=180224,6=4,9=120000,10=1,24=1/1,4;
 9/4=180224,5=7,6=200,77=1/13;
 6/4=180224,7=2,8=2,9=2,10=2,96=-1/1;
 99/4=180224,5=1,9=1/99;
 Leave Link    1 at Mon Mar 28 14:48:01 2022, MaxMem=           0 cpu:               2.1 elap:               0.1
 (Enter /nopt/nrel/apps/gaussian/g16C_1/g16/l101.exe)
 ----
 test
 ----
 Symbolic Z-matrix:
 Charge =  0 Multiplicity = 4
 H                     0.        0.        0. 
 Ti                    0.        0.        1. 
 
 ITRead=  0  0
 MicOpt= -1 -1
 NAtoms=      2 NQM=        2 NQMF=       0 NMMI=      0 NMMIF=      0
                NMic=       0 NMicF=      0.
                    Isotopes and Nuclear Properties:
 (Nuclear quadrupole moments (NQMom) in fm**2, nuclear magnetic moments (NMagM)
  in nuclear magnetons)

  Atom         1           2
 IAtWgt=           1          48
 AtmWgt=   1.0078250  47.9479467
 NucSpn=           1           0
 AtZEff=  -0.0000000  -0.0000000
 NQMom=    0.0000000   0.0000000
 NMagM=    2.7928460   0.0000000
 AtZNuc=   1.0000000  22.0000000
 Leave Link  101 at Mon Mar 28 14:48:01 2022, MaxMem=  9663676416 cpu:               3.2 elap:               0.1
 (Enter /nopt/nrel/apps/gaussian/g16C_1/g16/l202.exe)
                          Input orientation:                          
 ---------------------------------------------------------------------
 Center     Atomic      Atomic             Coordinates (Angstroms)
 Number     Number       Type             X           Y           Z
 ---------------------------------------------------------------------
      1          1           0        0.000000    0.000000    0.000000
      2         22           0        0.000000    0.000000    1.000000
 ---------------------------------------------------------------------
 Stoichiometry    HTi(4)
 Framework group  C*V[C*(HTi)]
 Deg. of freedom     1
 Full point group                 C*V     NOp   4
 Largest Abelian subgroup         C2V     NOp   4
 Largest concise Abelian subgroup C1      NOp   1
                         Standard orientation:                         
 ---------------------------------------------------------------------
 Center     Atomic      Atomic             Coordinates (Angstroms)
 Number     Number       Type             X           Y           Z
 ---------------------------------------------------------------------
      1          1           0        0.000000    0.000000   -0.956522
      2         22           0        0.000000    0.000000    0.043478
 ---------------------------------------------------------------------
 Rotational constants (GHZ):           0.0000000         511.9952640         511.9952640
 Leave Link  202 at Mon Mar 28 14:48:01 2022, MaxMem=  9663676416 cpu:               1.0 elap:               0.0
 (Enter /nopt/nrel/apps/gaussian/g16C_1/g16/l301.exe)
 General basis read from cards:  (5D, 7F)
                         Coordinates in L301:                         
 ---------------------------------------------------------------------
 Center     Atomic      Atomic             Coordinates (Angstroms)
 Number     Number       Type             X           Y           Z
 ---------------------------------------------------------------------
      1          1           0        0.000000    0.000000   -0.956522
      2         22           0        0.000000    0.000000    0.043478
 ---------------------------------------------------------------------
 Centers:       1
 STO-3G
 ****
 Centers:       2
 aug-cc-pVQZ
 ****
 FixB: optimizing general contractions.
 Ernie: Thresh=  0.10000D-02 Tol=  0.10000D-05 Strict=F.
 IA=     1 ShT= 0 ShC= 0 NL=   1 NS=   0.
 IA=     1 L=0 SC=0 ISt=    0 NBk=    0 NP=    0 IndPr=    0.
 IA=     2 ShT= 0 ShC= 0 NL=   9 NS=   2.
 IA=     2 L=0 SC=0 ISt=    1 NBk=    7 NP=   21 IndPr=    0.
 DoElim1:  L=0 select primitive    5 from    2 using    1 C= 1.24D-03
 DoElim1:  L=0 select primitive    5 from    3 using    1 C= 1.24D-03
 DoElim1:  L=0 select primitive    5 from    4 using    1 C= 1.24D-03
 DoElim1:  L=0 select primitive    5 from    5 using    1 C= 1.24D-03
 DoElim1:  L=0 select primitive    5 from    6 using    1 C= 1.24D-03
 DoElim1:  L=0 select primitive    5 from    7 using    1 C= 1.24D-03
 DoElim1:  L=0 select primitive    9 from    3 using    2 C=-1.93D-03
 DoElim1:  L=0 select primitive    9 from    4 using    2 C=-1.93D-03
 DoElim1:  L=0 select primitive    9 from    5 using    2 C=-1.93D-03
 DoElim1:  L=0 select primitive    9 from    6 using    2 C=-1.93D-03
 DoElim1:  L=0 select primitive    9 from    7 using    2 C=-1.93D-03
 DoElim1:  L=0 select primitive   11 from    3 using    7 C= 3.10D-03
 DoElim1:  L=0 select primitive   11 from    4 using    7 C= 3.10D-03
 DoElim1:  L=0 select primitive   11 from    5 using    7 C= 3.10D-03
 DoElim1:  L=0 select primitive   11 from    6 using    7 C= 3.10D-03
 DoElim1:  L=0 select primitive   13 from    3 using    6 C=-7.71D-03
 DoElim1:  L=0 select primitive   13 from    4 using    6 C=-7.71D-03
 DoElim1:  L=0 select primitive   13 from    5 using    6 C=-7.71D-03
 DoElim1:  L=0 select primitive   15 from    4 using    3 C= 2.80D-02
 DoElim1:  L=0 select primitive   15 from    5 using    3 C= 2.80D-02
 DoElim1:  L=0 select primitive   17 from    4 using    5 C= 5.22D-02
 DoElim2:  L=0 select primitive   21 from    5 using    4 C= 6.03D-01
 DoElim2:  L=0 select primitive   21 from    3 using    4 C= 6.03D-01
 DoElim2:  L=0 select primitive   21 from    6 using    4 C= 6.03D-01
 DoElim2:  L=0 select primitive   21 from    7 using    4 C= 6.03D-01
 DoElim2:  L=0 select primitive   21 from    2 using    4 C= 6.03D-01
 DoElim2:  L=0 select primitive   21 from    1 using    4 C= 6.03D-01
 DoElim2:  L=0 select primitive   20 from    3 using    5 C= 1.86D+00
 DoElim2:  L=0 select primitive   20 from    6 using    5 C= 1.86D+00
 DoElim2:  L=0 select primitive   20 from    7 using    5 C= 1.86D+00
 DoElim2:  L=0 select primitive   20 from    2 using    5 C= 1.86D+00
 DoElim2:  L=0 select primitive   20 from    1 using    5 C= 1.86D+00
 DoElim2:  L=0 select primitive   19 from    6 using    3 C= 2.36D+00
 DoElim2:  L=0 select primitive   19 from    7 using    3 C= 2.36D+00
 DoElim2:  L=0 select primitive   19 from    2 using    3 C= 2.36D+00
 DoElim2:  L=0 select primitive   19 from    1 using    3 C= 2.36D+00
 DoElim2:  L=0 select primitive   18 from    7 using    6 C=-1.24D+00
 DoElim2:  L=0 select primitive   18 from    2 using    6 C=-1.24D+00
 DoElim2:  L=0 select primitive   18 from    1 using    6 C=-1.24D+00
 DoElim2:  L=0 select primitive   17 from    2 using    7 C=-2.13D+00
 DoElim2:  L=0 select primitive   17 from    1 using    7 C=-2.13D+00
 DoElim2:  L=0 select primitive   15 from    1 using    2 C= 6.08D-01
 Delete L=0 primitive   21 from    7 C=  2.73D-16.
 Delete L=0 primitive   20 from    7 C=  1.11D-16.
 Delete L=0 primitive   19 from    7 C=  2.85D-17.
 Delete L=0 primitive   18 from    7 C=  2.07D-17.
 Delete L=0 primitive    9 from    7 C=  2.61D-19.
 Delete L=0 primitive    5 from    7 C=  8.35D-20.
 Delete L=0 primitive    3 from    7 C=  1.55D-07.
 Delete L=0 primitive    2 from    7 C=  1.24D-07.
 Delete L=0 primitive    1 from    7 C=  7.50D-09.
 Delete L=0 primitive   21 from    6 C=  1.39D-16.
 Delete L=0 primitive   20 from    6 C=  1.06D-16.
 Delete L=0 primitive   19 from    6 C=  7.84D-17.
 Delete L=0 primitive   11 from    6 C=  2.64D-20.
 Delete L=0 primitive    9 from    6 C=  1.19D-19.
 Delete L=0 primitive    5 from    6 C=  3.98D-20.
 Delete L=0 primitive    4 from    6 C=  4.09D-07.
 Delete L=0 primitive    3 from    6 C=  1.84D-08.
 Delete L=0 primitive    2 from    6 C=  1.47D-08.
 Delete L=0 primitive    1 from    6 C=  8.92D-10.
 Delete L=0 primitive   21 from    5 C=  9.89D-18.
 Delete L=0 primitive   15 from    5 C=  1.80D-19.
 Delete L=0 primitive   13 from    5 C=  6.80D-20.
 Delete L=0 primitive   11 from    5 C=  1.02D-20.
 Delete L=0 primitive    9 from    5 C=  4.77D-21.
 Delete L=0 primitive    8 from    5 C=  1.65D-07.
 Delete L=0 primitive    7 from    5 C=  4.42D-09.
 Delete L=0 primitive    6 from    5 C=  2.03D-08.
 Delete L=0 primitive    5 from    5 C=  1.30D-21.
 Delete L=0 primitive    4 from    5 C=  1.42D-09.
 Delete L=0 primitive    3 from    5 C=  6.61D-11.
 Delete L=0 primitive    2 from    5 C=  5.17D-11.
 Delete L=0 primitive    1 from    5 C=  3.14D-12.
 Delete L=0 primitive   17 from    4 C=  1.40D-18.
 Delete L=0 primitive   15 from    4 C=  2.69D-20.
 Delete L=0 primitive   13 from    4 C=  2.56D-20.
 Delete L=0 primitive   11 from    4 C=  4.20D-21.
 Delete L=0 primitive   10 from    4 C=  4.16D-07.
 Delete L=0 primitive    9 from    4 C=  6.90D-21.
 Delete L=0 primitive    8 from    4 C=  6.97D-08.
 Delete L=0 primitive    7 from    4 C=  9.91D-10.
 Delete L=0 primitive    6 from    4 C=  1.10D-08.
 Delete L=0 primitive    5 from    4 C=  2.01D-21.
 Delete L=0 primitive    4 from    4 C=  8.88D-10.
 Delete L=0 primitive    3 from    4 C=  3.63D-11.
 Delete L=0 primitive    2 from    4 C=  3.28D-11.
 Delete L=0 primitive    1 from    4 C=  1.85D-12.
 Delete L=0 primitive   21 from    3 C=  6.55D-17.
 Delete L=0 primitive   20 from    3 C=  2.03D-17.
 Delete L=0 primitive   13 from    3 C=  2.08D-19.
 Delete L=0 primitive   11 from    3 C=  5.10D-20.
 Delete L=0 primitive    9 from    3 C=  1.06D-20.
 Delete L=0 primitive    8 from    3 C=  3.06D-07.
 Delete L=0 primitive    7 from    3 C=  5.43D-08.
 Delete L=0 primitive    6 from    3 C=  2.03D-08.
 Delete L=0 primitive    5 from    3 C=  6.17D-22.
 Delete L=0 primitive    4 from    3 C=  3.63D-09.
 Delete L=0 primitive    3 from    3 C=  7.54D-11.
 Delete L=0 primitive    2 from    3 C=  1.39D-10.
 Delete L=0 primitive    1 from    3 C=  6.31D-12.
 Delete L=0 primitive   21 from    2 C=  7.51D-18.
 Delete L=0 primitive   20 from    2 C=  2.88D-18.
 Delete L=0 primitive   19 from    2 C=  5.63D-19.
 Delete L=0 primitive   18 from    2 C=  7.69D-19.
 Delete L=0 primitive   17 from    2 C=  1.61D-18.
 Delete L=0 primitive    5 from    2 C=  4.12D-20.
 Delete L=0 primitive    4 from    2 C=  1.15D-07.
 Delete L=0 primitive    3 from    2 C=  4.52D-08.
 Delete L=0 primitive    2 from    2 C=  8.43D-09.
 Delete L=0 primitive    1 from    2 C=  1.18D-09.
 Delete L=0 primitive   21 from    1 C=  2.82D-20.
 Delete L=0 primitive   20 from    1 C=  1.29D-20.
 Delete L=0 primitive   19 from    1 C=  2.16D-20.
 Delete L=0 primitive   18 from    1 C=  5.78D-20.
 Delete L=0 primitive   17 from    1 C=  2.43D-19.
 Delete L=0 primitive   15 from    1 C=  6.82D-18.
 IA=     2 L=0 SC=0 ISt=    0 NBk=    0 NP=    0 IndPr=   72.
 IA=     2 ShT= 1 ShC= 1 NL=   8 NS=   2.
 IA=     2 L=1 SC=1 ISt=    1 NBk=    6 NP=   17 IndPr=    0.
 DoElim1:  L=1 select primitive    4 from    2 using    1 C= 2.75D-03
 DoElim1:  L=1 select primitive    4 from    3 using    1 C= 2.75D-03
 DoElim1:  L=1 select primitive    4 from    4 using    1 C= 2.75D-03
 DoElim1:  L=1 select primitive    4 from    5 using    1 C= 2.75D-03
 DoElim1:  L=1 select primitive    4 from    6 using    1 C= 2.75D-03
 DoElim1:  L=1 select primitive    7 from    2 using    6 C= 3.38D-03
 DoElim1:  L=1 select primitive    7 from    3 using    6 C= 3.38D-03
 DoElim1:  L=1 select primitive    7 from    4 using    6 C= 3.38D-03
 DoElim1:  L=1 select primitive    7 from    5 using    6 C= 3.38D-03
 DoElim1:  L=1 select primitive    9 from    2 using    5 C= 8.04D-03
 DoElim1:  L=1 select primitive    9 from    3 using    5 C= 8.04D-03
 DoElim1:  L=1 select primitive    9 from    4 using    5 C= 8.04D-03
 DoElim1:  L=1 select primitive   11 from    3 using    2 C= 2.61D-02
 DoElim1:  L=1 select primitive   11 from    4 using    2 C= 2.61D-02
 DoElim1:  L=1 select primitive   13 from    4 using    3 C=-1.58D-02
 DoElim2:  L=1 select primitive   16 from    3 using    4 C= 4.55D-01
 DoElim2:  L=1 select primitive   16 from    2 using    4 C= 4.55D-01
 DoElim2:  L=1 select primitive   16 from    5 using    4 C= 4.55D-01
 DoElim2:  L=1 select primitive   16 from    6 using    4 C= 4.55D-01
 DoElim2:  L=1 select primitive   16 from    1 using    4 C= 4.55D-01
 DoElim2:  L=1 select primitive   17 from    2 using    3 C= 3.13D-01
 DoElim2:  L=1 select primitive   17 from    5 using    3 C= 3.13D-01
 DoElim2:  L=1 select primitive   17 from    6 using    3 C= 3.13D-01
 DoElim2:  L=1 select primitive   17 from    1 using    3 C= 3.13D-01
 DoElim2:  L=1 select primitive   15 from    5 using    2 C= 1.71D+00
 DoElim2:  L=1 select primitive   15 from    6 using    2 C= 1.71D+00
 DoElim2:  L=1 select primitive   15 from    1 using    2 C= 1.71D+00
 DoElim2:  L=1 select primitive   13 from    6 using    5 C=-7.90D-01
 DoElim2:  L=1 select primitive   13 from    1 using    5 C=-7.90D-01
 DoElim2:  L=1 select primitive   14 from    1 using    6 C=-8.42D-01
 Delete L=1 primitive   17 from    6 C=  8.74D-17.
 Delete L=1 primitive   16 from    6 C=  1.17D-16.
 Delete L=1 primitive   15 from    6 C=  2.12D-16.
 Delete L=1 primitive   13 from    6 C=  5.30D-17.
 Delete L=1 primitive    4 from    6 C=  1.17D-19.
 Delete L=1 primitive    2 from    6 C=  1.13D-07.
 Delete L=1 primitive   17 from    5 C=  1.22D-17.
 Delete L=1 primitive   16 from    5 C=  4.80D-17.
 Delete L=1 primitive   15 from    5 C=  1.77D-16.
 Delete L=1 primitive    7 from    5 C=  3.19D-20.
 Delete L=1 primitive    4 from    5 C=  1.53D-19.
 Delete L=1 primitive    2 from    5 C=  8.54D-08.
 Delete L=1 primitive   13 from    4 C=  2.49D-19.
 Delete L=1 primitive   11 from    4 C=  3.55D-20.
 Delete L=1 primitive    9 from    4 C=  1.66D-19.
 Delete L=1 primitive    7 from    4 C=  8.22D-21.
 Delete L=1 primitive    6 from    4 C=  5.04D-07.
 Delete L=1 primitive    4 from    4 C=  1.70D-21.
 Delete L=1 primitive    3 from    4 C=  6.33D-07.
 Delete L=1 primitive    2 from    4 C=  2.85D-07.
 Delete L=1 primitive    1 from    4 C=  2.02D-07.
 Delete L=1 primitive   16 from    3 C=  9.42D-18.
 Delete L=1 primitive   11 from    3 C=  6.08D-19.
 Delete L=1 primitive    9 from    3 C=  3.09D-19.
 Delete L=1 primitive    7 from    3 C=  5.37D-21.
 Delete L=1 primitive    5 from    3 C=  6.29D-07.
 Delete L=1 primitive    4 from    3 C=  2.47D-20.
 Delete L=1 primitive    3 from    3 C=  2.76D-07.
 Delete L=1 primitive    2 from    3 C=  1.53D-07.
 Delete L=1 primitive    1 from    3 C=  1.93D-07.
 Delete L=1 primitive   17 from    2 C=  6.99D-19.
 Delete L=1 primitive   16 from    2 C=  8.90D-18.
 Delete L=1 primitive    9 from    2 C=  7.63D-19.
 Delete L=1 primitive    7 from    2 C=  2.52D-20.
 Delete L=1 primitive    4 from    2 C=  1.06D-19.
 Delete L=1 primitive    2 from    2 C=  1.89D-07.
 Delete L=1 primitive    1 from    2 C=  6.39D-08.
 Delete L=1 primitive   17 from    1 C=  2.07D-19.
 Delete L=1 primitive   16 from    1 C=  3.51D-19.
 Delete L=1 primitive   15 from    1 C=  4.20D-20.
 Delete L=1 primitive   14 from    1 C=  1.46D-19.
 Delete L=1 primitive   13 from    1 C=  4.17D-20.
 IA=     2 L=1 SC=1 ISt=    0 NBk=    0 NP=    0 IndPr=   60.
 IA=     2 ShT= 2 ShC= 2 NL=   6 NS=   2.
 IA=     2 L=2 SC=2 ISt=    1 NBk=    4 NP=   10 IndPr=    0.
 DoElim1:  L=2 select primitive    2 from    1 using    4 C=-7.09D-03
 DoElim1:  L=2 select primitive    2 from    2 using    4 C=-7.09D-03
 DoElim1:  L=2 select primitive    2 from    3 using    4 C=-7.09D-03
 DoElim1:  L=2 select primitive    4 from    2 using    1 C=-4.66D-03
 DoElim1:  L=2 select primitive    4 from    3 using    1 C=-4.66D-03
 DoElim1:  L=2 select primitive    6 from    3 using    2 C=-3.56D-03
 DoElim2:  L=2 select primitive    9 from    2 using    3 C= 1.26D+00
 DoElim2:  L=2 select primitive    9 from    1 using    3 C= 1.26D+00
 DoElim2:  L=2 select primitive    9 from    4 using    3 C= 1.26D+00
 DoElim2:  L=2 select primitive   10 from    1 using    2 C= 8.65D-01
 DoElim2:  L=2 select primitive   10 from    4 using    2 C= 8.65D-01
 DoElim2:  L=2 select primitive    8 from    4 using    1 C= 8.52D-01
 Delete L=2 primitive   10 from    4 C=  1.30D-17.
 Delete L=2 primitive    9 from    4 C=  8.10D-17.
 Delete L=2 primitive    8 from    4 C=  2.30D-17.
 Delete L=2 primitive    6 from    3 C=  3.19D-20.
 Delete L=2 primitive    4 from    3 C=  1.62D-19.
 Delete L=2 primitive    2 from    3 C=  4.24D-19.
 Delete L=2 primitive    9 from    2 C=  4.10D-17.
 Delete L=2 primitive    4 from    2 C=  6.05D-20.
 Delete L=2 primitive    2 from    2 C=  3.57D-20.
 Delete L=2 primitive   10 from    1 C=  3.18D-18.
 Delete L=2 primitive    9 from    1 C=  1.83D-17.
 Delete L=2 primitive    2 from    1 C=  1.78D-19.
 IA=     2 L=2 SC=2 ISt=    0 NBk=    0 NP=    0 IndPr=   28.
 IA=     2 ShT= 3 ShC= 3 NL=   4 NS=   4.
 IA=     2 L=3 SC=3 ISt=    0 NBk=    0 NP=    0 IndPr=    0.
 IA=     2 ShT= 4 ShC= 4 NL=   3 NS=   3.
 IA=     2 L=4 SC=4 ISt=    0 NBk=    0 NP=    0 IndPr=    0.
 IA=     2 ShT= 5 ShC= 5 NL=   2 NS=   2.
 IA=     2 L=5 SC=5 ISt=    0 NBk=    0 NP=    0 IndPr=    0.
 Ernie:  129 primitive shells out of 307 were deleted.
 LdAtmC:  AtmChg=     1.000000    22.000000
 AtZEff=     -1.0000000    -23.9800000
 NEqShl: 
              1            2            3            4
     1            1            1            1            1
     2            2            2            2            2
     3            3            3            3            3
     4            4            4            4            4
     5            5            5            5            5
     6            6            6            6            6
     7            7            7            7            7
     8            8            8            8            8
     9            9            9            9            9
    10           10           10           10           10
    11           11           11           11           11
    12           12           12           12           12
    13           13           13           13           13
    14           14           14           14           14
    15           15           15           15           15
    16           16           16           16           16
    17           17           17           17           17
    18           18           18           18           18
    19           19           19           19           19
    20           20           20           20           20
    21           21           21           21           21
    22           22           22           22           22
    23           23           23           23           23
    24           24           24           24           24
    25           25           25           25           25
    26           26           26           26           26
    27           27           27           27           27
    28           28           28           28           28
    29           29           29           29           29
    30           30           30           30           30
    31           31           31           31           31
    32           32           32           32           32
    33           33           33           33           33
 NEqBas: 
              1            2            3            4
     1            1            1            1            1
     2            2            2            2            2
     3            3            3            3            3
     4            4            4            4            4
     5            5            5            5            5
     6            6            6            6            6
     7            7            7            7            7
     8            8            8            8            8
     9            9            9            9            9
    10           10           10           10           10
    11           11          -11          -11           11
    12           12          -12           12          -12
    13           13           13           13           13
    14           14          -14          -14           14
    15           15          -15           15          -15
    16           16           16           16           16
    17           17          -17          -17           17
    18           18          -18           18          -18
    19           19           19           19           19
    20           20          -20          -20           20
    21           21          -21           21          -21
    22           22           22           22           22
    23           23          -23          -23           23
    24           24          -24           24          -24
    25           25           25           25           25
    26           26          -26          -26           26
    27           27          -27           27          -27
    28           28           28           28           28
    29           29          -29          -29           29
    30           30          -30           30          -30
    31           31           31           31           31
    32           32          -32          -32           32
    33           33          -33           33          -33
    34           34           34           34           34
    35           35           35           35           35
    36           36           36           36           36
    37           37           37           37           37
    38           38           38          -38          -38
    39           39          -39          -39           39
    40           40          -40           40          -40
    41           41           41           41           41
    42           42           42           42           42
    43           43           43           43           43
    44           44           44          -44          -44
    45           45          -45          -45           45
    46           46          -46           46          -46
    47           47           47           47           47
    48           48           48           48           48
    49           49           49           49           49
    50           50           50          -50          -50
    51           51          -51          -51           51
    52           52          -52           52          -52
    53           53           53           53           53
    54           54           54           54           54
    55           55           55           55           55
    56           56           56          -56          -56
    57           57          -57          -57           57
    58           58          -58           58          -58
    59           59           59           59           59
    60           60           60           60           60
    61           61           61           61           61
    62           62           62          -62          -62
    63           63          -63          -63           63
    64           64          -64           64          -64
    65           65           65           65           65
    66           66           66           66           66
    67           67           67           67           67
    68           68           68          -68          -68
    69           69          -69          -69           69
    70           70          -70           70          -70
    71           71          -71          -71           71
    72           72          -72           72          -72
    73           73           73           73           73
    74           74          -74          -74           74
    75           75          -75           75          -75
    76           76           76           76           76
    77           77          -77          -77           77
    78           78          -78           78          -78
    79           79           79           79           79
    80           80           80          -80          -80
    81           81          -81          -81           81
    82           82          -82           82          -82
    83           83           83           83           83
    84           84          -84          -84           84
    85           85          -85           85          -85
    86           86           86           86           86
    87           87          -87          -87           87
    88           88          -88           88          -88
    89           89           89           89           89
    90           90           90          -90          -90
    91           91          -91          -91           91
    92           92          -92           92          -92
    93           93           93           93           93
    94           94          -94          -94           94
    95           95          -95           95          -95
    96           96           96           96           96
    97           97          -97          -97           97
    98           98          -98           98          -98
    99           99           99           99           99
   100          100          100         -100         -100
   101          101         -101         -101          101
   102          102         -102          102         -102
   103          103          103          103          103
   104          104         -104         -104          104
   105          105         -105          105         -105
   106          106          106          106          106
   107          107         -107         -107          107
   108          108         -108          108         -108
   109          109          109          109          109
   110          110          110         -110         -110
   111          111          111          111          111
   112          112         -112          112         -112
   113          113          113          113          113
   114          114         -114          114         -114
   115          115          115          115          115
   116          116         -116         -116          116
   117          117          117         -117         -117
   118          118         -118         -118          118
   119          119          119         -119         -119
   120          120          120          120          120
   121          121         -121          121         -121
   122          122          122          122          122
   123          123         -123         -123          123
   124          124          124         -124         -124
   125          125          125          125          125
   126          126          126          126          126
   127          127         -127          127         -127
   128          128          128          128          128
   129          129         -129          129         -129
   130          130          130          130          130
   131          131         -131         -131          131
   132          132          132         -132         -132
   133          133         -133         -133          133
   134          134          134         -134         -134
   135          135          135          135          135
   136          136         -136          136         -136
   137          137          137          137          137
   138          138         -138         -138          138
   139          139          139         -139         -139
   140          140          140          140          140
   141          141          141          141          141
   142          142         -142          142         -142
   143          143          143          143          143
   144          144         -144          144         -144
   145          145          145          145          145
   146          146         -146         -146          146
   147          147          147         -147         -147
   148          148         -148         -148          148
   149          149          149         -149         -149
   150          150          150          150          150
   151          151         -151          151         -151
   152          152          152          152          152
   153          153         -153         -153          153
   154          154          154         -154         -154
   155          155          155          155          155
   156          156          156          156          156
   157          157         -157          157         -157
   158          158          158          158          158
   159          159         -159          159         -159
   160          160          160          160          160
   161          161         -161          161         -161
   162          162         -162         -162          162
   163          163          163         -163         -163
   164          164         -164         -164          164
   165          165          165         -165         -165
   166          166         -166         -166          166
   167          167          167          167          167
   168          168         -168          168         -168
   169          169          169          169          169
   170          170         -170          170         -170
   171          171         -171         -171          171
   172          172          172         -172         -172
   173          173         -173         -173          173
   174          174          174          174          174
   175          175         -175          175         -175
   176          176         -176         -176          176
   177          177          177          177          177
   178          178         -178          178         -178
   179          179          179          179          179
   180          180         -180          180         -180
   181          181          181          181          181
   182          182         -182          182         -182
   183          183         -183         -183          183
   184          184          184         -184         -184
   185          185         -185         -185          185
   186          186          186         -186         -186
   187          187         -187         -187          187
   188          188          188          188          188
   189          189         -189          189         -189
   190          190          190          190          190
   191          191         -191          191         -191
   192          192         -192         -192          192
   193          193          193         -193         -193
   194          194         -194         -194          194
   195          195          195          195          195
   196          196         -196          196         -196
   197          197         -197         -197          197
 There are    78 symmetry adapted cartesian basis functions of A1  symmetry.
   1         1   1   1   1
   2         2   2   2   2
   3         3   3   3   3
   4         4   4   4   4
   5         5   5   5   5
   6         6   6   6   6
   7         7   7   7   7
   8         8   8   8   8
   9         9   9   9   9
  10        10  10  10  10
  11        13  13  13  13
  12        16  16  16  16
  13        19  19  19  19
  14        22  22  22  22
  15        25  25  25  25
  16        28  28  28  28
  17        31  31  31  31
  18        34  34  34  34
  19        35  35  35  35
  20        36  36  36  36
  21        37  37  37  37
  22        41  41  41  41
  23        42  42  42  42
  24        43  43  43  43
  25        47  47  47  47
  26        48  48  48  48
  27        49  49  49  49
  28        53  53  53  53
  29        54  54  54  54
  30        55  55  55  55
  31        59  59  59  59
  32        60  60  60  60
  33        61  61  61  61
  34        65  65  65  65
  35        66  66  66  66
  36        67  67  67  67
  37        73  73  73  73
  38        76  76  76  76
  39        79  79  79  79
  40        83  83  83  83
  41        86  86  86  86
  42        89  89  89  89
  43        93  93  93  93
  44        96  96  96  96
  45        99  99  99  99
  46       103 103 103 103
  47       106 106 106 106
  48       109 109 109 109
  49       111 111 111 111
  50       113 113 113 113
  51       115 115 115 115
  52       120 120 120 120
  53       122 122 122 122
  54       125 125 125 125
  55       126 126 126 126
  56       128 128 128 128
  57       130 130 130 130
  58       135 135 135 135
  59       137 137 137 137
  60       140 140 140 140
  61       141 141 141 141
  62       143 143 143 143
  63       145 145 145 145
  64       150 150 150 150
  65       152 152 152 152
  66       155 155 155 155
  67       156 156 156 156
  68       158 158 158 158
  69       160 160 160 160
  70       167 167 167 167
  71       169 169 169 169
  72       174 174 174 174
  73       177 177 177 177
  74       179 179 179 179
  75       181 181 181 181
  76       188 188 188 188
  77       190 190 190 190
  78       195 195 195 195
 There are    25 symmetry adapted cartesian basis functions of A2  symmetry.
  79        38  38  38  38
  80        44  44  44  44
  81        50  50  50  50
  82        56  56  56  56
  83        62  62  62  62
  84        68  68  68  68
  85        80  80  80  80
  86        90  90  90  90
  87       100 100 100 100
  88       110 110 110 110
  89       117 117 117 117
  90       119 119 119 119
  91       124 124 124 124
  92       132 132 132 132
  93       134 134 134 134
  94       139 139 139 139
  95       147 147 147 147
  96       149 149 149 149
  97       154 154 154 154
  98       163 163 163 163
  99       165 165 165 165
 100       172 172 172 172
 101       184 184 184 184
 102       186 186 186 186
 103       193 193 193 193
 There are    47 symmetry adapted cartesian basis functions of B1  symmetry.
 104        11  11  11  11
 105        14  14  14  14
 106        17  17  17  17
 107        20  20  20  20
 108        23  23  23  23
 109        26  26  26  26
 110        29  29  29  29
 111        32  32  32  32
 112        39  39  39  39
 113        45  45  45  45
 114        51  51  51  51
 115        57  57  57  57
 116        63  63  63  63
 117        69  69  69  69
 118        71  71  71  71
 119        74  74  74  74
 120        77  77  77  77
 121        81  81  81  81
 122        84  84  84  84
 123        87  87  87  87
 124        91  91  91  91
 125        94  94  94  94
 126        97  97  97  97
 127       101 101 101 101
 128       104 104 104 104
 129       107 107 107 107
 130       116 116 116 116
 131       118 118 118 118
 132       123 123 123 123
 133       131 131 131 131
 134       133 133 133 133
 135       138 138 138 138
 136       146 146 146 146
 137       148 148 148 148
 138       153 153 153 153
 139       162 162 162 162
 140       164 164 164 164
 141       166 166 166 166
 142       171 171 171 171
 143       173 173 173 173
 144       176 176 176 176
 145       183 183 183 183
 146       185 185 185 185
 147       187 187 187 187
 148       192 192 192 192
 149       194 194 194 194
 150       197 197 197 197
 There are    47 symmetry adapted cartesian basis functions of B2  symmetry.
 151        12  12  12  12
 152        15  15  15  15
 153        18  18  18  18
 154        21  21  21  21
 155        24  24  24  24
 156        27  27  27  27
 157        30  30  30  30
 158        33  33  33  33
 159        40  40  40  40
 160        46  46  46  46
 161        52  52  52  52
 162        58  58  58  58
 163        64  64  64  64
 164        70  70  70  70
 165        72  72  72  72
 166        75  75  75  75
 167        78  78  78  78
 168        82  82  82  82
 169        85  85  85  85
 170        88  88  88  88
 171        92  92  92  92
 172        95  95  95  95
 173        98  98  98  98
 174       102 102 102 102
 175       105 105 105 105
 176       108 108 108 108
 177       112 112 112 112
 178       114 114 114 114
 179       121 121 121 121
 180       127 127 127 127
 181       129 129 129 129
 182       136 136 136 136
 183       142 142 142 142
 184       144 144 144 144
 185       151 151 151 151
 186       157 157 157 157
 187       159 159 159 159
 188       161 161 161 161
 189       168 168 168 168
 190       170 170 170 170
 191       175 175 175 175
 192       178 178 178 178
 193       180 180 180 180
 194       182 182 182 182
 195       189 189 189 189
 196       191 191 191 191
 197       196 196 196 196
 Order= 1 2 4 3
 Reordered character table:
              1            2            3            4            5
     1            1            1            1            1            1
     2            2            1            1           -1           -1
     3            4            1           -1           -1            1
     4            3            1           -1            1           -1
 NEqShl: 
              1            2            3            4
     1            1            1            1            1
     2            2            2            2            2
     3            3            3            3            3
     4            4            4            4            4
     5            5            5            5            5
     6            6            6            6            6
     7            7            7            7            7
     8            8            8            8            8
     9            9            9            9            9
    10           10           10           10           10
    11           11           11           11           11
    12           12           12           12           12
    13           13           13           13           13
    14           14           14           14           14
    15           15           15           15           15
    16           16           16           16           16
    17           17           17           17           17
    18           18           18           18           18
    19           19           19           19           19
    20           20           20           20           20
    21           21           21           21           21
    22           22           22           22           22
    23           23           23           23           23
    24           24           24           24           24
    25           25           25           25           25
    26           26           26           26           26
    27           27           27           27           27
    28           28           28           28           28
    29           29           29           29           29
    30           30           30           30           30
    31           31           31           31           31
    32           32           32           32           32
    33           33           33           33           33
 NEqBas: 
              1            2            3            4
     1            1            1            1            1
     2            2            2            2            2
     3            3            3            3            3
     4            4            4            4            4
     5            5            5            5            5
     6            6            6            6            6
     7            7            7            7            7
     8            8            8            8            8
     9            9            9            9            9
    10           10           10           10           10
    11           11          -11          -11           11
    12           12          -12           12          -12
    13           13           13           13           13
    14           14          -14          -14           14
    15           15          -15           15          -15
    16           16           16           16           16
    17           17          -17          -17           17
    18           18          -18           18          -18
    19           19           19           19           19
    20           20          -20          -20           20
    21           21          -21           21          -21
    22           22           22           22           22
    23           23          -23          -23           23
    24           24          -24           24          -24
    25           25           25           25           25
    26           26          -26          -26           26
    27           27          -27           27          -27
    28           28           28           28           28
    29           29          -29          -29           29
    30           30          -30           30          -30
    31           31           31           31           31
    32           32          -32          -32           32
    33           33          -33           33          -33
    34           34           34           34           34
    35           35           35           35           35
    36           36          -36          -36           36
    37           37          -37           37          -37
    38           38           38           38           38
    39           39           39          -39          -39
    40           40           40           40           40
    41           41          -41          -41           41
    42           42          -42           42          -42
    43           43           43           43           43
    44           44           44          -44          -44
    45           45           45           45           45
    46           46          -46          -46           46
    47           47          -47           47          -47
    48           48           48           48           48
    49           49           49          -49          -49
    50           50           50           50           50
    51           51          -51          -51           51
    52           52          -52           52          -52
    53           53           53           53           53
    54           54           54          -54          -54
    55           55           55           55           55
    56           56          -56          -56           56
    57           57          -57           57          -57
    58           58           58           58           58
    59           59           59          -59          -59
    60           60           60           60           60
    61           61          -61          -61           61
    62           62          -62           62          -62
    63           63           63           63           63
    64           64           64          -64          -64
    65           65           65           65           65
    66           66          -66          -66           66
    67           67          -67           67          -67
    68           68           68           68           68
    69           69           69          -69          -69
    70           70          -70          -70           70
    71           71          -71           71          -71
    72           72           72           72           72
    73           73          -73          -73           73
    74           74          -74           74          -74
    75           75           75           75           75
    76           76           76          -76          -76
    77           77          -77          -77           77
    78           78          -78           78          -78
    79           79           79           79           79
    80           80          -80          -80           80
    81           81          -81           81          -81
    82           82           82           82           82
    83           83           83          -83          -83
    84           84          -84          -84           84
    85           85          -85           85          -85
    86           86           86           86           86
    87           87          -87          -87           87
    88           88          -88           88          -88
    89           89           89           89           89
    90           90           90          -90          -90
    91           91          -91          -91           91
    92           92          -92           92          -92
    93           93           93           93           93
    94           94          -94          -94           94
    95           95          -95           95          -95
    96           96           96           96           96
    97           97           97          -97          -97
    98           98          -98          -98           98
    99           99          -99           99          -99
   100          100          100          100          100
   101          101          101         -101         -101
   102          102          102          102          102
   103          103         -103         -103          103
   104          104         -104          104         -104
   105          105          105          105          105
   106          106          106         -106         -106
   107          107         -107         -107          107
   108          108         -108          108         -108
   109          109          109          109          109
   110          110          110         -110         -110
   111          111          111          111          111
   112          112         -112         -112          112
   113          113         -113          113         -113
   114          114          114          114          114
   115          115          115         -115         -115
   116          116         -116         -116          116
   117          117         -117          117         -117
   118          118          118          118          118
   119          119          119         -119         -119
   120          120          120          120          120
   121          121         -121         -121          121
   122          122         -122          122         -122
   123          123          123          123          123
   124          124          124         -124         -124
   125          125         -125         -125          125
   126          126         -126          126         -126
   127          127          127          127          127
   128          128          128         -128         -128
   129          129         -129         -129          129
   130          130         -130          130         -130
   131          131          131          131          131
   132          132         -132         -132          132
   133          133         -133          133         -133
   134          134          134          134          134
   135          135          135         -135         -135
   136          136         -136         -136          136
   137          137         -137          137         -137
   138          138          138          138          138
   139          139          139         -139         -139
   140          140         -140         -140          140
   141          141         -141          141         -141
 There are    53 symmetry adapted basis functions of A1  symmetry.
   1         1   1   1   1
   2         2   2   2   2
   3         3   3   3   3
   4         4   4   4   4
   5         5   5   5   5
   6         6   6   6   6
   7         7   7   7   7
   8         8   8   8   8
   9         9   9   9   9
  10        10  10  10  10
  11        13  13  13  13
  12        16  16  16  16
  13        19  19  19  19
  14        22  22  22  22
  15        25  25  25  25
  16        28  28  28  28
  17        31  31  31  31
  18        34  34  34  34
  19        35  35  35  35
  20        38  38  38  38
  21        40  40  40  40
  22        43  43  43  43
  23        45  45  45  45
  24        48  48  48  48
  25        50  50  50  50
  26        53  53  53  53
  27        55  55  55  55
  28        58  58  58  58
  29        60  60  60  60
  30        63  63  63  63
  31        65  65  65  65
  32        68  68  68  68
  33        72  72  72  72
  34        75  75  75  75
  35        79  79  79  79
  36        82  82  82  82
  37        86  86  86  86
  38        89  89  89  89
  39        93  93  93  93
  40        96  96  96  96
  41       100 100 100 100
  42       102 102 102 102
  43       105 105 105 105
  44       109 109 109 109
  45       111 111 111 111
  46       114 114 114 114
  47       118 118 118 118
  48       120 120 120 120
  49       123 123 123 123
  50       127 127 127 127
  51       131 131 131 131
  52       134 134 134 134
  53       138 138 138 138
 There are    20 symmetry adapted basis functions of A2  symmetry.
  54        39  39  39  39
  55        44  44  44  44
  56        49  49  49  49
  57        54  54  54  54
  58        59  59  59  59
  59        64  64  64  64
  60        69  69  69  69
  61        76  76  76  76
  62        83  83  83  83
  63        90  90  90  90
  64        97  97  97  97
  65       101 101 101 101
  66       106 106 106 106
  67       110 110 110 110
  68       115 115 115 115
  69       119 119 119 119
  70       124 124 124 124
  71       128 128 128 128
  72       135 135 135 135
  73       139 139 139 139
 There are    34 symmetry adapted basis functions of B1  symmetry.
  74        11  11  11  11
  75        14  14  14  14
  76        17  17  17  17
  77        20  20  20  20
  78        23  23  23  23
  79        26  26  26  26
  80        29  29  29  29
  81        32  32  32  32
  82        36  36  36  36
  83        41  41  41  41
  84        46  46  46  46
  85        51  51  51  51
  86        56  56  56  56
  87        61  61  61  61
  88        66  66  66  66
  89        70  70  70  70
  90        73  73  73  73
  91        77  77  77  77
  92        80  80  80  80
  93        84  84  84  84
  94        87  87  87  87
  95        91  91  91  91
  96        94  94  94  94
  97        98  98  98  98
  98       103 103 103 103
  99       107 107 107 107
 100       112 112 112 112
 101       116 116 116 116
 102       121 121 121 121
 103       125 125 125 125
 104       129 129 129 129
 105       132 132 132 132
 106       136 136 136 136
 107       140 140 140 140
 There are    34 symmetry adapted basis functions of B2  symmetry.
 108        12  12  12  12
 109        15  15  15  15
 110        18  18  18  18
 111        21  21  21  21
 112        24  24  24  24
 113        27  27  27  27
 114        30  30  30  30
 115        33  33  33  33
 116        37  37  37  37
 117        42  42  42  42
 118        47  47  47  47
 119        52  52  52  52
 120        57  57  57  57
 121        62  62  62  62
 122        67  67  67  67
 123        71  71  71  71
 124        74  74  74  74
 125        78  78  78  78
 126        81  81  81  81
 127        85  85  85  85
 128        88  88  88  88
 129        92  92  92  92
 130        95  95  95  95
 131        99  99  99  99
 132       104 104 104 104
 133       108 108 108 108
 134       113 113 113 113
 135       117 117 117 117
 136       122 122 122 122
 137       126 126 126 126
 138       130 130 130 130
 139       133 133 133 133
 140       137 137 137 137
 141       141 141 141 141
 Order= 1 2 4 3
 Reordered character table:
              1            2            3            4            5
     1            1            1            1            1            1
     2            2            1            1           -1           -1
     3            4            1           -1           -1            1
     4            3            1           -1            1           -1
   141 basis functions,   570 primitive gaussians,   197 cartesian basis functions
    13 alpha electrons       10 beta electrons
       nuclear repulsion energy        11.6418986402 Hartrees.
 IS=     1 IAt=     1 ISR=     1 T=0 IP=      1 IndIP=      1 IndIPD=      0 C=  2.769344D-01  0.000000D+00                             NZ=T
 IS=     1 IAt=     1 ISR=     1 T=0 IP=      2 IndIP=      2 IndIPD=      1 C=  2.678389D-01  0.000000D+00                             NZ=T
 IS=     1 IAt=     1 ISR=     1 T=0 IP=      3 IndIP=      3 IndIPD=      2 C=  8.347367D-02  0.000000D+00                             NZ=T
 IS=     2 IAt=     2 ISR=     1 T=0 IP=      1 IndIP=      4 IndIPD=      0 C=  2.613532D-01  0.000000D+00                             NZ=T
 IS=     2 IAt=     2 ISR=     1 T=0 IP=      2 IndIP=      5 IndIPD=      1 C=  4.891666D-01  0.000000D+00                             NZ=T
 IS=     2 IAt=     2 ISR=     1 T=0 IP=      3 IndIP=      6 IndIPD=      2 C=  8.479032D-01  0.000000D+00                             NZ=T
 IS=     2 IAt=     2 ISR=     1 T=0 IP=      4 IndIP=      7 IndIPD=      3 C=  1.390666D+00  0.000000D+00                             NZ=T
 IS=     2 IAt=     2 ISR=     1 T=0 IP=      5 IndIP=      8 IndIPD=      4 C=  2.186415D+00  0.000000D+00                             NZ=T
 IS=     2 IAt=     2 ISR=     1 T=0 IP=      6 IndIP=      9 IndIPD=      5 C=  3.314011D+00  0.000000D+00                             NZ=T
 IS=     2 IAt=     2 ISR=     1 T=0 IP=      7 IndIP=     10 IndIPD=      6 C=  4.844489D+00  0.000000D+00                             NZ=T
 IS=     2 IAt=     2 ISR=     1 T=0 IP=      8 IndIP=     11 IndIPD=      7 C=  6.762808D+00  0.000000D+00                             NZ=T
 IS=     2 IAt=     2 ISR=     1 T=0 IP=      9 IndIP=     12 IndIPD=      8 C=  8.807270D+00  0.000000D+00                             NZ=T
 IS=     2 IAt=     2 ISR=     1 T=0 IP=     10 IndIP=     13 IndIPD=      9 C=  1.017940D+01  0.000000D+00                             NZ=T
 IS=     2 IAt=     2 ISR=     1 T=0 IP=     11 IndIP=     14 IndIPD=     10 C=  9.540926D+00  0.000000D+00                             NZ=T
 IS=     2 IAt=     2 ISR=     1 T=0 IP=     12 IndIP=     15 IndIPD=     11 C=  6.076144D+00  0.000000D+00                             NZ=T
 IS=     2 IAt=     2 ISR=     1 T=0 IP=     13 IndIP=     16 IndIPD=     12 C=  1.942611D+00  0.000000D+00                             NZ=T
 IS=     2 IAt=     2 ISR=     1 T=0 IP=     14 IndIP=     17 IndIPD=     13 C=  1.653263D-01  0.000000D+00                             NZ=T
 IS=     2 IAt=     2 ISR=     1 T=0 IP=     15 IndIP=     18 IndIPD=     14 C=  3.820269D-03  0.000000D+00                             NZ=T
 IS=     3 IAt=     2 ISR=     2 T=0 IP=      1 IndIP=     19 IndIPD=      0 C= -3.312705D-03  0.000000D+00                             NZ=T
 IS=     3 IAt=     2 ISR=     2 T=0 IP=      2 IndIP=     20 IndIPD=      1 C= -1.507021D-02  0.000000D+00                             NZ=T
 IS=     3 IAt=     2 ISR=     2 T=0 IP=      3 IndIP=     21 IndIPD=      2 C= -5.698424D-02  0.000000D+00                             NZ=T
 IS=     3 IAt=     2 ISR=     2 T=0 IP=      4 IndIP=     22 IndIPD=      3 C= -1.741008D-01  0.000000D+00                             NZ=T
 IS=     3 IAt=     2 ISR=     2 T=0 IP=      5 IndIP=     23 IndIPD=      4 C= -4.611814D-01  0.000000D+00                             NZ=T
 IS=     3 IAt=     2 ISR=     2 T=0 IP=      6 IndIP=     24 IndIPD=      5 C= -9.710138D-01  0.000000D+00                             NZ=T
 IS=     3 IAt=     2 ISR=     2 T=0 IP=      7 IndIP=     25 IndIPD=      6 C= -1.444703D+00  0.000000D+00                             NZ=T
 IS=     3 IAt=     2 ISR=     2 T=0 IP=      8 IndIP=     26 IndIPD=      7 C= -7.823163D-01  0.000000D+00                             NZ=T
 IS=     3 IAt=     2 ISR=     2 T=0 IP=      9 IndIP=     27 IndIPD=      8 C=  1.174044D+00  0.000000D+00                             NZ=T
 IS=     3 IAt=     2 ISR=     2 T=0 IP=     10 IndIP=     28 IndIPD=      9 C=  1.927127D+00  0.000000D+00                             NZ=T
 IS=     3 IAt=     2 ISR=     2 T=0 IP=     11 IndIP=     29 IndIPD=     10 C=  8.459321D-01  0.000000D+00                             NZ=T
 IS=     4 IAt=     2 ISR=     3 T=0 IP=      1 IndIP=     30 IndIPD=      0 C= -1.654936D-04  0.000000D+00                             NZ=T
 IS=     4 IAt=     2 ISR=     3 T=0 IP=      2 IndIP=     31 IndIPD=      1 C=  4.971885D-04  0.000000D+00                             NZ=T
 IS=     4 IAt=     2 ISR=     3 T=0 IP=      3 IndIP=     32 IndIPD=      2 C= -1.263915D-02  0.000000D+00                             NZ=T
 IS=     4 IAt=     2 ISR=     3 T=0 IP=      4 IndIP=     33 IndIPD=      3 C=  5.758359D-02  0.000000D+00                             NZ=T
 IS=     4 IAt=     2 ISR=     3 T=0 IP=      5 IndIP=     34 IndIPD=      4 C=  1.198234D-02  0.000000D+00                             NZ=T
 IS=     4 IAt=     2 ISR=     3 T=0 IP=      6 IndIP=     35 IndIPD=      5 C= -3.562015D-01  0.000000D+00                             NZ=T
 IS=     4 IAt=     2 ISR=     3 T=0 IP=      7 IndIP=     36 IndIPD=      6 C= -1.515296D-01  0.000000D+00                             NZ=T
 IS=     4 IAt=     2 ISR=     3 T=0 IP=      8 IndIP=     37 IndIPD=      7 C=  5.144173D-01  0.000000D+00                             NZ=T
 IS=     5 IAt=     2 ISR=     4 T=0 IP=      1 IndIP=     38 IndIPD=      0 C= -4.538081D-04  0.000000D+00                             NZ=T
 IS=     5 IAt=     2 ISR=     4 T=0 IP=      2 IndIP=     39 IndIPD=      1 C=  4.819274D-03  0.000000D+00                             NZ=T
 IS=     5 IAt=     2 ISR=     4 T=0 IP=      3 IndIP=     40 IndIPD=      2 C=  3.058933D-02  0.000000D+00                             NZ=T
 IS=     5 IAt=     2 ISR=     4 T=0 IP=      4 IndIP=     41 IndIPD=      3 C= -7.421609D-02  0.000000D+00                             NZ=T
 IS=     5 IAt=     2 ISR=     4 T=0 IP=      5 IndIP=     42 IndIPD=      4 C= -5.752936D-02  0.000000D+00                             NZ=T
 IS=     5 IAt=     2 ISR=     4 T=0 IP=      6 IndIP=     43 IndIPD=      5 C= -1.896271D-01  0.000000D+00                             NZ=T
 IS=     5 IAt=     2 ISR=     4 T=0 IP=      7 IndIP=     44 IndIPD=      6 C=  1.586381D-01  0.000000D+00                             NZ=T
 IS=     6 IAt=     2 ISR=     5 T=0 IP=      1 IndIP=     45 IndIPD=      0 C=  4.332435D-05  0.000000D+00                             NZ=T
 IS=     6 IAt=     2 ISR=     5 T=0 IP=      2 IndIP=     46 IndIPD=      1 C=  4.435660D-05  0.000000D+00                             NZ=T
 IS=     6 IAt=     2 ISR=     5 T=0 IP=      3 IndIP=     47 IndIPD=      2 C= -4.353121D-04  0.000000D+00                             NZ=T
 IS=     6 IAt=     2 ISR=     5 T=0 IP=      4 IndIP=     48 IndIPD=      3 C= -5.277505D-03  0.000000D+00                             NZ=T
 IS=     6 IAt=     2 ISR=     5 T=0 IP=      5 IndIP=     49 IndIPD=      4 C=  4.162281D-02  0.000000D+00                             NZ=T
 IS=     6 IAt=     2 ISR=     5 T=0 IP=      6 IndIP=     50 IndIPD=      5 C= -7.603019D-04  0.000000D+00                             NZ=T
 IS=     6 IAt=     2 ISR=     5 T=0 IP=      7 IndIP=     51 IndIPD=      6 C= -1.691726D-01  0.000000D+00                             NZ=T
 IS=     6 IAt=     2 ISR=     5 T=0 IP=      8 IndIP=     52 IndIPD=      7 C=  1.690035D-01  0.000000D+00                             NZ=T
 IS=     7 IAt=     2 ISR=     6 T=0 IP=      1 IndIP=     53 IndIPD=      0 C=  2.836103D-03  0.000000D+00                             NZ=T
 IS=     7 IAt=     2 ISR=     6 T=0 IP=      2 IndIP=     54 IndIPD=      1 C= -4.491064D-04  0.000000D+00                             NZ=T
 IS=     7 IAt=     2 ISR=     6 T=0 IP=      3 IndIP=     55 IndIPD=      2 C=  8.378350D-03  0.000000D+00                             NZ=T
 IS=     7 IAt=     2 ISR=     6 T=0 IP=      4 IndIP=     56 IndIPD=      3 C=  2.445405D-02  0.000000D+00                             NZ=T
 IS=     7 IAt=     2 ISR=     6 T=0 IP=      5 IndIP=     57 IndIPD=      4 C=  2.639616D-02  0.000000D+00                             NZ=T
 IS=     7 IAt=     2 ISR=     6 T=0 IP=      6 IndIP=     58 IndIPD=      5 C= -5.210438D-02  0.000000D+00                             NZ=T
 IS=     7 IAt=     2 ISR=     6 T=0 IP=      7 IndIP=     59 IndIPD=      6 C=  8.312067D-02  0.000000D+00                             NZ=T
 IS=     7 IAt=     2 ISR=     6 T=0 IP=      8 IndIP=     60 IndIPD=      7 C=  4.891991D-01  0.000000D+00                             NZ=T
 IS=     7 IAt=     2 ISR=     6 T=0 IP=      9 IndIP=     61 IndIPD=      8 C=  6.394926D-01  0.000000D+00                             NZ=T
 IS=     7 IAt=     2 ISR=     6 T=0 IP=     10 IndIP=     62 IndIPD=      9 C= -6.158279D-01  0.000000D+00                             NZ=T
 IS=     7 IAt=     2 ISR=     6 T=0 IP=     11 IndIP=     63 IndIPD=     10 C= -5.222934D-01  0.000000D+00                             NZ=T
 IS=     8 IAt=     2 ISR=     7 T=0 IP=      1 IndIP=     64 IndIPD=      0 C=  8.994665D-03  0.000000D+00                             NZ=T
 IS=     8 IAt=     2 ISR=     7 T=0 IP=      2 IndIP=     65 IndIPD=      1 C=  2.720018D-02  0.000000D+00                             NZ=T
 IS=     8 IAt=     2 ISR=     7 T=0 IP=      3 IndIP=     66 IndIPD=      2 C= -4.587078D-03  0.000000D+00                             NZ=T
 IS=     8 IAt=     2 ISR=     7 T=0 IP=      4 IndIP=     67 IndIPD=      3 C=  8.019710D-02  0.000000D+00                             NZ=T
 IS=     8 IAt=     2 ISR=     7 T=0 IP=      5 IndIP=     68 IndIPD=      4 C=  2.471332D-01  0.000000D+00                             NZ=T
 IS=     8 IAt=     2 ISR=     7 T=0 IP=      6 IndIP=     69 IndIPD=      5 C=  7.055385D-02  0.000000D+00                             NZ=T
 IS=     8 IAt=     2 ISR=     7 T=0 IP=      7 IndIP=     70 IndIPD=      6 C=  5.178964D-01  0.000000D+00                             NZ=T
 IS=     8 IAt=     2 ISR=     7 T=0 IP=      8 IndIP=     71 IndIPD=      7 C= -1.684165D-01  0.000000D+00                             NZ=T
 IS=     8 IAt=     2 ISR=     7 T=0 IP=      9 IndIP=     72 IndIPD=      8 C=  2.100435D-01  0.000000D+00                             NZ=T
 IS=     8 IAt=     2 ISR=     7 T=0 IP=     10 IndIP=     73 IndIPD=      9 C=  7.085953D-02  0.000000D+00                             NZ=T
 IS=     8 IAt=     2 ISR=     7 T=0 IP=     11 IndIP=     74 IndIPD=     10 C=  1.261401D+00  0.000000D+00                             NZ=T
 IS=     8 IAt=     2 ISR=     7 T=0 IP=     12 IndIP=     75 IndIPD=     11 C= -1.765275D+00  0.000000D+00                             NZ=T
 IS=     9 IAt=     2 ISR=     8 T=0 IP=      1 IndIP=     76 IndIPD=      0 C=  4.350947D-02  0.000000D+00                             NZ=T
 IS=    10 IAt=     2 ISR=     9 T=0 IP=      1 IndIP=     77 IndIPD=      0 C=  2.437263D-02  0.000000D+00                             NZ=T
 IS=    11 IAt=     2 ISR=    10 T=1 IP=      1 IndIP=     78 IndIPD=      0 C=  0.000000D+00  5.522044D+00                             NZ=T
 IS=    11 IAt=     2 ISR=    10 T=1 IP=      2 IndIP=     79 IndIPD=      1 C=  0.000000D+00  7.901391D+00                             NZ=T
 IS=    11 IAt=     2 ISR=    10 T=1 IP=      3 IndIP=     80 IndIPD=      2 C=  0.000000D+00  1.130787D+01                             NZ=T
 IS=    11 IAt=     2 ISR=    10 T=1 IP=      4 IndIP=     81 IndIPD=      3 C=  0.000000D+00  1.544336D+01                             NZ=T
 IS=    11 IAt=     2 ISR=    10 T=1 IP=      5 IndIP=     82 IndIPD=      4 C=  0.000000D+00  1.980494D+01                             NZ=T
 IS=    11 IAt=     2 ISR=    10 T=1 IP=      6 IndIP=     83 IndIPD=      5 C=  0.000000D+00  2.337750D+01                             NZ=T
 IS=    11 IAt=     2 ISR=    10 T=1 IP=      7 IndIP=     84 IndIPD=      6 C=  0.000000D+00  2.472110D+01                             NZ=T
 IS=    11 IAt=     2 ISR=    10 T=1 IP=      8 IndIP=     85 IndIPD=      7 C=  0.000000D+00  2.211043D+01                             NZ=T
 IS=    11 IAt=     2 ISR=    10 T=1 IP=      9 IndIP=     86 IndIPD=      8 C=  0.000000D+00  1.564943D+01                             NZ=T
 IS=    11 IAt=     2 ISR=    10 T=1 IP=     10 IndIP=     87 IndIPD=      9 C=  0.000000D+00  7.986238D+00                             NZ=T
 IS=    11 IAt=     2 ISR=    10 T=1 IP=     11 IndIP=     88 IndIPD=     10 C=  0.000000D+00  2.332239D+00                             NZ=T
 IS=    11 IAt=     2 ISR=    10 T=1 IP=     12 IndIP=     89 IndIPD=     11 C=  0.000000D+00  2.723377D-01                             NZ=T
 IS=    12 IAt=     2 ISR=    11 T=1 IP=      1 IndIP=     90 IndIPD=      0 C=  0.000000D+00  2.085845D-02                             NZ=T
 IS=    12 IAt=     2 ISR=    11 T=1 IP=      2 IndIP=     91 IndIPD=      1 C=  0.000000D+00  2.897370D-02                             NZ=T
 IS=    12 IAt=     2 ISR=    11 T=1 IP=      3 IndIP=     92 IndIPD=      2 C=  0.000000D+00 -2.424392D-02                             NZ=T
 IS=    12 IAt=     2 ISR=    11 T=1 IP=      4 IndIP=     93 IndIPD=      3 C=  0.000000D+00 -8.513867D-02                             NZ=T
 IS=    12 IAt=     2 ISR=    11 T=1 IP=      5 IndIP=     94 IndIPD=      4 C=  0.000000D+00  7.358061D-02                             NZ=T
 IS=    12 IAt=     2 ISR=    11 T=1 IP=      6 IndIP=     95 IndIPD=      5 C=  0.000000D+00  1.701324D-01                             NZ=T
 IS=    12 IAt=     2 ISR=    11 T=1 IP=      7 IndIP=     96 IndIPD=      6 C=  0.000000D+00 -1.393962D-01                             NZ=T
 IS=    12 IAt=     2 ISR=    11 T=1 IP=      8 IndIP=     97 IndIPD=      7 C=  0.000000D+00 -3.466814D-01                             NZ=T
 IS=    12 IAt=     2 ISR=    11 T=1 IP=      9 IndIP=     98 IndIPD=      8 C=  0.000000D+00  8.573959D-02                             NZ=T
 IS=    12 IAt=     2 ISR=    11 T=1 IP=     10 IndIP=     99 IndIPD=      9 C=  0.000000D+00  3.803554D-01                             NZ=T
 IS=    13 IAt=     2 ISR=    12 T=1 IP=      1 IndIP=    100 IndIPD=      0 C=  0.000000D+00  6.481423D-03                             NZ=T
 IS=    13 IAt=     2 ISR=    12 T=1 IP=      2 IndIP=    101 IndIPD=      1 C=  0.000000D+00  7.819726D-03                             NZ=T
 IS=    13 IAt=     2 ISR=    12 T=1 IP=      3 IndIP=    102 IndIPD=      2 C=  0.000000D+00  3.173654D-02                             NZ=T
 IS=    13 IAt=     2 ISR=    12 T=1 IP=      4 IndIP=    103 IndIPD=      3 C=  0.000000D+00 -6.115859D-02                             NZ=T
 IS=    13 IAt=     2 ISR=    12 T=1 IP=      5 IndIP=    104 IndIPD=      4 C=  0.000000D+00 -9.948457D-02                             NZ=T
 IS=    13 IAt=     2 ISR=    12 T=1 IP=      6 IndIP=    105 IndIPD=      5 C=  0.000000D+00  1.254541D-02                             NZ=T
 IS=    13 IAt=     2 ISR=    12 T=1 IP=      7 IndIP=    106 IndIPD=      6 C=  0.000000D+00  6.526072D-02                             NZ=T
 IS=    13 IAt=     2 ISR=    12 T=1 IP=      8 IndIP=    107 IndIPD=      7 C=  0.000000D+00  3.951213D-02                             NZ=T
 IS=    14 IAt=     2 ISR=    13 T=1 IP=      1 IndIP=    108 IndIPD=      0 C=  0.000000D+00  4.692115D-03                             NZ=T
 IS=    14 IAt=     2 ISR=    13 T=1 IP=      2 IndIP=    109 IndIPD=      1 C=  0.000000D+00 -6.342500D-03                             NZ=T
 IS=    14 IAt=     2 ISR=    13 T=1 IP=      3 IndIP=    110 IndIPD=      2 C=  0.000000D+00 -4.439073D-03                             NZ=T
 IS=    14 IAt=     2 ISR=    13 T=1 IP=      4 IndIP=    111 IndIPD=      3 C=  0.000000D+00 -7.411389D-03                             NZ=T
 IS=    14 IAt=     2 ISR=    13 T=1 IP=      5 IndIP=    112 IndIPD=      4 C=  0.000000D+00 -5.010074D-02                             NZ=T
 IS=    14 IAt=     2 ISR=    13 T=1 IP=      6 IndIP=    113 IndIPD=      5 C=  0.000000D+00 -1.128598D-02                             NZ=T
 IS=    14 IAt=     2 ISR=    13 T=1 IP=      7 IndIP=    114 IndIPD=      6 C=  0.000000D+00  7.683890D-02                             NZ=T
 IS=    14 IAt=     2 ISR=    13 T=1 IP=      8 IndIP=    115 IndIPD=      7 C=  0.000000D+00  2.025235D-02                             NZ=T
 IS=    15 IAt=     2 ISR=    14 T=1 IP=      1 IndIP=    116 IndIPD=      0 C=  0.000000D+00 -4.552113D-01                             NZ=T
 IS=    15 IAt=     2 ISR=    14 T=1 IP=      2 IndIP=    117 IndIPD=      1 C=  0.000000D+00 -1.531647D-01                             NZ=T
 IS=    15 IAt=     2 ISR=    14 T=1 IP=      3 IndIP=    118 IndIPD=      2 C=  0.000000D+00 -2.375980D-01                             NZ=T
 IS=    15 IAt=     2 ISR=    14 T=1 IP=      4 IndIP=    119 IndIPD=      3 C=  0.000000D+00  1.598229D-01                             NZ=T
 IS=    15 IAt=     2 ISR=    14 T=1 IP=      5 IndIP=    120 IndIPD=      4 C=  0.000000D+00  7.039376D-01                             NZ=T
 IS=    15 IAt=     2 ISR=    14 T=1 IP=      6 IndIP=    121 IndIPD=      5 C=  0.000000D+00  3.729113D-01                             NZ=T
 IS=    15 IAt=     2 ISR=    14 T=1 IP=      7 IndIP=    122 IndIPD=      6 C=  0.000000D+00  8.972659D-01                             NZ=T
 IS=    15 IAt=     2 ISR=    14 T=1 IP=      8 IndIP=    123 IndIPD=      7 C=  0.000000D+00 -3.042349D-01                             NZ=T
 IS=    15 IAt=     2 ISR=    14 T=1 IP=      9 IndIP=    124 IndIPD=      8 C=  0.000000D+00 -1.129427D+00                             NZ=T
 IS=    15 IAt=     2 ISR=    14 T=1 IP=     10 IndIP=    125 IndIPD=      9 C=  0.000000D+00 -1.454384D+00                             NZ=T
 IS=    15 IAt=     2 ISR=    14 T=1 IP=     11 IndIP=    126 IndIPD=     10 C=  0.000000D+00 -1.260037D-01                             NZ=T
 IS=    16 IAt=     2 ISR=    15 T=1 IP=      1 IndIP=    127 IndIPD=      0 C=  0.000000D+00  7.882454D-01                             NZ=T
 IS=    16 IAt=     2 ISR=    15 T=1 IP=      2 IndIP=    128 IndIPD=      1 C=  0.000000D+00  2.440410D-01                             NZ=T
 IS=    16 IAt=     2 ISR=    15 T=1 IP=      3 IndIP=    129 IndIPD=      2 C=  0.000000D+00  5.775297D-01                             NZ=T
 IS=    16 IAt=     2 ISR=    15 T=1 IP=      4 IndIP=    130 IndIPD=      3 C=  0.000000D+00  1.234596D-01                             NZ=T
 IS=    16 IAt=     2 ISR=    15 T=1 IP=      5 IndIP=    131 IndIPD=      4 C=  0.000000D+00  1.043687D+00                             NZ=T
 IS=    16 IAt=     2 ISR=    15 T=1 IP=      6 IndIP=    132 IndIPD=      5 C=  0.000000D+00  3.503367D-01                             NZ=T
 IS=    16 IAt=     2 ISR=    15 T=1 IP=      7 IndIP=    133 IndIPD=      6 C=  0.000000D+00  1.176875D+00                             NZ=T
 IS=    16 IAt=     2 ISR=    15 T=1 IP=      8 IndIP=    134 IndIPD=      7 C=  0.000000D+00 -9.656176D-02                             NZ=T
 IS=    16 IAt=     2 ISR=    15 T=1 IP=      9 IndIP=    135 IndIPD=      8 C=  0.000000D+00  6.645440D-02                             NZ=T
 IS=    16 IAt=     2 ISR=    15 T=1 IP=     10 IndIP=    136 IndIPD=      9 C=  0.000000D+00 -8.727604D-01                             NZ=T
 IS=    16 IAt=     2 ISR=    15 T=1 IP=     11 IndIP=    137 IndIPD=     10 C=  0.000000D+00 -8.168976D-01                             NZ=T
 IS=    17 IAt=     2 ISR=    16 T=1 IP=      1 IndIP=    138 IndIPD=      0 C=  0.000000D+00  1.481534D-02                             NZ=T
 IS=    18 IAt=     2 ISR=    17 T=1 IP=      1 IndIP=    139 IndIPD=      0 C=  0.000000D+00  5.095179D-03                             NZ=T
 IS=    19 IAt=     2 ISR=    18 T=2 IP=      1 IndIP=    140 IndIPD=      1 C=  0.000000D+00  0.000000D+00  4.544503D-01  0.000000D+00 NZ=T
 IS=    19 IAt=     2 ISR=    18 T=2 IP=      2 IndIP=    141 IndIPD=      2 C=  0.000000D+00  0.000000D+00  2.493095D-01  0.000000D+00 NZ=T
 IS=    19 IAt=     2 ISR=    18 T=2 IP=      3 IndIP=    142 IndIPD=      3 C=  0.000000D+00  0.000000D+00 -2.991425D-01  0.000000D+00 NZ=T
 IS=    19 IAt=     2 ISR=    18 T=2 IP=      4 IndIP=    143 IndIPD=      4 C=  0.000000D+00  0.000000D+00 -1.208974D-01  0.000000D+00 NZ=T
 IS=    19 IAt=     2 ISR=    18 T=2 IP=      5 IndIP=    144 IndIPD=      5 C=  0.000000D+00  0.000000D+00  2.177451D-01  0.000000D+00 NZ=T
 IS=    19 IAt=     2 ISR=    18 T=2 IP=      6 IndIP=    145 IndIPD=      6 C=  0.000000D+00  0.000000D+00  5.979968D-01  0.000000D+00 NZ=T
 IS=    19 IAt=     2 ISR=    18 T=2 IP=      7 IndIP=    146 IndIPD=      7 C=  0.000000D+00  0.000000D+00  2.433418D-01  0.000000D+00 NZ=T
 IS=    20 IAt=     2 ISR=    19 T=2 IP=      1 IndIP=    147 IndIPD=      8 C=  0.000000D+00  0.000000D+00  3.514726D-01  0.000000D+00 NZ=T
 IS=    20 IAt=     2 ISR=    19 T=2 IP=      2 IndIP=    148 IndIPD=      9 C=  0.000000D+00  0.000000D+00  3.279804D-01  0.000000D+00 NZ=T
 IS=    20 IAt=     2 ISR=    19 T=2 IP=      3 IndIP=    149 IndIPD=     10 C=  0.000000D+00  0.000000D+00  1.145272D-01  0.000000D+00 NZ=T
 IS=    20 IAt=     2 ISR=    19 T=2 IP=      4 IndIP=    150 IndIPD=     11 C=  0.000000D+00  0.000000D+00 -2.447077D-02  0.000000D+00 NZ=T
 IS=    20 IAt=     2 ISR=    19 T=2 IP=      5 IndIP=    151 IndIPD=     12 C=  0.000000D+00  0.000000D+00  3.623593D-02  0.000000D+00 NZ=T
 IS=    20 IAt=     2 ISR=    19 T=2 IP=      6 IndIP=    152 IndIPD=     13 C=  0.000000D+00  0.000000D+00 -8.436125D-02  0.000000D+00 NZ=T
 IS=    20 IAt=     2 ISR=    19 T=2 IP=      7 IndIP=    153 IndIPD=     14 C=  0.000000D+00  0.000000D+00  2.153080D-02  0.000000D+00 NZ=T
 IS=    21 IAt=     2 ISR=    20 T=2 IP=      1 IndIP=    154 IndIPD=     15 C=  0.000000D+00  0.000000D+00 -5.679990D-01  0.000000D+00 NZ=T
 IS=    21 IAt=     2 ISR=    20 T=2 IP=      2 IndIP=    155 IndIPD=     16 C=  0.000000D+00  0.000000D+00 -5.231417D-01  0.000000D+00 NZ=T
 IS=    21 IAt=     2 ISR=    20 T=2 IP=      3 IndIP=    156 IndIPD=     17 C=  0.000000D+00  0.000000D+00 -2.314306D-01  0.000000D+00 NZ=T
 IS=    21 IAt=     2 ISR=    20 T=2 IP=      4 IndIP=    157 IndIPD=     18 C=  0.000000D+00  0.000000D+00 -1.408980D-01  0.000000D+00 NZ=T
 IS=    21 IAt=     2 ISR=    20 T=2 IP=      5 IndIP=    158 IndIPD=     19 C=  0.000000D+00  0.000000D+00  1.625890D-01  0.000000D+00 NZ=T
 IS=    21 IAt=     2 ISR=    20 T=2 IP=      6 IndIP=    159 IndIPD=     20 C=  0.000000D+00  0.000000D+00  8.381920D-02  0.000000D+00 NZ=T
 IS=    21 IAt=     2 ISR=    20 T=2 IP=      7 IndIP=    160 IndIPD=     21 C=  0.000000D+00  0.000000D+00 -8.305279D-03  0.000000D+00 NZ=T
 IS=    22 IAt=     2 ISR=    21 T=2 IP=      1 IndIP=    161 IndIPD=     22 C=  0.000000D+00  0.000000D+00 -1.295926D+01  0.000000D+00 NZ=T
 IS=    22 IAt=     2 ISR=    21 T=2 IP=      2 IndIP=    162 IndIPD=     23 C=  0.000000D+00  0.000000D+00 -1.400415D+01  0.000000D+00 NZ=T
 IS=    22 IAt=     2 ISR=    21 T=2 IP=      3 IndIP=    163 IndIPD=     24 C=  0.000000D+00  0.000000D+00 -1.256953D+01  0.000000D+00 NZ=T
 IS=    22 IAt=     2 ISR=    21 T=2 IP=      4 IndIP=    164 IndIPD=     25 C=  0.000000D+00  0.000000D+00 -9.313477D+00  0.000000D+00 NZ=T
 IS=    22 IAt=     2 ISR=    21 T=2 IP=      5 IndIP=    165 IndIPD=     26 C=  0.000000D+00  0.000000D+00 -5.759051D+00  0.000000D+00 NZ=T
 IS=    22 IAt=     2 ISR=    21 T=2 IP=      6 IndIP=    166 IndIPD=     27 C=  0.000000D+00  0.000000D+00 -2.481300D+00  0.000000D+00 NZ=T
 IS=    22 IAt=     2 ISR=    21 T=2 IP=      7 IndIP=    167 IndIPD=     28 C=  0.000000D+00  0.000000D+00 -5.129034D-01  0.000000D+00 NZ=T
 IS=    23 IAt=     2 ISR=    22 T=2 IP=      1 IndIP=    168 IndIPD=     29 C=  0.000000D+00  0.000000D+00  4.047258D-03  0.000000D+00 NZ=T
[...]
                 (PI) (PI) (DLTA) (DLTA) (SG) (SG) (PI) (PI) (?A)
                 (?A) (DLTA) (DLTA) (PHI) (PHI) (SG) (PI) (PI)
                 (DLTA) (DLTA) (PHI) (PHI) (SG) (PI) (PI) (DLTA)
                 (DLTA) (SG) (PI) (PI) (SG) (PI) (PI) (?B) (?B)
                 (DLTA) (DLTA) (?A) (?A) (PHI) (PHI) (SG) (SG)
                 (SG) (PI) (PI) (DLTA) (DLTA) (PHI) (PHI) (PI)
                 (PI) (PHI) (PHI) (DLTA) (DLTA) (?A) (?A) (SG)
 Beta  Orbitals:
       Occupied  (SG) (SG) (PI) (PI) (SG) (SG) (SG) (PI) (PI) (SG)
       Virtual   (SG) (PI) (PI) (SG) (DLTA) (DLTA) (PI) (PI) (SG)
                 (SG) (PI) (PI) (SG) (DLTA) (DLTA) (PI) (PI) (SG)
                 (SG) (PI) (PI) (SG) (PHI) (PHI) (DLTA) (DLTA)
                 (PI) (PI) (SG) (DLTA) (DLTA) (PI) (PI) (SG) (DLTA)
                 (DLTA) (SG) (PI) (PI) (SG) (PI) (PI) (?A) (?A)
                 (PHI) (PHI) (SG) (DLTA) (DLTA) (PI) (PI) (SG)
                 (PHI) (PHI) (PI) (PI) (DLTA) (DLTA) (SG) (DLTA)
                 (DLTA) (PI) (PI) (SG) (PI) (PI) (?B) (?B) (SG)
                 (?A) (?A) (PI) (PI) (PHI) (PHI) (DLTA) (DLTA)
                 (SG) (SG) (PI) (PI) (?A) (?A) (DLTA) (DLTA) (PHI)
                 (PHI) (SG) (PHI) (PHI) (PI) (PI) (DLTA) (DLTA)
                 (SG) (DLTA) (DLTA) (PI) (PI) (PI) (PI) (SG) (SG)
                 (PI) (PI) (?B) (?B) (DLTA) (DLTA) (?A) (?A) (PHI)
                 (PHI) (SG) (SG) (SG) (PHI) (PHI) (PI) (PI) (?A)
                 (?A) (DLTA) (DLTA) (PHI) (PHI) (PI) (PI) (DLTA)
                 (DLTA) (SG)
 The electronic state is 4-SG.
 Alpha  occ. eigenvalues -- -183.13948 -21.28864 -17.65882 -17.65882 -17.65849
 Alpha  occ. eigenvalues --   -2.83120  -1.87152  -1.74179  -1.74179  -0.42078
 Alpha  occ. eigenvalues --   -0.31222  -0.31222  -0.20972
 Alpha virt. eigenvalues --    0.01221   0.01221   0.01811   0.02395   0.03871
 Alpha virt. eigenvalues --    0.03871   0.04026   0.04026   0.04065   0.04818
 Alpha virt. eigenvalues --    0.04818   0.05754   0.10891   0.10891   0.12675
 Alpha virt. eigenvalues --    0.13150   0.13150   0.13411   0.16906   0.16906
 Alpha virt. eigenvalues --    0.17422   0.20360   0.20360   0.22493   0.22493
 Alpha virt. eigenvalues --    0.22882   0.22882   0.23175   0.23175   0.23258
 Alpha virt. eigenvalues --    0.38400   0.38400   0.39244   0.43408   0.43847
 Alpha virt. eigenvalues --    0.43847   0.50031   0.50998   0.50998   0.63120
 Alpha virt. eigenvalues --    0.63120   0.63809   0.63809   0.64354   0.64354
 Alpha virt. eigenvalues --    0.64561   0.64644   0.64644   0.71890   0.74670
 Alpha virt. eigenvalues --    0.74670   0.75082   0.75082   0.75220   0.75220
 Alpha virt. eigenvalues --    1.13177   1.14139   1.14139   1.19213   1.19213
 Alpha virt. eigenvalues --    1.39928   1.48005   1.48005   1.62936   1.62936
 Alpha virt. eigenvalues --    1.63966   1.64021   1.64021   1.64826   1.64826
 Alpha virt. eigenvalues --    1.64832   1.64832   1.65166   1.65166   1.71729
 Alpha virt. eigenvalues --    1.92345   2.03481   2.03481   2.06179   2.06179
 Alpha virt. eigenvalues --    2.06888   2.06888   2.06968   2.06968   2.13013
 Alpha virt. eigenvalues --    2.24937   2.24937   2.26956   2.26956   2.30747
 Alpha virt. eigenvalues --    2.30747   3.37258   3.64329   3.64329   3.68340
 Alpha virt. eigenvalues --    3.68340   4.18646   4.20083   4.20083   4.86679
 Alpha virt. eigenvalues --    5.26743   5.26743   5.31232   5.31232   5.31642
 Alpha virt. eigenvalues --    5.31642   5.32541   5.32541   5.33013   5.33013
 Alpha virt. eigenvalues --    5.81818   6.68263   7.06013   7.06668   7.06668
 Alpha virt. eigenvalues --    7.07091   7.07091   7.10511   7.10511   7.14149
 Alpha virt. eigenvalues --    7.14149   7.14811   7.14811   7.14942   7.14942
 Alpha virt. eigenvalues --    7.14958   7.14958   8.30536
  Beta  occ. eigenvalues -- -183.13930 -21.25693 -17.63549 -17.63549 -17.61356
  Beta  occ. eigenvalues --   -2.69978  -1.63143  -1.62278  -1.62278  -0.35432
  Beta virt. eigenvalues --    0.01094   0.02129   0.02129   0.02348   0.03951
  Beta virt. eigenvalues --    0.03951   0.04036   0.04036   0.04081   0.05331
  Beta virt. eigenvalues --    0.07276   0.07276   0.07893   0.12350   0.12350
  Beta virt. eigenvalues --    0.12695   0.12695   0.13676   0.16736   0.19796
  Beta virt. eigenvalues --    0.19796   0.19959   0.23124   0.23124   0.23510
  Beta virt. eigenvalues --    0.23510   0.23657   0.23657   0.23696   0.24569
  Beta virt. eigenvalues --    0.24569   0.26334   0.26334   0.41076   0.46709
  Beta virt. eigenvalues --    0.46709   0.47390   0.49330   0.49330   0.52745
  Beta virt. eigenvalues --    0.53907   0.53907   0.64065   0.64065   0.64801
  Beta virt. eigenvalues --    0.64801   0.65163   0.65208   0.65208   0.65300
  Beta virt. eigenvalues --    0.65300   0.75044   0.77394   0.77394   0.77770
  Beta virt. eigenvalues --    0.77770   0.78887   0.78887   1.17687   1.22168
  Beta virt. eigenvalues --    1.22168   1.25298   1.25298   1.42789   1.50952
  Beta virt. eigenvalues --    1.50952   1.64011   1.64011   1.64995   1.65304
  Beta virt. eigenvalues --    1.65304   1.65664   1.65664   1.66055   1.66055
  Beta virt. eigenvalues --    1.66196   1.66196   1.76251   1.97083   2.06416
  Beta virt. eigenvalues --    2.06416   2.07878   2.07878   2.10116   2.10116
  Beta virt. eigenvalues --    2.10166   2.10166   2.17806   2.33428   2.33428
  Beta virt. eigenvalues --    2.33627   2.33627   2.37112   2.37112   3.40928
  Beta virt. eigenvalues --    3.70938   3.70938   3.74494   3.74494   4.23006
  Beta virt. eigenvalues --    4.23006   4.23879   4.90255   5.29621   5.29621
  Beta virt. eigenvalues --    5.32463   5.32463   5.34818   5.34818   5.35439
  Beta virt. eigenvalues --    5.35439   5.36370   5.36370   5.86573   6.71630
  Beta virt. eigenvalues --    7.12666   7.12849   7.12849   7.15448   7.15448
  Beta virt. eigenvalues --    7.16661   7.16661   7.17364   7.17364   7.21104
  Beta virt. eigenvalues --    7.21104   7.21364   7.21364   7.22363   7.22363
  Beta virt. eigenvalues --    8.35494
          Condensed to atoms (all electrons):
               1          2
     1  H    0.659971   0.279029
     2  Ti   0.279029  21.781970
          Atomic-Atomic Spin Densities.
               1          2
     1  H   -0.004753  -0.047882
     2  Ti  -0.047882   3.100516
 Mulliken charges and spin densities:
               1          2
     1  H    0.060999  -0.052635
     2  Ti  -0.060999   3.052635
 Sum of Mulliken charges =   0.00000   3.00000
 Mulliken charges and spin densities with hydrogens summed into heavy atoms:
               1          2
     2  Ti   0.000000   3.000000
 N-N= 1.164189864024D+01 E-N=-2.038293835191D+03  KE= 8.497759764465D+02
 Symmetry A1   KE= 6.582289833012D+02
 Symmetry A2   KE=-1.162990053203D-50
 Symmetry B1   KE= 9.577349657265D+01
 Symmetry B2   KE= 9.577349657265D+01
 Symmetry A1   SP= 1.000000000000D+00
 Symmetry A2   SP=-1.329823687530D-50
 Symmetry B1   SP= 1.000000000000D+00
 Symmetry B2   SP= 1.000000000000D+00

 Atomic contributions to Alpha molecular orbitals:
 Alpha occ 1 OE=-183.139 is Ti2-s=1.0000
 Alpha occ 2 OE=-21.289 is Ti2-s=1.0000
 Alpha occ 3 OE=-17.659 is Ti2-p=1.0000
 Alpha occ 4 OE=-17.659 is Ti2-p=1.0000
 Alpha occ 5 OE=-17.658 is Ti2-p=0.9999
 Alpha occ 6 OE=-2.831 is Ti2-s=0.9680
 Alpha occ 7 OE=-1.872 is Ti2-p=0.9183
 Alpha occ 8 OE=-1.742 is Ti2-p=0.9994
 Alpha occ 9 OE=-1.742 is Ti2-p=0.9994
 Alpha occ 10 OE=-0.421 is Ti2-d=0.5561 H1-s=0.3451
 Alpha occ 11 OE=-0.312 is Ti2-d=0.9978
 Alpha occ 12 OE=-0.312 is Ti2-d=0.9978
 Alpha occ 13 OE=-0.210 is Ti2-s=0.8952
 Alpha vir 14 OE=0.012 is Ti2-p=0.9951
 Alpha vir 15 OE=0.012 is Ti2-p=0.9951
 Alpha vir 16 OE=0.018 is Ti2-p=0.9190
 Alpha vir 17 OE=0.024 is Ti2-s=0.9431
 Alpha vir 18 OE=0.039 is Ti2-d=1.0000
 Alpha vir 19 OE=0.039 is Ti2-d=1.0000
 Alpha vir 20 OE=0.040 is Ti2-d=0.9950
 Alpha vir 21 OE=0.040 is Ti2-d=0.9950
 Alpha vir 22 OE=0.041 is Ti2-d=0.9737
 Alpha vir 23 OE=0.048 is Ti2-p=0.9957
 Alpha vir 24 OE=0.048 is Ti2-p=0.9957
 Alpha vir 25 OE=0.058 is Ti2-p=0.9366
 Alpha vir 26 OE=0.109 is Ti2-d=0.9990
 Alpha vir 27 OE=0.109 is Ti2-d=0.9990
 Alpha vir 28 OE=0.127 is Ti2-s=0.9391
 Alpha vir 29 OE=0.131 is Ti2-d=0.9946
 Alpha vir 30 OE=0.131 is Ti2-d=0.9946
 Alpha vir 31 OE=0.134 is Ti2-d=0.9335
 Alpha vir 32 OE=0.169 is Ti2-p=0.9988
 Alpha vir 33 OE=0.169 is Ti2-p=0.9988
 Alpha vir 34 OE=0.174 is Ti2-p=0.9385
 Alpha vir 35 OE=0.204 is Ti2-d=0.9994
 Alpha vir 36 OE=0.204 is Ti2-d=0.9994
 Alpha vir 37 OE=0.225 is Ti2-f=0.9999
 Alpha vir 38 OE=0.225 is Ti2-f=0.9999
 Alpha vir 39 OE=0.229 is Ti2-f=0.9982
 Alpha vir 40 OE=0.229 is Ti2-f=0.9982
 Alpha vir 41 OE=0.232 is Ti2-f=0.9953
 Alpha vir 42 OE=0.232 is Ti2-f=0.9953
 Alpha vir 43 OE=0.233 is Ti2-f=0.9853
 Alpha vir 44 OE=0.384 is Ti2-d=0.9971
 Alpha vir 45 OE=0.384 is Ti2-d=0.9971
 Alpha vir 46 OE=0.392 is Ti2-d=0.9523
 Alpha vir 47 OE=0.434 is Ti2-s=0.8767
 Alpha vir 48 OE=0.438 is Ti2-d=0.9989
 Alpha vir 49 OE=0.438 is Ti2-d=0.9989
 Alpha vir 50 OE=0.500 is Ti2-p=0.8499
 Alpha vir 51 OE=0.510 is Ti2-p=0.9994
 Alpha vir 52 OE=0.510 is Ti2-p=0.9994
 Alpha vir 53 OE=0.631 is Ti2-g=1.0000
 Alpha vir 54 OE=0.631 is Ti2-g=1.0000
 Alpha vir 55 OE=0.638 is Ti2-g=0.9992
 Alpha vir 56 OE=0.638 is Ti2-g=0.9992
 Alpha vir 57 OE=0.644 is Ti2-g=0.9974
 Alpha vir 58 OE=0.644 is Ti2-g=0.9974
 Alpha vir 59 OE=0.646 is Ti2-g=0.9860
 Alpha vir 60 OE=0.646 is Ti2-g=0.9977
 Alpha vir 61 OE=0.646 is Ti2-g=0.9977
 Alpha vir 62 OE=0.719 is Ti2-f=0.9310
 Alpha vir 63 OE=0.747 is Ti2-f=0.9978
 Alpha vir 64 OE=0.747 is Ti2-f=0.9978
 Alpha vir 65 OE=0.751 is Ti2-f=0.9980
 Alpha vir 66 OE=0.751 is Ti2-f=0.9980
 Alpha vir 67 OE=0.752 is Ti2-f=0.9992
 Alpha vir 68 OE=0.752 is Ti2-f=0.9992
 Alpha vir 69 OE=1.132 is Ti2-d=0.9951
 Alpha vir 70 OE=1.141 is Ti2-d=0.9984
 Alpha vir 71 OE=1.141 is Ti2-d=0.9984
 Alpha vir 72 OE=1.192 is Ti2-d=0.9998
 Alpha vir 73 OE=1.192 is Ti2-d=0.9998
 Alpha vir 74 OE=1.399 is Ti2-p=0.7200
 Alpha vir 75 OE=1.480 is Ti2-p=0.9982
 Alpha vir 76 OE=1.480 is Ti2-p=0.9982
 Alpha vir 77 OE=1.629 is Ti2-h=1.0000
 Alpha vir 78 OE=1.629 is Ti2-h=1.0000
 Alpha vir 79 OE=1.640 is Ti2-h=0.9297
 Alpha vir 80 OE=1.640 is Ti2-h=1.0000
 Alpha vir 81 OE=1.640 is Ti2-h=1.0000
 Alpha vir 82 OE=1.648 is Ti2-h=0.9999
 Alpha vir 83 OE=1.648 is Ti2-h=0.9999
 Alpha vir 84 OE=1.648 is Ti2-h=0.9975
 Alpha vir 85 OE=1.648 is Ti2-h=0.9975
 Alpha vir 86 OE=1.652 is Ti2-h=0.9997
 Alpha vir 87 OE=1.652 is Ti2-h=0.9997
 Alpha vir 88 OE=1.717 is Ti2-s=0.6258 Ti2-p=0.1803
 Alpha vir 89 OE=1.923 is Ti2-g=0.4436 Ti2-s=0.2408 Ti2-f=0.1945
 Alpha vir 90 OE=2.035 is Ti2-g=0.9508
 Alpha vir 91 OE=2.035 is Ti2-g=0.9508
 Alpha vir 92 OE=2.062 is Ti2-g=1.0000
 Alpha vir 93 OE=2.062 is Ti2-g=1.0000
 Alpha vir 94 OE=2.069 is Ti2-g=0.9959
 Alpha vir 95 OE=2.069 is Ti2-g=0.9959
 Alpha vir 96 OE=2.070 is Ti2-g=0.9999
 Alpha vir 97 OE=2.070 is Ti2-g=0.9999
 Alpha vir 98 OE=2.130 is Ti2-g=0.5051 Ti2-f=0.4094
 Alpha vir 99 OE=2.249 is Ti2-f=0.9523
 Alpha vir 100 OE=2.249 is Ti2-f=0.9523
 Alpha vir 101 OE=2.270 is Ti2-f=0.9960
 Alpha vir 102 OE=2.270 is Ti2-f=0.9960
 Alpha vir 103 OE=2.307 is Ti2-f=0.9999
 Alpha vir 104 OE=2.307 is Ti2-f=0.9999
 Alpha vir 105 OE=3.373 is Ti2-d=0.6412 Ti2-f=0.1465 H1-s=0.1084
 Alpha vir 106 OE=3.643 is Ti2-d=0.9984
 Alpha vir 107 OE=3.643 is Ti2-d=0.9984
 Alpha vir 108 OE=3.683 is Ti2-d=1.0000
 Alpha vir 109 OE=3.683 is Ti2-d=1.0000
 Alpha vir 110 OE=4.186 is Ti2-p=0.9612
 Alpha vir 111 OE=4.201 is Ti2-p=0.9991
 Alpha vir 112 OE=4.201 is Ti2-p=0.9991
 Alpha vir 113 OE=4.867 is Ti2-h=0.4431 Ti2-d=0.2063 H1-s=0.1024
 Alpha vir 114 OE=5.267 is Ti2-h=0.9986
 Alpha vir 115 OE=5.267 is Ti2-h=0.9986
 Alpha vir 116 OE=5.312 is Ti2-h=1.0000
 Alpha vir 117 OE=5.312 is Ti2-h=1.0000
 Alpha vir 118 OE=5.316 is Ti2-h=0.9998
 Alpha vir 119 OE=5.316 is Ti2-h=0.9998
 Alpha vir 120 OE=5.325 is Ti2-h=1.0000
 Alpha vir 121 OE=5.325 is Ti2-h=1.0000
 Alpha vir 122 OE=5.330 is Ti2-h=0.9999
 Alpha vir 123 OE=5.330 is Ti2-h=0.9999
 Alpha vir 124 OE=5.818 is Ti2-h=0.4994 Ti2-f=0.1482 Ti2-s=0.1085
 Alpha vir 125 OE=6.683 is Ti2-s=0.8528
 Alpha vir 126 OE=7.060 is Ti2-g=0.6155 Ti2-f=0.3847
 Alpha vir 127 OE=7.067 is Ti2-f=0.8636 Ti2-g=0.1364
 Alpha vir 128 OE=7.067 is Ti2-f=0.8636 Ti2-g=0.1364
 Alpha vir 129 OE=7.071 is Ti2-f=0.9537
 Alpha vir 130 OE=7.071 is Ti2-f=0.9537
 Alpha vir 131 OE=7.105 is Ti2-f=0.9641
 Alpha vir 132 OE=7.105 is Ti2-f=0.9641
 Alpha vir 133 OE=7.141 is Ti2-g=0.8629 Ti2-f=0.1364
 Alpha vir 134 OE=7.141 is Ti2-g=0.8629 Ti2-f=0.1364
 Alpha vir 135 OE=7.148 is Ti2-g=0.9641
 Alpha vir 136 OE=7.148 is Ti2-g=0.9641
 Alpha vir 137 OE=7.149 is Ti2-g=0.9535
 Alpha vir 138 OE=7.149 is Ti2-g=0.9535
 Alpha vir 139 OE=7.150 is Ti2-g=1.0000
 Alpha vir 140 OE=7.150 is Ti2-g=1.0000
 Alpha vir 141 OE=8.305 is Ti2-f=0.4910 Ti2-g=0.2583

 Atomic contributions to Beta  molecular orbitals:
 Beta  occ 1 OE=-183.139 is Ti2-s=1.0000
 Beta  occ 2 OE=-21.257 is Ti2-s=1.0000
 Beta  occ 3 OE=-17.635 is Ti2-p=1.0000
 Beta  occ 4 OE=-17.635 is Ti2-p=1.0000
 Beta  occ 5 OE=-17.614 is Ti2-p=1.0000
 Beta  occ 6 OE=-2.700 is Ti2-s=0.9662
 Beta  occ 7 OE=-1.631 is Ti2-p=0.9030
 Beta  occ 8 OE=-1.623 is Ti2-p=0.9994
 Beta  occ 9 OE=-1.623 is Ti2-p=0.9994
 Beta  occ 10 OE=-0.354 is Ti2-d=0.3789 H1-s=0.3761 Ti2-s=0.1550
 Beta  vir 11 OE=0.011 is Ti2-s=0.9028
 Beta  vir 12 OE=0.021 is Ti2-p=0.9970
 Beta  vir 13 OE=0.021 is Ti2-p=0.9970
 Beta  vir 14 OE=0.023 is Ti2-p=0.9215
 Beta  vir 15 OE=0.040 is Ti2-d=1.0000
 Beta  vir 16 OE=0.040 is Ti2-d=1.0000
 Beta  vir 17 OE=0.040 is Ti2-d=0.9970
 Beta  vir 18 OE=0.040 is Ti2-d=0.9970
 Beta  vir 19 OE=0.041 is Ti2-d=0.9632
 Beta  vir 20 OE=0.053 is Ti2-s=0.8303
 Beta  vir 21 OE=0.073 is Ti2-p=0.9993
 Beta  vir 22 OE=0.073 is Ti2-p=0.9993
 Beta  vir 23 OE=0.079 is Ti2-p=0.8660
 Beta  vir 24 OE=0.123 is Ti2-d=0.9997
 Beta  vir 25 OE=0.123 is Ti2-d=0.9997
 Beta  vir 26 OE=0.127 is Ti2-d=0.9984
 Beta  vir 27 OE=0.127 is Ti2-d=0.9984
 Beta  vir 28 OE=0.137 is Ti2-d=0.8523 Ti2-s=0.1132
 Beta  vir 29 OE=0.167 is Ti2-s=0.8064 Ti2-d=0.1779
 Beta  vir 30 OE=0.198 is Ti2-p=0.9991
 Beta  vir 31 OE=0.198 is Ti2-p=0.9991
 Beta  vir 32 OE=0.200 is Ti2-p=0.9004 Ti2-d=0.1075
 Beta  vir 33 OE=0.231 is Ti2-f=1.0000
 Beta  vir 34 OE=0.231 is Ti2-f=1.0000
 Beta  vir 35 OE=0.235 is Ti2-f=0.9991
 Beta  vir 36 OE=0.235 is Ti2-f=0.9991
 Beta  vir 37 OE=0.237 is Ti2-f=0.9946
 Beta  vir 38 OE=0.237 is Ti2-f=0.9946
 Beta  vir 39 OE=0.237 is Ti2-f=0.9908
 Beta  vir 40 OE=0.246 is Ti2-d=0.9992
 Beta  vir 41 OE=0.246 is Ti2-d=0.9992
 Beta  vir 42 OE=0.263 is Ti2-d=0.9949
 Beta  vir 43 OE=0.263 is Ti2-d=0.9949
 Beta  vir 44 OE=0.411 is Ti2-d=0.8417 Ti2-s=0.1193
 Beta  vir 45 OE=0.467 is Ti2-d=0.9995
 Beta  vir 46 OE=0.467 is Ti2-d=0.9995
 Beta  vir 47 OE=0.474 is Ti2-s=0.6992 Ti2-d=0.2073
 Beta  vir 48 OE=0.493 is Ti2-d=0.9953
 Beta  vir 49 OE=0.493 is Ti2-d=0.9953
 Beta  vir 50 OE=0.527 is Ti2-p=0.7750 Ti2-s=0.1625
 Beta  vir 51 OE=0.539 is Ti2-p=0.9971
 Beta  vir 52 OE=0.539 is Ti2-p=0.9971
 Beta  vir 53 OE=0.641 is Ti2-g=1.0000
 Beta  vir 54 OE=0.641 is Ti2-g=1.0000
 Beta  vir 55 OE=0.648 is Ti2-g=0.9999
 Beta  vir 56 OE=0.648 is Ti2-g=0.9999
 Beta  vir 57 OE=0.652 is Ti2-g=0.9858
 Beta  vir 58 OE=0.652 is Ti2-g=0.9992
 Beta  vir 59 OE=0.652 is Ti2-g=0.9992
 Beta  vir 60 OE=0.653 is Ti2-g=0.9984
 Beta  vir 61 OE=0.653 is Ti2-g=0.9984
 Beta  vir 62 OE=0.750 is Ti2-f=0.9310
 Beta  vir 63 OE=0.774 is Ti2-f=0.9998
 Beta  vir 64 OE=0.774 is Ti2-f=0.9998
 Beta  vir 65 OE=0.778 is Ti2-f=0.9974
 Beta  vir 66 OE=0.778 is Ti2-f=0.9974
 Beta  vir 67 OE=0.789 is Ti2-f=0.9996
 Beta  vir 68 OE=0.789 is Ti2-f=0.9996
 Beta  vir 69 OE=1.177 is Ti2-d=1.0001
 Beta  vir 70 OE=1.222 is Ti2-d=0.9999
 Beta  vir 71 OE=1.222 is Ti2-d=0.9999
 Beta  vir 72 OE=1.253 is Ti2-d=0.9970
 Beta  vir 73 OE=1.253 is Ti2-d=0.9970
 Beta  vir 74 OE=1.428 is Ti2-p=0.6899
 Beta  vir 75 OE=1.510 is Ti2-p=0.9967
 Beta  vir 76 OE=1.510 is Ti2-p=0.9967
 Beta  vir 77 OE=1.640 is Ti2-h=1.0000
 Beta  vir 78 OE=1.640 is Ti2-h=1.0000
 Beta  vir 79 OE=1.650 is Ti2-h=0.9576
 Beta  vir 80 OE=1.653 is Ti2-h=1.0000
 Beta  vir 81 OE=1.653 is Ti2-h=1.0000
 Beta  vir 82 OE=1.657 is Ti2-h=0.9970
 Beta  vir 83 OE=1.657 is Ti2-h=0.9970
 Beta  vir 84 OE=1.661 is Ti2-h=0.9999
 Beta  vir 85 OE=1.661 is Ti2-h=0.9999
 Beta  vir 86 OE=1.662 is Ti2-h=0.9997
 Beta  vir 87 OE=1.662 is Ti2-h=0.9997
 Beta  vir 88 OE=1.763 is Ti2-s=0.6391 Ti2-p=0.2043
 Beta  vir 89 OE=1.971 is Ti2-g=0.5240 Ti2-s=0.2209 Ti2-f=0.1455
 Beta  vir 90 OE=2.064 is Ti2-g=0.9710
 Beta  vir 91 OE=2.064 is Ti2-g=0.9710
 Beta  vir 92 OE=2.079 is Ti2-g=1.0000
 Beta  vir 93 OE=2.079 is Ti2-g=1.0000
 Beta  vir 94 OE=2.101 is Ti2-g=0.9979
 Beta  vir 95 OE=2.101 is Ti2-g=0.9979
 Beta  vir 96 OE=2.102 is Ti2-g=0.9997
 Beta  vir 97 OE=2.102 is Ti2-g=0.9997
 Beta  vir 98 OE=2.178 is Ti2-f=0.4551 Ti2-g=0.4192
 Beta  vir 99 OE=2.334 is Ti2-f=0.9997
 Beta  vir 100 OE=2.334 is Ti2-f=0.9997
 Beta  vir 101 OE=2.336 is Ti2-f=0.9727
 Beta  vir 102 OE=2.336 is Ti2-f=0.9727
 Beta  vir 103 OE=2.371 is Ti2-f=0.9980
 Beta  vir 104 OE=2.371 is Ti2-f=0.9980
 Beta  vir 105 OE=3.409 is Ti2-d=0.6350 Ti2-f=0.1567 H1-s=0.1119
 Beta  vir 106 OE=3.709 is Ti2-d=1.0000
 Beta  vir 107 OE=3.709 is Ti2-d=1.0000
 Beta  vir 108 OE=3.745 is Ti2-d=0.9979
 Beta  vir 109 OE=3.745 is Ti2-d=0.9979
 Beta  vir 110 OE=4.230 is Ti2-p=0.9984
 Beta  vir 111 OE=4.230 is Ti2-p=0.9984
 Beta  vir 112 OE=4.239 is Ti2-p=0.9585
 Beta  vir 113 OE=4.903 is Ti2-h=0.4518 Ti2-d=0.2068
 Beta  vir 114 OE=5.296 is Ti2-h=0.9986
 Beta  vir 115 OE=5.296 is Ti2-h=0.9986
 Beta  vir 116 OE=5.325 is Ti2-h=1.0000
 Beta  vir 117 OE=5.325 is Ti2-h=1.0000
 Beta  vir 118 OE=5.348 is Ti2-h=0.9998
 Beta  vir 119 OE=5.348 is Ti2-h=0.9998
 Beta  vir 120 OE=5.354 is Ti2-h=1.0000
 Beta  vir 121 OE=5.354 is Ti2-h=1.0000
 Beta  vir 122 OE=5.364 is Ti2-h=0.9999
 Beta  vir 123 OE=5.364 is Ti2-h=0.9999
 Beta  vir 124 OE=5.866 is Ti2-h=0.4921 Ti2-f=0.1499 Ti2-s=0.1159 Ti2-d=0.1034
 Beta  vir 125 OE=6.716 is Ti2-s=0.8537
 Beta  vir 126 OE=7.127 is Ti2-g=0.6062 Ti2-f=0.3921
 Beta  vir 127 OE=7.128 is Ti2-f=0.9873
 Beta  vir 128 OE=7.128 is Ti2-f=0.9873
 Beta  vir 129 OE=7.154 is Ti2-f=0.6744 Ti2-g=0.3254
 Beta  vir 130 OE=7.154 is Ti2-f=0.6744 Ti2-g=0.3254
 Beta  vir 131 OE=7.167 is Ti2-g=1.0000
 Beta  vir 132 OE=7.167 is Ti2-g=1.0000
 Beta  vir 133 OE=7.174 is Ti2-f=0.8455 Ti2-g=0.1545
 Beta  vir 134 OE=7.174 is Ti2-f=0.8455 Ti2-g=0.1545
 Beta  vir 135 OE=7.211 is Ti2-g=0.9872
 Beta  vir 136 OE=7.211 is Ti2-g=0.9872
 Beta  vir 137 OE=7.214 is Ti2-g=0.6738 Ti2-f=0.3255
 Beta  vir 138 OE=7.214 is Ti2-g=0.6738 Ti2-f=0.3255
 Beta  vir 139 OE=7.224 is Ti2-g=0.8453 Ti2-f=0.1545
 Beta  vir 140 OE=7.224 is Ti2-g=0.8453 Ti2-f=0.1545
 Beta  vir 141 OE=8.355 is Ti2-f=0.4974 Ti2-g=0.2613
 
 Leave Link  601 at Mon Mar 28 14:48:58 2022, MaxMem=  9663676416 cpu:               2.0 elap:               0.1
 (Enter /nopt/nrel/apps/gaussian/g16C_1/g16/l9999.exe)

 Test job not archived.
 1\1\GINC-R102U35\SP\UCCSD-FC\Gen\H1Ti1(4)\USER\28-Mar-2022\0\\#P C
 CSD(MaxCyc=200,SaveAmplitudes,ReadAmplitudes)/GEN sp pop=AllOrbitals i
 op(3/33=1,3/36=-1)\\test\\0,4\H,0,0.,0.,0.\Ti,0,0.,0.,1.\\Version=ES64
 L-G16RevC.01\State=4-SG\HF=-848.6457077\MP2=-848.7282661\MP3=-848.7377
 597\MP4D=-848.7404507\MP4DQ=-848.7385356\PUHF=-848.6466533\PMP2-0=-848
 .7290543\PMP3-0=-848.7383221\MP4SDQ=-848.7397526\CCSD=-848.7439977\S2=
 3.772909\S2-1=3.765274\S2A=3.750046\RMSD=6.165e-09\PG=C*V [C*(H1Ti1)]\
 \@


 MORNING PEOPLE ARE USUALLY ADMIRED AS EARLY BIRDS.
 RECALL BEN FRANKLIN'S APHORISM THAT THE EARLY BIRD GETS THE WORM.
 I IDENTIFY WITH THE WORM. --  CRAIG JAGGER, MINNEAPOLIS, KS.
 Job cpu time:       0 days  0 hours 33 minutes 28.4 seconds.
 Elapsed time:       0 days  0 hours  0 minutes 57.0 seconds.
 File lengths (MBytes):  RWF=    227 Int=      0 D2E=      0 Chk=      3 Scr=      1
 Normal termination of Gaussian 16 at Mon Mar 28 14:48:58 2022.
