 Entering Gaussian System, Link 0=g16
 Initial command:
 /nopt/nrel/apps/gaussian/g16C_1/g16/l1.exe "/lustre/eaglefs/scratch/user/qc/gaussian-final/lih-1-ccsd-631g/Gau-167465.inp" -scrdir="/lustre/eaglefs/scratch/user/qc/gaussian-final/lih-1-ccsd-631g/"
 Default is to use a total of  36 processors:
                               36 via shared-memory
                                1 via Linda
 Entering Link 1 = /nopt/nrel/apps/gaussian/g16C_1/g16/l1.exe PID=    167466.
  
 Copyright (c) 1988-2019, Gaussian, Inc.  All Rights Reserved.
  
 This is part of the Gaussian(R) 16 program.  It is based on
 the Gaussian(R) 09 system (copyright 2009, Gaussian, Inc.),
 the Gaussian(R) 03 system (copyright 2003, Gaussian, Inc.),
 the Gaussian(R) 98 system (copyright 1998, Gaussian, Inc.),
 the Gaussian(R) 94 system (copyright 1995, Gaussian, Inc.),
 the Gaussian 92(TM) system (copyright 1992, Gaussian, Inc.),
 the Gaussian 90(TM) system (copyright 1990, Gaussian, Inc.),
 the Gaussian 88(TM) system (copyright 1988, Gaussian, Inc.),
 the Gaussian 86(TM) system (copyright 1986, Carnegie Mellon
 University), and the Gaussian 82(TM) system (copyright 1983,
 Carnegie Mellon University). Gaussian is a federally registered
 trademark of Gaussian, Inc.
  
 This software contains proprietary and confidential information,
 including trade secrets, belonging to Gaussian, Inc.
  
 This software is provided under written license and may be
 used, copied, transmitted, or stored only in accord with that
 written license.
  
 The following legend is applicable only to US Government
 contracts under FAR:
  
                    RESTRICTED RIGHTS LEGEND
  
 Use, reproduction and disclosure by the US Government is
 subject to restrictions as set forth in subparagraphs (a)
 and (c) of the Commercial Computer Software - Restricted
 Rights clause in FAR 52.227-19.
  
 Gaussian, Inc.
 340 Quinnipiac St., Bldg. 40, Wallingford CT 06492
  
  
 ---------------------------------------------------------------
 Warning -- This program may not be used in any manner that
 competes with the business of Gaussian, Inc. or will provide
 assistance to any competitor of Gaussian, Inc.  The licensee
 of this program is prohibited from giving any competitor of
 Gaussian, Inc. access to this program.  By using this program,
 the user acknowledges that Gaussian, Inc. is engaged in the
 business of creating and licensing software in the field of
 computational chemistry and represents and warrants to the
 licensee that it is not a competitor of Gaussian, Inc. and that
 it will not use this program in any manner prohibited above.
 ---------------------------------------------------------------
  

 Cite this work as:
 Gaussian 16, Revision C.01,
 M. J. Frisch, G. W. Trucks, H. B. Schlegel, G. E. Scuseria, 
 M. A. Robb, J. R. Cheeseman, G. Scalmani, V. Barone, 
 G. A. Petersson, H. Nakatsuji, X. Li, M. Caricato, A. V. Marenich, 
 J. Bloino, B. G. Janesko, R. Gomperts, B. Mennucci, H. P. Hratchian, 
 J. V. Ortiz, A. F. Izmaylov, J. L. Sonnenberg, D. Williams-Young, 
 F. Ding, F. Lipparini, F. Egidi, J. Goings, B. Peng, A. Petrone, 
 T. Henderson, D. Ranasinghe, V. G. Zakrzewski, J. Gao, N. Rega, 
 G. Zheng, W. Liang, M. Hada, M. Ehara, K. Toyota, R. Fukuda, 
 J. Hasegawa, M. Ishida, T. Nakajima, Y. Honda, O. Kitao, H. Nakai, 
 T. Vreven, K. Throssell, J. A. Montgomery, Jr., J. E. Peralta, 
 F. Ogliaro, M. J. Bearpark, J. J. Heyd, E. N. Brothers, K. N. Kudin, 
 V. N. Staroverov, T. A. Keith, R. Kobayashi, J. Normand, 
 K. Raghavachari, A. P. Rendell, J. C. Burant, S. S. Iyengar, 
 J. Tomasi, M. Cossi, J. M. Millam, M. Klene, C. Adamo, R. Cammi, 
 J. W. Ochterski, R. L. Martin, K. Morokuma, O. Farkas, 
 J. B. Foresman, and D. J. Fox, Gaussian, Inc., Wallingford CT, 2019.
 
 ******************************************
 Gaussian 16:  ES64L-G16RevC.01  3-Jul-2019
                24-Mar-2022 
 ******************************************
 %chk=molecule
 Default route: CacheSize=180224 MaxDisk=256GB
 --------------------------------------------------
 #P CCSD/GEN sp pop=AllOrbitals iop(3/33=1,3/36=-1)
 --------------------------------------------------
 1/4=180224,38=1,172=1/1;
 2/4=180224,12=2,17=6,18=5,40=1/2;
 3/4=180224,5=7,11=9,25=1,30=1,33=1,36=-1/1,2,3;
 4/4=180224/1;
 5/4=180224,5=2,38=5/2;
 8/4=180224,6=4,9=120000,10=1/1,4;
 9/4=180224,5=7/13;
 6/4=180224,7=2,8=2,9=2,10=2,96=-1/1;
 99/4=180224,5=1,9=1/99;
 Leave Link    1 at Thu Mar 24 15:57:44 2022, MaxMem=           0 cpu:               2.0 elap:               0.1
 (Enter /nopt/nrel/apps/gaussian/g16C_1/g16/l101.exe)
 ----
 test
 ----
 Symbolic Z-matrix:
 Charge =  0 Multiplicity = 1
 H                     0.        0.        0. 
 Li                    0.        0.        1.5949 
 
 ITRead=  0  0
 MicOpt= -1 -1
 NAtoms=      2 NQM=        2 NQMF=       0 NMMI=      0 NMMIF=      0
                NMic=       0 NMicF=      0.
                    Isotopes and Nuclear Properties:
 (Nuclear quadrupole moments (NQMom) in fm**2, nuclear magnetic moments (NMagM)
  in nuclear magnetons)

  Atom         1           2
 IAtWgt=           1           7
 AtmWgt=   1.0078250   7.0160045
 NucSpn=           1           3
 AtZEff=  -0.0000000  -0.0000000
 NQMom=    0.0000000  -4.0100000
 NMagM=    2.7928460   3.2564240
 AtZNuc=   1.0000000   3.0000000
 Leave Link  101 at Thu Mar 24 15:57:44 2022, MaxMem=  9663676416 cpu:               2.8 elap:               0.1
 (Enter /nopt/nrel/apps/gaussian/g16C_1/g16/l202.exe)
                          Input orientation:                          
 ---------------------------------------------------------------------
 Center     Atomic      Atomic             Coordinates (Angstroms)
 Number     Number       Type             X           Y           Z
 ---------------------------------------------------------------------
      1          1           0        0.000000    0.000000    0.000000
      2          3           0        0.000000    0.000000    1.594900
 ---------------------------------------------------------------------
 Stoichiometry    HLi
 Framework group  C*V[C*(HLi)]
 Deg. of freedom     1
 Full point group                 C*V     NOp   4
 Largest Abelian subgroup         C2V     NOp   4
 Largest concise Abelian subgroup C1      NOp   1
                         Standard orientation:                         
 ---------------------------------------------------------------------
 Center     Atomic      Atomic             Coordinates (Angstroms)
 Number     Number       Type             X           Y           Z
 ---------------------------------------------------------------------
      1          1           0        0.000000    0.000000   -1.196175
      2          3           0        0.000000    0.000000    0.398725
 ---------------------------------------------------------------------
 Rotational constants (GHZ):           0.0000000         225.4534966         225.4534966
 Leave Link  202 at Thu Mar 24 15:57:44 2022, MaxMem=  9663676416 cpu:               0.8 elap:               0.0
 (Enter /nopt/nrel/apps/gaussian/g16C_1/g16/l301.exe)
 General basis read from cards:  (5D, 7F)
                         Coordinates in L301:                         
 ---------------------------------------------------------------------
 Center     Atomic      Atomic             Coordinates (Angstroms)
 Number     Number       Type             X           Y           Z
 ---------------------------------------------------------------------
      1          1           0        0.000000    0.000000   -1.196175
      2          3           0        0.000000    0.000000    0.398725
 ---------------------------------------------------------------------
 Centers:       1
 STO-3G
 ****
 Centers:       2
 6-31G
 ****
 FixB: optimizing general contractions.
 Ernie: Thresh=  0.10000D-02 Tol=  0.10000D-05 Strict=F.
 IA=     1 ShT= 0 ShC= 0 NL=   1 NS=   0.
 IA=     1 L=0 SC=0 ISt=    0 NBk=    0 NP=    0 IndPr=    0.
 IA=     2 ShT= 0 ShC= 0 NL=   1 NS=   0.
 IA=     2 L=0 SC=0 ISt=    0 NBk=    0 NP=    0 IndPr=    0.
 IA=     2 ShT= 1 ShC= 0 NL=   2 NS=   1.
 IA=     2 L=1 SC=0 ISt=    0 NBk=    0 NP=    0 IndPr=    0.
 LdAtmC:  AtmChg=     1.000000     3.000000
 AtZEff=     -1.0000000     -1.3500000
 NEqShl: 
              1            2            3            4
     1            1            1            1            1
     2            2            2            2            2
     3            3            3            3            3
     4            4            4            4            4
 NEqBas: 
              1            2            3            4
     1            1            1            1            1
     2            2            2            2            2
     3            3            3            3            3
     4            4           -4           -4            4
     5            5           -5            5           -5
     6            6            6            6            6
     7            7            7            7            7
     8            8           -8           -8            8
     9            9           -9            9           -9
    10           10           10           10           10
 There are     6 symmetry adapted cartesian basis functions of A1  symmetry.
   1         1   1   1   1
   2         2   2   2   2
   3         3   3   3   3
   4         6   6   6   6
   5         7   7   7   7
   6        10  10  10  10
 There are     0 symmetry adapted cartesian basis functions of A2  symmetry.
 There are     2 symmetry adapted cartesian basis functions of B1  symmetry.
   7         4   4   4   4
   8         8   8   8   8
 There are     2 symmetry adapted cartesian basis functions of B2  symmetry.
   9         5   5   5   5
  10         9   9   9   9
 Order= 1 2 4 3
 Reordered character table:
              1            2            3            4            5
     1            1            1            1            1            1
     2            2            1            1           -1           -1
     3            4            1           -1           -1            1
     4            3            1           -1            1           -1
 NEqShl: 
              1            2            3            4
     1            1            1            1            1
     2            2            2            2            2
     3            3            3            3            3
     4            4            4            4            4
 NEqBas: 
              1            2            3            4
     1            1            1            1            1
     2            2            2            2            2
     3            3            3            3            3
     4            4           -4           -4            4
     5            5           -5            5           -5
     6            6            6            6            6
     7            7            7            7            7
     8            8           -8           -8            8
     9            9           -9            9           -9
    10           10           10           10           10
 There are     6 symmetry adapted basis functions of A1  symmetry.
   1         1   1   1   1
   2         2   2   2   2
   3         3   3   3   3
   4         6   6   6   6
   5         7   7   7   7
   6        10  10  10  10
 There are     0 symmetry adapted basis functions of A2  symmetry.
 There are     2 symmetry adapted basis functions of B1  symmetry.
   7         4   4   4   4
   8         8   8   8   8
 There are     2 symmetry adapted basis functions of B2  symmetry.
   9         5   5   5   5
  10         9   9   9   9
 Order= 1 2 4 3
 Reordered character table:
              1            2            3            4            5
     1            1            1            1            1            1
     2            2            1            1           -1           -1
     3            4            1           -1           -1            1
     4            3            1           -1            1           -1
    10 basis functions,    25 primitive gaussians,    10 cartesian basis functions
     2 alpha electrons        2 beta electrons
       nuclear repulsion energy         0.9953800444 Hartrees.
 IS=     1 IAt=     1 ISR=     1 T=0 IP=      1 IndIP=      1 IndIPD=      0 C=  2.769344D-01  0.000000D+00                             NZ=T
 IS=     1 IAt=     1 ISR=     1 T=0 IP=      2 IndIP=      2 IndIPD=      1 C=  2.678389D-01  0.000000D+00                             NZ=T
 IS=     1 IAt=     1 ISR=     1 T=0 IP=      3 IndIP=      3 IndIPD=      2 C=  8.347367D-02  0.000000D+00                             NZ=T
 IS=     2 IAt=     2 ISR=     1 T=0 IP=      1 IndIP=      4 IndIPD=      0 C=  1.948572D-01  0.000000D+00                             NZ=T
 IS=     2 IAt=     2 ISR=     1 T=0 IP=      2 IndIP=      5 IndIPD=      1 C=  3.565040D-01  0.000000D+00                             NZ=T
 IS=     2 IAt=     2 ISR=     1 T=0 IP=      3 IndIP=      6 IndIPD=      2 C=  5.614879D-01  0.000000D+00                             NZ=T
 IS=     2 IAt=     2 ISR=     1 T=0 IP=      4 IndIP=      7 IndIPD=      3 C=  6.883627D-01  0.000000D+00                             NZ=T
 IS=     2 IAt=     2 ISR=     1 T=0 IP=      5 IndIP=      8 IndIPD=      4 C=  5.498106D-01  0.000000D+00                             NZ=T
 IS=     2 IAt=     2 ISR=     1 T=0 IP=      6 IndIP=      9 IndIPD=      5 C=  1.755056D-01  0.000000D+00                             NZ=T
 IS=     3 IAt=     2 ISR=     2 T=1 IP=      1 IndIP=     10 IndIPD=      0 C= -4.708915D-02  3.658984D-02                             NZ=T
 IS=     3 IAt=     2 ISR=     2 T=1 IP=      2 IndIP=     11 IndIPD=      1 C= -9.665673D-02  1.133585D-01                             NZ=T
 IS=     3 IAt=     2 ISR=     2 T=1 IP=      3 IndIP=     12 IndIPD=      2 C=  1.151795D-01  5.648589D-02                             NZ=T
 IS=     4 IAt=     2 ISR=     3 T=1 IP=      1 IndIP=     13 IndIPD=      0 C=  5.885627D-02  2.232258D-02                             NZ=T
 IExCor=    0 DFT=F Ex=HF Corr=None ExCW=0 ScaHFX=  1.000000
 ScaDFX=  1.000000  1.000000  1.000000  1.000000 ScalE2=  1.000000  1.000000
 IRadAn=      5 IRanWt=     -1 IRanGd=            0 ICorTp=0 IEmpDi=  4
 NAtoms=    2 NActive=    2 NUniq=    2 SFac= 1.00D+00 NAtFMM=   60 NAOKFM=F Big=F
 Integral buffers will be    131072 words long.
 Raffenetti 1 integral format.
 Two-electron integral symmetry is turned on.
 Leave Link  301 at Thu Mar 24 15:57:44 2022, MaxMem=  9663676416 cpu:               2.1 elap:               0.1
 (Enter /nopt/nrel/apps/gaussian/g16C_1/g16/l302.exe)
 NPDir=0 NMtPBC=     1 NCelOv=     1 NCel=       1 NClECP=     1 NCelD=      1
         NCelK=      1 NCelE2=     1 NClLst=     1 CellRange=     0.0.
 One-electron integrals computed using PRISM.
 One-electron integral symmetry used in STVInt
 Entering OneElI...
 Calculate overlap and kinetic energy integrals
    NBasis =  10  MinDer = 0  MaxDer = 0
 Requested accuracy = 0.1000D-12
 Symmetry will be used
 PrmmSu-InSpLW:  IPartL=    0 NPrtUS=   36 NPrtUL=    1 DoSpLW=F IThBeg=    0 IThEnd=   35 NThAct=   36.
 PrSmSu:  IncTry=   512 NBBP=             10 NTPThr=   100 NPartT=   36 Incr=           1 LDynOK=F GPUOK=F.
 PrsmSu:  NPrtUS=  36 ThrOK=T IAlg=1 LenDen=           0 ISkipM=0 DoSpLW=F IThBeg=    0 IThEnd=   35.
 Prism:   IPart=     0 DynPar=F LinDyn=F Incr=           1.
 PRISM was handed   268433743 working-precision words and    10 shell-pairs
 PRISM was handed   268433743 working-precision words and    10 shell-pairs
 PRISM was handed   268433743 working-precision words and    10 shell-pairs
 PRISM was handed   268433743 working-precision words and    10 shell-pairs
 PRISM was handed   268433743 working-precision words and    10 shell-pairs
 PRISM was handed   268433743 working-precision words and    10 shell-pairs
 PRISM was handed   268433743 working-precision words and    10 shell-pairs
 IPart= 34 NShTot=           0 NBatch=           0 AvBLen=         0.0
 IPart=  6 NShTot=           0 NBatch=           0 AvBLen=         0.0
 IPart=  1 NShTot=           0 NBatch=           0 AvBLen=         0.0
 IPart= 21 NShTot=           0 NBatch=           0 AvBLen=         0.0
 IPart= 19 NShTot=           0 NBatch=           0 AvBLen=         0.0
 IPart= 16 NShTot=           0 NBatch=           0 AvBLen=         0.0
 PRISM was handed   268433743 working-precision words and    10 shell-pairs
 PRISM was handed   268433743 working-precision words and    10 shell-pairs
 PRISM was handed   268433743 working-precision words and    10 shell-pairs
 PRISM was handed   268433743 working-precision words and    10 shell-pairs
 PRISM was handed   268433743 working-precision words and    10 shell-pairs
 PRISM was handed   268433743 working-precision words and    10 shell-pairs
 PRISM was handed   268433743 working-precision words and    10 shell-pairs
 PRISM was handed   268433743 working-precision words and    10 shell-pairs
 IPart=  8 NShTot=           0 NBatch=           0 AvBLen=         0.0
 IPart= 12 NShTot=           0 NBatch=           0 AvBLen=         0.0
 IPart= 26 NShTot=           0 NBatch=           0 AvBLen=         0.0
 IPart=  7 NShTot=           0 NBatch=           0 AvBLen=         0.0
 PRISM was handed   268433743 working-precision words and    10 shell-pairs
 IPart= 11 NShTot=           0 NBatch=           0 AvBLen=         0.0
 IPart= 32 NShTot=           0 NBatch=           0 AvBLen=         0.0
 IPart=  3 NShTot=           0 NBatch=           0 AvBLen=         0.0
 IPart= 15 NShTot=           0 NBatch=           0 AvBLen=         0.0
 PRISM was handed   268433743 working-precision words and    10 shell-pairs
 PRISM was handed   268433743 working-precision words and    10 shell-pairs
 IPart= 23 NShTot=           0 NBatch=           0 AvBLen=         0.0
 PRISM was handed   268433743 working-precision words and    10 shell-pairs
 PRISM was handed   268433743 working-precision words and    10 shell-pairs
 PRISM was handed   268433743 working-precision words and    10 shell-pairs
 IPart= 31 NShTot=           0 NBatch=           0 AvBLen=         0.0
 IPart= 29 NShTot=           0 NBatch=           0 AvBLen=         0.0
 PRISM was handed   268433743 working-precision words and    10 shell-pairs
 PRISM was handed   268433743 working-precision words and    10 shell-pairs
 IPart= 28 NShTot=           0 NBatch=           0 AvBLen=         0.0
 PRISM was handed   268433743 working-precision words and    10 shell-pairs
 IPart=  4 NShTot=           0 NBatch=           0 AvBLen=         0.0
 PRISM was handed   268433743 working-precision words and    10 shell-pairs
 IPart= 24 NShTot=           0 NBatch=           0 AvBLen=         0.0
 PRISM was handed   268433743 working-precision words and    10 shell-pairs
 PRISM was handed   268433743 working-precision words and    10 shell-pairs
 IPart= 20 NShTot=           0 NBatch=           0 AvBLen=         0.0
 IPart= 30 NShTot=           0 NBatch=           0 AvBLen=         0.0
 PRISM was handed   268433743 working-precision words and    10 shell-pairs
 IPart= 14 NShTot=           0 NBatch=           0 AvBLen=         0.0
 IPart=  2 NShTot=           0 NBatch=           0 AvBLen=         0.0
 IPart= 22 NShTot=           0 NBatch=           0 AvBLen=         0.0
 IPart= 18 NShTot=           0 NBatch=           0 AvBLen=         0.0
 PRISM was handed   268433743 working-precision words and    10 shell-pairs
 PRISM was handed   268433743 working-precision words and    10 shell-pairs
 PRISM was handed   268433743 working-precision words and    10 shell-pairs
 IPart= 35 NShTot=           0 NBatch=           0 AvBLen=         0.0
 PRISM was handed   268433743 working-precision words and    10 shell-pairs
 PRISM was handed   268433743 working-precision words and    10 shell-pairs
 IPart= 13 NShTot=           0 NBatch=           0 AvBLen=         0.0
 IPart= 33 NShTot=           0 NBatch=           0 AvBLen=         0.0
 PRISM was handed   268433743 working-precision words and    10 shell-pairs
 PRISM was handed   268433743 working-precision words and    10 shell-pairs
 IPart= 10 NShTot=           0 NBatch=           0 AvBLen=         0.0
 PRISM was handed   268433743 working-precision words and    10 shell-pairs
 IPart=  5 NShTot=           0 NBatch=           0 AvBLen=         0.0
 IPart=  0 NShTot=          10 NBatch=          10 AvBLen=         1.0
 IPart=  9 NShTot=           0 NBatch=           0 AvBLen=         0.0
 IPart= 17 NShTot=           0 NBatch=           0 AvBLen=         0.0
 IPart= 25 NShTot=           0 NBatch=           0 AvBLen=         0.0
 IPart= 27 NShTot=           0 NBatch=           0 AvBLen=         0.0
 PrSmSu:  NxtVal=             37.
 *** Overlap *** 
                1             2             3             4             5 
      1  0.100000D+01
      2  0.729865D-01  0.100000D+01
      3  0.407253D+00  0.145258D+00  0.100000D+01
      4  0.000000D+00  0.000000D+00  0.000000D+00  0.100000D+01
      5  0.000000D+00  0.000000D+00  0.000000D+00  0.000000D+00  0.100000D+01
      6 -0.514256D+00  0.000000D+00  0.000000D+00  0.000000D+00  0.000000D+00
      7  0.355897D+00  0.185742D+00  0.905515D+00  0.000000D+00  0.000000D+00
      8  0.000000D+00  0.000000D+00  0.000000D+00  0.802063D+00  0.000000D+00
      9  0.000000D+00  0.000000D+00  0.000000D+00  0.000000D+00  0.802063D+00
     10 -0.353964D+00  0.000000D+00  0.000000D+00  0.000000D+00  0.000000D+00
                6             7             8             9            10 
      6  0.100000D+01
      7  0.000000D+00  0.100000D+01
      8  0.000000D+00  0.000000D+00  0.100000D+01
      9  0.000000D+00  0.000000D+00  0.000000D+00  0.100000D+01
     10  0.802063D+00  0.000000D+00  0.000000D+00  0.000000D+00  0.100000D+01
 *** Kinetic Energy *** 
                1             2             3             4             5 
      1  0.760032D+00
      2 -0.156495D-01  0.362575D+01
      3  0.537838D-01 -0.242849D+00  0.145919D+00
      4  0.000000D+00  0.000000D+00  0.000000D+00  0.242177D+00
      5  0.000000D+00  0.000000D+00  0.000000D+00  0.000000D+00  0.242177D+00
      6 -0.117533D+00  0.000000D+00  0.000000D+00  0.000000D+00  0.000000D+00
      7  0.270466D-01  0.193002D-01  0.653913D-01  0.000000D+00  0.000000D+00
      8  0.000000D+00  0.000000D+00  0.000000D+00  0.100038D+00  0.000000D+00
      9  0.000000D+00  0.000000D+00  0.000000D+00  0.000000D+00  0.100038D+00
     10 -0.492553D-01  0.000000D+00  0.000000D+00  0.000000D+00  0.000000D+00
                6             7             8             9            10 
      6  0.242177D+00
      7  0.000000D+00  0.539430D-01
      8  0.000000D+00  0.000000D+00  0.899049D-01
      9  0.000000D+00  0.000000D+00  0.000000D+00  0.899049D-01
     10  0.100038D+00  0.000000D+00  0.000000D+00  0.000000D+00  0.899049D-01
 Entering OneElI...
 Calculate potential energy integrals
    NBasis =  10  MinDer = 0  MaxDer = 0
 Requested accuracy = 0.1000D-12
 Symmetry will be used
 PrmmSu-InSpLW:  IPartL=    0 NPrtUS=   36 NPrtUL=    1 DoSpLW=F IThBeg=    0 IThEnd=   35 NThAct=   36.
 PrSmSu:  IncTry=   512 NBBP=             20 NTPThr=   100 NPartT=   36 Incr=           1 LDynOK=F GPUOK=F.
 PrsmSu:  NPrtUS=  36 ThrOK=T IAlg=1 LenDen=           0 ISkipM=0 DoSpLW=F IThBeg=    0 IThEnd=   35.
 PRISM was handed   268433801 working-precision words and    10 shell-pairs
 Prism:   IPart=     0 DynPar=F LinDyn=F Incr=           1.
 PRISM was handed   268433801 working-precision words and    10 shell-pairs
 PRISM was handed   268433801 working-precision words and    10 shell-pairs
 PRISM was handed   268433801 working-precision words and    10 shell-pairs
 PRISM was handed   268433801 working-precision words and    10 shell-pairs
 PRISM was handed   268433801 working-precision words and    10 shell-pairs
 PRISM was handed   268433801 working-precision words and    10 shell-pairs
 PRISM was handed   268433801 working-precision words and    10 shell-pairs
 PRISM was handed   268433801 working-precision words and    10 shell-pairs
 PRISM was handed   268433801 working-precision words and    10 shell-pairs
 PRISM was handed   268433801 working-precision words and    10 shell-pairs
 PRISM was handed   268433801 working-precision words and    10 shell-pairs
 PRISM was handed   268433801 working-precision words and    10 shell-pairs
 PRISM was handed   268433801 working-precision words and    10 shell-pairs
 PRISM was handed   268433801 working-precision words and    10 shell-pairs
 PRISM was handed   268433801 working-precision words and    10 shell-pairs
 PRISM was handed   268433801 working-precision words and    10 shell-pairs
 PRISM was handed   268433801 working-precision words and    10 shell-pairs
 PRISM was handed   268433801 working-precision words and    10 shell-pairs
 PRISM was handed   268433801 working-precision words and    10 shell-pairs
 PRISM was handed   268433801 working-precision words and    10 shell-pairs
 PRISM was handed   268433801 working-precision words and    10 shell-pairs
 PRISM was handed   268433801 working-precision words and    10 shell-pairs
 PRISM was handed   268433801 working-precision words and    10 shell-pairs
 PRISM was handed   268433801 working-precision words and    10 shell-pairs
 PRISM was handed   268433801 working-precision words and    10 shell-pairs
 PRISM was handed   268433801 working-precision words and    10 shell-pairs
 PRISM was handed   268433801 working-precision words and    10 shell-pairs
 PRISM was handed   268433801 working-precision words and    10 shell-pairs
 PRISM was handed   268433801 working-precision words and    10 shell-pairs
 PRISM was handed   268433801 working-precision words and    10 shell-pairs
 PRISM was handed   268433801 working-precision words and    10 shell-pairs
 PRISM was handed   268433801 working-precision words and    10 shell-pairs
 PRISM was handed   268433801 working-precision words and    10 shell-pairs
 PRISM was handed   268433801 working-precision words and    10 shell-pairs
 PRISM was handed   268433801 working-precision words and    10 shell-pairs
 IPart= 32 NShTot=           0 NBatch=           0 AvBLen=         0.0
 IPart= 13 NShTot=           0 NBatch=           0 AvBLen=         0.0
 IPart=  1 NShTot=           0 NBatch=           0 AvBLen=         0.0
 IPart= 25 NShTot=           0 NBatch=           0 AvBLen=         0.0
 IPart= 27 NShTot=           0 NBatch=           0 AvBLen=         0.0
 IPart= 24 NShTot=           0 NBatch=           0 AvBLen=         0.0
 IPart= 33 NShTot=           0 NBatch=           0 AvBLen=         0.0
 IPart= 35 NShTot=           0 NBatch=           0 AvBLen=         0.0
 IPart= 22 NShTot=           0 NBatch=           0 AvBLen=         0.0
 IPart= 20 NShTot=           0 NBatch=           0 AvBLen=         0.0
 IPart= 23 NShTot=           0 NBatch=           0 AvBLen=         0.0
 IPart= 30 NShTot=           0 NBatch=           0 AvBLen=         0.0
 IPart=  7 NShTot=           0 NBatch=           0 AvBLen=         0.0
 IPart= 31 NShTot=           0 NBatch=           0 AvBLen=         0.0
 IPart= 34 NShTot=           0 NBatch=           0 AvBLen=         0.0
 IPart=  5 NShTot=           0 NBatch=           0 AvBLen=         0.0
 IPart= 17 NShTot=           0 NBatch=           0 AvBLen=         0.0
 IPart= 12 NShTot=           0 NBatch=           0 AvBLen=         0.0
 IPart=  8 NShTot=           0 NBatch=           0 AvBLen=         0.0
 IPart= 29 NShTot=           0 NBatch=           0 AvBLen=         0.0
 IPart= 10 NShTot=           0 NBatch=           0 AvBLen=         0.0
 IPart= 18 NShTot=           0 NBatch=           0 AvBLen=         0.0
 IPart=  2 NShTot=           0 NBatch=           0 AvBLen=         0.0
 IPart= 11 NShTot=           0 NBatch=           0 AvBLen=         0.0
 IPart= 28 NShTot=           0 NBatch=           0 AvBLen=         0.0
 IPart= 26 NShTot=           0 NBatch=           0 AvBLen=         0.0
 IPart= 14 NShTot=           0 NBatch=           0 AvBLen=         0.0
 IPart=  6 NShTot=           0 NBatch=           0 AvBLen=         0.0
 IPart=  9 NShTot=           0 NBatch=           0 AvBLen=         0.0
 IPart= 19 NShTot=           0 NBatch=           0 AvBLen=         0.0
 IPart= 15 NShTot=           0 NBatch=           0 AvBLen=         0.0
 IPart=  4 NShTot=           0 NBatch=           0 AvBLen=         0.0
 IPart=  0 NShTot=          20 NBatch=          10 AvBLen=         2.0
 IPart=  3 NShTot=           0 NBatch=           0 AvBLen=         0.0
 IPart= 16 NShTot=           0 NBatch=           0 AvBLen=         0.0
 IPart= 21 NShTot=           0 NBatch=           0 AvBLen=         0.0
 PrSmSu:  NxtVal=             37.
 ***** Potential Energy ***** 
                1             2             3             4             5 
      1  0.221933D+01
      2  0.302195D+00  0.840281D+01
      3  0.743334D+00  0.334204D+00  0.140959D+01
      4  0.000000D+00  0.000000D+00  0.000000D+00  0.126413D+01
      5  0.000000D+00  0.000000D+00  0.000000D+00  0.000000D+00  0.126413D+01
      6 -0.930459D+00 -0.144615D-01 -0.121441D+00  0.000000D+00  0.000000D+00
      7  0.622418D+00  0.815530D+00  0.118127D+01  0.000000D+00  0.000000D+00
      8  0.000000D+00  0.000000D+00  0.000000D+00  0.807079D+00  0.000000D+00
      9  0.000000D+00  0.000000D+00  0.000000D+00  0.000000D+00  0.807079D+00
     10 -0.568463D+00 -0.395357D-02 -0.765006D-01  0.000000D+00  0.000000D+00
                6             7             8             9            10 
      6  0.135815D+01
      7 -0.106930D+00  0.115570D+01
      8  0.000000D+00  0.000000D+00  0.783901D+00
      9  0.000000D+00  0.000000D+00  0.000000D+00  0.783901D+00
     10  0.869515D+00 -0.790812D-01  0.000000D+00  0.000000D+00  0.833992D+00
 ****** Core Hamiltonian ****** 
                1             2             3             4             5 
      1 -0.145930D+01
      2 -0.317845D+00 -0.477706D+01
      3 -0.689551D+00 -0.577053D+00 -0.126367D+01
      4  0.000000D+00  0.000000D+00  0.000000D+00 -0.102195D+01
      5  0.000000D+00  0.000000D+00  0.000000D+00  0.000000D+00 -0.102195D+01
      6  0.812926D+00  0.144615D-01  0.121441D+00  0.000000D+00  0.000000D+00
      7 -0.595372D+00 -0.796230D+00 -0.111588D+01  0.000000D+00  0.000000D+00
      8  0.000000D+00  0.000000D+00  0.000000D+00 -0.707041D+00  0.000000D+00
      9  0.000000D+00  0.000000D+00  0.000000D+00  0.000000D+00 -0.707041D+00
     10  0.519207D+00  0.395357D-02  0.765006D-01  0.000000D+00  0.000000D+00
                6             7             8             9            10 
      6 -0.111597D+01
      7  0.106930D+00 -0.110176D+01
      8  0.000000D+00  0.000000D+00 -0.693996D+00
      9  0.000000D+00  0.000000D+00  0.000000D+00 -0.693996D+00
     10 -0.769477D+00  0.790812D-01  0.000000D+00  0.000000D+00 -0.744087D+00
 SVDSVc IOpt=   1 NormSV=T IR=1
 SVDSVc V= 2.38D+00 1.88D+00 9.49D-01 5.32D-01 1.69D-01 9.03D-02
 SVDSVc IOpt=   1 NormSV=T IR=3
 SVDSVc V= 1.80D+00 1.98D-01
 SVDSVc IOpt=   1 NormSV=T IR=4
 SVDSVc V= 1.80D+00 1.98D-01
 TstOVc:  Largest diagonal error= 3.55D-15 IB=1 I=    6.
 TstOVc:  Largest same sym error= 7.27D-16 IB=1 I=    5 J=    3.
 TstOVc:  Largest diff sym error= 0.00D+00 IB=0 JB=0 I=    0 J=    0.
 Orthogonalized basis functions: 
                 1             2             3             4             5 
      1   0.329889D+00 -0.711729D-01 -0.891744D-01  0.111277D+01  0.586029D+00
      2   0.894268D-01  0.120195D+00  0.100107D+01  0.551688D-01  0.987229D-02
      3   0.302182D+00  0.333996D+00 -0.164035D+00 -0.252941D+00  0.685826D-01
      4   0.000000D+00  0.000000D+00  0.000000D+00  0.000000D+00  0.000000D+00
      5   0.000000D+00  0.000000D+00  0.000000D+00  0.000000D+00  0.000000D+00
      6  -0.261836D+00  0.380851D+00 -0.358672D-01  0.113120D+00  0.179904D+01
      7   0.296342D+00  0.338758D+00 -0.111252D+00 -0.378522D+00 -0.328061D+00
      8   0.000000D+00  0.000000D+00  0.000000D+00  0.000000D+00  0.000000D+00
      9   0.000000D+00  0.000000D+00  0.000000D+00  0.000000D+00  0.000000D+00
     10  -0.237554D+00  0.374084D+00 -0.548974D-01  0.647434D+00 -0.148741D+01
                 6             7             8             9            10 
      1  -0.293034D+00  0.000000D+00  0.000000D+00  0.000000D+00  0.000000D+00
      2   0.108413D+00  0.000000D+00  0.000000D+00  0.000000D+00  0.000000D+00
      3   0.238229D+01  0.000000D+00  0.000000D+00  0.000000D+00  0.000000D+00
      4   0.000000D+00  0.526744D+00  0.158936D+01  0.000000D+00  0.000000D+00
      5   0.000000D+00  0.000000D+00  0.000000D+00  0.526744D+00  0.158936D+01
      6  -0.292537D+00  0.000000D+00  0.000000D+00  0.000000D+00  0.000000D+00
      7  -0.227886D+01  0.000000D+00  0.000000D+00  0.000000D+00  0.000000D+00
      8   0.000000D+00  0.526744D+00 -0.158936D+01  0.000000D+00  0.000000D+00
      9   0.000000D+00  0.000000D+00  0.000000D+00  0.526744D+00 -0.158936D+01
     10   0.143906D+00  0.000000D+00  0.000000D+00  0.000000D+00  0.000000D+00
 NBasis=    10 RedAO= T EigKep=  9.03D-02  NBF=     6     0     2     2
 NBsUse=    10 1.00D-06 EigRej= -1.00D+00 NBFU=     6     0     2     2
 Leave Link  302 at Thu Mar 24 15:57:44 2022, MaxMem=  9663676416 cpu:               5.5 elap:               0.2
 (Enter /nopt/nrel/apps/gaussian/g16C_1/g16/l303.exe)
 DipDrv will not compute anything.
 Fermi contact integrals: 
                 1             2 
      1   0.628247D+00  0.189316D-01
      2   0.539967D-03  0.252653D+01
      3   0.558612D-01 -0.285664D-01
      4   0.000000D+00  0.000000D+00
      5   0.000000D+00  0.000000D+00
      6  -0.841173D-01  0.000000D+00
      7   0.424543D-01  0.588563D-01
      8   0.000000D+00  0.000000D+00
      9   0.000000D+00  0.000000D+00
     10  -0.485295D-01  0.000000D+00
 Leave Link  303 at Thu Mar 24 15:57:44 2022, MaxMem=  9663676416 cpu:               1.2 elap:               0.1
 (Enter /nopt/nrel/apps/gaussian/g16C_1/g16/l401.exe)
 ExpMin= 3.60D-02 ExpMax= 6.42D+02 ExpMxC= 9.68D+01 IAcc=3 IRadAn=         5 AccDes= 0.00D+00
 Harris functional with IExCor=  205 and IRadAn=       5 diagonalized for initial guess.
 HarFok:  IExCor=  205 AccDes= 0.00D+00 IRadAn=         5 IDoV= 1 UseB2=F ITyADJ=14
 ICtDFT=  3500011 ScaDFX=  1.000000  1.000000  1.000000  1.000000
 FoFCou: FMM=F IPFlag=           0 FMFlag=      100000 FMFlg1=           0
         NFxFlg=           0 DoJE=T BraDBF=F KetDBF=T FulRan=T
         wScrn=  0.000000 ICntrl=       500 IOpCl=  0 I1Cent=   200000004 NGrid=           0
         NMat0=    1 NMatS0=      1 NMatT0=    0 NMatD0=    1 NMtDS0=    0 NMtDT0=    0
 Petite list used in FoFCou.
 Harris En= -8.01944801134168    
 JPrj=0 DoOrth=F DoCkMO=F.
 Initial guess orbital symmetries:
       Occupied  (SG) (SG)
       Virtual   (SG) (PI) (PI) (SG) (PI) (PI) (SG) (SG)
 The electronic state of the initial guess is 1-SG.
 Leave Link  401 at Thu Mar 24 15:57:44 2022, MaxMem=  9663676416 cpu:               3.8 elap:               0.1
 (Enter /nopt/nrel/apps/gaussian/g16C_1/g16/l502.exe)
 Keep R1 ints in memory in symmetry-blocked form, NReq=7210674.
 FoFCou: FMM=F IPFlag=           0 FMFlag=           0 FMFlg1=           0
         NFxFlg=           0 DoJE=F BraDBF=F KetDBF=F FulRan=T
         wScrn=  0.000000 ICntrl=       600 IOpCl=  0 I1Cent=           0 NGrid=           0
         NMat0=    1 NMatS0=     55 NMatT0=    0 NMatD0=    1 NMtDS0=    0 NMtDT0=    0
 Petite list used in FoFCou.
 Closed shell SCF:
 Using DIIS extrapolation, IDIIS=  1040.
 NGot=  9663676416 LenX=  9663673310 LenY=  9663672428
 Requested convergence on RMS density matrix=1.00D-08 within 128 cycles.
 Requested convergence on MAX density matrix=1.00D-06.
 Requested convergence on             energy=1.00D-06.
 No special actions if energy rises.

 Cycle   1  Pass 1  IDiag  1:
 E= -7.94307055293826    
 DIIS: error= 3.67D-02 at cycle   1 NSaved=   1.
 NSaved= 1 IEnMin= 1 EnMin= -7.94307055293826     IErMin= 1 ErrMin= 3.67D-02
 ErrMax= 3.67D-02  0.00D+00 EMaxC= 1.00D-01 BMatC= 9.49D-03 BMatP= 9.49D-03
 IDIUse=3 WtCom= 6.33D-01 WtEn= 3.67D-01
 Coeff-Com:  0.100D+01
 Coeff-En:   0.100D+01
 Coeff:      0.100D+01
 Gap=     0.270 Goal=   None    Shift=    0.000
 GapD=    0.270 DampG=1.000 DampE=0.500 DampFc=0.5000 IDamp=-1.
 Damping current iteration by 5.00D-01
 RMSDP=2.06D-02 MaxDP=1.62D-01              OVMax= 1.02D-01

 Cycle   2  Pass 1  IDiag  1:
 E= -7.95507540492112     Delta-E=       -0.012004851983 Rises=F Damp=T
 DIIS: error= 1.99D-02 at cycle   2 NSaved=   2.
 NSaved= 2 IEnMin= 2 EnMin= -7.95507540492112     IErMin= 2 ErrMin= 1.99D-02
 ErrMax= 1.99D-02  0.00D+00 EMaxC= 1.00D-01 BMatC= 2.73D-03 BMatP= 9.49D-03
 IDIUse=3 WtCom= 8.01D-01 WtEn= 1.99D-01
 Coeff-Com: -0.114D+01 0.214D+01
 Coeff-En:   0.000D+00 0.100D+01
 Coeff:     -0.912D+00 0.191D+01
 Gap=     0.308 Goal=   None    Shift=    0.000
 RMSDP=1.18D-02 MaxDP=9.02D-02 DE=-1.20D-02 OVMax= 1.63D-02

 Cycle   3  Pass 1  IDiag  1:
 E= -7.96847487682886     Delta-E=       -0.013399471908 Rises=F Damp=F
 DIIS: error= 8.72D-04 at cycle   3 NSaved=   3.
 NSaved= 3 IEnMin= 3 EnMin= -7.96847487682886     IErMin= 3 ErrMin= 8.72D-04
 ErrMax= 8.72D-04  0.00D+00 EMaxC= 1.00D-01 BMatC= 8.00D-06 BMatP= 2.73D-03
 IDIUse=3 WtCom= 9.91D-01 WtEn= 8.72D-03
 Coeff-Com:  0.636D+00-0.121D+01 0.157D+01
 Coeff-En:   0.000D+00 0.000D+00 0.100D+01
 Coeff:      0.631D+00-0.120D+01 0.156D+01
 Gap=     0.313 Goal=   None    Shift=    0.000
 RMSDP=1.36D-03 MaxDP=6.97D-03 DE=-1.34D-02 OVMax= 9.90D-03

 Cycle   4  Pass 1  IDiag  1:
 E= -7.96854148360744     Delta-E=       -0.000066606779 Rises=F Damp=F
 DIIS: error= 2.76D-04 at cycle   4 NSaved=   4.
 NSaved= 4 IEnMin= 4 EnMin= -7.96854148360744     IErMin= 4 ErrMin= 2.76D-04
 ErrMax= 2.76D-04  0.00D+00 EMaxC= 1.00D-01 BMatC= 4.47D-07 BMatP= 8.00D-06
 IDIUse=3 WtCom= 9.97D-01 WtEn= 2.76D-03
 Coeff-Com: -0.256D+00 0.491D+00-0.936D+00 0.170D+01
 Coeff-En:   0.000D+00 0.000D+00 0.000D+00 0.100D+01
 Coeff:     -0.255D+00 0.489D+00-0.933D+00 0.170D+01
 Gap=     0.314 Goal=   None    Shift=    0.000
 RMSDP=3.93D-04 MaxDP=2.17D-03 DE=-6.66D-05 OVMax= 3.73D-03

 Cycle   5  Pass 1  IDiag  1:
 E= -7.96854630396290     Delta-E=       -0.000004820355 Rises=F Damp=F
 DIIS: error= 4.23D-05 at cycle   5 NSaved=   5.
 NSaved= 5 IEnMin= 5 EnMin= -7.96854630396290     IErMin= 5 ErrMin= 4.23D-05
 ErrMax= 4.23D-05  0.00D+00 EMaxC= 1.00D-01 BMatC= 1.36D-08 BMatP= 4.47D-07
 IDIUse=1 WtCom= 1.00D+00 WtEn= 0.00D+00
 Coeff-Com: -0.151D-01 0.275D-01 0.309D-01-0.135D+00 0.109D+01
 Coeff:     -0.151D-01 0.275D-01 0.309D-01-0.135D+00 0.109D+01
 Gap=     0.314 Goal=   None    Shift=    0.000
 RMSDP=7.38D-05 MaxDP=3.09D-04 DE=-4.82D-06 OVMax= 3.06D-04

 Cycle   6  Pass 1  IDiag  1:
 E= -7.96854638139077     Delta-E=       -0.000000077428 Rises=F Damp=F
 DIIS: error= 6.50D-06 at cycle   6 NSaved=   6.
 NSaved= 6 IEnMin= 6 EnMin= -7.96854638139077     IErMin= 6 ErrMin= 6.50D-06
 ErrMax= 6.50D-06  0.00D+00 EMaxC= 1.00D-01 BMatC= 2.72D-10 BMatP= 1.36D-08
 IDIUse=1 WtCom= 1.00D+00 WtEn= 0.00D+00
 Coeff-Com: -0.431D-03 0.960D-03-0.145D-01 0.330D-01-0.323D+00 0.130D+01
 Coeff:     -0.431D-03 0.960D-03-0.145D-01 0.330D-01-0.323D+00 0.130D+01
 Gap=     0.314 Goal=   None    Shift=    0.000
 RMSDP=1.20D-05 MaxDP=4.39D-05 DE=-7.74D-08 OVMax= 4.48D-05

 Cycle   7  Pass 1  IDiag  1:
 E= -7.96854638290561     Delta-E=       -0.000000001515 Rises=F Damp=F
 DIIS: error= 1.50D-07 at cycle   7 NSaved=   7.
 NSaved= 7 IEnMin= 7 EnMin= -7.96854638290561     IErMin= 7 ErrMin= 1.50D-07
 ErrMax= 1.50D-07  0.00D+00 EMaxC= 1.00D-01 BMatC= 2.18D-13 BMatP= 2.72D-10
 IDIUse=1 WtCom= 1.00D+00 WtEn= 0.00D+00
 Coeff-Com:  0.966D-04-0.193D-03 0.187D-02-0.363D-02 0.417D-01-0.186D+00
 Coeff-Com:  0.115D+01
 Coeff:      0.966D-04-0.193D-03 0.187D-02-0.363D-02 0.417D-01-0.186D+00
 Coeff:      0.115D+01
 Gap=     0.314 Goal=   None    Shift=    0.000
 RMSDP=2.82D-07 MaxDP=1.31D-06 DE=-1.51D-09 OVMax= 1.81D-06

 Cycle   8  Pass 1  IDiag  1:
 E= -7.96854638290687     Delta-E=       -0.000000000001 Rises=F Damp=F
 DIIS: error= 2.94D-08 at cycle   8 NSaved=   8.
 NSaved= 8 IEnMin= 8 EnMin= -7.96854638290687     IErMin= 8 ErrMin= 2.94D-08
 ErrMax= 2.94D-08  0.00D+00 EMaxC= 1.00D-01 BMatC= 6.21D-15 BMatP= 2.18D-13
 IDIUse=1 WtCom= 1.00D+00 WtEn= 0.00D+00
 Coeff-Com:  0.169D-04-0.325D-04-0.187D-03 0.284D-03-0.677D-02 0.331D-01
 Coeff-Com: -0.254D+00 0.123D+01
 Coeff:      0.169D-04-0.325D-04-0.187D-03 0.284D-03-0.677D-02 0.331D-01
 Coeff:     -0.254D+00 0.123D+01
 Gap=     0.314 Goal=   None    Shift=    0.000
 RMSDP=4.60D-08 MaxDP=1.82D-07 DE=-1.25D-12 OVMax= 3.95D-07

 Cycle   9  Pass 1  IDiag  1:
 E= -7.96854638290692     Delta-E=       -0.000000000000 Rises=F Damp=F
 DIIS: error= 2.89D-09 at cycle   9 NSaved=   9.
 NSaved= 9 IEnMin= 9 EnMin= -7.96854638290692     IErMin= 9 ErrMin= 2.89D-09
 ErrMax= 2.89D-09  0.00D+00 EMaxC= 1.00D-01 BMatC= 1.33D-16 BMatP= 6.21D-15
 IDIUse=1 WtCom= 1.00D+00 WtEn= 0.00D+00
 Coeff-Com: -0.184D-05 0.384D-05-0.103D-04 0.281D-04 0.355D-04-0.323D-03
 Coeff-Com: -0.567D-03-0.146D+00 0.115D+01
 Coeff:     -0.184D-05 0.384D-05-0.103D-04 0.281D-04 0.355D-04-0.323D-03
 Coeff:     -0.567D-03-0.146D+00 0.115D+01
 Gap=     0.314 Goal=   None    Shift=    0.000
 RMSDP=6.88D-09 MaxDP=2.63D-08 DE=-5.15D-14 OVMax= 3.14D-08

 SCF Done:  E(RHF) =  -7.96854638291     A.U. after    9 cycles
            NFock=  9  Conv=0.69D-08     -V/T= 1.9924
 KE= 8.029363729954D+00 PE=-2.046176860147D+01 EE= 3.468478444241D+00
 Leave Link  502 at Thu Mar 24 15:57:45 2022, MaxMem=  9663676416 cpu:              12.2 elap:               0.4
 (Enter /nopt/nrel/apps/gaussian/g16C_1/g16/l801.exe)
 Windowed orbitals will be sorted by symmetry type.
 ExpMin= 3.60D-02 ExpMax= 6.42D+02 ExpMxC= 9.68D+01 IAcc=3 IRadAn=         5 AccDes= 0.00D+00
 HarFok:  IExCor=  205 AccDes= 0.00D+00 IRadAn=         5 IDoV=-2 UseB2=F ITyADJ=14
 ICtDFT= 12500011 ScaDFX=  1.000000  1.000000  1.000000  1.000000
 Largest valence mixing into a core orbital is  3.11D-04
 Largest core mixing into a valence orbital is  1.00D-04
 Range of M.O.s used for correlation:     2    10
 NBasis=    10 NAE=     2 NBE=     2 NFC=     1 NFV=     0
 NROrb=      9 NOA=     1 NOB=     1 NVA=     8 NVB=     8
 Leave Link  801 at Thu Mar 24 15:57:45 2022, MaxMem=  9663676416 cpu:               1.9 elap:               0.1
 (Enter /nopt/nrel/apps/gaussian/g16C_1/g16/l804.exe)
 Closed-shell transformation, MDV=  9663676416 ITran=4 ISComp=2.
 Unit  1 TFree=          4815 TCopy=        115391.
 Semi-Direct transformation.
 ModeAB=           2 MOrb=             1 LenV=    9663554978
 LASXX=           88 LTotXX=          88 LenRXX=          88
 LTotAB=         141 MaxLAS=         495 LenRXY=         495
 NonZer=         603 LenScr=      785920 LnRSAI=           0
 LnScr1=           0 LExtra=      218815 Total=      1005318
 MaxDsk= 34359738368 SrtSym=           F ITran=            4
 DoSDTr:  NPSUse= 36
 JobTyp=0 Pass  1:  I=   1 to   1.
 (rs|ai) integrals will be sorted in core.
 Complete sort for first half transformation.
 First half transformation complete.
 Complete sort for second half transformation.
 Second half transformation complete.
 Spin components of T(2) and E(2):
     alpha-alpha T2 =       0.0000000000D+00 E2=      0.0000000000D+00
     alpha-beta  T2 =       0.1008293682D-01 E2=     -0.1345016786D-01
     beta-beta   T2 =       0.0000000000D+00 E2=      0.0000000000D+00
 ANorm=    0.1005028824D+01
 E2 =    -0.1345016786D-01 EUMP2 =    -0.79819965507684D+01
 Leave Link  804 at Thu Mar 24 15:57:45 2022, MaxMem=  9663676416 cpu:               1.7 elap:               0.1
 (Enter /nopt/nrel/apps/gaussian/g16C_1/g16/l913.exe)
 CIDS:  MDV=  9663676416.
 Frozen-core window:  NFC=   1 NFV=   0.
 IFCWin=0 IBDFC=1 NFBD=     0     0 NFCmp=     0     0 NFFFC=     0     0
 Using DD3R+UMP44R for 1st iteration.
 Using DD4RQ for 2nd and later iterations.
 Keep R2 and R3 ints in memory in symmetry-blocked form, NReq=7213056.
 FoFCou: FMM=F IPFlag=           0 FMFlag=           0 FMFlg1=           0
         NFxFlg=           0 DoJE=F BraDBF=F KetDBF=F FulRan=T
         wScrn=  0.000000 ICntrl=       600 IOpCl=  0 I1Cent=           0 NGrid=           0
         NMat0=    1 NMatS0=     55 NMatT0=    0 NMatD0=    1 NMtDS0=    0 NMtDT0=    0
 Petite list used in FoFCou.
 CIDS: In Core Option IDoMem=           1.
 Coupled Cluster theory with single and double substitutions
 ===========================================================
 Iterations=  50 Convergence= 0.100D-06
 Produce multiple copies of IABC intergrals
 Iteration Nr.   1
 **********************
 DD1Dir will call FoFMem   1 times, MxPair=         2
 NAB=     1 NAA=     0 NBB=     0.
 MP4(R+Q)=  0.13561719D-03
 Maximum subspace dimension=  5
 A-vector RMS=  1.2222166D-02 Max=  2.2505778D-02 conv= 1.00D-05.
 RLE energy=       -0.0203760693
 E3=       -0.47086905D-02        EUMP3=      -0.79867052413D+01
 E4(DQ)=   -0.16705844D-02        UMP4(DQ)=   -0.79883758257D+01
 E4(SDQ)=  -0.17571309D-02        UMP4(SDQ)=  -0.79884623721D+01
 VARIATIONAL ENERGIES WITH THE FIRST-ORDER WAVEFUNCTION:
 DE(Corr)= -0.18021930E-01 E(Corr)=     -7.9865683128    
 NORM(A)=   0.10116300D+01
 Iteration Nr.   2
 **********************
 DD1Dir will call FoFMem   1 times, MxPair=         2
 NAB=     1 NAA=     0 NBB=     0.
 A-vector RMS=  6.4675502D-03 Max=  6.8181128D-03 conv= 1.00D-05.
 RLE energy=       -0.0209718007
 DE(Corr)= -0.20649431E-01 E(CORR)=     -7.9891958139     Delta=-2.63D-03
 NORM(A)=   0.10131299D+01
 Iteration Nr.   3
 **********************
 DD1Dir will call FoFMem   1 times, MxPair=         2
 NAB=     1 NAA=     0 NBB=     0.
 A-vector RMS=  3.7751859D-03 Max=  4.4465907D-03 conv= 1.00D-05.
 RLE energy=       -0.0212090140
 DE(Corr)= -0.21004576E-01 E(CORR)=     -7.9895509590     Delta=-3.55D-04
 NORM(A)=   0.10145583D+01
 Iteration Nr.   4
 **********************
 DD1Dir will call FoFMem   1 times, MxPair=         2
 NAB=     1 NAA=     0 NBB=     0.
 A-vector RMS=  1.1901272D-03 Max=  1.2897290D-03 conv= 1.00D-05.
 RLE energy=       -0.0212606183
 DE(Corr)= -0.21212855E-01 E(CORR)=     -7.9897592377     Delta=-2.08D-04
 NORM(A)=   0.10150845D+01
 Iteration Nr.   5
 **********************
 DD1Dir will call FoFMem   1 times, MxPair=         2
 NAB=     1 NAA=     0 NBB=     0.
 A-vector RMS=  3.0393197D-04 Max=  2.8327616D-04 conv= 1.00D-05.
 RLE energy=       -0.0212498593
 DE(Corr)= -0.21252948E-01 E(CORR)=     -7.9897993305     Delta=-4.01D-05
 NORM(A)=   0.10151212D+01
 Iteration Nr.   6
 **********************
 DD1Dir will call FoFMem   1 times, MxPair=         2
 NAB=     1 NAA=     0 NBB=     0.
 A-vector RMS=  9.9579724D-05 Max=  9.9423671D-05 conv= 1.00D-05.
 RLE energy=       -0.0212511326
 DE(Corr)= -0.21250930E-01 E(CORR)=     -7.9897973127     Delta= 2.02D-06
 NORM(A)=   0.10151249D+01
 Iteration Nr.   7
 **********************
 DD1Dir will call FoFMem   1 times, MxPair=         2
 NAB=     1 NAA=     0 NBB=     0.
 A-vector RMS=  2.0836463D-05 Max=  2.4025173D-05 conv= 1.00D-05.
 RLE energy=       -0.0212517741
 DE(Corr)= -0.21251421E-01 E(CORR)=     -7.9897978038     Delta=-4.91D-07
 NORM(A)=   0.10151256D+01
 Iteration Nr.   8
 **********************
 DD1Dir will call FoFMem   1 times, MxPair=         2
 NAB=     1 NAA=     0 NBB=     0.
 A-vector RMS=  2.3919585D-06 Max=  1.9367707D-06 conv= 1.00D-05.
 RLE energy=       -0.0212516154
 DE(Corr)= -0.21251680E-01 E(CORR)=     -7.9897980628     Delta=-2.59D-07
 NORM(A)=   0.10151251D+01
 Iteration Nr.   9
 **********************
 DD1Dir will call FoFMem   1 times, MxPair=         2
 NAB=     1 NAA=     0 NBB=     0.
 A-vector RMS=  1.8790196D-07 Max=  1.9357617D-07 conv= 1.00D-05.
 RLE energy=       -0.0212516241
 DE(Corr)= -0.21251621E-01 E(CORR)=     -7.9897980042     Delta= 5.86D-08
 NORM(A)=   0.10151251D+01
 CI/CC converged in    9 iterations to DelEn= 5.86D-08 Conv= 1.00D-07 ErrA1= 1.88D-07 Conv= 1.00D-05
 Wavefunction amplitudes converged. E(Corr)=     -7.9897980042    
 Largest amplitude= 9.76D-02
 Discarding MO integrals.
 Leave Link  913 at Thu Mar 24 15:57:45 2022, MaxMem=  9663676416 cpu:               3.2 elap:               0.1
 (Enter /nopt/nrel/apps/gaussian/g16C_1/g16/l601.exe)
 Copying SCF densities to generalized density rwf, IOpCl= 0 IROHF=0.

 **********************************************************************

            Population analysis using the SCF Density.

 **********************************************************************

 Orbital symmetries:
       Occupied  (SG) (SG)
       Virtual   (SG) (PI) (PI) (SG) (SG) (PI) (PI) (SG)
 The electronic state is 1-SG.
 Alpha  occ. eigenvalues --   -2.44661  -0.30111
 Alpha virt. eigenvalues --    0.01324   0.06061   0.06061   0.15531   0.20872
 Alpha virt. eigenvalues --    0.22444   0.22444   0.56169
          Condensed to atoms (all electrons):
               1          2
     1  H    0.573107   0.379473
     2  Li   0.379473   2.667946
 Mulliken charges:
               1
     1  H    0.047420
     2  Li  -0.047420
 Sum of Mulliken charges =   0.00000
 Mulliken charges with hydrogens summed into heavy atoms:
               1
     2  Li   0.000000
 N-N= 9.953800443664D-01 E-N=-2.046176859258D+01  KE= 8.029363729954D+00
 Symmetry A1   KE= 8.029363729954D+00
 Symmetry A2   KE= 0.000000000000D+00
 Symmetry B1   KE= 0.000000000000D+00
 Symmetry B2   KE= 0.000000000000D+00

 Atomic contributions to Alpha molecular orbitals:
 Alpha occ 1 OE=-2.447 is Li2-s=0.9996
 Alpha occ 2 OE=-0.301 is H1-s=0.4759 Li2-s=0.3093 Li2-p=0.2148
 Alpha vir 3 OE=0.013 is Li2-s=0.5084 Li2-p=0.4785
 Alpha vir 4 OE=0.061 is Li2-p=1.0000
 Alpha vir 5 OE=0.061 is Li2-p=1.0000
 Alpha vir 6 OE=0.155 is Li2-p=0.8102 Li2-s=0.1377
 Alpha vir 7 OE=0.209 is Li2-s=0.8685 Li2-p=0.1290
 Alpha vir 8 OE=0.224 is Li2-p=1.0000
 Alpha vir 9 OE=0.224 is Li2-p=1.0000
 Alpha vir 10 OE=0.562 is H1-s=0.4560 Li2-p=0.3675 Li2-s=0.1765
 
 Leave Link  601 at Thu Mar 24 15:57:45 2022, MaxMem=  9663676416 cpu:               1.0 elap:               0.0
 (Enter /nopt/nrel/apps/gaussian/g16C_1/g16/l9999.exe)

 Test job not archived.
 1\1\GINC-R6I7N35\SP\RCCSD-FC\Gen\H1Li1\USER\24-Mar-2022\0\\#P CCSD
 /GEN sp pop=AllOrbitals iop(3/33=1,3/36=-1)\\test\\0,1\H,0,0.,0.,0.\Li
 ,0,0.,0.,1.5949\\Version=ES64L-G16RevC.01\State=1-SG\HF=-7.9685464\MP2
 =-7.9819966\MP3=-7.9867052\MP4D=-7.9885114\MP4DQ=-7.9883758\MP4SDQ=-7.
 9884624\CCSD=-7.989798\RMSD=6.880e-09\PG=C*V [C*(H1Li1)]\\@


 IF YOU GET CONFUSED, LOGIC OUT YOUR DILEMMA

           --  PICKER X-RAY CORP.    DIGITAL PRINTER MANUAL CA. 1964
 Job cpu time:       0 days  0 hours  0 minutes 39.4 seconds.
 Elapsed time:       0 days  0 hours  0 minutes  1.5 seconds.
 File lengths (MBytes):  RWF=     13 Int=      0 D2E=      0 Chk=      1 Scr=      1
 Normal termination of Gaussian 16 at Thu Mar 24 15:57:45 2022.
