 Entering Gaussian System, Link 0=g16
 Initial command:
 /nopt/nrel/apps/gaussian/g16C_1/g16/l1.exe "/lustre/eaglefs/scratch/user/qc/gaussian-final/lih-1-ccsd-631gdp/Gau-117292.inp" -scrdir="/lustre/eaglefs/scratch/user/qc/gaussian-final/lih-1-ccsd-631gdp/"
 Default is to use a total of  36 processors:
                               36 via shared-memory
                                1 via Linda
 Entering Link 1 = /nopt/nrel/apps/gaussian/g16C_1/g16/l1.exe PID=    117293.
  
 Copyright (c) 1988-2019, Gaussian, Inc.  All Rights Reserved.
  
 This is part of the Gaussian(R) 16 program.  It is based on
 the Gaussian(R) 09 system (copyright 2009, Gaussian, Inc.),
 the Gaussian(R) 03 system (copyright 2003, Gaussian, Inc.),
 the Gaussian(R) 98 system (copyright 1998, Gaussian, Inc.),
 the Gaussian(R) 94 system (copyright 1995, Gaussian, Inc.),
 the Gaussian 92(TM) system (copyright 1992, Gaussian, Inc.),
 the Gaussian 90(TM) system (copyright 1990, Gaussian, Inc.),
 the Gaussian 88(TM) system (copyright 1988, Gaussian, Inc.),
 the Gaussian 86(TM) system (copyright 1986, Carnegie Mellon
 University), and the Gaussian 82(TM) system (copyright 1983,
 Carnegie Mellon University). Gaussian is a federally registered
 trademark of Gaussian, Inc.
  
 This software contains proprietary and confidential information,
 including trade secrets, belonging to Gaussian, Inc.
  
 This software is provided under written license and may be
 used, copied, transmitted, or stored only in accord with that
 written license.
  
 The following legend is applicable only to US Government
 contracts under FAR:
  
                    RESTRICTED RIGHTS LEGEND
  
 Use, reproduction and disclosure by the US Government is
 subject to restrictions as set forth in subparagraphs (a)
 and (c) of the Commercial Computer Software - Restricted
 Rights clause in FAR 52.227-19.
  
 Gaussian, Inc.
 340 Quinnipiac St., Bldg. 40, Wallingford CT 06492
  
  
 ---------------------------------------------------------------
 Warning -- This program may not be used in any manner that
 competes with the business of Gaussian, Inc. or will provide
 assistance to any competitor of Gaussian, Inc.  The licensee
 of this program is prohibited from giving any competitor of
 Gaussian, Inc. access to this program.  By using this program,
 the user acknowledges that Gaussian, Inc. is engaged in the
 business of creating and licensing software in the field of
 computational chemistry and represents and warrants to the
 licensee that it is not a competitor of Gaussian, Inc. and that
 it will not use this program in any manner prohibited above.
 ---------------------------------------------------------------
  

 Cite this work as:
 Gaussian 16, Revision C.01,
 M. J. Frisch, G. W. Trucks, H. B. Schlegel, G. E. Scuseria, 
 M. A. Robb, J. R. Cheeseman, G. Scalmani, V. Barone, 
 G. A. Petersson, H. Nakatsuji, X. Li, M. Caricato, A. V. Marenich, 
 J. Bloino, B. G. Janesko, R. Gomperts, B. Mennucci, H. P. Hratchian, 
 J. V. Ortiz, A. F. Izmaylov, J. L. Sonnenberg, D. Williams-Young, 
 F. Ding, F. Lipparini, F. Egidi, J. Goings, B. Peng, A. Petrone, 
 T. Henderson, D. Ranasinghe, V. G. Zakrzewski, J. Gao, N. Rega, 
 G. Zheng, W. Liang, M. Hada, M. Ehara, K. Toyota, R. Fukuda, 
 J. Hasegawa, M. Ishida, T. Nakajima, Y. Honda, O. Kitao, H. Nakai, 
 T. Vreven, K. Throssell, J. A. Montgomery, Jr., J. E. Peralta, 
 F. Ogliaro, M. J. Bearpark, J. J. Heyd, E. N. Brothers, K. N. Kudin, 
 V. N. Staroverov, T. A. Keith, R. Kobayashi, J. Normand, 
 K. Raghavachari, A. P. Rendell, J. C. Burant, S. S. Iyengar, 
 J. Tomasi, M. Cossi, J. M. Millam, M. Klene, C. Adamo, R. Cammi, 
 J. W. Ochterski, R. L. Martin, K. Morokuma, O. Farkas, 
 J. B. Foresman, and D. J. Fox, Gaussian, Inc., Wallingford CT, 2019.
 
 ******************************************
 Gaussian 16:  ES64L-G16RevC.01  3-Jul-2019
                25-Mar-2022 
 ******************************************
 %chk=molecule
 Default route: CacheSize=180224 MaxDisk=256GB
 --------------------------------------------------
 #P CCSD/GEN sp pop=AllOrbitals iop(3/33=1,3/36=-1)
 --------------------------------------------------
 1/4=180224,38=1,172=1/1;
 2/4=180224,12=2,17=6,18=5,40=1/2;
 3/4=180224,5=7,11=9,25=1,30=1,33=1,36=-1/1,2,3;
 4/4=180224/1;
 5/4=180224,5=2,38=5/2;
 8/4=180224,6=4,9=120000,10=1/1,4;
 9/4=180224,5=7/13;
 6/4=180224,7=2,8=2,9=2,10=2,96=-1/1;
 99/4=180224,5=1,9=1/99;
 Leave Link    1 at Fri Mar 25 09:48:23 2022, MaxMem=           0 cpu:               3.1 elap:               0.1
 (Enter /nopt/nrel/apps/gaussian/g16C_1/g16/l101.exe)
 ----
 test
 ----
 Symbolic Z-matrix:
 Charge =  0 Multiplicity = 1
 H                     0.        0.        0. 
 Li                    0.        0.        1.5949 
 
 ITRead=  0  0
 MicOpt= -1 -1
 NAtoms=      2 NQM=        2 NQMF=       0 NMMI=      0 NMMIF=      0
                NMic=       0 NMicF=      0.
                    Isotopes and Nuclear Properties:
 (Nuclear quadrupole moments (NQMom) in fm**2, nuclear magnetic moments (NMagM)
  in nuclear magnetons)

  Atom         1           2
 IAtWgt=           1           7
 AtmWgt=   1.0078250   7.0160045
 NucSpn=           1           3
 AtZEff=  -0.0000000  -0.0000000
 NQMom=    0.0000000  -4.0100000
 NMagM=    2.7928460   3.2564240
 AtZNuc=   1.0000000   3.0000000
 Leave Link  101 at Fri Mar 25 09:48:24 2022, MaxMem=  9663676416 cpu:               3.1 elap:               0.1
 (Enter /nopt/nrel/apps/gaussian/g16C_1/g16/l202.exe)
                          Input orientation:                          
 ---------------------------------------------------------------------
 Center     Atomic      Atomic             Coordinates (Angstroms)
 Number     Number       Type             X           Y           Z
 ---------------------------------------------------------------------
      1          1           0        0.000000    0.000000    0.000000
      2          3           0        0.000000    0.000000    1.594900
 ---------------------------------------------------------------------
 Stoichiometry    HLi
 Framework group  C*V[C*(HLi)]
 Deg. of freedom     1
 Full point group                 C*V     NOp   4
 Largest Abelian subgroup         C2V     NOp   4
 Largest concise Abelian subgroup C1      NOp   1
                         Standard orientation:                         
 ---------------------------------------------------------------------
 Center     Atomic      Atomic             Coordinates (Angstroms)
 Number     Number       Type             X           Y           Z
 ---------------------------------------------------------------------
      1          1           0        0.000000    0.000000   -1.196175
      2          3           0        0.000000    0.000000    0.398725
 ---------------------------------------------------------------------
 Rotational constants (GHZ):           0.0000000         225.4534966         225.4534966
 Leave Link  202 at Fri Mar 25 09:48:24 2022, MaxMem=  9663676416 cpu:               0.9 elap:               0.0
 (Enter /nopt/nrel/apps/gaussian/g16C_1/g16/l301.exe)
 General basis read from cards:  (5D, 7F)
                         Coordinates in L301:                         
 ---------------------------------------------------------------------
 Center     Atomic      Atomic             Coordinates (Angstroms)
 Number     Number       Type             X           Y           Z
 ---------------------------------------------------------------------
      1          1           0        0.000000    0.000000   -1.196175
      2          3           0        0.000000    0.000000    0.398725
 ---------------------------------------------------------------------
 Centers:       1
 STO-3G
 ****
 Centers:       2
 6-31G(d',p')
 ****
 FixB: optimizing general contractions.
 Ernie: Thresh=  0.10000D-02 Tol=  0.10000D-05 Strict=F.
 IA=     1 ShT= 0 ShC= 0 NL=   1 NS=   0.
 IA=     1 L=0 SC=0 ISt=    0 NBk=    0 NP=    0 IndPr=    0.
 IA=     2 ShT= 0 ShC= 0 NL=   1 NS=   0.
 IA=     2 L=0 SC=0 ISt=    0 NBk=    0 NP=    0 IndPr=    0.
 IA=     2 ShT= 1 ShC= 0 NL=   2 NS=   1.
 IA=     2 L=1 SC=0 ISt=    0 NBk=    0 NP=    0 IndPr=    0.
 IA=     2 ShT= 2 ShC= 2 NL=   1 NS=   1.
 IA=     2 L=2 SC=2 ISt=    0 NBk=    0 NP=    0 IndPr=    0.
 LdAtmC:  AtmChg=     1.000000     3.000000
 AtZEff=     -1.0000000     -1.3500000
 NEqShl: 
              1            2            3            4
     1            1            1            1            1
     2            2            2            2            2
     3            3            3            3            3
     4            4            4            4            4
     5            5            5            5            5
 NEqBas: 
              1            2            3            4
     1            1            1            1            1
     2            2            2            2            2
     3            3            3            3            3
     4            4           -4           -4            4
     5            5           -5            5           -5
     6            6            6            6            6
     7            7            7            7            7
     8            8           -8           -8            8
     9            9           -9            9           -9
    10           10           10           10           10
    11           11           11           11           11
    12           12           12           12           12
    13           13           13           13           13
    14           14           14          -14          -14
    15           15          -15          -15           15
    16           16          -16           16          -16
 There are     9 symmetry adapted cartesian basis functions of A1  symmetry.
   1         1   1   1   1
   2         2   2   2   2
   3         3   3   3   3
   4         6   6   6   6
   5         7   7   7   7
   6        10  10  10  10
   7        11  11  11  11
   8        12  12  12  12
   9        13  13  13  13
 There are     1 symmetry adapted cartesian basis functions of A2  symmetry.
  10        14  14  14  14
 There are     3 symmetry adapted cartesian basis functions of B1  symmetry.
  11         4   4   4   4
  12         8   8   8   8
  13        15  15  15  15
 There are     3 symmetry adapted cartesian basis functions of B2  symmetry.
  14         5   5   5   5
  15         9   9   9   9
  16        16  16  16  16
 Order= 1 2 4 3
 Reordered character table:
              1            2            3            4            5
     1            1            1            1            1            1
     2            2            1            1           -1           -1
     3            4            1           -1           -1            1
     4            3            1           -1            1           -1
 NEqShl: 
              1            2            3            4
     1            1            1            1            1
     2            2            2            2            2
     3            3            3            3            3
     4            4            4            4            4
     5            5            5            5            5
 NEqBas: 
              1            2            3            4
     1            1            1            1            1
     2            2            2            2            2
     3            3            3            3            3
     4            4           -4           -4            4
     5            5           -5            5           -5
     6            6            6            6            6
     7            7            7            7            7
     8            8           -8           -8            8
     9            9           -9            9           -9
    10           10           10           10           10
    11           11           11           11           11
    12           12          -12          -12           12
    13           13          -13           13          -13
    14           14           14           14           14
    15           15           15          -15          -15
 There are     8 symmetry adapted basis functions of A1  symmetry.
   1         1   1   1   1
   2         2   2   2   2
   3         3   3   3   3
   4         6   6   6   6
   5         7   7   7   7
   6        10  10  10  10
   7        11  11  11  11
   8        14  14  14  14
 There are     1 symmetry adapted basis functions of A2  symmetry.
   9        15  15  15  15
 There are     3 symmetry adapted basis functions of B1  symmetry.
  10         4   4   4   4
  11         8   8   8   8
  12        12  12  12  12
 There are     3 symmetry adapted basis functions of B2  symmetry.
  13         5   5   5   5
  14         9   9   9   9
  15        13  13  13  13
 Order= 1 2 4 3
 Reordered character table:
              1            2            3            4            5
     1            1            1            1            1            1
     2            2            1            1           -1           -1
     3            4            1           -1           -1            1
     4            3            1           -1            1           -1
    15 basis functions,    31 primitive gaussians,    16 cartesian basis functions
     2 alpha electrons        2 beta electrons
       nuclear repulsion energy         0.9953800444 Hartrees.
 IS=     1 IAt=     1 ISR=     1 T=0 IP=      1 IndIP=      1 IndIPD=      0 C=  2.769344D-01  0.000000D+00                             NZ=T
 IS=     1 IAt=     1 ISR=     1 T=0 IP=      2 IndIP=      2 IndIPD=      1 C=  2.678389D-01  0.000000D+00                             NZ=T
 IS=     1 IAt=     1 ISR=     1 T=0 IP=      3 IndIP=      3 IndIPD=      2 C=  8.347367D-02  0.000000D+00                             NZ=T
 IS=     2 IAt=     2 ISR=     1 T=0 IP=      1 IndIP=      4 IndIPD=      0 C=  1.948572D-01  0.000000D+00                             NZ=T
 IS=     2 IAt=     2 ISR=     1 T=0 IP=      2 IndIP=      5 IndIPD=      1 C=  3.565040D-01  0.000000D+00                             NZ=T
 IS=     2 IAt=     2 ISR=     1 T=0 IP=      3 IndIP=      6 IndIPD=      2 C=  5.614879D-01  0.000000D+00                             NZ=T
 IS=     2 IAt=     2 ISR=     1 T=0 IP=      4 IndIP=      7 IndIPD=      3 C=  6.883627D-01  0.000000D+00                             NZ=T
 IS=     2 IAt=     2 ISR=     1 T=0 IP=      5 IndIP=      8 IndIPD=      4 C=  5.498106D-01  0.000000D+00                             NZ=T
 IS=     2 IAt=     2 ISR=     1 T=0 IP=      6 IndIP=      9 IndIPD=      5 C=  1.755056D-01  0.000000D+00                             NZ=T
 IS=     3 IAt=     2 ISR=     2 T=1 IP=      1 IndIP=     10 IndIPD=      0 C= -4.708915D-02  3.658984D-02                             NZ=T
 IS=     3 IAt=     2 ISR=     2 T=1 IP=      2 IndIP=     11 IndIPD=      1 C= -9.665673D-02  1.133585D-01                             NZ=T
 IS=     3 IAt=     2 ISR=     2 T=1 IP=      3 IndIP=     12 IndIPD=      2 C=  1.151795D-01  5.648589D-02                             NZ=T
 IS=     4 IAt=     2 ISR=     3 T=1 IP=      1 IndIP=     13 IndIPD=      0 C=  5.885627D-02  2.232258D-02                             NZ=T
 IS=     5 IAt=     2 ISR=     4 T=2 IP=      1 IndIP=     14 IndIPD=      1 C=  0.000000D+00  0.000000D+00  9.844914D-02  0.000000D+00 NZ=T
 IExCor=    0 DFT=F Ex=HF Corr=None ExCW=0 ScaHFX=  1.000000
 ScaDFX=  1.000000  1.000000  1.000000  1.000000 ScalE2=  1.000000  1.000000
 IRadAn=      5 IRanWt=     -1 IRanGd=            0 ICorTp=0 IEmpDi=  4
 NAtoms=    2 NActive=    2 NUniq=    2 SFac= 1.00D+00 NAtFMM=   60 NAOKFM=F Big=F
 Integral buffers will be    131072 words long.
 Raffenetti 1 integral format.
 Two-electron integral symmetry is turned on.
 Leave Link  301 at Fri Mar 25 09:48:24 2022, MaxMem=  9663676416 cpu:               2.3 elap:               0.1
 (Enter /nopt/nrel/apps/gaussian/g16C_1/g16/l302.exe)
 NPDir=0 NMtPBC=     1 NCelOv=     1 NCel=       1 NClECP=     1 NCelD=      1
         NCelK=      1 NCelE2=     1 NClLst=     1 CellRange=     0.0.
 One-electron integrals computed using PRISM.
 One-electron integral symmetry used in STVInt
 Entering OneElI...
 Calculate overlap and kinetic energy integrals
    NBasis =  15  MinDer = 0  MaxDer = 0
 Requested accuracy = 0.1000D-12
 Symmetry will be used
 PrmmSu-InSpLW:  IPartL=    0 NPrtUS=   36 NPrtUL=    1 DoSpLW=F IThBeg=    0 IThEnd=   35 NThAct=   36.
 PrSmSu:  IncTry=   512 NBBP=             15 NTPThr=   100 NPartT=   36 Incr=           1 LDynOK=F GPUOK=F.
 PrsmSu:  NPrtUS=  36 ThrOK=T IAlg=1 LenDen=           0 ISkipM=0 DoSpLW=F IThBeg=    0 IThEnd=   35.
 Prism:   IPart=     0 DynPar=F LinDyn=F Incr=           1.
 PRISM was handed   268433420 working-precision words and    15 shell-pairs
 PRISM was handed   268433420 working-precision words and    15 shell-pairs
 PRISM was handed   268433420 working-precision words and    15 shell-pairs
 PRISM was handed   268433420 working-precision words and    15 shell-pairs
 PRISM was handed   268433420 working-precision words and    15 shell-pairs
 PRISM was handed   268433420 working-precision words and    15 shell-pairs
 PRISM was handed   268433420 working-precision words and    15 shell-pairs
 PRISM was handed   268433420 working-precision words and    15 shell-pairs
 PRISM was handed   268433420 working-precision words and    15 shell-pairs
 PRISM was handed   268433420 working-precision words and    15 shell-pairs
 PRISM was handed   268433420 working-precision words and    15 shell-pairs
 PRISM was handed   268433420 working-precision words and    15 shell-pairs
 PRISM was handed   268433420 working-precision words and    15 shell-pairs
 IPart= 13 NShTot=           0 NBatch=           0 AvBLen=         0.0
 IPart=  4 NShTot=           0 NBatch=           0 AvBLen=         0.0
 IPart= 33 NShTot=           0 NBatch=           0 AvBLen=         0.0
 IPart= 28 NShTot=           0 NBatch=           0 AvBLen=         0.0
 IPart= 32 NShTot=           0 NBatch=           0 AvBLen=         0.0
 IPart= 18 NShTot=           0 NBatch=           0 AvBLen=         0.0
 IPart= 34 NShTot=           0 NBatch=           0 AvBLen=         0.0
 PRISM was handed   268433420 working-precision words and    15 shell-pairs
 PRISM was handed   268433420 working-precision words and    15 shell-pairs
 PRISM was handed   268433420 working-precision words and    15 shell-pairs
 PRISM was handed   268433420 working-precision words and    15 shell-pairs
 IPart= 24 NShTot=           0 NBatch=           0 AvBLen=         0.0
 IPart=  8 NShTot=           0 NBatch=           0 AvBLen=         0.0
 IPart=  7 NShTot=           0 NBatch=           0 AvBLen=         0.0
 IPart=  3 NShTot=           0 NBatch=           0 AvBLen=         0.0
 IPart= 21 NShTot=           0 NBatch=           0 AvBLen=         0.0
 PRISM was handed   268433420 working-precision words and    15 shell-pairs
 PRISM was handed   268433420 working-precision words and    15 shell-pairs
 IPart= 11 NShTot=           0 NBatch=           0 AvBLen=         0.0
 IPart= 22 NShTot=           0 NBatch=           0 AvBLen=         0.0
 IPart= 30 NShTot=           0 NBatch=           0 AvBLen=         0.0
 IPart= 23 NShTot=           0 NBatch=           0 AvBLen=         0.0
 PRISM was handed   268433420 working-precision words and    15 shell-pairs
 PRISM was handed   268433420 working-precision words and    15 shell-pairs
 PRISM was handed   268433420 working-precision words and    15 shell-pairs
 IPart= 25 NShTot=           0 NBatch=           0 AvBLen=         0.0
 IPart= 16 NShTot=           0 NBatch=           0 AvBLen=         0.0
 PRISM was handed   268433420 working-precision words and    15 shell-pairs
 PRISM was handed   268433420 working-precision words and    15 shell-pairs
 PRISM was handed   268433420 working-precision words and    15 shell-pairs
 PRISM was handed   268433420 working-precision words and    15 shell-pairs
 IPart= 15 NShTot=           0 NBatch=           0 AvBLen=         0.0
 IPart= 17 NShTot=           0 NBatch=           0 AvBLen=         0.0
 IPart=  6 NShTot=           0 NBatch=           0 AvBLen=         0.0
 PRISM was handed   268433420 working-precision words and    15 shell-pairs
 PRISM was handed   268433420 working-precision words and    15 shell-pairs
 PRISM was handed   268433420 working-precision words and    15 shell-pairs
 IPart= 19 NShTot=           0 NBatch=           0 AvBLen=         0.0
 IPart= 10 NShTot=           0 NBatch=           0 AvBLen=         0.0
 IPart= 35 NShTot=           0 NBatch=           0 AvBLen=         0.0
 IPart=  1 NShTot=           0 NBatch=           0 AvBLen=         0.0
 PRISM was handed   268433420 working-precision words and    15 shell-pairs
 PRISM was handed   268433420 working-precision words and    15 shell-pairs
 PRISM was handed   268433420 working-precision words and    15 shell-pairs
 PRISM was handed   268433420 working-precision words and    15 shell-pairs
 IPart=  2 NShTot=           0 NBatch=           0 AvBLen=         0.0
 IPart= 31 NShTot=           0 NBatch=           0 AvBLen=         0.0
 PRISM was handed   268433420 working-precision words and    15 shell-pairs
 PRISM was handed   268433420 working-precision words and    15 shell-pairs
 PRISM was handed   268433420 working-precision words and    15 shell-pairs
 IPart=  0 NShTot=          15 NBatch=          15 AvBLen=         1.0
 IPart=  9 NShTot=           0 NBatch=           0 AvBLen=         0.0
 IPart= 14 NShTot=           0 NBatch=           0 AvBLen=         0.0
 IPart= 20 NShTot=           0 NBatch=           0 AvBLen=         0.0
 IPart= 12 NShTot=           0 NBatch=           0 AvBLen=         0.0
 IPart= 27 NShTot=           0 NBatch=           0 AvBLen=         0.0
 IPart= 26 NShTot=           0 NBatch=           0 AvBLen=         0.0
 IPart=  5 NShTot=           0 NBatch=           0 AvBLen=         0.0
 IPart= 29 NShTot=           0 NBatch=           0 AvBLen=         0.0
 PrSmSu:  NxtVal=             37.
 *** Overlap *** 
                1             2             3             4             5 
      1  0.100000D+01
      2  0.729865D-01  0.100000D+01
      3  0.407253D+00  0.145258D+00  0.100000D+01
      4  0.000000D+00  0.000000D+00  0.000000D+00  0.100000D+01
      5  0.000000D+00  0.000000D+00  0.000000D+00  0.000000D+00  0.100000D+01
      6 -0.514256D+00  0.000000D+00  0.000000D+00  0.000000D+00  0.000000D+00
      7  0.355897D+00  0.185742D+00  0.905515D+00  0.000000D+00  0.000000D+00
      8  0.000000D+00  0.000000D+00  0.000000D+00  0.802063D+00  0.000000D+00
      9  0.000000D+00  0.000000D+00  0.000000D+00  0.000000D+00  0.802063D+00
     10 -0.353964D+00  0.000000D+00  0.000000D+00  0.000000D+00  0.000000D+00
     11  0.459704D+00  0.000000D+00  0.000000D+00  0.000000D+00  0.000000D+00
     12  0.000000D+00  0.000000D+00  0.000000D+00  0.000000D+00  0.000000D+00
     13  0.000000D+00  0.000000D+00  0.000000D+00  0.000000D+00  0.000000D+00
     14  0.000000D+00  0.000000D+00  0.000000D+00  0.000000D+00  0.000000D+00
     15  0.000000D+00  0.000000D+00  0.000000D+00  0.000000D+00  0.000000D+00
                6             7             8             9            10 
      6  0.100000D+01
      7  0.000000D+00  0.100000D+01
      8  0.000000D+00  0.000000D+00  0.100000D+01
      9  0.000000D+00  0.000000D+00  0.000000D+00  0.100000D+01
     10  0.802063D+00  0.000000D+00  0.000000D+00  0.000000D+00  0.100000D+01
     11  0.000000D+00  0.000000D+00  0.000000D+00  0.000000D+00  0.000000D+00
     12  0.000000D+00  0.000000D+00  0.000000D+00  0.000000D+00  0.000000D+00
     13  0.000000D+00  0.000000D+00  0.000000D+00  0.000000D+00  0.000000D+00
     14  0.000000D+00  0.000000D+00  0.000000D+00  0.000000D+00  0.000000D+00
     15  0.000000D+00  0.000000D+00  0.000000D+00  0.000000D+00  0.000000D+00
               11            12            13            14            15 
     11  0.100000D+01
     12  0.000000D+00  0.100000D+01
     13  0.000000D+00  0.000000D+00  0.100000D+01
     14  0.000000D+00  0.000000D+00  0.000000D+00  0.100000D+01
     15  0.000000D+00  0.000000D+00  0.000000D+00  0.000000D+00  0.100000D+01
 *** Kinetic Energy *** 
                1             2             3             4             5 
      1  0.760032D+00
      2 -0.156495D-01  0.362575D+01
      3  0.537838D-01 -0.242849D+00  0.145919D+00
      4  0.000000D+00  0.000000D+00  0.000000D+00  0.242177D+00
      5  0.000000D+00  0.000000D+00  0.000000D+00  0.000000D+00  0.242177D+00
      6 -0.117533D+00  0.000000D+00  0.000000D+00  0.000000D+00  0.000000D+00
      7  0.270466D-01  0.193002D-01  0.653913D-01  0.000000D+00  0.000000D+00
      8  0.000000D+00  0.000000D+00  0.000000D+00  0.100038D+00  0.000000D+00
      9  0.000000D+00  0.000000D+00  0.000000D+00  0.000000D+00  0.100038D+00
     10 -0.492553D-01  0.000000D+00  0.000000D+00  0.000000D+00  0.000000D+00
     11  0.270563D+00  0.000000D+00  0.000000D+00  0.000000D+00  0.000000D+00
     12  0.000000D+00  0.000000D+00  0.000000D+00  0.000000D+00  0.000000D+00
     13  0.000000D+00  0.000000D+00  0.000000D+00  0.000000D+00  0.000000D+00
     14  0.000000D+00  0.000000D+00  0.000000D+00  0.000000D+00  0.000000D+00
     15  0.000000D+00  0.000000D+00  0.000000D+00  0.000000D+00  0.000000D+00
                6             7             8             9            10 
      6  0.242177D+00
      7  0.000000D+00  0.539430D-01
      8  0.000000D+00  0.000000D+00  0.899049D-01
      9  0.000000D+00  0.000000D+00  0.000000D+00  0.899049D-01
     10  0.100038D+00  0.000000D+00  0.000000D+00  0.000000D+00  0.899049D-01
     11  0.000000D+00  0.000000D+00  0.000000D+00  0.000000D+00  0.000000D+00
     12  0.000000D+00  0.000000D+00  0.000000D+00  0.000000D+00  0.000000D+00
     13  0.000000D+00  0.000000D+00  0.000000D+00  0.000000D+00  0.000000D+00
     14  0.000000D+00  0.000000D+00  0.000000D+00  0.000000D+00  0.000000D+00
     15  0.000000D+00  0.000000D+00  0.000000D+00  0.000000D+00  0.000000D+00
               11            12            13            14            15 
     11  0.700000D+00
     12  0.000000D+00  0.700000D+00
     13  0.000000D+00  0.000000D+00  0.700000D+00
     14  0.000000D+00  0.000000D+00  0.000000D+00  0.700000D+00
     15  0.000000D+00  0.000000D+00  0.000000D+00  0.000000D+00  0.700000D+00
 Entering OneElI...
 Calculate potential energy integrals
    NBasis =  15  MinDer = 0  MaxDer = 0
 Requested accuracy = 0.1000D-12
 Symmetry will be used
 PrmmSu-InSpLW:  IPartL=    0 NPrtUS=   36 NPrtUL=    1 DoSpLW=F IThBeg=    0 IThEnd=   35 NThAct=   36.
 PrSmSu:  IncTry=   512 NBBP=             30 NTPThr=   100 NPartT=   36 Incr=           1 LDynOK=F GPUOK=F.
 PrsmSu:  NPrtUS=  36 ThrOK=T IAlg=1 LenDen=           0 ISkipM=0 DoSpLW=F IThBeg=    0 IThEnd=   35.
 Prism:   IPart=     0 DynPar=F LinDyn=F Incr=           1.
 PRISM was handed   268433557 working-precision words and    15 shell-pairs
 PRISM was handed   268433557 working-precision words and    15 shell-pairs
 PRISM was handed   268433557 working-precision words and    15 shell-pairs
 PRISM was handed   268433557 working-precision words and    15 shell-pairs
 PRISM was handed   268433557 working-precision words and    15 shell-pairs
 PRISM was handed   268433557 working-precision words and    15 shell-pairs
 PRISM was handed   268433557 working-precision words and    15 shell-pairs
 PRISM was handed   268433557 working-precision words and    15 shell-pairs
 PRISM was handed   268433557 working-precision words and    15 shell-pairs
 PRISM was handed   268433557 working-precision words and    15 shell-pairs
 PRISM was handed   268433557 working-precision words and    15 shell-pairs
 PRISM was handed   268433557 working-precision words and    15 shell-pairs
 PRISM was handed   268433557 working-precision words and    15 shell-pairs
 PRISM was handed   268433557 working-precision words and    15 shell-pairs
 PRISM was handed   268433557 working-precision words and    15 shell-pairs
 PRISM was handed   268433557 working-precision words and    15 shell-pairs
 PRISM was handed   268433557 working-precision words and    15 shell-pairs
 PRISM was handed   268433557 working-precision words and    15 shell-pairs
 PRISM was handed   268433557 working-precision words and    15 shell-pairs
 PRISM was handed   268433557 working-precision words and    15 shell-pairs
 PRISM was handed   268433557 working-precision words and    15 shell-pairs
 PRISM was handed   268433557 working-precision words and    15 shell-pairs
 PRISM was handed   268433557 working-precision words and    15 shell-pairs
 PRISM was handed   268433557 working-precision words and    15 shell-pairs
 PRISM was handed   268433557 working-precision words and    15 shell-pairs
 PRISM was handed   268433557 working-precision words and    15 shell-pairs
 PRISM was handed   268433557 working-precision words and    15 shell-pairs
 PRISM was handed   268433557 working-precision words and    15 shell-pairs
 PRISM was handed   268433557 working-precision words and    15 shell-pairs
 PRISM was handed   268433557 working-precision words and    15 shell-pairs
 PRISM was handed   268433557 working-precision words and    15 shell-pairs
 PRISM was handed   268433557 working-precision words and    15 shell-pairs
 PRISM was handed   268433557 working-precision words and    15 shell-pairs
 PRISM was handed   268433557 working-precision words and    15 shell-pairs
 PRISM was handed   268433557 working-precision words and    15 shell-pairs
 PRISM was handed   268433557 working-precision words and    15 shell-pairs
 IPart=  0 NShTot=          30 NBatch=          15 AvBLen=         2.0
 IPart= 15 NShTot=           0 NBatch=           0 AvBLen=         0.0
 IPart= 33 NShTot=           0 NBatch=           0 AvBLen=         0.0
 IPart= 24 NShTot=           0 NBatch=           0 AvBLen=         0.0
 IPart= 22 NShTot=           0 NBatch=           0 AvBLen=         0.0
 IPart= 13 NShTot=           0 NBatch=           0 AvBLen=         0.0
 IPart= 12 NShTot=           0 NBatch=           0 AvBLen=         0.0
 IPart= 32 NShTot=           0 NBatch=           0 AvBLen=         0.0
 IPart=  4 NShTot=           0 NBatch=           0 AvBLen=         0.0
 IPart= 29 NShTot=           0 NBatch=           0 AvBLen=         0.0
 IPart=  1 NShTot=           0 NBatch=           0 AvBLen=         0.0
 IPart=  8 NShTot=           0 NBatch=           0 AvBLen=         0.0
 IPart= 25 NShTot=           0 NBatch=           0 AvBLen=         0.0
 IPart= 34 NShTot=           0 NBatch=           0 AvBLen=         0.0
 IPart= 20 NShTot=           0 NBatch=           0 AvBLen=         0.0
 IPart=  7 NShTot=           0 NBatch=           0 AvBLen=         0.0
 IPart=  5 NShTot=           0 NBatch=           0 AvBLen=         0.0
 IPart= 14 NShTot=           0 NBatch=           0 AvBLen=         0.0
 IPart= 16 NShTot=           0 NBatch=           0 AvBLen=         0.0
 IPart= 19 NShTot=           0 NBatch=           0 AvBLen=         0.0
 IPart= 26 NShTot=           0 NBatch=           0 AvBLen=         0.0
 IPart= 31 NShTot=           0 NBatch=           0 AvBLen=         0.0
 IPart= 35 NShTot=           0 NBatch=           0 AvBLen=         0.0
 IPart= 10 NShTot=           0 NBatch=           0 AvBLen=         0.0
 IPart= 21 NShTot=           0 NBatch=           0 AvBLen=         0.0
 IPart= 28 NShTot=           0 NBatch=           0 AvBLen=         0.0
 IPart= 11 NShTot=           0 NBatch=           0 AvBLen=         0.0
 IPart= 23 NShTot=           0 NBatch=           0 AvBLen=         0.0
 IPart= 30 NShTot=           0 NBatch=           0 AvBLen=         0.0
 IPart=  9 NShTot=           0 NBatch=           0 AvBLen=         0.0
 IPart= 27 NShTot=           0 NBatch=           0 AvBLen=         0.0
 IPart=  2 NShTot=           0 NBatch=           0 AvBLen=         0.0
 IPart= 18 NShTot=           0 NBatch=           0 AvBLen=         0.0
 IPart= 17 NShTot=           0 NBatch=           0 AvBLen=         0.0
 IPart=  6 NShTot=           0 NBatch=           0 AvBLen=         0.0
 IPart=  3 NShTot=           0 NBatch=           0 AvBLen=         0.0
 PrSmSu:  NxtVal=             37.
 ***** Potential Energy ***** 
                1             2             3             4             5 
      1  0.221933D+01
      2  0.302195D+00  0.840281D+01
      3  0.743334D+00  0.334204D+00  0.140959D+01
      4  0.000000D+00  0.000000D+00  0.000000D+00  0.126413D+01
      5  0.000000D+00  0.000000D+00  0.000000D+00  0.000000D+00  0.126413D+01
      6 -0.930459D+00 -0.144615D-01 -0.121441D+00  0.000000D+00  0.000000D+00
      7  0.622418D+00  0.815530D+00  0.118127D+01  0.000000D+00  0.000000D+00
      8  0.000000D+00  0.000000D+00  0.000000D+00  0.807079D+00  0.000000D+00
      9  0.000000D+00  0.000000D+00  0.000000D+00  0.000000D+00  0.807079D+00
     10 -0.568463D+00 -0.395357D-02 -0.765006D-01  0.000000D+00  0.000000D+00
     11  0.979007D+00  0.546789D-02  0.865323D-01  0.000000D+00  0.000000D+00
     12  0.000000D+00  0.000000D+00  0.000000D+00 -0.666038D-01  0.000000D+00
     13  0.000000D+00  0.000000D+00  0.000000D+00  0.000000D+00 -0.666038D-01
     14  0.000000D+00  0.000000D+00  0.000000D+00  0.000000D+00  0.000000D+00
     15  0.000000D+00  0.000000D+00  0.000000D+00  0.000000D+00  0.000000D+00
                6             7             8             9            10 
      6  0.135815D+01
      7 -0.106930D+00  0.115570D+01
      8  0.000000D+00  0.000000D+00  0.783901D+00
      9  0.000000D+00  0.000000D+00  0.000000D+00  0.783901D+00
     10  0.869515D+00 -0.790812D-01  0.000000D+00  0.000000D+00  0.833992D+00
     11 -0.156588D+00  0.680168D-01  0.000000D+00  0.000000D+00 -0.916372D-01
     12  0.000000D+00  0.000000D+00 -0.387749D-01  0.000000D+00  0.000000D+00
     13  0.000000D+00  0.000000D+00  0.000000D+00 -0.387749D-01  0.000000D+00
     14  0.000000D+00  0.000000D+00  0.000000D+00  0.000000D+00  0.000000D+00
     15  0.000000D+00  0.000000D+00  0.000000D+00  0.000000D+00  0.000000D+00
               11            12            13            14            15 
     11  0.155741D+01
     12  0.000000D+00  0.145384D+01
     13  0.000000D+00  0.000000D+00  0.145384D+01
     14  0.000000D+00  0.000000D+00  0.000000D+00  0.140087D+01
     15  0.000000D+00  0.000000D+00  0.000000D+00  0.000000D+00  0.140087D+01
 ****** Core Hamiltonian ****** 
                1             2             3             4             5 
      1 -0.145930D+01
      2 -0.317845D+00 -0.477706D+01
      3 -0.689551D+00 -0.577053D+00 -0.126367D+01
      4  0.000000D+00  0.000000D+00  0.000000D+00 -0.102195D+01
      5  0.000000D+00  0.000000D+00  0.000000D+00  0.000000D+00 -0.102195D+01
      6  0.812926D+00  0.144615D-01  0.121441D+00  0.000000D+00  0.000000D+00
      7 -0.595372D+00 -0.796230D+00 -0.111588D+01  0.000000D+00  0.000000D+00
      8  0.000000D+00  0.000000D+00  0.000000D+00 -0.707041D+00  0.000000D+00
      9  0.000000D+00  0.000000D+00  0.000000D+00  0.000000D+00 -0.707041D+00
     10  0.519207D+00  0.395357D-02  0.765006D-01  0.000000D+00  0.000000D+00
     11 -0.708444D+00 -0.546789D-02 -0.865323D-01  0.000000D+00  0.000000D+00
     12  0.000000D+00  0.000000D+00  0.000000D+00  0.666038D-01  0.000000D+00
     13  0.000000D+00  0.000000D+00  0.000000D+00  0.000000D+00  0.666038D-01
     14  0.000000D+00  0.000000D+00  0.000000D+00  0.000000D+00  0.000000D+00
     15  0.000000D+00  0.000000D+00  0.000000D+00  0.000000D+00  0.000000D+00
                6             7             8             9            10 
      6 -0.111597D+01
      7  0.106930D+00 -0.110176D+01
      8  0.000000D+00  0.000000D+00 -0.693996D+00
      9  0.000000D+00  0.000000D+00  0.000000D+00 -0.693996D+00
     10 -0.769477D+00  0.790812D-01  0.000000D+00  0.000000D+00 -0.744087D+00
     11  0.156588D+00 -0.680168D-01  0.000000D+00  0.000000D+00  0.916372D-01
     12  0.000000D+00  0.000000D+00  0.387749D-01  0.000000D+00  0.000000D+00
     13  0.000000D+00  0.000000D+00  0.000000D+00  0.387749D-01  0.000000D+00
     14  0.000000D+00  0.000000D+00  0.000000D+00  0.000000D+00  0.000000D+00
     15  0.000000D+00  0.000000D+00  0.000000D+00  0.000000D+00  0.000000D+00
               11            12            13            14            15 
     11 -0.857408D+00
     12  0.000000D+00 -0.753844D+00
     13  0.000000D+00  0.000000D+00 -0.753844D+00
     14  0.000000D+00  0.000000D+00  0.000000D+00 -0.700869D+00
     15  0.000000D+00  0.000000D+00  0.000000D+00  0.000000D+00 -0.700869D+00
 SVDSVc IOpt=   1 NormSV=T IR=1
 SVDSVc V= 2.42D+00 1.89D+00 1.18D+00 1.00D+00 9.45D-01 3.37D-01 1.45D-01 8.65D-02
 SVDSVc IOpt=   1 NormSV=T IR=2
 SVDSVc V= 1.00D+00
 SVDSVc IOpt=   1 NormSV=T IR=3
 SVDSVc V= 1.80D+00 1.00D+00 1.98D-01
 SVDSVc IOpt=   1 NormSV=T IR=4
 SVDSVc V= 1.80D+00 1.00D+00 1.98D-01
 TstOVc:  Largest diagonal error= 2.00D-15 IB=1 I=    8.
 TstOVc:  Largest same sym error= 3.51D-15 IB=1 I=    5 J=    3.
 TstOVc:  Largest diff sym error= 0.00D+00 IB=0 JB=0 I=    0 J=    0.
 Orthogonalized basis functions: 
                 1             2             3             4             5 
      1   0.342429D+00 -0.710806D-01  0.310783D+00  0.000000D+00 -0.132182D-01
      2   0.836144D-01  0.123489D+00 -0.123363D+00  0.000000D+00  0.994876D+00
      3   0.285779D+00  0.343585D+00 -0.126587D+00  0.000000D+00 -0.190209D+00
      4   0.000000D+00  0.000000D+00  0.000000D+00  0.000000D+00  0.000000D+00
      5   0.000000D+00  0.000000D+00  0.000000D+00  0.000000D+00  0.000000D+00
      6  -0.254254D+00  0.370145D+00  0.193298D+00  0.000000D+00 -0.527452D-02
      7   0.279664D+00  0.348412D+00 -0.145807D+00  0.000000D+00 -0.142040D+00
      8   0.000000D+00  0.000000D+00  0.000000D+00  0.000000D+00  0.000000D+00
      9   0.000000D+00  0.000000D+00  0.000000D+00  0.000000D+00  0.000000D+00
     10  -0.229515D+00  0.363397D+00  0.243781D+00  0.000000D+00 -0.811163D-02
     11   0.111121D+00 -0.368723D-01  0.773434D+00  0.000000D+00  0.109960D+00
     12   0.000000D+00  0.000000D+00  0.000000D+00  0.000000D+00  0.000000D+00
     13   0.000000D+00  0.000000D+00  0.000000D+00  0.000000D+00  0.000000D+00
     14   0.000000D+00  0.000000D+00  0.000000D+00  0.100000D+01  0.000000D+00
     15   0.000000D+00  0.000000D+00  0.000000D+00  0.000000D+00  0.000000D+00
                 6             7             8             9            10 
      1   0.109755D+01  0.102661D+01 -0.632417D+00  0.000000D+00  0.000000D+00
      2   0.205103D-01  0.237542D-01  0.107833D+00  0.000000D+00  0.000000D+00
      3  -0.154390D+00  0.290799D+00  0.242039D+01  0.000000D+00  0.000000D+00
      4   0.000000D+00  0.000000D+00  0.000000D+00  0.000000D+00  0.526744D+00
      5   0.000000D+00  0.000000D+00  0.000000D+00  0.000000D+00  0.000000D+00
      6  -0.309394D+00  0.181411D+01 -0.614727D+00  0.000000D+00  0.000000D+00
      7  -0.383794D+00 -0.740202D+00 -0.217470D+01  0.000000D+00  0.000000D+00
      8   0.000000D+00  0.000000D+00  0.000000D+00  0.000000D+00  0.526744D+00
      9   0.000000D+00  0.000000D+00  0.000000D+00  0.000000D+00  0.000000D+00
     10   0.959627D+00 -0.127631D+01  0.294677D+00  0.000000D+00  0.000000D+00
     11  -0.760512D+00 -0.551772D+00  0.318242D+00  0.000000D+00  0.000000D+00
     12   0.000000D+00  0.000000D+00  0.000000D+00  0.000000D+00  0.000000D+00
     13   0.000000D+00  0.000000D+00  0.000000D+00  0.000000D+00  0.000000D+00
     14   0.000000D+00  0.000000D+00  0.000000D+00  0.000000D+00  0.000000D+00
     15   0.000000D+00  0.000000D+00  0.000000D+00  0.100000D+01  0.000000D+00
                11            12            13            14            15 
      1   0.000000D+00  0.000000D+00  0.000000D+00  0.000000D+00  0.000000D+00
      2   0.000000D+00  0.000000D+00  0.000000D+00  0.000000D+00  0.000000D+00
      3   0.000000D+00  0.000000D+00  0.000000D+00  0.000000D+00  0.000000D+00
      4   0.000000D+00  0.158936D+01  0.000000D+00  0.000000D+00  0.000000D+00
      5   0.000000D+00  0.000000D+00  0.526744D+00  0.000000D+00  0.158936D+01
      6   0.000000D+00  0.000000D+00  0.000000D+00  0.000000D+00  0.000000D+00
      7   0.000000D+00  0.000000D+00  0.000000D+00  0.000000D+00  0.000000D+00
      8   0.000000D+00 -0.158936D+01  0.000000D+00  0.000000D+00  0.000000D+00
      9   0.000000D+00  0.000000D+00  0.526744D+00  0.000000D+00 -0.158936D+01
     10   0.000000D+00  0.000000D+00  0.000000D+00  0.000000D+00  0.000000D+00
     11   0.000000D+00  0.000000D+00  0.000000D+00  0.000000D+00  0.000000D+00
     12   0.100000D+01  0.000000D+00  0.000000D+00  0.000000D+00  0.000000D+00
     13   0.000000D+00  0.000000D+00  0.000000D+00  0.100000D+01  0.000000D+00
     14   0.000000D+00  0.000000D+00  0.000000D+00  0.000000D+00  0.000000D+00
     15   0.000000D+00  0.000000D+00  0.000000D+00  0.000000D+00  0.000000D+00
 NBasis=    15 RedAO= T EigKep=  8.65D-02  NBF=     8     1     3     3
 NBsUse=    15 1.00D-06 EigRej= -1.00D+00 NBFU=     8     1     3     3
 Leave Link  302 at Fri Mar 25 09:48:24 2022, MaxMem=  9663676416 cpu:               3.4 elap:               0.1
 (Enter /nopt/nrel/apps/gaussian/g16C_1/g16/l303.exe)
 DipDrv will not compute anything.
 Fermi contact integrals: 
                 1             2 
      1   0.628247D+00  0.189316D-01
      2   0.539967D-03  0.252653D+01
      3   0.558612D-01 -0.285664D-01
      4   0.000000D+00  0.000000D+00
      5   0.000000D+00  0.000000D+00
      6  -0.841173D-01  0.000000D+00
      7   0.424543D-01  0.588563D-01
      8   0.000000D+00  0.000000D+00
      9   0.000000D+00  0.000000D+00
     10  -0.485295D-01  0.000000D+00
     11   0.145369D+00  0.000000D+00
     12   0.000000D+00  0.000000D+00
     13   0.000000D+00  0.000000D+00
     14   0.000000D+00  0.000000D+00
     15   0.000000D+00  0.000000D+00
 Leave Link  303 at Fri Mar 25 09:48:24 2022, MaxMem=  9663676416 cpu:               1.1 elap:               0.1
 (Enter /nopt/nrel/apps/gaussian/g16C_1/g16/l401.exe)
 ExpMin= 3.60D-02 ExpMax= 6.42D+02 ExpMxC= 9.68D+01 IAcc=3 IRadAn=         5 AccDes= 0.00D+00
 Harris functional with IExCor=  205 and IRadAn=       5 diagonalized for initial guess.
 HarFok:  IExCor=  205 AccDes= 0.00D+00 IRadAn=         5 IDoV= 1 UseB2=F ITyADJ=14
 ICtDFT=  3500011 ScaDFX=  1.000000  1.000000  1.000000  1.000000
 FoFCou: FMM=F IPFlag=           0 FMFlag=      100000 FMFlg1=           0
         NFxFlg=           0 DoJE=T BraDBF=F KetDBF=T FulRan=T
         wScrn=  0.000000 ICntrl=       500 IOpCl=  0 I1Cent=   200000004 NGrid=           0
         NMat0=    1 NMatS0=      1 NMatT0=    0 NMatD0=    1 NMtDS0=    0 NMtDT0=    0
 Petite list used in FoFCou.
 Harris En= -8.02638341447211    
 JPrj=0 DoOrth=F DoCkMO=F.
 Initial guess orbital symmetries:
       Occupied  (SG) (SG)
       Virtual   (SG) (PI) (PI) (SG) (PI) (PI) (SG) (SG) (PI) (PI)
                 (DLTA) (DLTA) (SG)
 The electronic state of the initial guess is 1-SG.
 Leave Link  401 at Fri Mar 25 09:48:24 2022, MaxMem=  9663676416 cpu:               4.9 elap:               0.2
 (Enter /nopt/nrel/apps/gaussian/g16C_1/g16/l502.exe)
 Keep R1 ints in memory in symmetry-blocked form, NReq=7398745.
 FoFCou: FMM=F IPFlag=           0 FMFlag=           0 FMFlg1=           0
         NFxFlg=           0 DoJE=F BraDBF=F KetDBF=F FulRan=T
         wScrn=  0.000000 ICntrl=       600 IOpCl=  0 I1Cent=           0 NGrid=           0
         NMat0=    1 NMatS0=    120 NMatT0=    0 NMatD0=    1 NMtDS0=    0 NMtDT0=    0
 Petite list used in FoFCou.
 Closed shell SCF:
 Using DIIS extrapolation, IDIIS=  1040.
 NGot=  9663676416 LenX=  9663671361 LenY=  9663670479
 Requested convergence on RMS density matrix=1.00D-08 within 128 cycles.
 Requested convergence on MAX density matrix=1.00D-06.
 Requested convergence on             energy=1.00D-06.
 No special actions if energy rises.

 Cycle   1  Pass 1  IDiag  1:
 E= -7.94905027544219    
 DIIS: error= 2.47D-02 at cycle   1 NSaved=   1.
 NSaved= 1 IEnMin= 1 EnMin= -7.94905027544219     IErMin= 1 ErrMin= 2.47D-02
 ErrMax= 2.47D-02  0.00D+00 EMaxC= 1.00D-01 BMatC= 9.76D-03 BMatP= 9.76D-03
 IDIUse=3 WtCom= 7.53D-01 WtEn= 2.47D-01
 Coeff-Com:  0.100D+01
 Coeff-En:   0.100D+01
 Coeff:      0.100D+01
 Gap=     0.269 Goal=   None    Shift=    0.000
 GapD=    0.269 DampG=1.000 DampE=0.500 DampFc=0.5000 IDamp=-1.
 Damping current iteration by 5.00D-01
 RMSDP=1.29D-02 MaxDP=1.43D-01              OVMax= 1.25D-01

 Cycle   2  Pass 1  IDiag  1:
 E= -7.96050924544993     Delta-E=       -0.011458970008 Rises=F Damp=T
 DIIS: error= 1.34D-02 at cycle   2 NSaved=   2.
 NSaved= 2 IEnMin= 2 EnMin= -7.96050924544993     IErMin= 2 ErrMin= 1.34D-02
 ErrMax= 1.34D-02  0.00D+00 EMaxC= 1.00D-01 BMatC= 2.86D-03 BMatP= 9.76D-03
 IDIUse=3 WtCom= 8.66D-01 WtEn= 1.34D-01
 Coeff-Com: -0.115D+01 0.215D+01
 Coeff-En:   0.000D+00 0.100D+01
 Coeff:     -0.998D+00 0.200D+01
 Gap=     0.304 Goal=   None    Shift=    0.000
 RMSDP=7.77D-03 MaxDP=8.14D-02 DE=-1.15D-02 OVMax= 2.15D-02

 Cycle   3  Pass 1  IDiag  1:
 E= -7.97383943980572     Delta-E=       -0.013330194356 Rises=F Damp=F
 DIIS: error= 9.80D-04 at cycle   3 NSaved=   3.
 NSaved= 3 IEnMin= 3 EnMin= -7.97383943980572     IErMin= 3 ErrMin= 9.80D-04
 ErrMax= 9.80D-04  0.00D+00 EMaxC= 1.00D-01 BMatC= 9.91D-06 BMatP= 2.86D-03
 IDIUse=3 WtCom= 9.90D-01 WtEn= 9.80D-03
 Coeff-Com:  0.489D+00-0.915D+00 0.143D+01
 Coeff-En:   0.000D+00 0.000D+00 0.100D+01
 Coeff:      0.484D+00-0.906D+00 0.142D+01
 Gap=     0.310 Goal=   None    Shift=    0.000
 RMSDP=8.52D-04 MaxDP=6.88D-03 DE=-1.33D-02 OVMax= 1.02D-02

 Cycle   4  Pass 1  IDiag  1:
 E= -7.97391436654031     Delta-E=       -0.000074926735 Rises=F Damp=F
 DIIS: error= 3.42D-04 at cycle   4 NSaved=   4.
 NSaved= 4 IEnMin= 4 EnMin= -7.97391436654031     IErMin= 4 ErrMin= 3.42D-04
 ErrMax= 3.42D-04  0.00D+00 EMaxC= 1.00D-01 BMatC= 7.17D-07 BMatP= 9.91D-06
 IDIUse=3 WtCom= 9.97D-01 WtEn= 3.42D-03
 Coeff-Com: -0.239D+00 0.453D+00-0.100D+01 0.179D+01
 Coeff-En:   0.000D+00 0.000D+00 0.000D+00 0.100D+01
 Coeff:     -0.238D+00 0.451D+00-0.998D+00 0.178D+01
 Gap=     0.312 Goal=   None    Shift=    0.000
 RMSDP=3.13D-04 MaxDP=2.71D-03 DE=-7.49D-05 OVMax= 4.82D-03

 Cycle   5  Pass 1  IDiag  1:
 E= -7.97392202295013     Delta-E=       -0.000007656410 Rises=F Damp=F
 DIIS: error= 3.76D-05 at cycle   5 NSaved=   5.
 NSaved= 5 IEnMin= 5 EnMin= -7.97392202295013     IErMin= 5 ErrMin= 3.76D-05
 ErrMax= 3.76D-05  0.00D+00 EMaxC= 1.00D-01 BMatC= 1.61D-08 BMatP= 7.17D-07
 IDIUse=1 WtCom= 1.00D+00 WtEn= 0.00D+00
 Coeff-Com:  0.406D-02-0.875D-02 0.961D-01-0.226D+00 0.113D+01
 Coeff:      0.406D-02-0.875D-02 0.961D-01-0.226D+00 0.113D+01
 Gap=     0.311 Goal=   None    Shift=    0.000
 RMSDP=4.49D-05 MaxDP=2.79D-04 DE=-7.66D-06 OVMax= 2.81D-04

 Cycle   6  Pass 1  IDiag  1:
 E= -7.97392209123318     Delta-E=       -0.000000068283 Rises=F Damp=F
 DIIS: error= 4.37D-06 at cycle   6 NSaved=   6.
 NSaved= 6 IEnMin= 6 EnMin= -7.97392209123318     IErMin= 6 ErrMin= 4.37D-06
 ErrMax= 4.37D-06  0.00D+00 EMaxC= 1.00D-01 BMatC= 2.30D-10 BMatP= 1.61D-08
 IDIUse=1 WtCom= 1.00D+00 WtEn= 0.00D+00
 Coeff-Com:  0.157D-02-0.268D-02-0.176D-01 0.416D-01-0.359D+00 0.134D+01
 Coeff:      0.157D-02-0.268D-02-0.176D-01 0.416D-01-0.359D+00 0.134D+01
 Gap=     0.311 Goal=   None    Shift=    0.000
 RMSDP=5.72D-06 MaxDP=3.39D-05 DE=-6.83D-08 OVMax= 6.16D-05

 Cycle   7  Pass 1  IDiag  1:
 E= -7.97392209303115     Delta-E=       -0.000000001798 Rises=F Damp=F
 DIIS: error= 5.79D-07 at cycle   7 NSaved=   7.
 NSaved= 7 IEnMin= 7 EnMin= -7.97392209303115     IErMin= 7 ErrMin= 5.79D-07
 ErrMax= 5.79D-07  0.00D+00 EMaxC= 1.00D-01 BMatC= 2.60D-12 BMatP= 2.30D-10
 IDIUse=1 WtCom= 1.00D+00 WtEn= 0.00D+00
 Coeff-Com:  0.332D-04-0.896D-04 0.362D-02-0.777D-02 0.618D-01-0.268D+00
 Coeff-Com:  0.121D+01
 Coeff:      0.332D-04-0.896D-04 0.362D-02-0.777D-02 0.618D-01-0.268D+00
 Coeff:      0.121D+01
 Gap=     0.311 Goal=   None    Shift=    0.000
 RMSDP=2.98D-07 MaxDP=1.57D-06 DE=-1.80D-09 OVMax= 3.84D-06

 Cycle   8  Pass 1  IDiag  1:
 E= -7.97392209304107     Delta-E=       -0.000000000010 Rises=F Damp=F
 DIIS: error= 2.83D-08 at cycle   8 NSaved=   8.
 NSaved= 8 IEnMin= 8 EnMin= -7.97392209304107     IErMin= 8 ErrMin= 2.83D-08
 ErrMax= 2.83D-08  0.00D+00 EMaxC= 1.00D-01 BMatC= 8.76D-15 BMatP= 2.60D-12
 IDIUse=1 WtCom= 1.00D+00 WtEn= 0.00D+00
 Coeff-Com:  0.110D-04-0.224D-04 0.101D-04-0.444D-04-0.806D-03 0.486D-02
 Coeff-Com: -0.493D-01 0.105D+01
 Coeff:      0.110D-04-0.224D-04 0.101D-04-0.444D-04-0.806D-03 0.486D-02
 Coeff:     -0.493D-01 0.105D+01
 Gap=     0.311 Goal=   None    Shift=    0.000
 RMSDP=1.92D-08 MaxDP=1.26D-07 DE=-9.92D-12 OVMax= 3.16D-07

 Cycle   9  Pass 1  IDiag  1:
 E= -7.97392209304112     Delta-E=       -0.000000000000 Rises=F Damp=F
 DIIS: error= 2.96D-09 at cycle   9 NSaved=   9.
 NSaved= 9 IEnMin= 9 EnMin= -7.97392209304112     IErMin= 9 ErrMin= 2.96D-09
 ErrMax= 2.96D-09  0.00D+00 EMaxC= 1.00D-01 BMatC= 5.46D-17 BMatP= 8.76D-15
 IDIUse=1 WtCom= 1.00D+00 WtEn= 0.00D+00
 Coeff-Com: -0.293D-05 0.587D-05-0.702D-05 0.146D-04 0.155D-03-0.759D-03
 Coeff-Com:  0.747D-02-0.195D+00 0.119D+01
 Coeff:     -0.293D-05 0.587D-05-0.702D-05 0.146D-04 0.155D-03-0.759D-03
 Coeff:      0.747D-02-0.195D+00 0.119D+01
 Gap=     0.311 Goal=   None    Shift=    0.000
 RMSDP=3.07D-09 MaxDP=2.16D-08 DE=-4.80D-14 OVMax= 2.05D-08

 SCF Done:  E(RHF) =  -7.97392209304     A.U. after    9 cycles
            NFock=  9  Conv=0.31D-08     -V/T= 1.9945
 KE= 8.018009062096D+00 PE=-2.046839865011D+01 EE= 3.481087450608D+00
 Leave Link  502 at Fri Mar 25 09:48:24 2022, MaxMem=  9663676416 cpu:               4.9 elap:               0.2
 (Enter /nopt/nrel/apps/gaussian/g16C_1/g16/l801.exe)
 Windowed orbitals will be sorted by symmetry type.
 ExpMin= 3.60D-02 ExpMax= 6.42D+02 ExpMxC= 9.68D+01 IAcc=3 IRadAn=         5 AccDes= 0.00D+00
 HarFok:  IExCor=  205 AccDes= 0.00D+00 IRadAn=         5 IDoV=-2 UseB2=F ITyADJ=14
 ICtDFT= 12500011 ScaDFX=  1.000000  1.000000  1.000000  1.000000
 Largest valence mixing into a core orbital is  3.12D-04
 Largest core mixing into a valence orbital is  1.00D-04
 Range of M.O.s used for correlation:     2    15
 NBasis=    15 NAE=     2 NBE=     2 NFC=     1 NFV=     0
 NROrb=     14 NOA=     1 NOB=     1 NVA=    13 NVB=    13
 Leave Link  801 at Fri Mar 25 09:48:25 2022, MaxMem=  9663676416 cpu:               3.3 elap:               0.1
 (Enter /nopt/nrel/apps/gaussian/g16C_1/g16/l804.exe)
 Closed-shell transformation, MDV=  9663676416 ITran=4 ISComp=2.
 Unit  1 TFree=          9019 TCopy=        117514.
 Semi-Direct transformation.
 ModeAB=           2 MOrb=             1 LenV=    9663500860
 LASXX=          322 LTotXX=         322 LenRXX=         322
 LTotAB=         441 MaxLAS=        1904 LenRXY=        1904
 NonZer=        2282 LenScr=      785920 LnRSAI=           0
 LnScr1=           0 LExtra=      220815 Total=      1008961
 MaxDsk= 34359738368 SrtSym=           F ITran=            4
 DoSDTr:  NPSUse= 36
 JobTyp=0 Pass  1:  I=   1 to   1.
 (rs|ai) integrals will be sorted in core.
 Complete sort for first half transformation.
 First half transformation complete.
 Complete sort for second half transformation.
 Second half transformation complete.
 Spin components of T(2) and E(2):
     alpha-alpha T2 =       0.0000000000D+00 E2=      0.0000000000D+00
     alpha-beta  T2 =       0.1071751897D-01 E2=     -0.1500742903D-01
     beta-beta   T2 =       0.0000000000D+00 E2=      0.0000000000D+00
 ANorm=    0.1005344478D+01
 E2 =    -0.1500742903D-01 EUMP2 =    -0.79889295220717D+01
 Leave Link  804 at Fri Mar 25 09:48:25 2022, MaxMem=  9663676416 cpu:               2.4 elap:               0.1
 (Enter /nopt/nrel/apps/gaussian/g16C_1/g16/l913.exe)
 CIDS:  MDV=  9663676416.
 Frozen-core window:  NFC=   1 NFV=   0.
 IFCWin=0 IBDFC=1 NFBD=     0     0 NFCmp=     0     0 NFFFC=     0     0
 Using DD3R+UMP44R for 1st iteration.
 Using DD4RQ for 2nd and later iterations.
 Keep R2 and R3 ints in memory in symmetry-blocked form, NReq=7401151.
 FoFCou: FMM=F IPFlag=           0 FMFlag=           0 FMFlg1=           0
         NFxFlg=           0 DoJE=F BraDBF=F KetDBF=F FulRan=T
         wScrn=  0.000000 ICntrl=       600 IOpCl=  0 I1Cent=           0 NGrid=           0
         NMat0=    1 NMatS0=    120 NMatT0=    0 NMatD0=    1 NMtDS0=    0 NMtDT0=    0
 Petite list used in FoFCou.
 CIDS: In Core Option IDoMem=           1.
 Coupled Cluster theory with single and double substitutions
 ===========================================================
 Iterations=  50 Convergence= 0.100D-06
 Produce multiple copies of IABC intergrals
 Iteration Nr.   1
 **********************
 DD1Dir will call FoFMem   1 times, MxPair=         2
 NAB=     1 NAA=     0 NBB=     0.
 MP4(R+Q)=  0.16084241D-03
 Maximum subspace dimension=  5
 A-vector RMS=  9.0268332D-03 Max=  1.2631228D-02 conv= 1.00D-05.
 RLE energy=       -0.0214685684
 E3=       -0.46810835D-02        EUMP3=      -0.79936106055D+01
 E4(DQ)=   -0.15203952D-02        UMP4(DQ)=   -0.79951310008D+01
 E4(SDQ)=  -0.16464859D-02        UMP4(SDQ)=  -0.79952570914D+01
 VARIATIONAL ENERGIES WITH THE FIRST-ORDER WAVEFUNCTION:
 DE(Corr)= -0.19524037E-01 E(Corr)=     -7.9934461305    
 NORM(A)=   0.10113811D+01
 Iteration Nr.   2
 **********************
 DD1Dir will call FoFMem   1 times, MxPair=         2
 NAB=     1 NAA=     0 NBB=     0.
 A-vector RMS=  4.9002997D-03 Max=  6.5899267D-03 conv= 1.00D-05.
 RLE energy=       -0.0222810836
 DE(Corr)= -0.21867003E-01 E(CORR)=     -7.9957890963     Delta=-2.34D-03
 NORM(A)=   0.10132246D+01
 Iteration Nr.   3
 **********************
 DD1Dir will call FoFMem   1 times, MxPair=         2
 NAB=     1 NAA=     0 NBB=     0.
 A-vector RMS=  3.0154879D-03 Max=  4.6375663D-03 conv= 1.00D-05.
 RLE energy=       -0.0225044259
 DE(Corr)= -0.22303983E-01 E(CORR)=     -7.9962260765     Delta=-4.37D-04
 NORM(A)=   0.10145056D+01
 Iteration Nr.   4
 **********************
 DD1Dir will call FoFMem   1 times, MxPair=         2
 NAB=     1 NAA=     0 NBB=     0.
 A-vector RMS=  1.0765576D-03 Max=  1.5428487D-03 conv= 1.00D-05.
 RLE energy=       -0.0225701740
 DE(Corr)= -0.22514688E-01 E(CORR)=     -7.9964367807     Delta=-2.11D-04
 NORM(A)=   0.10150673D+01
 Iteration Nr.   5
 **********************
 DD1Dir will call FoFMem   1 times, MxPair=         2
 NAB=     1 NAA=     0 NBB=     0.
 A-vector RMS=  3.0173728D-04 Max=  4.1375701D-04 conv= 1.00D-05.
 RLE energy=       -0.0225612101
 DE(Corr)= -0.22560949E-01 E(CORR)=     -7.9964830425     Delta=-4.63D-05
 NORM(A)=   0.10151500D+01
 Iteration Nr.   6
 **********************
 DD1Dir will call FoFMem   1 times, MxPair=         2
 NAB=     1 NAA=     0 NBB=     0.
 A-vector RMS=  6.4543685D-05 Max=  8.0267623D-05 conv= 1.00D-05.
 RLE energy=       -0.0225614359
 DE(Corr)= -0.22561449E-01 E(CORR)=     -7.9964835418     Delta=-4.99D-07
 NORM(A)=   0.10151564D+01
 Iteration Nr.   7
 **********************
 DD1Dir will call FoFMem   1 times, MxPair=         2
 NAB=     1 NAA=     0 NBB=     0.
 A-vector RMS=  1.9276416D-05 Max=  2.7707333D-05 conv= 1.00D-05.
 RLE energy=       -0.0225622595
 DE(Corr)= -0.22561870E-01 E(CORR)=     -7.9964839626     Delta=-4.21D-07
 NORM(A)=   0.10151573D+01
 Iteration Nr.   8
 **********************
 DD1Dir will call FoFMem   1 times, MxPair=         2
 NAB=     1 NAA=     0 NBB=     0.
 A-vector RMS=  4.3909867D-06 Max=  5.1709085D-06 conv= 1.00D-05.
 RLE energy=       -0.0225620261
 DE(Corr)= -0.22562113E-01 E(CORR)=     -7.9964842063     Delta=-2.44D-07
 NORM(A)=   0.10151567D+01
 Iteration Nr.   9
 **********************
 DD1Dir will call FoFMem   1 times, MxPair=         2
 NAB=     1 NAA=     0 NBB=     0.
 A-vector RMS=  6.3850633D-07 Max=  1.0631559D-06 conv= 1.00D-05.
 RLE energy=       -0.0225620496
 DE(Corr)= -0.22562047E-01 E(CORR)=     -7.9964841404     Delta= 6.59D-08
 NORM(A)=   0.10151567D+01
 CI/CC converged in    9 iterations to DelEn= 6.59D-08 Conv= 1.00D-07 ErrA1= 6.39D-07 Conv= 1.00D-05
 Wavefunction amplitudes converged. E(Corr)=     -7.9964841404    
 Largest amplitude= 6.06D-02
 Discarding MO integrals.
 Leave Link  913 at Fri Mar 25 09:48:25 2022, MaxMem=  9663676416 cpu:               6.1 elap:               0.2
 (Enter /nopt/nrel/apps/gaussian/g16C_1/g16/l601.exe)
 Copying SCF densities to generalized density rwf, IOpCl= 0 IROHF=0.

 **********************************************************************

            Population analysis using the SCF Density.

 **********************************************************************

 Orbital symmetries:
       Occupied  (SG) (SG)
       Virtual   (SG) (PI) (PI) (SG) (SG) (PI) (PI) (SG) (PI) (PI)
                 (DLTA) (DLTA) (SG)
 The electronic state is 1-SG.
 Alpha  occ. eigenvalues --   -2.44446  -0.29965
 Alpha virt. eigenvalues --    0.01174   0.06053   0.06053   0.15541   0.20654
 Alpha virt. eigenvalues --    0.22386   0.22386   0.41677   0.57351   0.57351
 Alpha virt. eigenvalues --    0.58278   0.58278   1.05774
          Condensed to atoms (all electrons):
               1          2
     1  H    0.500133   0.396080
     2  Li   0.396080   2.707706
 Mulliken charges:
               1
     1  H    0.103787
     2  Li  -0.103787
 Sum of Mulliken charges =   0.00000
 Mulliken charges with hydrogens summed into heavy atoms:
               1
     2  Li   0.000000
 N-N= 9.953800443664D-01 E-N=-2.046839864537D+01  KE= 8.018009062096D+00
 Symmetry A1   KE= 8.018009062096D+00
 Symmetry A2   KE=-5.597438341022D-52
 Symmetry B1   KE= 0.000000000000D+00
 Symmetry B2   KE= 0.000000000000D+00

 Atomic contributions to Alpha molecular orbitals:
 Alpha occ 1 OE=-2.444 is Li2-s=0.9995
 Alpha occ 2 OE=-0.300 is H1-s=0.4476 Li2-s=0.3138 Li2-p=0.2174
 Alpha vir 3 OE=0.012 is Li2-s=0.5057 Li2-p=0.4812
 Alpha vir 4 OE=0.061 is Li2-p=0.9994
 Alpha vir 5 OE=0.061 is Li2-p=0.9994
 Alpha vir 6 OE=0.155 is Li2-p=0.8020 Li2-s=0.1384
 Alpha vir 7 OE=0.207 is Li2-s=0.8497 Li2-p=0.1404
 Alpha vir 8 OE=0.224 is Li2-p=0.9958
 Alpha vir 9 OE=0.224 is Li2-p=0.9958
 Alpha vir 10 OE=0.417 is Li2-d=0.5138 Li2-p=0.2094 H1-s=0.1406 Li2-s=0.1362
 Alpha vir 11 OE=0.574 is Li2-d=0.9953
 Alpha vir 12 OE=0.574 is Li2-d=0.9953
 Alpha vir 13 OE=0.583 is Li2-d=1.0000
 Alpha vir 14 OE=0.583 is Li2-d=1.0000
 Alpha vir 15 OE=1.058 is Li2-d=0.4490 H1-s=0.3449 Li2-p=0.1495
 
 Leave Link  601 at Fri Mar 25 09:48:25 2022, MaxMem=  9663676416 cpu:               3.7 elap:               0.1
 (Enter /nopt/nrel/apps/gaussian/g16C_1/g16/l9999.exe)

 Test job not archived.
 1\1\GINC-R4I7N35\SP\RCCSD-FC\Gen\H1Li1\USER\25-Mar-2022\0\\#P CCSD
 /GEN sp pop=AllOrbitals iop(3/33=1,3/36=-1)\\test\\0,1\H,0,0.,0.,0.\Li
 ,0,0.,0.,1.5949\\Version=ES64L-G16RevC.01\State=1-SG\HF=-7.9739221\MP2
 =-7.9889295\MP3=-7.9936106\MP4D=-7.9952918\MP4DQ=-7.995131\MP4SDQ=-7.9
 952571\CCSD=-7.9964841\RMSD=3.070e-09\PG=C*V [C*(H1Li1)]\\@


 WERE I TO AWAIT PERFECTION, MY BOOK WOULD NEVER BE FINISHED.
                                    -- HISTORY OF CHINESE WRITING

                                       TAI T'UNG, 13TH CENTURY
 Job cpu time:       0 days  0 hours  0 minutes 40.5 seconds.
 Elapsed time:       0 days  0 hours  0 minutes  1.5 seconds.
 File lengths (MBytes):  RWF=     13 Int=      0 D2E=      0 Chk=      1 Scr=      1
 Normal termination of Gaussian 16 at Fri Mar 25 09:48:25 2022.
