 Entering Gaussian System, Link 0=g16
 Initial command:
 /nopt/nrel/apps/gaussian/g16C_1/g16/l1.exe "/lustre/eaglefs/scratch/user/qc/gaussian-final/lih-1-ccsd-augccd/Gau-168892.inp" -scrdir="/lustre/eaglefs/scratch/user/qc/gaussian-final/lih-1-ccsd-augccd/"
 Default is to use a total of  36 processors:
                               36 via shared-memory
                                1 via Linda
 Entering Link 1 = /nopt/nrel/apps/gaussian/g16C_1/g16/l1.exe PID=    168893.
  
 Copyright (c) 1988-2019, Gaussian, Inc.  All Rights Reserved.
  
 This is part of the Gaussian(R) 16 program.  It is based on
 the Gaussian(R) 09 system (copyright 2009, Gaussian, Inc.),
 the Gaussian(R) 03 system (copyright 2003, Gaussian, Inc.),
 the Gaussian(R) 98 system (copyright 1998, Gaussian, Inc.),
 the Gaussian(R) 94 system (copyright 1995, Gaussian, Inc.),
 the Gaussian 92(TM) system (copyright 1992, Gaussian, Inc.),
 the Gaussian 90(TM) system (copyright 1990, Gaussian, Inc.),
 the Gaussian 88(TM) system (copyright 1988, Gaussian, Inc.),
 the Gaussian 86(TM) system (copyright 1986, Carnegie Mellon
 University), and the Gaussian 82(TM) system (copyright 1983,
 Carnegie Mellon University). Gaussian is a federally registered
 trademark of Gaussian, Inc.
  
 This software contains proprietary and confidential information,
 including trade secrets, belonging to Gaussian, Inc.
  
 This software is provided under written license and may be
 used, copied, transmitted, or stored only in accord with that
 written license.
  
 The following legend is applicable only to US Government
 contracts under FAR:
  
                    RESTRICTED RIGHTS LEGEND
  
 Use, reproduction and disclosure by the US Government is
 subject to restrictions as set forth in subparagraphs (a)
 and (c) of the Commercial Computer Software - Restricted
 Rights clause in FAR 52.227-19.
  
 Gaussian, Inc.
 340 Quinnipiac St., Bldg. 40, Wallingford CT 06492
  
  
 ---------------------------------------------------------------
 Warning -- This program may not be used in any manner that
 competes with the business of Gaussian, Inc. or will provide
 assistance to any competitor of Gaussian, Inc.  The licensee
 of this program is prohibited from giving any competitor of
 Gaussian, Inc. access to this program.  By using this program,
 the user acknowledges that Gaussian, Inc. is engaged in the
 business of creating and licensing software in the field of
 computational chemistry and represents and warrants to the
 licensee that it is not a competitor of Gaussian, Inc. and that
 it will not use this program in any manner prohibited above.
 ---------------------------------------------------------------
  

 Cite this work as:
 Gaussian 16, Revision C.01,
 M. J. Frisch, G. W. Trucks, H. B. Schlegel, G. E. Scuseria, 
 M. A. Robb, J. R. Cheeseman, G. Scalmani, V. Barone, 
 G. A. Petersson, H. Nakatsuji, X. Li, M. Caricato, A. V. Marenich, 
 J. Bloino, B. G. Janesko, R. Gomperts, B. Mennucci, H. P. Hratchian, 
 J. V. Ortiz, A. F. Izmaylov, J. L. Sonnenberg, D. Williams-Young, 
 F. Ding, F. Lipparini, F. Egidi, J. Goings, B. Peng, A. Petrone, 
 T. Henderson, D. Ranasinghe, V. G. Zakrzewski, J. Gao, N. Rega, 
 G. Zheng, W. Liang, M. Hada, M. Ehara, K. Toyota, R. Fukuda, 
 J. Hasegawa, M. Ishida, T. Nakajima, Y. Honda, O. Kitao, H. Nakai, 
 T. Vreven, K. Throssell, J. A. Montgomery, Jr., J. E. Peralta, 
 F. Ogliaro, M. J. Bearpark, J. J. Heyd, E. N. Brothers, K. N. Kudin, 
 V. N. Staroverov, T. A. Keith, R. Kobayashi, J. Normand, 
 K. Raghavachari, A. P. Rendell, J. C. Burant, S. S. Iyengar, 
 J. Tomasi, M. Cossi, J. M. Millam, M. Klene, C. Adamo, R. Cammi, 
 J. W. Ochterski, R. L. Martin, K. Morokuma, O. Farkas, 
 J. B. Foresman, and D. J. Fox, Gaussian, Inc., Wallingford CT, 2019.
 
 ******************************************
 Gaussian 16:  ES64L-G16RevC.01  3-Jul-2019
                24-Mar-2022 
 ******************************************
 %chk=molecule
 Default route: CacheSize=180224 MaxDisk=256GB
 --------------------------------------------------
 #P CCSD/GEN sp pop=AllOrbitals iop(3/33=1,3/36=-1)
 --------------------------------------------------
 1/4=180224,38=1,172=1/1;
 2/4=180224,12=2,17=6,18=5,40=1/2;
 3/4=180224,5=7,11=9,25=1,30=1,33=1,36=-1/1,2,3;
 4/4=180224/1;
 5/4=180224,5=2,38=5/2;
 8/4=180224,6=4,9=120000,10=1/1,4;
 9/4=180224,5=7/13;
 6/4=180224,7=2,8=2,9=2,10=2,96=-1/1;
 99/4=180224,5=1,9=1/99;
 Leave Link    1 at Thu Mar 24 15:57:48 2022, MaxMem=           0 cpu:               1.9 elap:               0.1
 (Enter /nopt/nrel/apps/gaussian/g16C_1/g16/l101.exe)
 ----
 test
 ----
 Symbolic Z-matrix:
 Charge =  0 Multiplicity = 1
 H                     0.        0.        0. 
 Li                    0.        0.        1.5949 
 
 ITRead=  0  0
 MicOpt= -1 -1
 NAtoms=      2 NQM=        2 NQMF=       0 NMMI=      0 NMMIF=      0
                NMic=       0 NMicF=      0.
                    Isotopes and Nuclear Properties:
 (Nuclear quadrupole moments (NQMom) in fm**2, nuclear magnetic moments (NMagM)
  in nuclear magnetons)

  Atom         1           2
 IAtWgt=           1           7
 AtmWgt=   1.0078250   7.0160045
 NucSpn=           1           3
 AtZEff=  -0.0000000  -0.0000000
 NQMom=    0.0000000  -4.0100000
 NMagM=    2.7928460   3.2564240
 AtZNuc=   1.0000000   3.0000000
 Leave Link  101 at Thu Mar 24 15:57:48 2022, MaxMem=  9663676416 cpu:               5.6 elap:               0.2
 (Enter /nopt/nrel/apps/gaussian/g16C_1/g16/l202.exe)
                          Input orientation:                          
 ---------------------------------------------------------------------
 Center     Atomic      Atomic             Coordinates (Angstroms)
 Number     Number       Type             X           Y           Z
 ---------------------------------------------------------------------
      1          1           0        0.000000    0.000000    0.000000
      2          3           0        0.000000    0.000000    1.594900
 ---------------------------------------------------------------------
 Stoichiometry    HLi
 Framework group  C*V[C*(HLi)]
 Deg. of freedom     1
 Full point group                 C*V     NOp   4
 Largest Abelian subgroup         C2V     NOp   4
 Largest concise Abelian subgroup C1      NOp   1
                         Standard orientation:                         
 ---------------------------------------------------------------------
 Center     Atomic      Atomic             Coordinates (Angstroms)
 Number     Number       Type             X           Y           Z
 ---------------------------------------------------------------------
      1          1           0        0.000000    0.000000   -1.196175
      2          3           0        0.000000    0.000000    0.398725
 ---------------------------------------------------------------------
 Rotational constants (GHZ):           0.0000000         225.4534966         225.4534966
 Leave Link  202 at Thu Mar 24 15:57:49 2022, MaxMem=  9663676416 cpu:               0.9 elap:               0.1
 (Enter /nopt/nrel/apps/gaussian/g16C_1/g16/l301.exe)
 General basis read from cards:  (5D, 7F)
                         Coordinates in L301:                         
 ---------------------------------------------------------------------
 Center     Atomic      Atomic             Coordinates (Angstroms)
 Number     Number       Type             X           Y           Z
 ---------------------------------------------------------------------
      1          1           0        0.000000    0.000000   -1.196175
      2          3           0        0.000000    0.000000    0.398725
 ---------------------------------------------------------------------
 Centers:       1
 STO-3G
 ****
 Centers:       2
 aug-cc-pVDZ
 ****
 FixB: optimizing general contractions.
 Ernie: Thresh=  0.10000D-02 Tol=  0.10000D-05 Strict=F.
 IA=     1 ShT= 0 ShC= 0 NL=   1 NS=   0.
 IA=     1 L=0 SC=0 ISt=    0 NBk=    0 NP=    0 IndPr=    0.
 IA=     2 ShT= 0 ShC= 0 NL=   4 NS=   2.
 IA=     2 L=0 SC=0 ISt=    1 NBk=    2 NP=    8 IndPr=    0.
 DoElim1:  L=0 select primitive    2 from    2 using    1 C= 5.89D-03
 DoElim2:  L=0 select primitive    8 from    1 using    2 C= 5.77D-01
 Delete L=0 primitive    2 from    2 C=  2.10D-22.
 Delete L=0 primitive    1 from    2 C=  3.73D-09.
 Delete L=0 primitive    8 from    1 C=  8.70D-19.
 IA=     2 L=0 SC=0 ISt=    0 NBk=    0 NP=    0 IndPr=   13.
 IA=     2 ShT= 1 ShC= 1 NL=   3 NS=   2.
 IA=     2 L=1 SC=1 ISt=    0 NBk=    0 NP=    0 IndPr=    0.
 IA=     2 ShT= 2 ShC= 2 NL=   2 NS=   2.
 IA=     2 L=2 SC=2 ISt=    0 NBk=    0 NP=    0 IndPr=    0.
 Ernie:  3 primitive shells out of 28 were deleted.
 LdAtmC:  AtmChg=     1.000000     3.000000
 AtZEff=     -1.0000000     -1.3500000
 NEqShl: 
              1            2            3            4
     1            1            1            1            1
     2            2            2            2            2
     3            3            3            3            3
     4            4            4            4            4
     5            5            5            5            5
     6            6            6            6            6
     7            7            7            7            7
     8            8            8            8            8
     9            9            9            9            9
    10           10           10           10           10
 NEqBas: 
              1            2            3            4
     1            1            1            1            1
     2            2            2            2            2
     3            3            3            3            3
     4            4            4            4            4
     5            5            5            5            5
     6            6           -6           -6            6
     7            7           -7            7           -7
     8            8            8            8            8
     9            9           -9           -9            9
    10           10          -10           10          -10
    11           11           11           11           11
    12           12          -12          -12           12
    13           13          -13           13          -13
    14           14           14           14           14
    15           15           15           15           15
    16           16           16           16           16
    17           17           17           17           17
    18           18           18          -18          -18
    19           19          -19          -19           19
    20           20          -20           20          -20
    21           21           21           21           21
    22           22           22           22           22
    23           23           23           23           23
    24           24           24          -24          -24
    25           25          -25          -25           25
    26           26          -26           26          -26
 There are    14 symmetry adapted cartesian basis functions of A1  symmetry.
   1         1   1   1   1
   2         2   2   2   2
   3         3   3   3   3
   4         4   4   4   4
   5         5   5   5   5
   6         8   8   8   8
   7        11  11  11  11
   8        14  14  14  14
   9        15  15  15  15
  10        16  16  16  16
  11        17  17  17  17
  12        21  21  21  21
  13        22  22  22  22
  14        23  23  23  23
 There are     2 symmetry adapted cartesian basis functions of A2  symmetry.
  15        18  18  18  18
  16        24  24  24  24
 There are     5 symmetry adapted cartesian basis functions of B1  symmetry.
  17         6   6   6   6
  18         9   9   9   9
  19        12  12  12  12
  20        19  19  19  19
  21        25  25  25  25
 There are     5 symmetry adapted cartesian basis functions of B2  symmetry.
  22         7   7   7   7
  23        10  10  10  10
  24        13  13  13  13
  25        20  20  20  20
  26        26  26  26  26
 Order= 1 2 4 3
 Reordered character table:
              1            2            3            4            5
     1            1            1            1            1            1
     2            2            1            1           -1           -1
     3            4            1           -1           -1            1
     4            3            1           -1            1           -1
 NEqShl: 
              1            2            3            4
     1            1            1            1            1
     2            2            2            2            2
     3            3            3            3            3
     4            4            4            4            4
     5            5            5            5            5
     6            6            6            6            6
     7            7            7            7            7
     8            8            8            8            8
     9            9            9            9            9
    10           10           10           10           10
 NEqBas: 
              1            2            3            4
     1            1            1            1            1
     2            2            2            2            2
     3            3            3            3            3
     4            4            4            4            4
     5            5            5            5            5
     6            6           -6           -6            6
     7            7           -7            7           -7
     8            8            8            8            8
     9            9           -9           -9            9
    10           10          -10           10          -10
    11           11           11           11           11
    12           12          -12          -12           12
    13           13          -13           13          -13
    14           14           14           14           14
    15           15           15           15           15
    16           16          -16          -16           16
    17           17          -17           17          -17
    18           18           18           18           18
    19           19           19          -19          -19
    20           20           20           20           20
    21           21          -21          -21           21
    22           22          -22           22          -22
    23           23           23           23           23
    24           24           24          -24          -24
 There are    12 symmetry adapted basis functions of A1  symmetry.
   1         1   1   1   1
   2         2   2   2   2
   3         3   3   3   3
   4         4   4   4   4
   5         5   5   5   5
   6         8   8   8   8
   7        11  11  11  11
   8        14  14  14  14
   9        15  15  15  15
  10        18  18  18  18
  11        20  20  20  20
  12        23  23  23  23
 There are     2 symmetry adapted basis functions of A2  symmetry.
  13        19  19  19  19
  14        24  24  24  24
 There are     5 symmetry adapted basis functions of B1  symmetry.
  15         6   6   6   6
  16         9   9   9   9
  17        12  12  12  12
  18        16  16  16  16
  19        21  21  21  21
 There are     5 symmetry adapted basis functions of B2  symmetry.
  20         7   7   7   7
  21        10  10  10  10
  22        13  13  13  13
  23        17  17  17  17
  24        22  22  22  22
 Order= 1 2 4 3
 Reordered character table:
              1            2            3            4            5
     1            1            1            1            1            1
     2            2            1            1           -1           -1
     3            4            1           -1           -1            1
     4            3            1           -1            1           -1
    24 basis functions,    45 primitive gaussians,    26 cartesian basis functions
     2 alpha electrons        2 beta electrons
       nuclear repulsion energy         0.9953800444 Hartrees.
 IS=     1 IAt=     1 ISR=     1 T=0 IP=      1 IndIP=      1 IndIPD=      0 C=  2.769344D-01  0.000000D+00                             NZ=T
 IS=     1 IAt=     1 ISR=     1 T=0 IP=      2 IndIP=      2 IndIPD=      1 C=  2.678389D-01  0.000000D+00                             NZ=T
 IS=     1 IAt=     1 ISR=     1 T=0 IP=      3 IndIP=      3 IndIPD=      2 C=  8.347367D-02  0.000000D+00                             NZ=T
 IS=     2 IAt=     2 ISR=     1 T=0 IP=      1 IndIP=      4 IndIPD=      0 C=  1.296301D-01  0.000000D+00                             NZ=T
 IS=     2 IAt=     2 ISR=     1 T=0 IP=      2 IndIP=      5 IndIPD=      1 C=  2.404528D-01  0.000000D+00                             NZ=T
 IS=     2 IAt=     2 ISR=     1 T=0 IP=      3 IndIP=      6 IndIPD=      2 C=  3.994569D-01  0.000000D+00                             NZ=T
 IS=     2 IAt=     2 ISR=     1 T=0 IP=      4 IndIP=      7 IndIPD=      3 C=  5.708542D-01  0.000000D+00                             NZ=T
 IS=     2 IAt=     2 ISR=     1 T=0 IP=      5 IndIP=      8 IndIPD=      4 C=  6.317030D-01  0.000000D+00                             NZ=T
 IS=     2 IAt=     2 ISR=     1 T=0 IP=      6 IndIP=      9 IndIPD=      5 C=  4.558532D-01  0.000000D+00                             NZ=T
 IS=     2 IAt=     2 ISR=     1 T=0 IP=      7 IndIP=     10 IndIPD=      6 C=  1.282724D-01  0.000000D+00                             NZ=T
 IS=     3 IAt=     2 ISR=     2 T=0 IP=      1 IndIP=     11 IndIPD=      0 C= -1.035279D-03  0.000000D+00                             NZ=T
 IS=     3 IAt=     2 ISR=     2 T=0 IP=      2 IndIP=     12 IndIPD=      1 C= -5.681325D-03  0.000000D+00                             NZ=T
 IS=     3 IAt=     2 ISR=     2 T=0 IP=      3 IndIP=     13 IndIPD=      2 C= -1.930258D-02  0.000000D+00                             NZ=T
 IS=     3 IAt=     2 ISR=     2 T=0 IP=      4 IndIP=     14 IndIPD=      3 C= -4.723991D-02  0.000000D+00                             NZ=T
 IS=     3 IAt=     2 ISR=     2 T=0 IP=      5 IndIP=     15 IndIPD=      4 C= -8.136441D-02  0.000000D+00                             NZ=T
 IS=     3 IAt=     2 ISR=     2 T=0 IP=      6 IndIP=     16 IndIPD=      5 C=  1.089727D-01  0.000000D+00                             NZ=T
 IS=     4 IAt=     2 ISR=     3 T=0 IP=      1 IndIP=     17 IndIPD=      0 C=  4.884946D-02  0.000000D+00                             NZ=T
 IS=     5 IAt=     2 ISR=     4 T=0 IP=      1 IndIP=     18 IndIPD=      0 C=  2.018782D-02  0.000000D+00                             NZ=T
 IS=     6 IAt=     2 ISR=     5 T=1 IP=      1 IndIP=     19 IndIPD=      0 C=  0.000000D+00  9.248065D-02                             NZ=T
 IS=     6 IAt=     2 ISR=     5 T=1 IP=      2 IndIP=     20 IndIPD=      1 C=  0.000000D+00  6.583497D-02                             NZ=T
 IS=     6 IAt=     2 ISR=     5 T=1 IP=      3 IndIP=     21 IndIPD=      2 C=  0.000000D+00  4.562255D-02                             NZ=T
 IS=     7 IAt=     2 ISR=     6 T=1 IP=      1 IndIP=     22 IndIPD=      0 C=  0.000000D+00  1.348597D-02                             NZ=T
 IS=     8 IAt=     2 ISR=     7 T=1 IP=      1 IndIP=     23 IndIPD=      0 C=  0.000000D+00  2.196954D-03                             NZ=T
 IS=     9 IAt=     2 ISR=     8 T=2 IP=      1 IndIP=     24 IndIPD=      1 C=  0.000000D+00  0.000000D+00  4.258771D-02  0.000000D+00 NZ=T
 IS=    10 IAt=     2 ISR=     9 T=2 IP=      1 IndIP=     25 IndIPD=      2 C=  0.000000D+00  0.000000D+00  1.661678D-02  0.000000D+00 NZ=T
 IExCor=    0 DFT=F Ex=HF Corr=None ExCW=0 ScaHFX=  1.000000
 ScaDFX=  1.000000  1.000000  1.000000  1.000000 ScalE2=  1.000000  1.000000
 IRadAn=      5 IRanWt=     -1 IRanGd=            0 ICorTp=0 IEmpDi=  4
 NAtoms=    2 NActive=    2 NUniq=    2 SFac= 1.00D+00 NAtFMM=   60 NAOKFM=F Big=F
 Integral buffers will be    131072 words long.
 Raffenetti 1 integral format.
 Two-electron integral symmetry is turned on.
 Leave Link  301 at Thu Mar 24 15:57:49 2022, MaxMem=  9663676416 cpu:               2.1 elap:               0.1
 (Enter /nopt/nrel/apps/gaussian/g16C_1/g16/l302.exe)
 NPDir=0 NMtPBC=     1 NCelOv=     1 NCel=       1 NClECP=     1 NCelD=      1
         NCelK=      1 NCelE2=     1 NClLst=     1 CellRange=     0.0.
 One-electron integrals computed using PRISM.
 One-electron integral symmetry used in STVInt
 Entering OneElI...
 Calculate overlap and kinetic energy integrals
    NBasis =  24  MinDer = 0  MaxDer = 0
 Requested accuracy = 0.1000D-12
 Symmetry will be used
 PrmmSu-InSpLW:  IPartL=    0 NPrtUS=   36 NPrtUL=    1 DoSpLW=F IThBeg=    0 IThEnd=   35 NThAct=   36.
 PrSmSu:  IncTry=   512 NBBP=             55 NTPThr=   100 NPartT=   36 Incr=           1 LDynOK=F GPUOK=F.
 PrsmSu:  NPrtUS=  36 ThrOK=T IAlg=1 LenDen=           0 ISkipM=0 DoSpLW=F IThBeg=    0 IThEnd=   35.
 Prism:   IPart=     0 DynPar=F LinDyn=F Incr=           1.
 PRISM was handed   268431025 working-precision words and    55 shell-pairs
 PRISM was handed   268431025 working-precision words and    55 shell-pairs
 PRISM was handed   268431025 working-precision words and    55 shell-pairs
 PRISM was handed   268431025 working-precision words and    55 shell-pairs
 PRISM was handed   268431025 working-precision words and    55 shell-pairs
 PRISM was handed   268431025 working-precision words and    55 shell-pairs
 PRISM was handed   268431025 working-precision words and    55 shell-pairs
 PRISM was handed   268431025 working-precision words and    55 shell-pairs
 PRISM was handed   268431025 working-precision words and    55 shell-pairs
 PRISM was handed   268431025 working-precision words and    55 shell-pairs
 IPart= 11 NShTot=           0 NBatch=           0 AvBLen=         0.0
 IPart=  4 NShTot=           0 NBatch=           0 AvBLen=         0.0
 IPart=  7 NShTot=           0 NBatch=           0 AvBLen=         0.0
 IPart= 12 NShTot=           0 NBatch=           0 AvBLen=         0.0
 IPart=  8 NShTot=           0 NBatch=           0 AvBLen=         0.0
 IPart= 16 NShTot=           0 NBatch=           0 AvBLen=         0.0
 IPart= 26 NShTot=           0 NBatch=           0 AvBLen=         0.0
 PRISM was handed   268431025 working-precision words and    55 shell-pairs
 PRISM was handed   268431025 working-precision words and    55 shell-pairs
 IPart= 10 NShTot=           0 NBatch=           0 AvBLen=         0.0
 IPart=  2 NShTot=           7 NBatch=           7 AvBLen=         1.0
 IPart=  3 NShTot=           4 NBatch=           4 AvBLen=         1.0
 PRISM was handed   268431025 working-precision words and    55 shell-pairs
 PRISM was handed   268431025 working-precision words and    55 shell-pairs
 IPart= 32 NShTot=           0 NBatch=           0 AvBLen=         0.0
 IPart=  0 NShTot=          27 NBatch=          27 AvBLen=         1.0
 PRISM was handed   268431025 working-precision words and    55 shell-pairs
 IPart=  9 NShTot=           0 NBatch=           0 AvBLen=         0.0
 IPart=  1 NShTot=          17 NBatch=          17 AvBLen=         1.0
 PRISM was handed   268431025 working-precision words and    55 shell-pairs
 PRISM was handed   268431025 working-precision words and    55 shell-pairs
 PRISM was handed   268431025 working-precision words and    55 shell-pairs
 IPart= 15 NShTot=           0 NBatch=           0 AvBLen=         0.0
 PRISM was handed   268431025 working-precision words and    55 shell-pairs
 PRISM was handed   268431025 working-precision words and    55 shell-pairs
 PRISM was handed   268431025 working-precision words and    55 shell-pairs
 IPart=  5 NShTot=           0 NBatch=           0 AvBLen=         0.0
 IPart= 21 NShTot=           0 NBatch=           0 AvBLen=         0.0
 IPart= 30 NShTot=           0 NBatch=           0 AvBLen=         0.0
 IPart= 19 NShTot=           0 NBatch=           0 AvBLen=         0.0
 IPart= 22 NShTot=           0 NBatch=           0 AvBLen=         0.0
 PRISM was handed   268431025 working-precision words and    55 shell-pairs
 PRISM was handed   268431025 working-precision words and    55 shell-pairs
 IPart= 27 NShTot=           0 NBatch=           0 AvBLen=         0.0
 PRISM was handed   268431025 working-precision words and    55 shell-pairs
 PRISM was handed   268431025 working-precision words and    55 shell-pairs
 PRISM was handed   268431025 working-precision words and    55 shell-pairs
 PRISM was handed   268431025 working-precision words and    55 shell-pairs
 PRISM was handed   268431025 working-precision words and    55 shell-pairs
 IPart= 18 NShTot=           0 NBatch=           0 AvBLen=         0.0
 PRISM was handed   268431025 working-precision words and    55 shell-pairs
 PRISM was handed   268431025 working-precision words and    55 shell-pairs
 PRISM was handed   268431025 working-precision words and    55 shell-pairs
 IPart= 23 NShTot=           0 NBatch=           0 AvBLen=         0.0
 IPart= 20 NShTot=           0 NBatch=           0 AvBLen=         0.0
 IPart=  6 NShTot=           0 NBatch=           0 AvBLen=         0.0
 IPart= 25 NShTot=           0 NBatch=           0 AvBLen=         0.0
 PRISM was handed   268431025 working-precision words and    55 shell-pairs
 PRISM was handed   268431025 working-precision words and    55 shell-pairs
 PRISM was handed   268431025 working-precision words and    55 shell-pairs
 IPart= 14 NShTot=           0 NBatch=           0 AvBLen=         0.0
 PRISM was handed   268431025 working-precision words and    55 shell-pairs
 IPart= 33 NShTot=           0 NBatch=           0 AvBLen=         0.0
 IPart= 28 NShTot=           0 NBatch=           0 AvBLen=         0.0
 IPart= 17 NShTot=           0 NBatch=           0 AvBLen=         0.0
 IPart= 24 NShTot=           0 NBatch=           0 AvBLen=         0.0
 IPart= 34 NShTot=           0 NBatch=           0 AvBLen=         0.0
 IPart= 35 NShTot=           0 NBatch=           0 AvBLen=         0.0
 IPart= 31 NShTot=           0 NBatch=           0 AvBLen=         0.0
 IPart= 29 NShTot=           0 NBatch=           0 AvBLen=         0.0
 PRISM was handed   268431025 working-precision words and    55 shell-pairs
 IPart= 13 NShTot=           0 NBatch=           0 AvBLen=         0.0
 PrSmSu:  NxtVal=             37.
 *** Overlap *** 
                1             2             3             4             5 
      1  0.100000D+01
      2  0.742688D-01  0.100000D+01
      3  0.405719D+00  0.130369D+00  0.100000D+01
      4  0.326425D+00  0.157971D+00  0.861205D+00  0.100000D+01
      5  0.176382D+00  0.674176D-01  0.496890D+00  0.781537D+00  0.100000D+01
      6  0.000000D+00  0.000000D+00  0.000000D+00  0.000000D+00  0.000000D+00
      7  0.000000D+00  0.000000D+00  0.000000D+00  0.000000D+00  0.000000D+00
      8 -0.518149D+00  0.000000D+00  0.000000D+00  0.000000D+00  0.000000D+00
      9  0.000000D+00  0.000000D+00  0.000000D+00  0.000000D+00  0.000000D+00
     10  0.000000D+00  0.000000D+00  0.000000D+00  0.000000D+00  0.000000D+00
     11 -0.259798D+00  0.000000D+00  0.000000D+00  0.000000D+00  0.000000D+00
     12  0.000000D+00  0.000000D+00  0.000000D+00  0.000000D+00  0.000000D+00
     13  0.000000D+00  0.000000D+00  0.000000D+00  0.000000D+00  0.000000D+00
     14 -0.590436D-01  0.000000D+00  0.000000D+00  0.000000D+00  0.000000D+00
     15  0.468200D+00  0.000000D+00  0.000000D+00  0.000000D+00  0.000000D+00
     16  0.000000D+00  0.000000D+00  0.000000D+00  0.000000D+00  0.000000D+00
     17  0.000000D+00  0.000000D+00  0.000000D+00  0.000000D+00  0.000000D+00
     18  0.000000D+00  0.000000D+00  0.000000D+00  0.000000D+00  0.000000D+00
     19  0.000000D+00  0.000000D+00  0.000000D+00  0.000000D+00  0.000000D+00
     20  0.373734D+00  0.000000D+00  0.000000D+00  0.000000D+00  0.000000D+00
     21  0.000000D+00  0.000000D+00  0.000000D+00  0.000000D+00  0.000000D+00
     22  0.000000D+00  0.000000D+00  0.000000D+00  0.000000D+00  0.000000D+00
     23  0.000000D+00  0.000000D+00  0.000000D+00  0.000000D+00  0.000000D+00
     24  0.000000D+00  0.000000D+00  0.000000D+00  0.000000D+00  0.000000D+00
                6             7             8             9            10 
      6  0.100000D+01
      7  0.000000D+00  0.100000D+01
      8  0.000000D+00  0.000000D+00  0.100000D+01
      9  0.626620D+00  0.000000D+00  0.000000D+00  0.100000D+01
     10  0.000000D+00  0.626620D+00  0.000000D+00  0.000000D+00  0.100000D+01
     11  0.000000D+00  0.000000D+00  0.626620D+00  0.000000D+00  0.000000D+00
     12  0.167700D+00  0.000000D+00  0.000000D+00  0.544586D+00  0.000000D+00
     13  0.000000D+00  0.167700D+00  0.000000D+00  0.000000D+00  0.544586D+00
     14  0.000000D+00  0.000000D+00  0.167700D+00  0.000000D+00  0.000000D+00
     15  0.000000D+00  0.000000D+00  0.000000D+00  0.000000D+00  0.000000D+00
     16  0.000000D+00  0.000000D+00  0.000000D+00  0.000000D+00  0.000000D+00
     17  0.000000D+00  0.000000D+00  0.000000D+00  0.000000D+00  0.000000D+00
     18  0.000000D+00  0.000000D+00  0.000000D+00  0.000000D+00  0.000000D+00
     19  0.000000D+00  0.000000D+00  0.000000D+00  0.000000D+00  0.000000D+00
     20  0.000000D+00  0.000000D+00  0.000000D+00  0.000000D+00  0.000000D+00
     21  0.000000D+00  0.000000D+00  0.000000D+00  0.000000D+00  0.000000D+00
     22  0.000000D+00  0.000000D+00  0.000000D+00  0.000000D+00  0.000000D+00
     23  0.000000D+00  0.000000D+00  0.000000D+00  0.000000D+00  0.000000D+00
     24  0.000000D+00  0.000000D+00  0.000000D+00  0.000000D+00  0.000000D+00
               11            12            13            14            15 
     11  0.100000D+01
     12  0.000000D+00  0.100000D+01
     13  0.000000D+00  0.000000D+00  0.100000D+01
     14  0.544586D+00  0.000000D+00  0.000000D+00  0.100000D+01
     15  0.000000D+00  0.000000D+00  0.000000D+00  0.000000D+00  0.100000D+01
     16  0.000000D+00  0.000000D+00  0.000000D+00  0.000000D+00  0.000000D+00
     17  0.000000D+00  0.000000D+00  0.000000D+00  0.000000D+00  0.000000D+00
     18  0.000000D+00  0.000000D+00  0.000000D+00  0.000000D+00  0.000000D+00
     19  0.000000D+00  0.000000D+00  0.000000D+00  0.000000D+00  0.000000D+00
     20  0.000000D+00  0.000000D+00  0.000000D+00  0.000000D+00  0.882460D+00
     21  0.000000D+00  0.000000D+00  0.000000D+00  0.000000D+00  0.000000D+00
     22  0.000000D+00  0.000000D+00  0.000000D+00  0.000000D+00  0.000000D+00
     23  0.000000D+00  0.000000D+00  0.000000D+00  0.000000D+00  0.000000D+00
     24  0.000000D+00  0.000000D+00  0.000000D+00  0.000000D+00  0.000000D+00
               16            17            18            19            20 
     16  0.100000D+01
     17  0.000000D+00  0.100000D+01
     18  0.000000D+00  0.000000D+00  0.100000D+01
     19  0.000000D+00  0.000000D+00  0.000000D+00  0.100000D+01
     20  0.000000D+00  0.000000D+00  0.000000D+00  0.000000D+00  0.100000D+01
     21  0.882460D+00  0.000000D+00  0.000000D+00  0.000000D+00  0.000000D+00
     22  0.000000D+00  0.882460D+00  0.000000D+00  0.000000D+00  0.000000D+00
     23  0.000000D+00  0.000000D+00  0.882460D+00  0.000000D+00  0.000000D+00
     24  0.000000D+00  0.000000D+00  0.000000D+00  0.882460D+00  0.000000D+00
               21            22            23            24 
     21  0.100000D+01
     22  0.000000D+00  0.100000D+01
     23  0.000000D+00  0.000000D+00  0.100000D+01
     24  0.000000D+00  0.000000D+00  0.000000D+00  0.100000D+01
 *** Kinetic Energy *** 
                1             2             3             4             5 
      1  0.760032D+00
      2 -0.153327D-01  0.362154D+01
      3  0.524554D-01 -0.261904D+00  0.139297D+00
      4  0.208228D-01  0.128893D-01  0.513567D-01  0.420750D-01
      5  0.418041D-02  0.172939D-02  0.114606D-01  0.154796D-01  0.129518D-01
      6  0.000000D+00  0.000000D+00  0.000000D+00  0.000000D+00  0.000000D+00
      7  0.000000D+00  0.000000D+00  0.000000D+00  0.000000D+00  0.000000D+00
      8 -0.123826D+00  0.000000D+00  0.000000D+00  0.000000D+00  0.000000D+00
      9  0.000000D+00  0.000000D+00  0.000000D+00  0.000000D+00  0.000000D+00
     10  0.000000D+00  0.000000D+00  0.000000D+00  0.000000D+00  0.000000D+00
     11 -0.261303D-01  0.000000D+00  0.000000D+00  0.000000D+00  0.000000D+00
     12  0.000000D+00  0.000000D+00  0.000000D+00  0.000000D+00  0.000000D+00
     13  0.000000D+00  0.000000D+00  0.000000D+00  0.000000D+00  0.000000D+00
     14 -0.158889D-02  0.000000D+00  0.000000D+00  0.000000D+00  0.000000D+00
     15  0.225164D+00  0.000000D+00  0.000000D+00  0.000000D+00  0.000000D+00
     16  0.000000D+00  0.000000D+00  0.000000D+00  0.000000D+00  0.000000D+00
     17  0.000000D+00  0.000000D+00  0.000000D+00  0.000000D+00  0.000000D+00
     18  0.000000D+00  0.000000D+00  0.000000D+00  0.000000D+00  0.000000D+00
     19  0.000000D+00  0.000000D+00  0.000000D+00  0.000000D+00  0.000000D+00
     20  0.128838D+00  0.000000D+00  0.000000D+00  0.000000D+00  0.000000D+00
     21  0.000000D+00  0.000000D+00  0.000000D+00  0.000000D+00  0.000000D+00
     22  0.000000D+00  0.000000D+00  0.000000D+00  0.000000D+00  0.000000D+00
     23  0.000000D+00  0.000000D+00  0.000000D+00  0.000000D+00  0.000000D+00
     24  0.000000D+00  0.000000D+00  0.000000D+00  0.000000D+00  0.000000D+00
                6             7             8             9            10 
      6  0.249967D+00
      7  0.000000D+00  0.249967D+00
      8  0.000000D+00  0.000000D+00  0.249967D+00
      9  0.578002D-01  0.000000D+00  0.000000D+00  0.600750D-01
     10  0.000000D+00  0.578002D-01  0.000000D+00  0.000000D+00  0.600750D-01
     11  0.000000D+00  0.000000D+00  0.578002D-01  0.000000D+00  0.000000D+00
     12  0.439768D-02  0.000000D+00  0.000000D+00  0.124155D-01  0.000000D+00
     13  0.000000D+00  0.439768D-02  0.000000D+00  0.000000D+00  0.124155D-01
     14  0.000000D+00  0.000000D+00  0.439768D-02  0.000000D+00  0.000000D+00
     15  0.000000D+00  0.000000D+00  0.000000D+00  0.000000D+00  0.000000D+00
     16  0.000000D+00  0.000000D+00  0.000000D+00  0.000000D+00  0.000000D+00
     17  0.000000D+00  0.000000D+00  0.000000D+00  0.000000D+00  0.000000D+00
     18  0.000000D+00  0.000000D+00  0.000000D+00  0.000000D+00  0.000000D+00
     19  0.000000D+00  0.000000D+00  0.000000D+00  0.000000D+00  0.000000D+00
     20  0.000000D+00  0.000000D+00  0.000000D+00  0.000000D+00  0.000000D+00
     21  0.000000D+00  0.000000D+00  0.000000D+00  0.000000D+00  0.000000D+00
     22  0.000000D+00  0.000000D+00  0.000000D+00  0.000000D+00  0.000000D+00
     23  0.000000D+00  0.000000D+00  0.000000D+00  0.000000D+00  0.000000D+00
     24  0.000000D+00  0.000000D+00  0.000000D+00  0.000000D+00  0.000000D+00
               11            12            13            14            15 
     11  0.600750D-01
     12  0.000000D+00  0.140684D-01
     13  0.000000D+00  0.000000D+00  0.140684D-01
     14  0.124155D-01  0.000000D+00  0.000000D+00  0.140684D-01
     15  0.000000D+00  0.000000D+00  0.000000D+00  0.000000D+00  0.433650D+00
     16  0.000000D+00  0.000000D+00  0.000000D+00  0.000000D+00  0.000000D+00
     17  0.000000D+00  0.000000D+00  0.000000D+00  0.000000D+00  0.000000D+00
     18  0.000000D+00  0.000000D+00  0.000000D+00  0.000000D+00  0.000000D+00
     19  0.000000D+00  0.000000D+00  0.000000D+00  0.000000D+00  0.000000D+00
     20  0.000000D+00  0.000000D+00  0.000000D+00  0.000000D+00  0.282187D+00
     21  0.000000D+00  0.000000D+00  0.000000D+00  0.000000D+00  0.000000D+00
     22  0.000000D+00  0.000000D+00  0.000000D+00  0.000000D+00  0.000000D+00
     23  0.000000D+00  0.000000D+00  0.000000D+00  0.000000D+00  0.000000D+00
     24  0.000000D+00  0.000000D+00  0.000000D+00  0.000000D+00  0.000000D+00
               16            17            18            19            20 
     16  0.433650D+00
     17  0.000000D+00  0.433650D+00
     18  0.000000D+00  0.000000D+00  0.433650D+00
     19  0.000000D+00  0.000000D+00  0.000000D+00  0.433650D+00
     20  0.000000D+00  0.000000D+00  0.000000D+00  0.000000D+00  0.253265D+00
     21  0.282187D+00  0.000000D+00  0.000000D+00  0.000000D+00  0.000000D+00
     22  0.000000D+00  0.282187D+00  0.000000D+00  0.000000D+00  0.000000D+00
     23  0.000000D+00  0.000000D+00  0.282187D+00  0.000000D+00  0.000000D+00
     24  0.000000D+00  0.000000D+00  0.000000D+00  0.282187D+00  0.000000D+00
               21            22            23            24 
     21  0.253265D+00
     22  0.000000D+00  0.253265D+00
     23  0.000000D+00  0.000000D+00  0.253265D+00
     24  0.000000D+00  0.000000D+00  0.000000D+00  0.253265D+00
 Entering OneElI...
 Calculate potential energy integrals
    NBasis =  24  MinDer = 0  MaxDer = 0
 Requested accuracy = 0.1000D-12
 Symmetry will be used
 PrmmSu-InSpLW:  IPartL=    0 NPrtUS=   36 NPrtUL=    1 DoSpLW=F IThBeg=    0 IThEnd=   35 NThAct=   36.
 PrSmSu:  IncTry=   512 NBBP=            110 NTPThr=   100 NPartT=   36 Incr=           1 LDynOK=F GPUOK=F.
 PrsmSu:  NPrtUS=  36 ThrOK=T IAlg=1 LenDen=           0 ISkipM=0 DoSpLW=F IThBeg=    0 IThEnd=   35.
 Prism:   IPart=     0 DynPar=F LinDyn=F Incr=           1.
 PRISM was handed   268431395 working-precision words and    55 shell-pairs
 PRISM was handed   268431395 working-precision words and    55 shell-pairs
 PRISM was handed   268431395 working-precision words and    55 shell-pairs
 PRISM was handed   268431395 working-precision words and    55 shell-pairs
 PRISM was handed   268431395 working-precision words and    55 shell-pairs
 PRISM was handed   268431395 working-precision words and    55 shell-pairs
 PRISM was handed   268431395 working-precision words and    55 shell-pairs
 PRISM was handed   268431395 working-precision words and    55 shell-pairs
 PRISM was handed   268431395 working-precision words and    55 shell-pairs
 PRISM was handed   268431395 working-precision words and    55 shell-pairs
 PRISM was handed   268431395 working-precision words and    55 shell-pairs
 PRISM was handed   268431395 working-precision words and    55 shell-pairs
 PRISM was handed   268431395 working-precision words and    55 shell-pairs
 PRISM was handed   268431395 working-precision words and    55 shell-pairs
 PRISM was handed   268431395 working-precision words and    55 shell-pairs
 PRISM was handed   268431395 working-precision words and    55 shell-pairs
 PRISM was handed   268431395 working-precision words and    55 shell-pairs
 PRISM was handed   268431395 working-precision words and    55 shell-pairs
 PRISM was handed   268431395 working-precision words and    55 shell-pairs
 PRISM was handed   268431395 working-precision words and    55 shell-pairs
 PRISM was handed   268431395 working-precision words and    55 shell-pairs
 PRISM was handed   268431395 working-precision words and    55 shell-pairs
 PRISM was handed   268431395 working-precision words and    55 shell-pairs
 PRISM was handed   268431395 working-precision words and    55 shell-pairs
 PRISM was handed   268431395 working-precision words and    55 shell-pairs
 PRISM was handed   268431395 working-precision words and    55 shell-pairs
 PRISM was handed   268431395 working-precision words and    55 shell-pairs
 PRISM was handed   268431395 working-precision words and    55 shell-pairs
 PRISM was handed   268431395 working-precision words and    55 shell-pairs
 PRISM was handed   268431395 working-precision words and    55 shell-pairs
 PRISM was handed   268431395 working-precision words and    55 shell-pairs
 PRISM was handed   268431395 working-precision words and    55 shell-pairs
 PRISM was handed   268431395 working-precision words and    55 shell-pairs
 PRISM was handed   268431395 working-precision words and    55 shell-pairs
 PRISM was handed   268431395 working-precision words and    55 shell-pairs
 PRISM was handed   268431395 working-precision words and    55 shell-pairs
 IPart= 22 NShTot=           0 NBatch=           0 AvBLen=         0.0
 IPart= 33 NShTot=           0 NBatch=           0 AvBLen=         0.0
 IPart= 29 NShTot=           0 NBatch=           0 AvBLen=         0.0
 IPart= 13 NShTot=           0 NBatch=           0 AvBLen=         0.0
 IPart= 34 NShTot=           0 NBatch=           0 AvBLen=         0.0
 IPart= 26 NShTot=           0 NBatch=           0 AvBLen=         0.0
 IPart= 32 NShTot=           0 NBatch=           0 AvBLen=         0.0
 IPart=  7 NShTot=           0 NBatch=           0 AvBLen=         0.0
 IPart= 27 NShTot=           0 NBatch=           0 AvBLen=         0.0
 IPart= 35 NShTot=           0 NBatch=           0 AvBLen=         0.0
 IPart= 16 NShTot=           0 NBatch=           0 AvBLen=         0.0
 IPart= 20 NShTot=           0 NBatch=           0 AvBLen=         0.0
 IPart= 15 NShTot=           0 NBatch=           0 AvBLen=         0.0
 IPart=  4 NShTot=           0 NBatch=           0 AvBLen=         0.0
 IPart= 14 NShTot=           0 NBatch=           0 AvBLen=         0.0
 IPart= 25 NShTot=           0 NBatch=           0 AvBLen=         0.0
 IPart= 11 NShTot=           0 NBatch=           0 AvBLen=         0.0
 IPart= 17 NShTot=           0 NBatch=           0 AvBLen=         0.0
 IPart= 19 NShTot=           0 NBatch=           0 AvBLen=         0.0
 IPart= 12 NShTot=           0 NBatch=           0 AvBLen=         0.0
 IPart=  5 NShTot=           0 NBatch=           0 AvBLen=         0.0
 IPart= 24 NShTot=           0 NBatch=           0 AvBLen=         0.0
 IPart=  8 NShTot=           0 NBatch=           0 AvBLen=         0.0
 IPart=  6 NShTot=           0 NBatch=           0 AvBLen=         0.0
 IPart= 31 NShTot=           0 NBatch=           0 AvBLen=         0.0
 IPart= 21 NShTot=           0 NBatch=           0 AvBLen=         0.0
 IPart= 28 NShTot=           0 NBatch=           0 AvBLen=         0.0
 IPart=  9 NShTot=           0 NBatch=           0 AvBLen=         0.0
 IPart= 18 NShTot=           0 NBatch=           0 AvBLen=         0.0
 IPart= 10 NShTot=           0 NBatch=           0 AvBLen=         0.0
 IPart= 30 NShTot=           0 NBatch=           0 AvBLen=         0.0
 IPart=  2 NShTot=          14 NBatch=           7 AvBLen=         2.0
 IPart=  3 NShTot=           8 NBatch=           4 AvBLen=         2.0
 IPart=  1 NShTot=          34 NBatch=          17 AvBLen=         2.0
 IPart= 23 NShTot=           0 NBatch=           0 AvBLen=         0.0
 IPart=  0 NShTot=          54 NBatch=          27 AvBLen=         2.0
 PrSmSu:  NxtVal=             37.
 ***** Potential Energy ***** 
                1             2             3             4             5 
      1  0.221933D+01
      2  0.304735D+00  0.839812D+01
      3  0.732007D+00  0.240995D+00  0.136677D+01
      4  0.559735D+00  0.684352D+00  0.106344D+01  0.102982D+01
      5  0.285999D+00  0.287881D+00  0.564540D+00  0.658600D+00  0.585728D+00
      6  0.000000D+00  0.000000D+00  0.000000D+00  0.000000D+00  0.000000D+00
      7  0.000000D+00  0.000000D+00  0.000000D+00  0.000000D+00  0.000000D+00
      8 -0.949950D+00 -0.152561D-01 -0.123760D+00 -0.991819D-01 -0.542104D-01
      9  0.000000D+00  0.000000D+00  0.000000D+00  0.000000D+00  0.000000D+00
     10  0.000000D+00  0.000000D+00  0.000000D+00  0.000000D+00  0.000000D+00
     11 -0.402220D+00 -0.261126D-02 -0.561870D-01 -0.605847D-01 -0.441663D-01
     12  0.000000D+00  0.000000D+00  0.000000D+00  0.000000D+00  0.000000D+00
     13  0.000000D+00  0.000000D+00  0.000000D+00  0.000000D+00  0.000000D+00
     14 -0.854510D-01 -0.454034D-03 -0.124146D-01 -0.167967D-01 -0.181726D-01
     15  0.908360D+00  0.347543D-02  0.788020D-01  0.610654D-01  0.324482D-01
     16  0.000000D+00  0.000000D+00  0.000000D+00  0.000000D+00  0.000000D+00
     17  0.000000D+00  0.000000D+00  0.000000D+00  0.000000D+00  0.000000D+00
     18  0.000000D+00  0.000000D+00  0.000000D+00  0.000000D+00  0.000000D+00
     19  0.000000D+00  0.000000D+00  0.000000D+00  0.000000D+00  0.000000D+00
     20  0.652386D+00  0.172302D-02  0.564408D-01  0.490596D-01  0.283102D-01
     21  0.000000D+00  0.000000D+00  0.000000D+00  0.000000D+00  0.000000D+00
     22  0.000000D+00  0.000000D+00  0.000000D+00  0.000000D+00  0.000000D+00
     23  0.000000D+00  0.000000D+00  0.000000D+00  0.000000D+00  0.000000D+00
     24  0.000000D+00  0.000000D+00  0.000000D+00  0.000000D+00  0.000000D+00
                6             7             8             9            10 
      6  0.129999D+01
      7  0.000000D+00  0.129999D+01
      8  0.000000D+00  0.000000D+00  0.139685D+01
      9  0.600307D+00  0.000000D+00  0.000000D+00  0.646499D+00
     10  0.000000D+00  0.600307D+00  0.000000D+00  0.000000D+00  0.646499D+00
     11  0.000000D+00  0.000000D+00  0.645117D+00  0.000000D+00  0.000000D+00
     12  0.144298D+00  0.000000D+00  0.000000D+00  0.278608D+00  0.000000D+00
     13  0.000000D+00  0.144298D+00  0.000000D+00  0.000000D+00  0.278608D+00
     14  0.000000D+00  0.000000D+00  0.154169D+00  0.000000D+00  0.000000D+00
     15  0.000000D+00  0.000000D+00 -0.153172D+00  0.000000D+00  0.000000D+00
     16 -0.663036D-01  0.000000D+00  0.000000D+00 -0.338401D-01  0.000000D+00
     17  0.000000D+00 -0.663036D-01  0.000000D+00  0.000000D+00 -0.338401D-01
     18  0.000000D+00  0.000000D+00  0.000000D+00  0.000000D+00  0.000000D+00
     19  0.000000D+00  0.000000D+00  0.000000D+00  0.000000D+00  0.000000D+00
     20  0.000000D+00  0.000000D+00 -0.115878D+00  0.000000D+00  0.000000D+00
     21 -0.528061D-01  0.000000D+00  0.000000D+00 -0.369879D-01  0.000000D+00
     22  0.000000D+00 -0.528061D-01  0.000000D+00  0.000000D+00 -0.369879D-01
     23  0.000000D+00  0.000000D+00  0.000000D+00  0.000000D+00  0.000000D+00
     24  0.000000D+00  0.000000D+00  0.000000D+00  0.000000D+00  0.000000D+00
               11            12            13            14            15 
     11  0.678264D+00
     12  0.000000D+00  0.317624D+00
     13  0.000000D+00  0.000000D+00  0.317624D+00
     14  0.288031D+00  0.000000D+00  0.000000D+00  0.322176D+00
     15 -0.736668D-01  0.000000D+00  0.000000D+00 -0.160981D-01  0.126199D+01
     16  0.000000D+00 -0.764036D-02  0.000000D+00  0.000000D+00  0.000000D+00
     17  0.000000D+00  0.000000D+00 -0.764036D-02  0.000000D+00  0.000000D+00
     18  0.000000D+00  0.000000D+00  0.000000D+00  0.000000D+00  0.000000D+00
     19  0.000000D+00  0.000000D+00  0.000000D+00  0.000000D+00  0.000000D+00
     20 -0.719922D-01  0.000000D+00  0.000000D+00 -0.180229D-01  0.993227D+00
     21  0.000000D+00 -0.981917D-02  0.000000D+00  0.000000D+00  0.000000D+00
     22  0.000000D+00  0.000000D+00 -0.981917D-02  0.000000D+00  0.000000D+00
     23  0.000000D+00  0.000000D+00  0.000000D+00  0.000000D+00  0.000000D+00
     24  0.000000D+00  0.000000D+00  0.000000D+00  0.000000D+00  0.000000D+00
               16            17            18            19            20 
     16  0.117512D+01
     17  0.000000D+00  0.117512D+01
     18  0.000000D+00  0.000000D+00  0.112870D+01
     19  0.000000D+00  0.000000D+00  0.000000D+00  0.112870D+01
     20  0.000000D+00  0.000000D+00  0.000000D+00  0.000000D+00  0.961972D+00
     21  0.930981D+00  0.000000D+00  0.000000D+00  0.000000D+00  0.000000D+00
     22  0.000000D+00  0.930981D+00  0.000000D+00  0.000000D+00  0.000000D+00
     23  0.000000D+00  0.000000D+00  0.895102D+00  0.000000D+00  0.000000D+00
     24  0.000000D+00  0.000000D+00  0.000000D+00  0.895102D+00  0.000000D+00
               21            22            23            24 
     21  0.912907D+00
     22  0.000000D+00  0.912907D+00
     23  0.000000D+00  0.000000D+00  0.880596D+00
     24  0.000000D+00  0.000000D+00  0.000000D+00  0.880596D+00
 ****** Core Hamiltonian ****** 
                1             2             3             4             5 
      1 -0.145930D+01
      2 -0.320068D+00 -0.477658D+01
      3 -0.679552D+00 -0.502898D+00 -0.122747D+01
      4 -0.538913D+00 -0.671463D+00 -0.101208D+01 -0.987748D+00
      5 -0.281819D+00 -0.286151D+00 -0.553079D+00 -0.643120D+00 -0.572776D+00
      6  0.000000D+00  0.000000D+00  0.000000D+00  0.000000D+00  0.000000D+00
      7  0.000000D+00  0.000000D+00  0.000000D+00  0.000000D+00  0.000000D+00
      8  0.826124D+00  0.152561D-01  0.123760D+00  0.991819D-01  0.542104D-01
      9  0.000000D+00  0.000000D+00  0.000000D+00  0.000000D+00  0.000000D+00
     10  0.000000D+00  0.000000D+00  0.000000D+00  0.000000D+00  0.000000D+00
     11  0.376090D+00  0.261126D-02  0.561870D-01  0.605847D-01  0.441663D-01
     12  0.000000D+00  0.000000D+00  0.000000D+00  0.000000D+00  0.000000D+00
     13  0.000000D+00  0.000000D+00  0.000000D+00  0.000000D+00  0.000000D+00
     14  0.838622D-01  0.454034D-03  0.124146D-01  0.167967D-01  0.181726D-01
     15 -0.683196D+00 -0.347543D-02 -0.788020D-01 -0.610654D-01 -0.324482D-01
     16  0.000000D+00  0.000000D+00  0.000000D+00  0.000000D+00  0.000000D+00
     17  0.000000D+00  0.000000D+00  0.000000D+00  0.000000D+00  0.000000D+00
     18  0.000000D+00  0.000000D+00  0.000000D+00  0.000000D+00  0.000000D+00
     19  0.000000D+00  0.000000D+00  0.000000D+00  0.000000D+00  0.000000D+00
     20 -0.523548D+00 -0.172302D-02 -0.564408D-01 -0.490596D-01 -0.283102D-01
     21  0.000000D+00  0.000000D+00  0.000000D+00  0.000000D+00  0.000000D+00
     22  0.000000D+00  0.000000D+00  0.000000D+00  0.000000D+00  0.000000D+00
     23  0.000000D+00  0.000000D+00  0.000000D+00  0.000000D+00  0.000000D+00
     24  0.000000D+00  0.000000D+00  0.000000D+00  0.000000D+00  0.000000D+00
                6             7             8             9            10 
      6 -0.105003D+01
      7  0.000000D+00 -0.105003D+01
      8  0.000000D+00  0.000000D+00 -0.114688D+01
      9 -0.542507D+00  0.000000D+00  0.000000D+00 -0.586424D+00
     10  0.000000D+00 -0.542507D+00  0.000000D+00  0.000000D+00 -0.586424D+00
     11  0.000000D+00  0.000000D+00 -0.587316D+00  0.000000D+00  0.000000D+00
     12 -0.139901D+00  0.000000D+00  0.000000D+00 -0.266192D+00  0.000000D+00
     13  0.000000D+00 -0.139901D+00  0.000000D+00  0.000000D+00 -0.266192D+00
     14  0.000000D+00  0.000000D+00 -0.149771D+00  0.000000D+00  0.000000D+00
     15  0.000000D+00  0.000000D+00  0.153172D+00  0.000000D+00  0.000000D+00
     16  0.663036D-01  0.000000D+00  0.000000D+00  0.338401D-01  0.000000D+00
     17  0.000000D+00  0.663036D-01  0.000000D+00  0.000000D+00  0.338401D-01
     18  0.000000D+00  0.000000D+00  0.000000D+00  0.000000D+00  0.000000D+00
     19  0.000000D+00  0.000000D+00  0.000000D+00  0.000000D+00  0.000000D+00
     20  0.000000D+00  0.000000D+00  0.115878D+00  0.000000D+00  0.000000D+00
     21  0.528061D-01  0.000000D+00  0.000000D+00  0.369879D-01  0.000000D+00
     22  0.000000D+00  0.528061D-01  0.000000D+00  0.000000D+00  0.369879D-01
     23  0.000000D+00  0.000000D+00  0.000000D+00  0.000000D+00  0.000000D+00
     24  0.000000D+00  0.000000D+00  0.000000D+00  0.000000D+00  0.000000D+00
               11            12            13            14            15 
     11 -0.618189D+00
     12  0.000000D+00 -0.303556D+00
     13  0.000000D+00  0.000000D+00 -0.303556D+00
     14 -0.275615D+00  0.000000D+00  0.000000D+00 -0.308107D+00
     15  0.736668D-01  0.000000D+00  0.000000D+00  0.160981D-01 -0.828343D+00
     16  0.000000D+00  0.764036D-02  0.000000D+00  0.000000D+00  0.000000D+00
     17  0.000000D+00  0.000000D+00  0.764036D-02  0.000000D+00  0.000000D+00
     18  0.000000D+00  0.000000D+00  0.000000D+00  0.000000D+00  0.000000D+00
     19  0.000000D+00  0.000000D+00  0.000000D+00  0.000000D+00  0.000000D+00
     20  0.719922D-01  0.000000D+00  0.000000D+00  0.180229D-01 -0.711040D+00
     21  0.000000D+00  0.981917D-02  0.000000D+00  0.000000D+00  0.000000D+00
     22  0.000000D+00  0.000000D+00  0.981917D-02  0.000000D+00  0.000000D+00
     23  0.000000D+00  0.000000D+00  0.000000D+00  0.000000D+00  0.000000D+00
     24  0.000000D+00  0.000000D+00  0.000000D+00  0.000000D+00  0.000000D+00
               16            17            18            19            20 
     16 -0.741472D+00
     17  0.000000D+00 -0.741472D+00
     18  0.000000D+00  0.000000D+00 -0.695055D+00
     19  0.000000D+00  0.000000D+00  0.000000D+00 -0.695055D+00
     20  0.000000D+00  0.000000D+00  0.000000D+00  0.000000D+00 -0.708707D+00
     21 -0.648794D+00  0.000000D+00  0.000000D+00  0.000000D+00  0.000000D+00
     22  0.000000D+00 -0.648794D+00  0.000000D+00  0.000000D+00  0.000000D+00
     23  0.000000D+00  0.000000D+00 -0.612915D+00  0.000000D+00  0.000000D+00
     24  0.000000D+00  0.000000D+00  0.000000D+00 -0.612915D+00  0.000000D+00
               21            22            23            24 
     21 -0.659642D+00
     22  0.000000D+00 -0.659642D+00
     23  0.000000D+00  0.000000D+00 -0.627331D+00
     24  0.000000D+00  0.000000D+00  0.000000D+00 -0.627331D+00
 SVDSVc IOpt=   1 NormSV=T IR=1
 SVDSVc V= 2.75D+00 2.18D+00 1.90D+00 1.88D+00 9.77D-01 9.59D-01 5.55D-01 3.31D-01 1.91D-01 1.18D-01
 SVDSVc V= 9.68D-02 5.33D-02
 SVDSVc IOpt=   1 NormSV=T IR=2
 SVDSVc V= 1.88D+00 1.18D-01
 SVDSVc IOpt=   1 NormSV=T IR=3
 SVDSVc V= 1.92D+00 1.88D+00 8.34D-01 2.48D-01 1.18D-01
 SVDSVc IOpt=   1 NormSV=T IR=4
 SVDSVc V= 1.92D+00 1.88D+00 8.34D-01 2.48D-01 1.18D-01
 TstOVc:  Largest diagonal error= 4.22D-15 IB=1 I=   11.
 TstOVc:  Largest same sym error= 4.60D-15 IB=1 I=    6 J=    3.
 TstOVc:  Largest diff sym error= 0.00D+00 IB=0 JB=0 I=    0 J=    0.
 Orthogonalized basis functions: 
                 1             2             3             4             5 
      1   0.261140D+00  0.195786D+00  0.164488D-01  0.000000D+00  0.106050D+00
      2   0.690335D-01 -0.512480D-01 -0.214033D-02  0.000000D+00  0.952885D+00
      3   0.284374D+00 -0.191956D+00 -0.745468D-02  0.000000D+00 -0.332021D-01
      4   0.303868D+00 -0.228948D+00 -0.976013D-02  0.000000D+00 -0.790978D-01
      5   0.245058D+00 -0.205921D+00 -0.949794D-02  0.000000D+00 -0.197945D+00
      6   0.000000D+00  0.000000D+00  0.000000D+00  0.000000D+00  0.000000D+00
      7   0.000000D+00  0.000000D+00  0.000000D+00  0.000000D+00  0.000000D+00
      8  -0.116153D+00 -0.233120D+00  0.294225D+00  0.000000D+00 -0.123275D+00
      9   0.000000D+00  0.000000D+00  0.000000D+00  0.000000D+00  0.000000D+00
     10   0.000000D+00  0.000000D+00  0.000000D+00  0.000000D+00  0.000000D+00
     11  -0.956597D-01 -0.236846D+00  0.364365D+00  0.000000D+00  0.412683D-01
     12   0.000000D+00  0.000000D+00  0.000000D+00  0.000000D+00  0.000000D+00
     13   0.000000D+00  0.000000D+00  0.000000D+00  0.000000D+00  0.000000D+00
     14  -0.496348D-01 -0.152080D+00  0.273359D+00  0.000000D+00  0.190663D+00
     15   0.131011D+00  0.280368D+00  0.340258D+00  0.000000D+00 -0.434524D-01
     16   0.000000D+00  0.000000D+00  0.000000D+00  0.000000D+00  0.000000D+00
     17   0.000000D+00  0.000000D+00  0.000000D+00  0.000000D+00  0.000000D+00
     18   0.000000D+00  0.000000D+00  0.000000D+00  0.515374D+00  0.000000D+00
     19   0.000000D+00  0.000000D+00  0.000000D+00  0.000000D+00  0.000000D+00
     20   0.121649D+00  0.271405D+00  0.339388D+00  0.000000D+00 -0.551140D-01
     21   0.000000D+00  0.000000D+00  0.000000D+00  0.000000D+00  0.000000D+00
     22   0.000000D+00  0.000000D+00  0.000000D+00  0.000000D+00  0.000000D+00
     23   0.000000D+00  0.000000D+00  0.000000D+00  0.515374D+00  0.000000D+00
     24   0.000000D+00  0.000000D+00  0.000000D+00  0.000000D+00  0.000000D+00
                 6             7             8             9            10 
      1   0.355078D+00 -0.408467D+00  0.859143D+00  0.946948D+00  0.000000D+00
      2  -0.294350D+00  0.133626D+00  0.243460D-01  0.542926D-03  0.000000D+00
      3   0.197379D-01 -0.707419D+00 -0.576749D+00 -0.348270D+00  0.000000D+00
      4  -0.617134D-01  0.741269D-02 -0.231649D+00 -0.278573D+00  0.000000D+00
      5  -0.107351D+00  0.918908D+00  0.470058D+00  0.276517D+00  0.000000D+00
      6   0.000000D+00  0.000000D+00  0.000000D+00  0.000000D+00  0.000000D+00
      7   0.000000D+00  0.000000D+00  0.000000D+00  0.000000D+00  0.000000D+00
      8  -0.482242D+00 -0.294514D+00 -0.851484D-01  0.133415D+01  0.000000D+00
      9   0.000000D+00  0.000000D+00  0.000000D+00  0.000000D+00  0.000000D+00
     10   0.000000D+00  0.000000D+00  0.000000D+00  0.000000D+00  0.000000D+00
     11   0.133712D+00 -0.214016D+00  0.991290D+00 -0.107819D+01  0.000000D+00
     12   0.000000D+00  0.000000D+00  0.000000D+00  0.000000D+00  0.000000D+00
     13   0.000000D+00  0.000000D+00  0.000000D+00  0.000000D+00  0.000000D+00
     14   0.714302D+00  0.318828D+00 -0.709826D+00  0.518334D+00  0.000000D+00
     15  -0.142008D+00  0.854658D-01 -0.430644D-01  0.373319D+00  0.000000D+00
     16   0.000000D+00  0.000000D+00  0.000000D+00  0.000000D+00  0.000000D+00
     17   0.000000D+00  0.000000D+00  0.000000D+00  0.000000D+00  0.000000D+00
     18   0.000000D+00  0.000000D+00  0.000000D+00  0.000000D+00  0.206249D+01
     19   0.000000D+00  0.000000D+00  0.000000D+00  0.000000D+00  0.000000D+00
     20  -0.181853D+00  0.173636D+00 -0.423184D+00 -0.844663D+00  0.000000D+00
     21   0.000000D+00  0.000000D+00  0.000000D+00  0.000000D+00  0.000000D+00
     22   0.000000D+00  0.000000D+00  0.000000D+00  0.000000D+00  0.000000D+00
     23   0.000000D+00  0.000000D+00  0.000000D+00  0.000000D+00 -0.206249D+01
     24   0.000000D+00  0.000000D+00  0.000000D+00  0.000000D+00  0.000000D+00
                11            12            13            14            15 
      1  -0.904901D+00  0.404215D+00  0.000000D+00  0.000000D+00  0.000000D+00
      2  -0.427778D-02 -0.147710D+00  0.000000D+00  0.000000D+00  0.000000D+00
      3   0.105156D+00 -0.230490D+01  0.000000D+00  0.000000D+00  0.000000D+00
      4   0.495063D+00  0.325575D+01  0.000000D+00  0.000000D+00  0.000000D+00
      5  -0.309193D+00 -0.154281D+01  0.000000D+00  0.000000D+00  0.000000D+00
      6   0.000000D+00  0.000000D+00  0.000000D+00  0.000000D+00  0.396560D+00
      7   0.000000D+00  0.000000D+00  0.000000D+00  0.000000D+00  0.000000D+00
      8  -0.698271D+00  0.272190D+00  0.000000D+00  0.000000D+00  0.000000D+00
      9   0.000000D+00  0.000000D+00  0.000000D+00  0.000000D+00  0.484407D+00
     10   0.000000D+00  0.000000D+00  0.000000D+00  0.000000D+00  0.000000D+00
     11   0.285412D+00 -0.837011D-01  0.000000D+00  0.000000D+00  0.000000D+00
     12   0.000000D+00  0.000000D+00  0.000000D+00  0.000000D+00  0.359947D+00
     13   0.000000D+00  0.000000D+00  0.000000D+00  0.000000D+00  0.000000D+00
     14  -0.101594D+00  0.251434D-01  0.000000D+00  0.000000D+00  0.000000D+00
     15   0.227368D+01 -0.390335D+00  0.000000D+00  0.000000D+00  0.000000D+00
     16   0.000000D+00  0.000000D+00  0.000000D+00  0.000000D+00  0.000000D+00
     17   0.000000D+00  0.000000D+00  0.000000D+00  0.000000D+00  0.000000D+00
     18   0.000000D+00  0.000000D+00  0.000000D+00  0.000000D+00  0.000000D+00
     19   0.000000D+00  0.000000D+00  0.515374D+00  0.206249D+01  0.000000D+00
     20  -0.184702D+01  0.204279D+00  0.000000D+00  0.000000D+00  0.000000D+00
     21   0.000000D+00  0.000000D+00  0.000000D+00  0.000000D+00  0.000000D+00
     22   0.000000D+00  0.000000D+00  0.000000D+00  0.000000D+00  0.000000D+00
     23   0.000000D+00  0.000000D+00  0.000000D+00  0.000000D+00  0.000000D+00
     24   0.000000D+00  0.000000D+00  0.515374D+00 -0.206249D+01  0.000000D+00
                16            17            18            19            20 
      1   0.000000D+00  0.000000D+00  0.000000D+00  0.000000D+00  0.000000D+00
      2   0.000000D+00  0.000000D+00  0.000000D+00  0.000000D+00  0.000000D+00
      3   0.000000D+00  0.000000D+00  0.000000D+00  0.000000D+00  0.000000D+00
      4   0.000000D+00  0.000000D+00  0.000000D+00  0.000000D+00  0.000000D+00
      5   0.000000D+00  0.000000D+00  0.000000D+00  0.000000D+00  0.000000D+00
      6   0.000000D+00 -0.712858D+00 -0.105165D+01  0.000000D+00  0.000000D+00
      7   0.000000D+00  0.000000D+00  0.000000D+00  0.000000D+00  0.396560D+00
      8   0.000000D+00  0.000000D+00  0.000000D+00  0.000000D+00  0.000000D+00
      9   0.000000D+00 -0.334943D-01  0.148716D+01  0.000000D+00  0.000000D+00
     10   0.000000D+00  0.000000D+00  0.000000D+00  0.000000D+00  0.484407D+00
     11   0.000000D+00  0.000000D+00  0.000000D+00  0.000000D+00  0.000000D+00
     12   0.000000D+00  0.830443D+00 -0.842758D+00  0.000000D+00  0.000000D+00
     13   0.000000D+00  0.000000D+00  0.000000D+00  0.000000D+00  0.359947D+00
     14   0.000000D+00  0.000000D+00  0.000000D+00  0.000000D+00  0.000000D+00
     15   0.000000D+00  0.000000D+00  0.000000D+00  0.000000D+00  0.000000D+00
     16   0.515374D+00  0.000000D+00  0.000000D+00  0.206249D+01  0.000000D+00
     17   0.000000D+00  0.000000D+00  0.000000D+00  0.000000D+00  0.000000D+00
     18   0.000000D+00  0.000000D+00  0.000000D+00  0.000000D+00  0.000000D+00
     19   0.000000D+00  0.000000D+00  0.000000D+00  0.000000D+00  0.000000D+00
     20   0.000000D+00  0.000000D+00  0.000000D+00  0.000000D+00  0.000000D+00
     21   0.515374D+00  0.000000D+00  0.000000D+00 -0.206249D+01  0.000000D+00
     22   0.000000D+00  0.000000D+00  0.000000D+00  0.000000D+00  0.000000D+00
     23   0.000000D+00  0.000000D+00  0.000000D+00  0.000000D+00  0.000000D+00
     24   0.000000D+00  0.000000D+00  0.000000D+00  0.000000D+00  0.000000D+00
                21            22            23            24 
      1   0.000000D+00  0.000000D+00  0.000000D+00  0.000000D+00
      2   0.000000D+00  0.000000D+00  0.000000D+00  0.000000D+00
      3   0.000000D+00  0.000000D+00  0.000000D+00  0.000000D+00
      4   0.000000D+00  0.000000D+00  0.000000D+00  0.000000D+00
      5   0.000000D+00  0.000000D+00  0.000000D+00  0.000000D+00
      6   0.000000D+00  0.000000D+00  0.000000D+00  0.000000D+00
      7   0.000000D+00 -0.712858D+00 -0.105165D+01  0.000000D+00
      8   0.000000D+00  0.000000D+00  0.000000D+00  0.000000D+00
      9   0.000000D+00  0.000000D+00  0.000000D+00  0.000000D+00
     10   0.000000D+00 -0.334943D-01  0.148716D+01  0.000000D+00
     11   0.000000D+00  0.000000D+00  0.000000D+00  0.000000D+00
     12   0.000000D+00  0.000000D+00  0.000000D+00  0.000000D+00
     13   0.000000D+00  0.830443D+00 -0.842758D+00  0.000000D+00
     14   0.000000D+00  0.000000D+00  0.000000D+00  0.000000D+00
     15   0.000000D+00  0.000000D+00  0.000000D+00  0.000000D+00
     16   0.000000D+00  0.000000D+00  0.000000D+00  0.000000D+00
     17   0.515374D+00  0.000000D+00  0.000000D+00  0.206249D+01
     18   0.000000D+00  0.000000D+00  0.000000D+00  0.000000D+00
     19   0.000000D+00  0.000000D+00  0.000000D+00  0.000000D+00
     20   0.000000D+00  0.000000D+00  0.000000D+00  0.000000D+00
     21   0.000000D+00  0.000000D+00  0.000000D+00  0.000000D+00
     22   0.515374D+00  0.000000D+00  0.000000D+00 -0.206249D+01
     23   0.000000D+00  0.000000D+00  0.000000D+00  0.000000D+00
     24   0.000000D+00  0.000000D+00  0.000000D+00  0.000000D+00
 NBasis=    24 RedAO= T EigKep=  5.33D-02  NBF=    12     2     5     5
 NBsUse=    24 1.00D-06 EigRej= -1.00D+00 NBFU=    12     2     5     5
 Leave Link  302 at Thu Mar 24 15:57:49 2022, MaxMem=  9663676416 cpu:               6.3 elap:               0.2
 (Enter /nopt/nrel/apps/gaussian/g16C_1/g16/l303.exe)
 DipDrv will not compute anything.
 Fermi contact integrals: 
                 1             2 
      1   0.628247D+00  0.189316D-01
      2   0.764354D-03  0.255622D+01
      3   0.554339D-01 -0.456508D-01
      4   0.378619D-01  0.488495D-01
      5   0.186649D-01  0.201878D-01
      6   0.000000D+00  0.000000D+00
      7   0.000000D+00  0.000000D+00
      8  -0.867845D-01  0.000000D+00
      9   0.000000D+00  0.000000D+00
     10   0.000000D+00  0.000000D+00
     11  -0.326750D-01  0.000000D+00
     12   0.000000D+00  0.000000D+00
     13   0.000000D+00  0.000000D+00
     14  -0.629149D-02  0.000000D+00
     15   0.125534D+00  0.000000D+00
     16   0.000000D+00  0.000000D+00
     17   0.000000D+00  0.000000D+00
     18   0.000000D+00  0.000000D+00
     19   0.000000D+00  0.000000D+00
     20   0.782248D-01  0.000000D+00
     21   0.000000D+00  0.000000D+00
     22   0.000000D+00  0.000000D+00
     23   0.000000D+00  0.000000D+00
     24   0.000000D+00  0.000000D+00
 Leave Link  303 at Thu Mar 24 15:57:49 2022, MaxMem=  9663676416 cpu:               1.0 elap:               0.1
 (Enter /nopt/nrel/apps/gaussian/g16C_1/g16/l401.exe)
 ExpMin= 5.63D-03 ExpMax= 1.47D+03 ExpMxC= 5.03D+01 IAcc=3 IRadAn=         5 AccDes= 0.00D+00
 Harris functional with IExCor=  205 and IRadAn=       5 diagonalized for initial guess.
 HarFok:  IExCor=  205 AccDes= 0.00D+00 IRadAn=         5 IDoV= 1 UseB2=F ITyADJ=14
 ICtDFT=  3500011 ScaDFX=  1.000000  1.000000  1.000000  1.000000
 FoFCou: FMM=F IPFlag=           0 FMFlag=      100000 FMFlg1=           0
         NFxFlg=           0 DoJE=T BraDBF=F KetDBF=T FulRan=T
         wScrn=  0.000000 ICntrl=       500 IOpCl=  0 I1Cent=   200000004 NGrid=           0
         NMat0=    1 NMatS0=      1 NMatT0=    0 NMatD0=    1 NMtDS0=    0 NMtDT0=    0
 Petite list used in FoFCou.
 Harris En= -8.03042137221446    
 JPrj=0 DoOrth=F DoCkMO=F.
 Initial guess orbital symmetries:
       Occupied  (SG) (SG)
       Virtual   (SG) (PI) (PI) (SG) (SG) (PI) (PI) (SG) (SG) (PI)
                 (PI) (PI) (PI) (DLTA) (DLTA) (SG) (SG) (PI) (PI)
                 (DLTA) (DLTA) (SG)
 The electronic state of the initial guess is 1-SG.
 Leave Link  401 at Thu Mar 24 15:57:49 2022, MaxMem=  9663676416 cpu:               4.5 elap:               0.2
 (Enter /nopt/nrel/apps/gaussian/g16C_1/g16/l502.exe)
 Keep R1 ints in memory in symmetry-blocked form, NReq=7451113.
 FoFCou: FMM=F IPFlag=           0 FMFlag=           0 FMFlg1=           0
         NFxFlg=           0 DoJE=F BraDBF=F KetDBF=F FulRan=T
         wScrn=  0.000000 ICntrl=       600 IOpCl=  0 I1Cent=           0 NGrid=           0
         NMat0=    1 NMatS0=    300 NMatT0=    0 NMatD0=    1 NMtDS0=    0 NMtDT0=    0
 Petite list used in FoFCou.
 Closed shell SCF:
 Using DIIS extrapolation, IDIIS=  1040.
 NGot=  9663676416 LenX=  9663659633 LenY=  9663658516
 Requested convergence on RMS density matrix=1.00D-08 within 128 cycles.
 Requested convergence on MAX density matrix=1.00D-06.
 Requested convergence on             energy=1.00D-06.
 No special actions if energy rises.

 Cycle   1  Pass 1  IDiag  1:
 E= -7.95653704175477    
 DIIS: error= 2.17D-02 at cycle   1 NSaved=   1.
 NSaved= 1 IEnMin= 1 EnMin= -7.95653704175477     IErMin= 1 ErrMin= 2.17D-02
 ErrMax= 2.17D-02  0.00D+00 EMaxC= 1.00D-01 BMatC= 9.74D-03 BMatP= 9.74D-03
 IDIUse=3 WtCom= 7.83D-01 WtEn= 2.17D-01
 Coeff-Com:  0.100D+01
 Coeff-En:   0.100D+01
 Coeff:      0.100D+01
 Gap=     0.268 Goal=   None    Shift=    0.000
 GapD=    0.268 DampG=1.000 DampE=0.500 DampFc=0.5000 IDamp=-1.
 Damping current iteration by 5.00D-01
 RMSDP=7.86D-03 MaxDP=1.37D-01              OVMax= 1.13D-01

 Cycle   2  Pass 1  IDiag  1:
 E= -7.96713781397823     Delta-E=       -0.010600772223 Rises=F Damp=T
 DIIS: error= 1.21D-02 at cycle   2 NSaved=   2.
 NSaved= 2 IEnMin= 2 EnMin= -7.96713781397823     IErMin= 2 ErrMin= 1.21D-02
 ErrMax= 1.21D-02  0.00D+00 EMaxC= 1.00D-01 BMatC= 2.89D-03 BMatP= 9.74D-03
 IDIUse=3 WtCom= 8.79D-01 WtEn= 1.21D-01
 Coeff-Com: -0.117D+01 0.217D+01
 Coeff-En:   0.000D+00 0.100D+01
 Coeff:     -0.103D+01 0.203D+01
 Gap=     0.287 Goal=   None    Shift=    0.000
 RMSDP=4.73D-03 MaxDP=7.91D-02 DE=-1.06D-02 OVMax= 2.26D-02

 Cycle   3  Pass 1  IDiag  1:
 E= -7.97960673740221     Delta-E=       -0.012468923424 Rises=F Damp=F
 DIIS: error= 1.02D-03 at cycle   3 NSaved=   3.
 NSaved= 3 IEnMin= 3 EnMin= -7.97960673740221     IErMin= 3 ErrMin= 1.02D-03
 ErrMax= 1.02D-03  0.00D+00 EMaxC= 1.00D-01 BMatC= 9.72D-06 BMatP= 2.89D-03
 IDIUse=3 WtCom= 9.90D-01 WtEn= 1.02D-02
 Coeff-Com:  0.553D+00-0.103D+01 0.147D+01
 Coeff-En:   0.000D+00 0.000D+00 0.100D+01
 Coeff:      0.547D+00-0.102D+01 0.147D+01
 Gap=     0.293 Goal=   None    Shift=    0.000
 RMSDP=4.84D-04 MaxDP=6.03D-03 DE=-1.25D-02 OVMax= 1.11D-02

 Cycle   4  Pass 1  IDiag  1:
 E= -7.97968780857113     Delta-E=       -0.000081071169 Rises=F Damp=F
 DIIS: error= 2.48D-04 at cycle   4 NSaved=   4.
 NSaved= 4 IEnMin= 4 EnMin= -7.97968780857113     IErMin= 4 ErrMin= 2.48D-04
 ErrMax= 2.48D-04  0.00D+00 EMaxC= 1.00D-01 BMatC= 6.62D-07 BMatP= 9.72D-06
 IDIUse=3 WtCom= 9.98D-01 WtEn= 2.48D-03
 Coeff-Com: -0.282D+00 0.530D+00-0.106D+01 0.181D+01
 Coeff-En:   0.000D+00 0.000D+00 0.000D+00 0.100D+01
 Coeff:     -0.281D+00 0.529D+00-0.106D+01 0.181D+01
 Gap=     0.294 Goal=   None    Shift=    0.000
 RMSDP=1.93D-04 MaxDP=2.57D-03 DE=-8.11D-05 OVMax= 4.87D-03

 Cycle   5  Pass 1  IDiag  1:
 E= -7.97969493174822     Delta-E=       -0.000007123177 Rises=F Damp=F
 DIIS: error= 3.41D-05 at cycle   5 NSaved=   5.
 NSaved= 5 IEnMin= 5 EnMin= -7.97969493174822     IErMin= 5 ErrMin= 3.41D-05
 ErrMax= 3.41D-05  0.00D+00 EMaxC= 1.00D-01 BMatC= 2.21D-08 BMatP= 6.62D-07
 IDIUse=1 WtCom= 1.00D+00 WtEn= 0.00D+00
 Coeff-Com:  0.170D-01-0.336D-01 0.152D+00-0.298D+00 0.116D+01
 Coeff:      0.170D-01-0.336D-01 0.152D+00-0.298D+00 0.116D+01
 Gap=     0.294 Goal=   None    Shift=    0.000
 RMSDP=2.75D-05 MaxDP=2.85D-04 DE=-7.12D-06 OVMax= 4.58D-04

 Cycle   6  Pass 1  IDiag  1:
 E= -7.97969504885806     Delta-E=       -0.000000117110 Rises=F Damp=F
 DIIS: error= 3.73D-06 at cycle   6 NSaved=   6.
 NSaved= 6 IEnMin= 6 EnMin= -7.97969504885806     IErMin= 6 ErrMin= 3.73D-06
 ErrMax= 3.73D-06  0.00D+00 EMaxC= 1.00D-01 BMatC= 2.58D-10 BMatP= 2.21D-08
 IDIUse=1 WtCom= 1.00D+00 WtEn= 0.00D+00
 Coeff-Com: -0.105D-02 0.227D-02-0.233D-01 0.340D-01-0.244D+00 0.123D+01
 Coeff:     -0.105D-02 0.227D-02-0.233D-01 0.340D-01-0.244D+00 0.123D+01
 Gap=     0.294 Goal=   None    Shift=    0.000
 RMSDP=3.42D-06 MaxDP=3.51D-05 DE=-1.17D-07 OVMax= 8.39D-05

 Cycle   7  Pass 1  IDiag  1:
 E= -7.97969505128765     Delta-E=       -0.000000002430 Rises=F Damp=F
 DIIS: error= 3.93D-07 at cycle   7 NSaved=   7.
 NSaved= 7 IEnMin= 7 EnMin= -7.97969505128765     IErMin= 7 ErrMin= 3.93D-07
 ErrMax= 3.93D-07  0.00D+00 EMaxC= 1.00D-01 BMatC= 2.38D-12 BMatP= 2.58D-10
 IDIUse=1 WtCom= 1.00D+00 WtEn= 0.00D+00
 Coeff-Com:  0.866D-05-0.487D-04 0.306D-02-0.288D-02 0.343D-01-0.258D+00
 Coeff-Com:  0.122D+01
 Coeff:      0.866D-05-0.487D-04 0.306D-02-0.288D-02 0.343D-01-0.258D+00
 Coeff:      0.122D+01
 Gap=     0.294 Goal=   None    Shift=    0.000
 RMSDP=3.41D-07 MaxDP=2.59D-06 DE=-2.43D-09 OVMax= 5.87D-06

 Cycle   8  Pass 1  IDiag  1:
 E= -7.97969505130437     Delta-E=       -0.000000000017 Rises=F Damp=F
 DIIS: error= 2.89D-08 at cycle   8 NSaved=   8.
 NSaved= 8 IEnMin= 8 EnMin= -7.97969505130437     IErMin= 8 ErrMin= 2.89D-08
 ErrMax= 2.89D-08  0.00D+00 EMaxC= 1.00D-01 BMatC= 1.90D-14 BMatP= 2.38D-12
 IDIUse=1 WtCom= 1.00D+00 WtEn= 0.00D+00
 Coeff-Com:  0.582D-06 0.148D-05-0.476D-03 0.313D-03-0.526D-02 0.447D-01
 Coeff-Com: -0.251D+00 0.121D+01
 Coeff:      0.582D-06 0.148D-05-0.476D-03 0.313D-03-0.526D-02 0.447D-01
 Coeff:     -0.251D+00 0.121D+01
 Gap=     0.294 Goal=   None    Shift=    0.000
 RMSDP=2.39D-08 MaxDP=3.33D-07 DE=-1.67D-11 OVMax= 3.90D-07

 Cycle   9  Pass 1  IDiag  1:
 E= -7.97969505130446     Delta-E=       -0.000000000000 Rises=F Damp=F
 DIIS: error= 5.23D-09 at cycle   9 NSaved=   9.
 NSaved= 9 IEnMin= 9 EnMin= -7.97969505130446     IErMin= 9 ErrMin= 5.23D-09
 ErrMax= 5.23D-09  0.00D+00 EMaxC= 1.00D-01 BMatC= 5.31D-16 BMatP= 1.90D-14
 IDIUse=1 WtCom= 1.00D+00 WtEn= 0.00D+00
 Coeff-Com: -0.741D-05 0.149D-04-0.419D-04 0.919D-04-0.203D-03 0.332D-03
 Coeff-Com:  0.590D-02-0.201D+00 0.120D+01
 Coeff:     -0.741D-05 0.149D-04-0.419D-04 0.919D-04-0.203D-03 0.332D-03
 Coeff:      0.590D-02-0.201D+00 0.120D+01
 Gap=     0.294 Goal=   None    Shift=    0.000
 RMSDP=4.16D-09 MaxDP=2.84D-08 DE=-9.59D-14 OVMax= 7.54D-08

 SCF Done:  E(RHF) =  -7.97969505130     A.U. after    9 cycles
            NFock=  9  Conv=0.42D-08     -V/T= 1.9986
 KE= 7.990681047334D+00 PE=-2.043844495988D+01 EE= 3.472688816873D+00
 Leave Link  502 at Thu Mar 24 15:57:49 2022, MaxMem=  9663676416 cpu:               3.8 elap:               0.1
 (Enter /nopt/nrel/apps/gaussian/g16C_1/g16/l801.exe)
 Windowed orbitals will be sorted by symmetry type.
 ExpMin= 5.63D-03 ExpMax= 1.47D+03 ExpMxC= 5.03D+01 IAcc=3 IRadAn=         5 AccDes= 0.00D+00
 HarFok:  IExCor=  205 AccDes= 0.00D+00 IRadAn=         5 IDoV=-2 UseB2=F ITyADJ=14
 ICtDFT= 12500011 ScaDFX=  1.000000  1.000000  1.000000  1.000000
 Largest valence mixing into a core orbital is  2.83D-04
 Largest core mixing into a valence orbital is  9.01D-05
 Range of M.O.s used for correlation:     2    24
 NBasis=    24 NAE=     2 NBE=     2 NFC=     1 NFV=     0
 NROrb=     23 NOA=     1 NOB=     1 NVA=    22 NVB=    22
 Leave Link  801 at Thu Mar 24 15:57:49 2022, MaxMem=  9663676416 cpu:               3.0 elap:               0.1
 (Enter /nopt/nrel/apps/gaussian/g16C_1/g16/l804.exe)
 Closed-shell transformation, MDV=  9663676416 ITran=4 ISComp=2.
 Unit  1 TFree=         20652 TCopy=        122472.
 Semi-Direct transformation.
 ModeAB=           2 MOrb=             1 LenV=    9663491411
 LASXX=         1504 LTotXX=        1504 LenRXX=        1504
 LTotAB=        1823 MaxLAS=        8073 LenRXY=        8073
 NonZer=        8970 LenScr=      785920 LnRSAI=           0
 LnScr1=           0 LExtra=      226322 Total=      1021819
 MaxDsk= 34359738368 SrtSym=           F ITran=            4
 DoSDTr:  NPSUse= 36
 JobTyp=0 Pass  1:  I=   1 to   1.
 (rs|ai) integrals will be sorted in core.
 Complete sort for first half transformation.
 First half transformation complete.
 Complete sort for second half transformation.
 Second half transformation complete.
 Spin components of T(2) and E(2):
     alpha-alpha T2 =       0.0000000000D+00 E2=      0.0000000000D+00
     alpha-beta  T2 =       0.1024058368D-01 E2=     -0.1456168210D-01
     beta-beta   T2 =       0.0000000000D+00 E2=      0.0000000000D+00
 ANorm=    0.1005107250D+01
 E2 =    -0.1456168210D-01 EUMP2 =    -0.79942567334074D+01
 Leave Link  804 at Thu Mar 24 15:57:49 2022, MaxMem=  9663676416 cpu:               3.0 elap:               0.1
 (Enter /nopt/nrel/apps/gaussian/g16C_1/g16/l913.exe)
 CIDS:  MDV=  9663676416.
 Frozen-core window:  NFC=   1 NFV=   0.
 IFCWin=0 IBDFC=1 NFBD=     0     0 NFCmp=     0     0 NFFFC=     0     0
 Using DD3R+UMP44R for 1st iteration.
 Using DD4RQ for 2nd and later iterations.
 Keep R2 and R3 ints in memory in symmetry-blocked form, NReq=7453575.
 FoFCou: FMM=F IPFlag=           0 FMFlag=           0 FMFlg1=           0
         NFxFlg=           0 DoJE=F BraDBF=F KetDBF=F FulRan=T
         wScrn=  0.000000 ICntrl=       600 IOpCl=  0 I1Cent=           0 NGrid=           0
         NMat0=    1 NMatS0=    300 NMatT0=    0 NMatD0=    1 NMtDS0=    0 NMtDT0=    0
 Petite list used in FoFCou.
 CIDS: In Core Option IDoMem=           1.
 Coupled Cluster theory with single and double substitutions
 ===========================================================
 Iterations=  50 Convergence= 0.100D-06
 Produce multiple copies of IABC intergrals
 Iteration Nr.   1
 **********************
 DD1Dir will call FoFMem   1 times, MxPair=         2
 NAB=     1 NAA=     0 NBB=     0.
 MP4(R+Q)=  0.14912012D-03
 Maximum subspace dimension=  5
 A-vector RMS=  6.4457793D-03 Max=  8.7932953D-03 conv= 1.00D-05.
 RLE energy=       -0.0205291699
 E3=       -0.43846305D-02        EUMP3=      -0.79986413639D+01
 E4(DQ)=   -0.13723704D-02        UMP4(DQ)=   -0.80000137343D+01
 E4(SDQ)=  -0.14983607D-02        UMP4(SDQ)=  -0.80001397245D+01
 VARIATIONAL ENERGIES WITH THE FIRST-ORDER WAVEFUNCTION:
 DE(Corr)= -0.18794521E-01 E(Corr)=     -7.9984895726    
 NORM(A)=   0.10104600D+01
 Iteration Nr.   2
 **********************
 DD1Dir will call FoFMem   1 times, MxPair=         2
 NAB=     1 NAA=     0 NBB=     0.
 A-vector RMS=  3.6031062D-03 Max=  4.4846844D-03 conv= 1.00D-05.
 RLE energy=       -0.0212815893
 DE(Corr)= -0.20907963E-01 E(CORR)=     -8.0006030143     Delta=-2.11D-03
 NORM(A)=   0.10121110D+01
 Iteration Nr.   3
 **********************
 DD1Dir will call FoFMem   1 times, MxPair=         2
 NAB=     1 NAA=     0 NBB=     0.
 A-vector RMS=  2.2235872D-03 Max=  3.3756088D-03 conv= 1.00D-05.
 RLE energy=       -0.0214940692
 DE(Corr)= -0.21300621E-01 E(CORR)=     -8.0009956725     Delta=-3.93D-04
 NORM(A)=   0.10133115D+01
 Iteration Nr.   4
 **********************
 DD1Dir will call FoFMem   1 times, MxPair=         2
 NAB=     1 NAA=     0 NBB=     0.
 A-vector RMS=  7.3920767D-04 Max=  1.0967234D-03 conv= 1.00D-05.
 RLE energy=       -0.0215509652
 DE(Corr)= -0.21506139E-01 E(CORR)=     -8.0012011907     Delta=-2.06D-04
 NORM(A)=   0.10137489D+01
 Iteration Nr.   5
 **********************
 DD1Dir will call FoFMem   1 times, MxPair=         2
 NAB=     1 NAA=     0 NBB=     0.
 A-vector RMS=  3.1038418D-04 Max=  4.5680038D-04 conv= 1.00D-05.
 RLE energy=       -0.0215484960
 DE(Corr)= -0.21544627E-01 E(CORR)=     -8.0012396783     Delta=-3.85D-05
 NORM(A)=   0.10138579D+01
 Iteration Nr.   6
 **********************
 DD1Dir will call FoFMem   1 times, MxPair=         2
 NAB=     1 NAA=     0 NBB=     0.
 A-vector RMS=  7.9780990D-05 Max=  1.3288937D-04 conv= 1.00D-05.
 RLE energy=       -0.0215467391
 DE(Corr)= -0.21547832E-01 E(CORR)=     -8.0012428838     Delta=-3.21D-06
 NORM(A)=   0.10138676D+01
 Iteration Nr.   7
 **********************
 DD1Dir will call FoFMem   1 times, MxPair=         2
 NAB=     1 NAA=     0 NBB=     0.
 A-vector RMS=  2.7566550D-05 Max=  4.2852049D-05 conv= 1.00D-05.
 RLE energy=       -0.0215483582
 DE(Corr)= -0.21547841E-01 E(CORR)=     -8.0012428927     Delta=-8.96D-09
 NORM(A)=   0.10138709D+01
 Iteration Nr.   8
 **********************
 DD1Dir will call FoFMem   1 times, MxPair=         2
 NAB=     1 NAA=     0 NBB=     0.
 A-vector RMS=  7.8677869D-06 Max=  1.2814312D-05 conv= 1.00D-05.
 RLE energy=       -0.0215481941
 DE(Corr)= -0.21548230E-01 E(CORR)=     -8.0012432815     Delta=-3.89D-07
 NORM(A)=   0.10138698D+01
 Iteration Nr.   9
 **********************
 DD1Dir will call FoFMem   1 times, MxPair=         2
 NAB=     1 NAA=     0 NBB=     0.
 A-vector RMS=  2.2082873D-06 Max=  3.7910273D-06 conv= 1.00D-05.
 RLE energy=       -0.0215483204
 DE(Corr)= -0.21548254E-01 E(CORR)=     -8.0012433053     Delta=-2.38D-08
 NORM(A)=   0.10138701D+01
 CI/CC converged in    9 iterations to DelEn=-2.38D-08 Conv= 1.00D-07 ErrA1= 2.21D-06 Conv= 1.00D-05
 Wavefunction amplitudes converged. E(Corr)=     -8.0012433053    
 Largest amplitude= 4.38D-02
 Discarding MO integrals.
 Leave Link  913 at Thu Mar 24 15:57:50 2022, MaxMem=  9663676416 cpu:               4.6 elap:               0.2
 (Enter /nopt/nrel/apps/gaussian/g16C_1/g16/l601.exe)
 Copying SCF densities to generalized density rwf, IOpCl= 0 IROHF=0.

 **********************************************************************

            Population analysis using the SCF Density.

 **********************************************************************

 Orbital symmetries:
       Occupied  (SG) (SG)
       Virtual   (SG) (PI) (PI) (SG) (SG) (PI) (PI) (SG) (SG) (PI)
                 (PI) (DLTA) (DLTA) (PI) (PI) (SG) (SG) (PI) (PI)
                 (DLTA) (DLTA) (SG)
 The electronic state is 1-SG.
 Alpha  occ. eigenvalues --   -2.45000  -0.30120
 Alpha virt. eigenvalues --   -0.00698   0.01213   0.01213   0.01907   0.03448
 Alpha virt. eigenvalues --    0.05134   0.05134   0.11467   0.18340   0.18994
 Alpha virt. eigenvalues --    0.18994   0.19632   0.19632   0.20246   0.20246
 Alpha virt. eigenvalues --    0.21939   0.46293   0.55444   0.55444   0.55793
 Alpha virt. eigenvalues --    0.55793   0.98296
          Condensed to atoms (all electrons):
               1          2
     1  H    0.469310   0.403293
     2  Li   0.403293   2.724105
 Mulliken charges:
               1
     1  H    0.127397
     2  Li  -0.127397
 Sum of Mulliken charges =  -0.00000
 Mulliken charges with hydrogens summed into heavy atoms:
               1
     2  Li  -0.000000
 N-N= 9.953800443664D-01 E-N=-2.043844499433D+01  KE= 7.990681047334D+00
 Symmetry A1   KE= 7.990681047334D+00
 Symmetry A2   KE= 2.451375172725D-52
 Symmetry B1   KE= 0.000000000000D+00
 Symmetry B2   KE= 0.000000000000D+00

 Atomic contributions to Alpha molecular orbitals:
 Alpha occ 1 OE=-2.450 is Li2-s=0.9995
 Alpha occ 2 OE=-0.301 is H1-s=0.4358 Li2-s=0.3045 Li2-p=0.2227
 Alpha vir 3 OE=-0.007 is Li2-s=0.5690 Li2-p=0.4240
 Alpha vir 4 OE=0.012 is Li2-p=0.9989
 Alpha vir 5 OE=0.012 is Li2-p=0.9989
 Alpha vir 6 OE=0.019 is Li2-p=0.8969
 Alpha vir 7 OE=0.034 is Li2-s=0.7979 Li2-p=0.1988
 Alpha vir 8 OE=0.051 is Li2-p=0.9807
 Alpha vir 9 OE=0.051 is Li2-p=0.9807
 Alpha vir 10 OE=0.115 is Li2-p=0.6303 Li2-s=0.1674 Li2-d=0.1654
 Alpha vir 11 OE=0.183 is Li2-d=0.4643 Li2-p=0.3226 Li2-s=0.2102
 Alpha vir 12 OE=0.190 is Li2-p=0.8950 Li2-d=0.1050
 Alpha vir 13 OE=0.190 is Li2-p=0.8950 Li2-d=0.1050
 Alpha vir 14 OE=0.196 is Li2-d=1.0000
 Alpha vir 15 OE=0.196 is Li2-d=1.0000
 Alpha vir 16 OE=0.202 is Li2-d=0.8794 Li2-p=0.1206
 Alpha vir 17 OE=0.202 is Li2-d=0.8794 Li2-p=0.1206
 Alpha vir 18 OE=0.219 is Li2-s=0.7099 Li2-d=0.2551
 Alpha vir 19 OE=0.463 is Li2-d=0.7652
 Alpha vir 20 OE=0.554 is Li2-d=0.9953
 Alpha vir 21 OE=0.554 is Li2-d=0.9953
 Alpha vir 22 OE=0.558 is Li2-d=1.0000
 Alpha vir 23 OE=0.558 is Li2-d=1.0000
 Alpha vir 24 OE=0.983 is H1-s=0.4302 Li2-d=0.3100 Li2-p=0.1814
 
 Leave Link  601 at Thu Mar 24 15:57:50 2022, MaxMem=  9663676416 cpu:               2.7 elap:               0.1
 (Enter /nopt/nrel/apps/gaussian/g16C_1/g16/l9999.exe)

 Test job not archived.
 1\1\GINC-R6I7N35\SP\RCCSD-FC\Gen\H1Li1\USER\24-Mar-2022\0\\#P CCSD
 /GEN sp pop=AllOrbitals iop(3/33=1,3/36=-1)\\test\\0,1\H,0,0.,0.,0.\Li
 ,0,0.,0.,1.5949\\Version=ES64L-G16RevC.01\State=1-SG\HF=-7.9796951\MP2
 =-7.9942567\MP3=-7.9986414\MP4D=-8.0001629\MP4DQ=-8.0000137\MP4SDQ=-8.
 0001397\CCSD=-8.0012433\RMSD=4.157e-09\PG=C*V [C*(H1Li1)]\\@


 IN NATURE THERE ARE NEITHER REWARDS OR
 PUNISHMENTS -- THERE ARE CONSEQUENCES.

                            -- ROBERT GREEN INGERSOLL
 Job cpu time:       0 days  0 hours  0 minutes 40.7 seconds.
 Elapsed time:       0 days  0 hours  0 minutes  1.5 seconds.
 File lengths (MBytes):  RWF=     13 Int=      0 D2E=      0 Chk=      1 Scr=      1
 Normal termination of Gaussian 16 at Thu Mar 24 15:57:50 2022.
