 Entering Gaussian System, Link 0=g16
 Initial command:
 /nopt/nrel/apps/gaussian/g16C_1/g16/l1.exe "/lustre/eaglefs/scratch/user/qc/gaussian-final/nah-1-ccsd-augccd/Gau-172231.inp" -scrdir="/lustre/eaglefs/scratch/user/qc/gaussian-final/nah-1-ccsd-augccd/"
 Default is to use a total of  36 processors:
                               36 via shared-memory
                                1 via Linda
 Entering Link 1 = /nopt/nrel/apps/gaussian/g16C_1/g16/l1.exe PID=    172232.
  
 Copyright (c) 1988-2019, Gaussian, Inc.  All Rights Reserved.
  
 This is part of the Gaussian(R) 16 program.  It is based on
 the Gaussian(R) 09 system (copyright 2009, Gaussian, Inc.),
 the Gaussian(R) 03 system (copyright 2003, Gaussian, Inc.),
 the Gaussian(R) 98 system (copyright 1998, Gaussian, Inc.),
 the Gaussian(R) 94 system (copyright 1995, Gaussian, Inc.),
 the Gaussian 92(TM) system (copyright 1992, Gaussian, Inc.),
 the Gaussian 90(TM) system (copyright 1990, Gaussian, Inc.),
 the Gaussian 88(TM) system (copyright 1988, Gaussian, Inc.),
 the Gaussian 86(TM) system (copyright 1986, Carnegie Mellon
 University), and the Gaussian 82(TM) system (copyright 1983,
 Carnegie Mellon University). Gaussian is a federally registered
 trademark of Gaussian, Inc.
  
 This software contains proprietary and confidential information,
 including trade secrets, belonging to Gaussian, Inc.
  
 This software is provided under written license and may be
 used, copied, transmitted, or stored only in accord with that
 written license.
  
 The following legend is applicable only to US Government
 contracts under FAR:
  
                    RESTRICTED RIGHTS LEGEND
  
 Use, reproduction and disclosure by the US Government is
 subject to restrictions as set forth in subparagraphs (a)
 and (c) of the Commercial Computer Software - Restricted
 Rights clause in FAR 52.227-19.
  
 Gaussian, Inc.
 340 Quinnipiac St., Bldg. 40, Wallingford CT 06492
  
  
 ---------------------------------------------------------------
 Warning -- This program may not be used in any manner that
 competes with the business of Gaussian, Inc. or will provide
 assistance to any competitor of Gaussian, Inc.  The licensee
 of this program is prohibited from giving any competitor of
 Gaussian, Inc. access to this program.  By using this program,
 the user acknowledges that Gaussian, Inc. is engaged in the
 business of creating and licensing software in the field of
 computational chemistry and represents and warrants to the
 licensee that it is not a competitor of Gaussian, Inc. and that
 it will not use this program in any manner prohibited above.
 ---------------------------------------------------------------
  

 Cite this work as:
 Gaussian 16, Revision C.01,
 M. J. Frisch, G. W. Trucks, H. B. Schlegel, G. E. Scuseria, 
 M. A. Robb, J. R. Cheeseman, G. Scalmani, V. Barone, 
 G. A. Petersson, H. Nakatsuji, X. Li, M. Caricato, A. V. Marenich, 
 J. Bloino, B. G. Janesko, R. Gomperts, B. Mennucci, H. P. Hratchian, 
 J. V. Ortiz, A. F. Izmaylov, J. L. Sonnenberg, D. Williams-Young, 
 F. Ding, F. Lipparini, F. Egidi, J. Goings, B. Peng, A. Petrone, 
 T. Henderson, D. Ranasinghe, V. G. Zakrzewski, J. Gao, N. Rega, 
 G. Zheng, W. Liang, M. Hada, M. Ehara, K. Toyota, R. Fukuda, 
 J. Hasegawa, M. Ishida, T. Nakajima, Y. Honda, O. Kitao, H. Nakai, 
 T. Vreven, K. Throssell, J. A. Montgomery, Jr., J. E. Peralta, 
 F. Ogliaro, M. J. Bearpark, J. J. Heyd, E. N. Brothers, K. N. Kudin, 
 V. N. Staroverov, T. A. Keith, R. Kobayashi, J. Normand, 
 K. Raghavachari, A. P. Rendell, J. C. Burant, S. S. Iyengar, 
 J. Tomasi, M. Cossi, J. M. Millam, M. Klene, C. Adamo, R. Cammi, 
 J. W. Ochterski, R. L. Martin, K. Morokuma, O. Farkas, 
 J. B. Foresman, and D. J. Fox, Gaussian, Inc., Wallingford CT, 2019.
 
 ******************************************
 Gaussian 16:  ES64L-G16RevC.01  3-Jul-2019
                24-Mar-2022 
 ******************************************
 %chk=molecule
 Default route: CacheSize=180224 MaxDisk=256GB
 --------------------------------------------------
 #P CCSD/GEN sp pop=AllOrbitals iop(3/33=1,3/36=-1)
 --------------------------------------------------
 1/4=180224,38=1,172=1/1;
 2/4=180224,12=2,17=6,18=5,40=1/2;
 3/4=180224,5=7,11=9,25=1,30=1,33=1,36=-1/1,2,3;
 4/4=180224/1;
 5/4=180224,5=2,38=5/2;
 8/4=180224,6=4,9=120000,10=1/1,4;
 9/4=180224,5=7/13;
 6/4=180224,7=2,8=2,9=2,10=2,96=-1/1;
 99/4=180224,5=1,9=1/99;
 Leave Link    1 at Thu Mar 24 15:58:03 2022, MaxMem=           0 cpu:               2.1 elap:               0.1
 (Enter /nopt/nrel/apps/gaussian/g16C_1/g16/l101.exe)
 ----
 test
 ----
 Symbolic Z-matrix:
 Charge =  0 Multiplicity = 1
 H                     0.        0.        0. 
 Na                    0.        0.        1.8874 
 
 ITRead=  0  0
 MicOpt= -1 -1
 NAtoms=      2 NQM=        2 NQMF=       0 NMMI=      0 NMMIF=      0
                NMic=       0 NMicF=      0.
                    Isotopes and Nuclear Properties:
 (Nuclear quadrupole moments (NQMom) in fm**2, nuclear magnetic moments (NMagM)
  in nuclear magnetons)

  Atom         1           2
 IAtWgt=           1          23
 AtmWgt=   1.0078250  22.9897697
 NucSpn=           1           3
 AtZEff=  -0.0000000  -0.0000000
 NQMom=    0.0000000  10.4000000
 NMagM=    2.7928460   2.2175200
 AtZNuc=   1.0000000  11.0000000
 Leave Link  101 at Thu Mar 24 15:58:03 2022, MaxMem=  9663676416 cpu:               2.8 elap:               0.1
 (Enter /nopt/nrel/apps/gaussian/g16C_1/g16/l202.exe)
                          Input orientation:                          
 ---------------------------------------------------------------------
 Center     Atomic      Atomic             Coordinates (Angstroms)
 Number     Number       Type             X           Y           Z
 ---------------------------------------------------------------------
      1          1           0        0.000000    0.000000    0.000000
      2         11           0        0.000000    0.000000    1.887400
 ---------------------------------------------------------------------
 Stoichiometry    HNa
 Framework group  C*V[C*(HNa)]
 Deg. of freedom     1
 Full point group                 C*V     NOp   4
 Largest Abelian subgroup         C2V     NOp   4
 Largest concise Abelian subgroup C1      NOp   1
                         Standard orientation:                         
 ---------------------------------------------------------------------
 Center     Atomic      Atomic             Coordinates (Angstroms)
 Number     Number       Type             X           Y           Z
 ---------------------------------------------------------------------
      1          1           0        0.000000    0.000000   -1.730117
      2         11           0        0.000000    0.000000    0.157283
 ---------------------------------------------------------------------
 Rotational constants (GHZ):           0.0000000         146.9390573         146.9390573
 Leave Link  202 at Thu Mar 24 15:58:03 2022, MaxMem=  9663676416 cpu:               1.0 elap:               0.1
 (Enter /nopt/nrel/apps/gaussian/g16C_1/g16/l301.exe)
 General basis read from cards:  (5D, 7F)
                         Coordinates in L301:                         
 ---------------------------------------------------------------------
 Center     Atomic      Atomic             Coordinates (Angstroms)
 Number     Number       Type             X           Y           Z
 ---------------------------------------------------------------------
      1          1           0        0.000000    0.000000   -1.730117
      2         11           0        0.000000    0.000000    0.157283
 ---------------------------------------------------------------------
 Centers:       1
 STO-3G
 ****
 Centers:       2
 aug-cc-pVDZ
 ****
 FixB: optimizing general contractions.
 Ernie: Thresh=  0.10000D-02 Tol=  0.10000D-05 Strict=F.
 IA=     1 ShT= 0 ShC= 0 NL=   1 NS=   0.
 IA=     1 L=0 SC=0 ISt=    0 NBk=    0 NP=    0 IndPr=    0.
 IA=     2 ShT= 0 ShC= 0 NL=   5 NS=   2.
 IA=     2 L=0 SC=0 ISt=    1 NBk=    3 NP=   11 IndPr=    0.
 DoElim1:  L=0 select primitive    2 from    2 using    1 C= 3.55D-03
 DoElim1:  L=0 select primitive    2 from    3 using    1 C= 3.55D-03
 DoElim1:  L=0 select primitive    5 from    3 using    2 C=-6.14D-03
 DoElim2:  L=0 select primitive   11 from    2 using    3 C= 6.58D-01
 DoElim2:  L=0 select primitive   11 from    1 using    3 C= 6.58D-01
 DoElim2:  L=0 select primitive    9 from    1 using    2 C= 6.03D-01
 Delete L=0 primitive    5 from    3 C=  6.52D-20.
 Delete L=0 primitive    2 from    3 C=  2.06D-20.
 Delete L=0 primitive    1 from    3 C=  1.41D-07.
 Delete L=0 primitive   11 from    2 C=  1.18D-19.
 Delete L=0 primitive    2 from    2 C=  4.53D-20.
 Delete L=0 primitive    1 from    2 C=  7.82D-08.
 Delete L=0 primitive   11 from    1 C=  5.55D-21.
 Delete L=0 primitive    9 from    1 C=  4.94D-19.
 IA=     2 L=0 SC=0 ISt=    0 NBk=    0 NP=    0 IndPr=   25.
 IA=     2 ShT= 1 ShC= 1 NL=   4 NS=   2.
 IA=     2 L=1 SC=1 ISt=    1 NBk=    2 NP=    7 IndPr=    0.
 DoElim1:  L=1 select primitive    1 from    2 using    1 C= 5.80D-03
 DoElim2:  L=1 select primitive    7 from    1 using    2 C= 4.35D-01
 Delete L=1 primitive    1 from    2 C=  1.56D-20.
 Delete L=1 primitive    7 from    1 C=  1.56D-19.
 IA=     2 L=1 SC=1 ISt=    0 NBk=    0 NP=    0 IndPr=   12.
 IA=     2 ShT= 2 ShC= 2 NL=   2 NS=   2.
 IA=     2 L=2 SC=2 ISt=    0 NBk=    0 NP=    0 IndPr=    0.
 Ernie:  10 primitive shells out of 56 were deleted.
 LdAtmC:  AtmChg=     1.000000    11.000000
 AtZEff=     -1.0000000    -10.0400000
 NEqShl: 
              1            2            3            4
     1            1            1            1            1
     2            2            2            2            2
     3            3            3            3            3
     4            4            4            4            4
     5            5            5            5            5
     6            6            6            6            6
     7            7            7            7            7
     8            8            8            8            8
     9            9            9            9            9
    10           10           10           10           10
    11           11           11           11           11
    12           12           12           12           12
 NEqBas: 
              1            2            3            4
     1            1            1            1            1
     2            2            2            2            2
     3            3            3            3            3
     4            4            4            4            4
     5            5            5            5            5
     6            6            6            6            6
     7            7           -7           -7            7
     8            8           -8            8           -8
     9            9            9            9            9
    10           10          -10          -10           10
    11           11          -11           11          -11
    12           12           12           12           12
    13           13          -13          -13           13
    14           14          -14           14          -14
    15           15           15           15           15
    16           16          -16          -16           16
    17           17          -17           17          -17
    18           18           18           18           18
    19           19           19           19           19
    20           20           20           20           20
    21           21           21           21           21
    22           22           22          -22          -22
    23           23          -23          -23           23
    24           24          -24           24          -24
    25           25           25           25           25
    26           26           26           26           26
    27           27           27           27           27
    28           28           28          -28          -28
    29           29          -29          -29           29
    30           30          -30           30          -30
 There are    16 symmetry adapted cartesian basis functions of A1  symmetry.
   1         1   1   1   1
   2         2   2   2   2
   3         3   3   3   3
   4         4   4   4   4
   5         5   5   5   5
   6         6   6   6   6
   7         9   9   9   9
   8        12  12  12  12
   9        15  15  15  15
  10        18  18  18  18
  11        19  19  19  19
  12        20  20  20  20
  13        21  21  21  21
  14        25  25  25  25
  15        26  26  26  26
  16        27  27  27  27
 There are     2 symmetry adapted cartesian basis functions of A2  symmetry.
  17        22  22  22  22
  18        28  28  28  28
 There are     6 symmetry adapted cartesian basis functions of B1  symmetry.
  19         7   7   7   7
  20        10  10  10  10
  21        13  13  13  13
  22        16  16  16  16
  23        23  23  23  23
  24        29  29  29  29
 There are     6 symmetry adapted cartesian basis functions of B2  symmetry.
  25         8   8   8   8
  26        11  11  11  11
  27        14  14  14  14
  28        17  17  17  17
  29        24  24  24  24
  30        30  30  30  30
 Order= 1 2 4 3
 Reordered character table:
              1            2            3            4            5
     1            1            1            1            1            1
     2            2            1            1           -1           -1
     3            4            1           -1           -1            1
     4            3            1           -1            1           -1
 NEqShl: 
              1            2            3            4
     1            1            1            1            1
     2            2            2            2            2
     3            3            3            3            3
     4            4            4            4            4
     5            5            5            5            5
     6            6            6            6            6
     7            7            7            7            7
     8            8            8            8            8
     9            9            9            9            9
    10           10           10           10           10
    11           11           11           11           11
    12           12           12           12           12
 NEqBas: 
              1            2            3            4
     1            1            1            1            1
     2            2            2            2            2
     3            3            3            3            3
     4            4            4            4            4
     5            5            5            5            5
     6            6            6            6            6
     7            7           -7           -7            7
     8            8           -8            8           -8
     9            9            9            9            9
    10           10          -10          -10           10
    11           11          -11           11          -11
    12           12           12           12           12
    13           13          -13          -13           13
    14           14          -14           14          -14
    15           15           15           15           15
    16           16          -16          -16           16
    17           17          -17           17          -17
    18           18           18           18           18
    19           19           19           19           19
    20           20          -20          -20           20
    21           21          -21           21          -21
    22           22           22           22           22
    23           23           23          -23          -23
    24           24           24           24           24
    25           25          -25          -25           25
    26           26          -26           26          -26
    27           27           27           27           27
    28           28           28          -28          -28
 There are    14 symmetry adapted basis functions of A1  symmetry.
   1         1   1   1   1
   2         2   2   2   2
   3         3   3   3   3
   4         4   4   4   4
   5         5   5   5   5
   6         6   6   6   6
   7         9   9   9   9
   8        12  12  12  12
   9        15  15  15  15
  10        18  18  18  18
  11        19  19  19  19
  12        22  22  22  22
  13        24  24  24  24
  14        27  27  27  27
 There are     2 symmetry adapted basis functions of A2  symmetry.
  15        23  23  23  23
  16        28  28  28  28
 There are     6 symmetry adapted basis functions of B1  symmetry.
  17         7   7   7   7
  18        10  10  10  10
  19        13  13  13  13
  20        16  16  16  16
  21        20  20  20  20
  22        25  25  25  25
 There are     6 symmetry adapted basis functions of B2  symmetry.
  23         8   8   8   8
  24        11  11  11  11
  25        14  14  14  14
  26        17  17  17  17
  27        21  21  21  21
  28        26  26  26  26
 Order= 1 2 4 3
 Reordered character table:
              1            2            3            4            5
     1            1            1            1            1            1
     2            2            1            1           -1           -1
     3            4            1           -1           -1            1
     4            3            1           -1            1           -1
    28 basis functions,    84 primitive gaussians,    30 cartesian basis functions
     6 alpha electrons        6 beta electrons
       nuclear repulsion energy         3.0841100562 Hartrees.
 IS=     1 IAt=     1 ISR=     1 T=0 IP=      1 IndIP=      1 IndIPD=      0 C=  2.769344D-01  0.000000D+00                             NZ=T
 IS=     1 IAt=     1 ISR=     1 T=0 IP=      2 IndIP=      2 IndIPD=      1 C=  2.678389D-01  0.000000D+00                             NZ=T
 IS=     1 IAt=     1 ISR=     1 T=0 IP=      3 IndIP=      3 IndIPD=      2 C=  8.347367D-02  0.000000D+00                             NZ=T
 IS=     2 IAt=     2 ISR=     1 T=0 IP=      1 IndIP=      4 IndIPD=      0 C=  7.749657D-01  0.000000D+00                             NZ=T
 IS=     2 IAt=     2 ISR=     1 T=0 IP=      2 IndIP=      5 IndIPD=      1 C=  1.445329D+00  0.000000D+00                             NZ=T
 IS=     2 IAt=     2 ISR=     1 T=0 IP=      3 IndIP=      6 IndIPD=      2 C=  2.449022D+00  0.000000D+00                             NZ=T
 IS=     2 IAt=     2 ISR=     1 T=0 IP=      4 IndIP=      7 IndIPD=      3 C=  3.730568D+00  0.000000D+00                             NZ=T
 IS=     2 IAt=     2 ISR=     1 T=0 IP=      5 IndIP=      8 IndIPD=      4 C=  4.755208D+00  0.000000D+00                             NZ=T
 IS=     2 IAt=     2 ISR=     1 T=0 IP=      6 IndIP=      9 IndIPD=      5 C=  4.291841D+00  0.000000D+00                             NZ=T
 IS=     2 IAt=     2 ISR=     1 T=0 IP=      7 IndIP=     10 IndIPD=      6 C=  1.841498D+00  0.000000D+00                             NZ=T
 IS=     2 IAt=     2 ISR=     1 T=0 IP=      8 IndIP=     11 IndIPD=      7 C=  1.370586D-01  0.000000D+00                             NZ=T
 IS=     2 IAt=     2 ISR=     1 T=0 IP=      9 IndIP=     12 IndIPD=      8 C=  3.324917D-03  0.000000D+00                             NZ=T
 IS=     3 IAt=     2 ISR=     2 T=0 IP=      1 IndIP=     13 IndIPD=      0 C= -6.085686D-03  0.000000D+00                             NZ=T
 IS=     3 IAt=     2 ISR=     2 T=0 IP=      2 IndIP=     14 IndIPD=      1 C= -3.114138D-02  0.000000D+00                             NZ=T
 IS=     3 IAt=     2 ISR=     2 T=0 IP=      3 IndIP=     15 IndIPD=      2 C= -1.340760D-01  0.000000D+00                             NZ=T
 IS=     3 IAt=     2 ISR=     2 T=0 IP=      4 IndIP=     16 IndIPD=      3 C= -3.604805D-01  0.000000D+00                             NZ=T
 IS=     3 IAt=     2 ISR=     2 T=0 IP=      5 IndIP=     17 IndIPD=      4 C= -4.954545D-01  0.000000D+00                             NZ=T
 IS=     3 IAt=     2 ISR=     2 T=0 IP=      6 IndIP=     18 IndIPD=      5 C=  2.126614D-01  0.000000D+00                             NZ=T
 IS=     3 IAt=     2 ISR=     2 T=0 IP=      7 IndIP=     19 IndIPD=      6 C=  6.152727D-01  0.000000D+00                             NZ=T
 IS=     3 IAt=     2 ISR=     2 T=0 IP=      8 IndIP=     20 IndIPD=      7 C=  2.071440D-01  0.000000D+00                             NZ=T
 IS=     4 IAt=     2 ISR=     3 T=0 IP=      1 IndIP=     21 IndIPD=      0 C=  1.521098D-03  0.000000D+00                             NZ=T
 IS=     4 IAt=     2 ISR=     3 T=0 IP=      2 IndIP=     22 IndIPD=      1 C= -2.379509D-03  0.000000D+00                             NZ=T
 IS=     4 IAt=     2 ISR=     3 T=0 IP=      3 IndIP=     23 IndIPD=      2 C= -1.988937D-02  0.000000D+00                             NZ=T
 IS=     4 IAt=     2 ISR=     3 T=0 IP=      4 IndIP=     24 IndIPD=      3 C= -6.775799D-03  0.000000D+00                             NZ=T
 IS=     4 IAt=     2 ISR=     3 T=0 IP=      5 IndIP=     25 IndIPD=      4 C= -9.360493D-03  0.000000D+00                             NZ=T
 IS=     4 IAt=     2 ISR=     3 T=0 IP=      6 IndIP=     26 IndIPD=      5 C=  1.615288D-02  0.000000D+00                             NZ=T
 IS=     4 IAt=     2 ISR=     3 T=0 IP=      7 IndIP=     27 IndIPD=      6 C= -9.059148D-02  0.000000D+00                             NZ=T
 IS=     4 IAt=     2 ISR=     3 T=0 IP=      8 IndIP=     28 IndIPD=      7 C=  8.779692D-02  0.000000D+00                             NZ=T
 IS=     5 IAt=     2 ISR=     4 T=0 IP=      1 IndIP=     29 IndIPD=      0 C=  4.218867D-02  0.000000D+00                             NZ=T
 IS=     6 IAt=     2 ISR=     5 T=0 IP=      1 IndIP=     30 IndIPD=      0 C=  1.769933D-02  0.000000D+00                             NZ=T
 IS=     7 IAt=     2 ISR=     6 T=1 IP=      1 IndIP=     31 IndIPD=      0 C=  0.000000D+00  3.916140D+00                             NZ=T
 IS=     7 IAt=     2 ISR=     6 T=1 IP=      2 IndIP=     32 IndIPD=      1 C=  0.000000D+00  4.557958D+00                             NZ=T
 IS=     7 IAt=     2 ISR=     6 T=1 IP=      3 IndIP=     33 IndIPD=      2 C=  0.000000D+00  4.125852D+00                             NZ=T
 IS=     7 IAt=     2 ISR=     6 T=1 IP=      4 IndIP=     34 IndIPD=      3 C=  0.000000D+00  2.441280D+00                             NZ=T
 IS=     7 IAt=     2 ISR=     6 T=1 IP=      5 IndIP=     35 IndIPD=      4 C=  0.000000D+00  8.329269D-01                             NZ=T
 IS=     7 IAt=     2 ISR=     6 T=1 IP=      6 IndIP=     36 IndIPD=      5 C=  0.000000D+00  1.089733D-01                             NZ=T
 IS=     8 IAt=     2 ISR=     7 T=1 IP=      1 IndIP=     37 IndIPD=      0 C=  0.000000D+00  2.457740D-02                             NZ=T
 IS=     8 IAt=     2 ISR=     7 T=1 IP=      2 IndIP=     38 IndIPD=      1 C=  0.000000D+00 -2.625009D-02                             NZ=T
 IS=     8 IAt=     2 ISR=     7 T=1 IP=      3 IndIP=     39 IndIPD=      2 C=  0.000000D+00  1.134429D-02                             NZ=T
 IS=     8 IAt=     2 ISR=     7 T=1 IP=      4 IndIP=     40 IndIPD=      3 C=  0.000000D+00 -2.983152D-02                             NZ=T
 IS=     8 IAt=     2 ISR=     7 T=1 IP=      5 IndIP=     41 IndIPD=      4 C=  0.000000D+00  6.561456D-03                             NZ=T
 IS=     8 IAt=     2 ISR=     7 T=1 IP=      6 IndIP=     42 IndIPD=      5 C=  0.000000D+00  4.674178D-02                             NZ=T
 IS=     9 IAt=     2 ISR=     8 T=1 IP=      1 IndIP=     43 IndIPD=      0 C=  0.000000D+00  1.107711D-02                             NZ=T
 IS=    10 IAt=     2 ISR=     9 T=1 IP=      1 IndIP=     44 IndIPD=      0 C=  0.000000D+00  2.458659D-03                             NZ=T
 IS=    11 IAt=     2 ISR=    10 T=2 IP=      1 IndIP=     45 IndIPD=      1 C=  0.000000D+00  0.000000D+00  2.790017D-02  0.000000D+00 NZ=T
 IS=    12 IAt=     2 ISR=    11 T=2 IP=      1 IndIP=     46 IndIPD=      2 C=  0.000000D+00  0.000000D+00  7.734580D-03  0.000000D+00 NZ=T
 IExCor=    0 DFT=F Ex=HF Corr=None ExCW=0 ScaHFX=  1.000000
 ScaDFX=  1.000000  1.000000  1.000000  1.000000 ScalE2=  1.000000  1.000000
 IRadAn=      5 IRanWt=     -1 IRanGd=            0 ICorTp=0 IEmpDi=  4
 NAtoms=    2 NActive=    2 NUniq=    2 SFac= 1.00D+00 NAtFMM=   60 NAOKFM=F Big=F
 Integral buffers will be    131072 words long.
 Raffenetti 1 integral format.
 Two-electron integral symmetry is turned on.
 Leave Link  301 at Thu Mar 24 15:58:03 2022, MaxMem=  9663676416 cpu:               2.0 elap:               0.1
 (Enter /nopt/nrel/apps/gaussian/g16C_1/g16/l302.exe)
 NPDir=0 NMtPBC=     1 NCelOv=     1 NCel=       1 NClECP=     1 NCelD=      1
         NCelK=      1 NCelE2=     1 NClLst=     1 CellRange=     0.0.
 One-electron integrals computed using PRISM.
 One-electron integral symmetry used in STVInt
 Entering OneElI...
 Calculate overlap and kinetic energy integrals
    NBasis =  28  MinDer = 0  MaxDer = 0
 Requested accuracy = 0.1000D-12
 Symmetry will be used
 PrmmSu-InSpLW:  IPartL=    0 NPrtUS=   36 NPrtUL=    1 DoSpLW=F IThBeg=    0 IThEnd=   35 NThAct=   36.
 PrSmSu:  IncTry=   512 NBBP=             78 NTPThr=   100 NPartT=   36 Incr=           1 LDynOK=F GPUOK=F.
 PrsmSu:  NPrtUS=  36 ThrOK=T IAlg=1 LenDen=           0 ISkipM=0 DoSpLW=F IThBeg=    0 IThEnd=   35.
 Prism:   IPart=     0 DynPar=F LinDyn=F Incr=           1.
 PRISM was handed   268423854 working-precision words and    78 shell-pairs
 PRISM was handed   268423854 working-precision words and    78 shell-pairs
 PRISM was handed   268423854 working-precision words and    78 shell-pairs
 PRISM was handed   268423854 working-precision words and    78 shell-pairs
 PRISM was handed   268423854 working-precision words and    78 shell-pairs
 PRISM was handed   268423854 working-precision words and    78 shell-pairs
 PRISM was handed   268423854 working-precision words and    78 shell-pairs
 PRISM was handed   268423854 working-precision words and    78 shell-pairs
 PRISM was handed   268423854 working-precision words and    78 shell-pairs
 PRISM was handed   268423854 working-precision words and    78 shell-pairs
 PRISM was handed   268423854 working-precision words and    78 shell-pairs
 IPart= 20 NShTot=           0 NBatch=           0 AvBLen=         0.0
 IPart= 15 NShTot=           0 NBatch=           0 AvBLen=         0.0
 IPart= 35 NShTot=           0 NBatch=           0 AvBLen=         0.0
 IPart= 32 NShTot=           0 NBatch=           0 AvBLen=         0.0
 IPart=  5 NShTot=           0 NBatch=           0 AvBLen=         0.0
 IPart= 33 NShTot=           0 NBatch=           0 AvBLen=         0.0
 IPart= 11 NShTot=           0 NBatch=           0 AvBLen=         0.0
 IPart= 30 NShTot=           0 NBatch=           0 AvBLen=         0.0
 PRISM was handed   268423854 working-precision words and    78 shell-pairs
 IPart= 26 NShTot=           0 NBatch=           0 AvBLen=         0.0
 PRISM was handed   268423854 working-precision words and    78 shell-pairs
 PRISM was handed   268423854 working-precision words and    78 shell-pairs
 PRISM was handed   268423854 working-precision words and    78 shell-pairs
 PRISM was handed   268423854 working-precision words and    78 shell-pairs
 PRISM was handed   268423854 working-precision words and    78 shell-pairs
 PRISM was handed   268423854 working-precision words and    78 shell-pairs
 IPart= 18 NShTot=           0 NBatch=           0 AvBLen=         0.0
 IPart=  1 NShTot=          25 NBatch=          25 AvBLen=         1.0
 IPart= 14 NShTot=           0 NBatch=           0 AvBLen=         0.0
 IPart= 12 NShTot=           0 NBatch=           0 AvBLen=         0.0
 IPart= 19 NShTot=           0 NBatch=           0 AvBLen=         0.0
 IPart=  8 NShTot=           0 NBatch=           0 AvBLen=         0.0
 IPart=  6 NShTot=           0 NBatch=           0 AvBLen=         0.0
 PRISM was handed   268423854 working-precision words and    78 shell-pairs
 PRISM was handed   268423854 working-precision words and    78 shell-pairs
 PRISM was handed   268423854 working-precision words and    78 shell-pairs
 PRISM was handed   268423854 working-precision words and    78 shell-pairs
 IPart=  2 NShTot=          16 NBatch=          16 AvBLen=         1.0
 PRISM was handed   268423854 working-precision words and    78 shell-pairs
 PRISM was handed   268423854 working-precision words and    78 shell-pairs
 PRISM was handed   268423854 working-precision words and    78 shell-pairs
 IPart= 22 NShTot=           0 NBatch=           0 AvBLen=         0.0
 IPart= 21 NShTot=           0 NBatch=           0 AvBLen=         0.0
 PRISM was handed   268423854 working-precision words and    78 shell-pairs
 IPart= 24 NShTot=           0 NBatch=           0 AvBLen=         0.0
 IPart= 23 NShTot=           0 NBatch=           0 AvBLen=         0.0
 IPart=  7 NShTot=           0 NBatch=           0 AvBLen=         0.0
 PRISM was handed   268423854 working-precision words and    78 shell-pairs
 IPart=  9 NShTot=           0 NBatch=           0 AvBLen=         0.0
 PRISM was handed   268423854 working-precision words and    78 shell-pairs
 PRISM was handed   268423854 working-precision words and    78 shell-pairs
 PRISM was handed   268423854 working-precision words and    78 shell-pairs
 PRISM was handed   268423854 working-precision words and    78 shell-pairs
 IPart= 31 NShTot=           0 NBatch=           0 AvBLen=         0.0
 IPart= 10 NShTot=           0 NBatch=           0 AvBLen=         0.0
 IPart= 16 NShTot=           0 NBatch=           0 AvBLen=         0.0
 PRISM was handed   268423854 working-precision words and    78 shell-pairs
 PRISM was handed   268423854 working-precision words and    78 shell-pairs
 PRISM was handed   268423854 working-precision words and    78 shell-pairs
 IPart= 13 NShTot=           0 NBatch=           0 AvBLen=         0.0
 IPart= 34 NShTot=           0 NBatch=           0 AvBLen=         0.0
 IPart= 17 NShTot=           0 NBatch=           0 AvBLen=         0.0
 IPart= 27 NShTot=           0 NBatch=           0 AvBLen=         0.0
 PRISM was handed   268423854 working-precision words and    78 shell-pairs
 PRISM was handed   268423854 working-precision words and    78 shell-pairs
 IPart=  0 NShTot=          27 NBatch=          27 AvBLen=         1.0
 IPart= 29 NShTot=           0 NBatch=           0 AvBLen=         0.0
 IPart=  4 NShTot=           0 NBatch=           0 AvBLen=         0.0
 IPart=  3 NShTot=          10 NBatch=          10 AvBLen=         1.0
 IPart= 25 NShTot=           0 NBatch=           0 AvBLen=         0.0
 IPart= 28 NShTot=           0 NBatch=           0 AvBLen=         0.0
 PrSmSu:  NxtVal=             37.
 *** Overlap *** 
                1             2             3             4             5 
      1  0.100000D+01
      2  0.489313D-02  0.100000D+01
      3  0.501305D-01  0.247971D+00  0.100000D+01
      4  0.340246D+00  0.318917D-02  0.166761D+00  0.100000D+01
      5  0.278847D+00  0.200816D-01  0.169469D+00  0.877618D+00  0.100000D+01
      6  0.153882D+00  0.846821D-02  0.732034D-01  0.520111D+00  0.787739D+00
      7  0.000000D+00  0.000000D+00  0.000000D+00  0.000000D+00  0.000000D+00
      8  0.000000D+00  0.000000D+00  0.000000D+00  0.000000D+00  0.000000D+00
      9 -0.617087D-01  0.000000D+00  0.000000D+00  0.000000D+00  0.000000D+00
     10  0.000000D+00  0.000000D+00  0.000000D+00  0.000000D+00  0.000000D+00
     11  0.000000D+00  0.000000D+00  0.000000D+00  0.000000D+00  0.000000D+00
     12 -0.476492D+00  0.000000D+00  0.000000D+00  0.000000D+00  0.000000D+00
     13  0.000000D+00  0.000000D+00  0.000000D+00  0.000000D+00  0.000000D+00
     14  0.000000D+00  0.000000D+00  0.000000D+00  0.000000D+00  0.000000D+00
     15 -0.250329D+00  0.000000D+00  0.000000D+00  0.000000D+00  0.000000D+00
     16  0.000000D+00  0.000000D+00  0.000000D+00  0.000000D+00  0.000000D+00
     17  0.000000D+00  0.000000D+00  0.000000D+00  0.000000D+00  0.000000D+00
     18 -0.757287D-01  0.000000D+00  0.000000D+00  0.000000D+00  0.000000D+00
     19  0.465679D+00  0.000000D+00  0.000000D+00  0.000000D+00  0.000000D+00
     20  0.000000D+00  0.000000D+00  0.000000D+00  0.000000D+00  0.000000D+00
     21  0.000000D+00  0.000000D+00  0.000000D+00  0.000000D+00  0.000000D+00
     22  0.000000D+00  0.000000D+00  0.000000D+00  0.000000D+00  0.000000D+00
     23  0.000000D+00  0.000000D+00  0.000000D+00  0.000000D+00  0.000000D+00
     24  0.321570D+00  0.000000D+00  0.000000D+00  0.000000D+00  0.000000D+00
     25  0.000000D+00  0.000000D+00  0.000000D+00  0.000000D+00  0.000000D+00
     26  0.000000D+00  0.000000D+00  0.000000D+00  0.000000D+00  0.000000D+00
     27  0.000000D+00  0.000000D+00  0.000000D+00  0.000000D+00  0.000000D+00
     28  0.000000D+00  0.000000D+00  0.000000D+00  0.000000D+00  0.000000D+00
                6             7             8             9            10 
      6  0.100000D+01
      7  0.000000D+00  0.100000D+01
      8  0.000000D+00  0.000000D+00  0.100000D+01
      9  0.000000D+00  0.000000D+00  0.000000D+00  0.100000D+01
     10  0.000000D+00  0.154548D+00  0.000000D+00  0.000000D+00  0.100000D+01
     11  0.000000D+00  0.000000D+00  0.154548D+00  0.000000D+00  0.000000D+00
     12  0.000000D+00  0.000000D+00  0.000000D+00  0.154548D+00  0.000000D+00
     13  0.000000D+00  0.447959D-01  0.000000D+00  0.000000D+00  0.672325D+00
     14  0.000000D+00  0.000000D+00  0.447959D-01  0.000000D+00  0.000000D+00
     15  0.000000D+00  0.000000D+00  0.000000D+00  0.447959D-01  0.000000D+00
     16  0.000000D+00  0.105561D-01  0.000000D+00  0.000000D+00  0.236078D+00
     17  0.000000D+00  0.000000D+00  0.105561D-01  0.000000D+00  0.000000D+00
     18  0.000000D+00  0.000000D+00  0.000000D+00  0.105561D-01  0.000000D+00
     19  0.000000D+00  0.000000D+00  0.000000D+00  0.000000D+00  0.000000D+00
     20  0.000000D+00  0.000000D+00  0.000000D+00  0.000000D+00  0.000000D+00
     21  0.000000D+00  0.000000D+00  0.000000D+00  0.000000D+00  0.000000D+00
     22  0.000000D+00  0.000000D+00  0.000000D+00  0.000000D+00  0.000000D+00
     23  0.000000D+00  0.000000D+00  0.000000D+00  0.000000D+00  0.000000D+00
     24  0.000000D+00  0.000000D+00  0.000000D+00  0.000000D+00  0.000000D+00
     25  0.000000D+00  0.000000D+00  0.000000D+00  0.000000D+00  0.000000D+00
     26  0.000000D+00  0.000000D+00  0.000000D+00  0.000000D+00  0.000000D+00
     27  0.000000D+00  0.000000D+00  0.000000D+00  0.000000D+00  0.000000D+00
     28  0.000000D+00  0.000000D+00  0.000000D+00  0.000000D+00  0.000000D+00
               11            12            13            14            15 
     11  0.100000D+01
     12  0.000000D+00  0.100000D+01
     13  0.000000D+00  0.000000D+00  0.100000D+01
     14  0.672325D+00  0.000000D+00  0.000000D+00  0.100000D+01
     15  0.000000D+00  0.672325D+00  0.000000D+00  0.000000D+00  0.100000D+01
     16  0.000000D+00  0.000000D+00  0.651701D+00  0.000000D+00  0.000000D+00
     17  0.236078D+00  0.000000D+00  0.000000D+00  0.651701D+00  0.000000D+00
     18  0.000000D+00  0.236078D+00  0.000000D+00  0.000000D+00  0.651701D+00
     19  0.000000D+00  0.000000D+00  0.000000D+00  0.000000D+00  0.000000D+00
     20  0.000000D+00  0.000000D+00  0.000000D+00  0.000000D+00  0.000000D+00
     21  0.000000D+00  0.000000D+00  0.000000D+00  0.000000D+00  0.000000D+00
     22  0.000000D+00  0.000000D+00  0.000000D+00  0.000000D+00  0.000000D+00
     23  0.000000D+00  0.000000D+00  0.000000D+00  0.000000D+00  0.000000D+00
     24  0.000000D+00  0.000000D+00  0.000000D+00  0.000000D+00  0.000000D+00
     25  0.000000D+00  0.000000D+00  0.000000D+00  0.000000D+00  0.000000D+00
     26  0.000000D+00  0.000000D+00  0.000000D+00  0.000000D+00  0.000000D+00
     27  0.000000D+00  0.000000D+00  0.000000D+00  0.000000D+00  0.000000D+00
     28  0.000000D+00  0.000000D+00  0.000000D+00  0.000000D+00  0.000000D+00
               16            17            18            19            20 
     16  0.100000D+01
     17  0.000000D+00  0.100000D+01
     18  0.000000D+00  0.000000D+00  0.100000D+01
     19  0.000000D+00  0.000000D+00  0.000000D+00  0.100000D+01
     20  0.000000D+00  0.000000D+00  0.000000D+00  0.000000D+00  0.100000D+01
     21  0.000000D+00  0.000000D+00  0.000000D+00  0.000000D+00  0.000000D+00
     22  0.000000D+00  0.000000D+00  0.000000D+00  0.000000D+00  0.000000D+00
     23  0.000000D+00  0.000000D+00  0.000000D+00  0.000000D+00  0.000000D+00
     24  0.000000D+00  0.000000D+00  0.000000D+00  0.794497D+00  0.000000D+00
     25  0.000000D+00  0.000000D+00  0.000000D+00  0.000000D+00  0.794497D+00
     26  0.000000D+00  0.000000D+00  0.000000D+00  0.000000D+00  0.000000D+00
     27  0.000000D+00  0.000000D+00  0.000000D+00  0.000000D+00  0.000000D+00
     28  0.000000D+00  0.000000D+00  0.000000D+00  0.000000D+00  0.000000D+00
               21            22            23            24            25 
     21  0.100000D+01
     22  0.000000D+00  0.100000D+01
     23  0.000000D+00  0.000000D+00  0.100000D+01
     24  0.000000D+00  0.000000D+00  0.000000D+00  0.100000D+01
     25  0.000000D+00  0.000000D+00  0.000000D+00  0.000000D+00  0.100000D+01
     26  0.794497D+00  0.000000D+00  0.000000D+00  0.000000D+00  0.000000D+00
     27  0.000000D+00  0.794497D+00  0.000000D+00  0.000000D+00  0.000000D+00
     28  0.000000D+00  0.000000D+00  0.794497D+00  0.000000D+00  0.000000D+00
               26            27            28 
     26  0.100000D+01
     27  0.000000D+00  0.100000D+01
     28  0.000000D+00  0.000000D+00  0.100000D+01
 *** Kinetic Energy *** 
                1             2             3             4             5 
      1  0.760032D+00
      2 -0.144038D-02  0.559245D+02
      3 -0.141424D-01 -0.270711D+01  0.198850D+01
      4  0.331857D-01 -0.186861D+00 -0.113978D+00  0.981361D-01
      5  0.144351D-01  0.138303D-02  0.114008D-01  0.423571D-01  0.346050D-01
      6  0.304843D-02  0.183772D-03  0.157678D-02  0.997682D-02  0.130302D-01
      7  0.000000D+00  0.000000D+00  0.000000D+00  0.000000D+00  0.000000D+00
      8  0.000000D+00  0.000000D+00  0.000000D+00  0.000000D+00  0.000000D+00
      9  0.491485D-02  0.000000D+00  0.000000D+00  0.000000D+00  0.000000D+00
     10  0.000000D+00  0.000000D+00  0.000000D+00  0.000000D+00  0.000000D+00
     11  0.000000D+00  0.000000D+00  0.000000D+00  0.000000D+00  0.000000D+00
     12 -0.908093D-01  0.000000D+00  0.000000D+00  0.000000D+00  0.000000D+00
     13  0.000000D+00  0.000000D+00  0.000000D+00  0.000000D+00  0.000000D+00
     14  0.000000D+00  0.000000D+00  0.000000D+00  0.000000D+00  0.000000D+00
     15 -0.213806D-01  0.000000D+00  0.000000D+00  0.000000D+00  0.000000D+00
     16  0.000000D+00  0.000000D+00  0.000000D+00  0.000000D+00  0.000000D+00
     17  0.000000D+00  0.000000D+00  0.000000D+00  0.000000D+00  0.000000D+00
     18 -0.220097D-02  0.000000D+00  0.000000D+00  0.000000D+00  0.000000D+00
     19  0.174769D+00  0.000000D+00  0.000000D+00  0.000000D+00  0.000000D+00
     20  0.000000D+00  0.000000D+00  0.000000D+00  0.000000D+00  0.000000D+00
     21  0.000000D+00  0.000000D+00  0.000000D+00  0.000000D+00  0.000000D+00
     22  0.000000D+00  0.000000D+00  0.000000D+00  0.000000D+00  0.000000D+00
     23  0.000000D+00  0.000000D+00  0.000000D+00  0.000000D+00  0.000000D+00
     24  0.765715D-01  0.000000D+00  0.000000D+00  0.000000D+00  0.000000D+00
     25  0.000000D+00  0.000000D+00  0.000000D+00  0.000000D+00  0.000000D+00
     26  0.000000D+00  0.000000D+00  0.000000D+00  0.000000D+00  0.000000D+00
     27  0.000000D+00  0.000000D+00  0.000000D+00  0.000000D+00  0.000000D+00
     28  0.000000D+00  0.000000D+00  0.000000D+00  0.000000D+00  0.000000D+00
                6             7             8             9            10 
      6  0.108681D-01
      7  0.000000D+00  0.590429D+01
      8  0.000000D+00  0.000000D+00  0.590429D+01
      9  0.000000D+00  0.000000D+00  0.000000D+00  0.590429D+01
     10  0.000000D+00  0.132596D-01  0.000000D+00  0.000000D+00  0.163902D+00
     11  0.000000D+00  0.000000D+00  0.132596D-01  0.000000D+00  0.000000D+00
     12  0.000000D+00  0.000000D+00  0.000000D+00  0.132596D-01  0.000000D+00
     13  0.000000D+00  0.444443D-02  0.000000D+00  0.000000D+00  0.524934D-01
     14  0.000000D+00  0.000000D+00  0.444443D-02  0.000000D+00  0.000000D+00
     15  0.000000D+00  0.000000D+00  0.000000D+00  0.444443D-02  0.000000D+00
     16  0.000000D+00  0.321591D-03  0.000000D+00  0.000000D+00  0.664104D-02
     17  0.000000D+00  0.000000D+00  0.321591D-03  0.000000D+00  0.000000D+00
     18  0.000000D+00  0.000000D+00  0.000000D+00  0.321591D-03  0.000000D+00
     19  0.000000D+00  0.000000D+00  0.000000D+00  0.000000D+00  0.000000D+00
     20  0.000000D+00  0.000000D+00  0.000000D+00  0.000000D+00  0.000000D+00
     21  0.000000D+00  0.000000D+00  0.000000D+00  0.000000D+00  0.000000D+00
     22  0.000000D+00  0.000000D+00  0.000000D+00  0.000000D+00  0.000000D+00
     23  0.000000D+00  0.000000D+00  0.000000D+00  0.000000D+00  0.000000D+00
     24  0.000000D+00  0.000000D+00  0.000000D+00  0.000000D+00  0.000000D+00
     25  0.000000D+00  0.000000D+00  0.000000D+00  0.000000D+00  0.000000D+00
     26  0.000000D+00  0.000000D+00  0.000000D+00  0.000000D+00  0.000000D+00
     27  0.000000D+00  0.000000D+00  0.000000D+00  0.000000D+00  0.000000D+00
     28  0.000000D+00  0.000000D+00  0.000000D+00  0.000000D+00  0.000000D+00
               11            12            13            14            15 
     11  0.163902D+00
     12  0.000000D+00  0.163902D+00
     13  0.000000D+00  0.000000D+00  0.513250D-01
     14  0.524934D-01  0.000000D+00  0.000000D+00  0.513250D-01
     15  0.000000D+00  0.524934D-01  0.000000D+00  0.000000D+00  0.513250D-01
     16  0.000000D+00  0.000000D+00  0.154350D-01  0.000000D+00  0.000000D+00
     17  0.664104D-02  0.000000D+00  0.000000D+00  0.154350D-01  0.000000D+00
     18  0.000000D+00  0.664104D-02  0.000000D+00  0.000000D+00  0.154350D-01
     19  0.000000D+00  0.000000D+00  0.000000D+00  0.000000D+00  0.000000D+00
     20  0.000000D+00  0.000000D+00  0.000000D+00  0.000000D+00  0.000000D+00
     21  0.000000D+00  0.000000D+00  0.000000D+00  0.000000D+00  0.000000D+00
     22  0.000000D+00  0.000000D+00  0.000000D+00  0.000000D+00  0.000000D+00
     23  0.000000D+00  0.000000D+00  0.000000D+00  0.000000D+00  0.000000D+00
     24  0.000000D+00  0.000000D+00  0.000000D+00  0.000000D+00  0.000000D+00
     25  0.000000D+00  0.000000D+00  0.000000D+00  0.000000D+00  0.000000D+00
     26  0.000000D+00  0.000000D+00  0.000000D+00  0.000000D+00  0.000000D+00
     27  0.000000D+00  0.000000D+00  0.000000D+00  0.000000D+00  0.000000D+00
     28  0.000000D+00  0.000000D+00  0.000000D+00  0.000000D+00  0.000000D+00
               16            17            18            19            20 
     16  0.153938D-01
     17  0.000000D+00  0.153938D-01
     18  0.000000D+00  0.000000D+00  0.153938D-01
     19  0.000000D+00  0.000000D+00  0.000000D+00  0.340550D+00
     20  0.000000D+00  0.000000D+00  0.000000D+00  0.000000D+00  0.340550D+00
     21  0.000000D+00  0.000000D+00  0.000000D+00  0.000000D+00  0.000000D+00
     22  0.000000D+00  0.000000D+00  0.000000D+00  0.000000D+00  0.000000D+00
     23  0.000000D+00  0.000000D+00  0.000000D+00  0.000000D+00  0.000000D+00
     24  0.000000D+00  0.000000D+00  0.000000D+00  0.175605D+00  0.000000D+00
     25  0.000000D+00  0.000000D+00  0.000000D+00  0.000000D+00  0.175605D+00
     26  0.000000D+00  0.000000D+00  0.000000D+00  0.000000D+00  0.000000D+00
     27  0.000000D+00  0.000000D+00  0.000000D+00  0.000000D+00  0.000000D+00
     28  0.000000D+00  0.000000D+00  0.000000D+00  0.000000D+00  0.000000D+00
               21            22            23            24            25 
     21  0.340550D+00
     22  0.000000D+00  0.340550D+00
     23  0.000000D+00  0.000000D+00  0.340550D+00
     24  0.000000D+00  0.000000D+00  0.000000D+00  0.163606D+00
     25  0.000000D+00  0.000000D+00  0.000000D+00  0.000000D+00  0.163606D+00
     26  0.175605D+00  0.000000D+00  0.000000D+00  0.000000D+00  0.000000D+00
     27  0.000000D+00  0.175605D+00  0.000000D+00  0.000000D+00  0.000000D+00
     28  0.000000D+00  0.000000D+00  0.175605D+00  0.000000D+00  0.000000D+00
               26            27            28 
     26  0.163606D+00
     27  0.000000D+00  0.163606D+00
     28  0.000000D+00  0.000000D+00  0.163606D+00
 Entering OneElI...
 Calculate potential energy integrals
    NBasis =  28  MinDer = 0  MaxDer = 0
 Requested accuracy = 0.1000D-12
 Symmetry will be used
 PrmmSu-InSpLW:  IPartL=    0 NPrtUS=   36 NPrtUL=    1 DoSpLW=F IThBeg=    0 IThEnd=   35 NThAct=   36.
 PrSmSu:  IncTry=   512 NBBP=            156 NTPThr=   100 NPartT=   36 Incr=           1 LDynOK=F GPUOK=F.
 PrsmSu:  NPrtUS=  36 ThrOK=T IAlg=1 LenDen=           0 ISkipM=0 DoSpLW=F IThBeg=    0 IThEnd=   35.
 Prism:   IPart=     0 DynPar=F LinDyn=F Incr=           1.
 PRISM was handed   268424466 working-precision words and    78 shell-pairs
 PRISM was handed   268424466 working-precision words and    78 shell-pairs
 PRISM was handed   268424466 working-precision words and    78 shell-pairs
 PRISM was handed   268424466 working-precision words and    78 shell-pairs
 PRISM was handed   268424466 working-precision words and    78 shell-pairs
 PRISM was handed   268424466 working-precision words and    78 shell-pairs
 PRISM was handed   268424466 working-precision words and    78 shell-pairs
 PRISM was handed   268424466 working-precision words and    78 shell-pairs
 PRISM was handed   268424466 working-precision words and    78 shell-pairs
 PRISM was handed   268424466 working-precision words and    78 shell-pairs
 PRISM was handed   268424466 working-precision words and    78 shell-pairs
 PRISM was handed   268424466 working-precision words and    78 shell-pairs
 PRISM was handed   268424466 working-precision words and    78 shell-pairs
 PRISM was handed   268424466 working-precision words and    78 shell-pairs
 PRISM was handed   268424466 working-precision words and    78 shell-pairs
 PRISM was handed   268424466 working-precision words and    78 shell-pairs
 PRISM was handed   268424466 working-precision words and    78 shell-pairs
 PRISM was handed   268424466 working-precision words and    78 shell-pairs
 PRISM was handed   268424466 working-precision words and    78 shell-pairs
 PRISM was handed   268424466 working-precision words and    78 shell-pairs
 PRISM was handed   268424466 working-precision words and    78 shell-pairs
 PRISM was handed   268424466 working-precision words and    78 shell-pairs
 PRISM was handed   268424466 working-precision words and    78 shell-pairs
 PRISM was handed   268424466 working-precision words and    78 shell-pairs
 PRISM was handed   268424466 working-precision words and    78 shell-pairs
 PRISM was handed   268424466 working-precision words and    78 shell-pairs
 PRISM was handed   268424466 working-precision words and    78 shell-pairs
 PRISM was handed   268424466 working-precision words and    78 shell-pairs
 PRISM was handed   268424466 working-precision words and    78 shell-pairs
 PRISM was handed   268424466 working-precision words and    78 shell-pairs
 PRISM was handed   268424466 working-precision words and    78 shell-pairs
 PRISM was handed   268424466 working-precision words and    78 shell-pairs
 PRISM was handed   268424466 working-precision words and    78 shell-pairs
 PRISM was handed   268424466 working-precision words and    78 shell-pairs
 PRISM was handed   268424466 working-precision words and    78 shell-pairs
 PRISM was handed   268424466 working-precision words and    78 shell-pairs
 IPart=  3 NShTot=          20 NBatch=          10 AvBLen=         2.0
 IPart=  0 NShTot=          56 NBatch=          28 AvBLen=         2.0
 IPart=  1 NShTot=          48 NBatch=          24 AvBLen=         2.0
 IPart=  2 NShTot=          32 NBatch=          16 AvBLen=         2.0
 IPart= 35 NShTot=           0 NBatch=           0 AvBLen=         0.0
 IPart= 25 NShTot=           0 NBatch=           0 AvBLen=         0.0
 IPart= 31 NShTot=           0 NBatch=           0 AvBLen=         0.0
 IPart=  5 NShTot=           0 NBatch=           0 AvBLen=         0.0
 IPart= 18 NShTot=           0 NBatch=           0 AvBLen=         0.0
 IPart= 30 NShTot=           0 NBatch=           0 AvBLen=         0.0
 IPart= 16 NShTot=           0 NBatch=           0 AvBLen=         0.0
 IPart=  4 NShTot=           0 NBatch=           0 AvBLen=         0.0
 IPart= 11 NShTot=           0 NBatch=           0 AvBLen=         0.0
 IPart=  8 NShTot=           0 NBatch=           0 AvBLen=         0.0
 IPart= 10 NShTot=           0 NBatch=           0 AvBLen=         0.0
 IPart= 34 NShTot=           0 NBatch=           0 AvBLen=         0.0
 IPart=  9 NShTot=           0 NBatch=           0 AvBLen=         0.0
 IPart= 32 NShTot=           0 NBatch=           0 AvBLen=         0.0
 IPart= 33 NShTot=           0 NBatch=           0 AvBLen=         0.0
 IPart= 28 NShTot=           0 NBatch=           0 AvBLen=         0.0
 IPart= 19 NShTot=           0 NBatch=           0 AvBLen=         0.0
 IPart= 27 NShTot=           0 NBatch=           0 AvBLen=         0.0
 IPart= 26 NShTot=           0 NBatch=           0 AvBLen=         0.0
 IPart= 23 NShTot=           0 NBatch=           0 AvBLen=         0.0
 IPart=  7 NShTot=           0 NBatch=           0 AvBLen=         0.0
 IPart= 14 NShTot=           0 NBatch=           0 AvBLen=         0.0
 IPart= 29 NShTot=           0 NBatch=           0 AvBLen=         0.0
 IPart= 12 NShTot=           0 NBatch=           0 AvBLen=         0.0
 IPart=  6 NShTot=           0 NBatch=           0 AvBLen=         0.0
 IPart= 21 NShTot=           0 NBatch=           0 AvBLen=         0.0
 IPart= 17 NShTot=           0 NBatch=           0 AvBLen=         0.0
 IPart= 24 NShTot=           0 NBatch=           0 AvBLen=         0.0
 IPart= 13 NShTot=           0 NBatch=           0 AvBLen=         0.0
 IPart= 22 NShTot=           0 NBatch=           0 AvBLen=         0.0
 IPart= 15 NShTot=           0 NBatch=           0 AvBLen=         0.0
 IPart= 20 NShTot=           0 NBatch=           0 AvBLen=         0.0
 PrSmSu:  NxtVal=             37.
 ***** Potential Energy ***** 
                1             2             3             4             5 
      1  0.430866D+01
      2  0.247769D+00  0.116582D+03
      3  0.569163D+00  0.108157D+02  0.181215D+02
      4  0.140805D+01 -0.127102D+00  0.154874D+01  0.377696D+01
      5  0.109998D+01  0.105044D+01  0.208852D+01  0.301420D+01  0.286842D+01
      6  0.575358D+00  0.441292D+00  0.892091D+00  0.162454D+01  0.183938D+01
      7  0.000000D+00  0.000000D+00  0.000000D+00  0.000000D+00  0.000000D+00
      8  0.000000D+00  0.000000D+00  0.000000D+00  0.000000D+00  0.000000D+00
      9 -0.474347D+00 -0.423073D-02 -0.348988D-01 -0.170512D-01 -0.131912D-01
     10  0.000000D+00  0.000000D+00  0.000000D+00  0.000000D+00  0.000000D+00
     11  0.000000D+00  0.000000D+00  0.000000D+00  0.000000D+00  0.000000D+00
     12 -0.185306D+01 -0.146490D-03 -0.761062D-02 -0.106431D+00 -0.893581D-01
     13  0.000000D+00  0.000000D+00  0.000000D+00  0.000000D+00  0.000000D+00
     14  0.000000D+00  0.000000D+00  0.000000D+00  0.000000D+00  0.000000D+00
     15 -0.865354D+00 -0.442935D-04 -0.213808D-02 -0.535429D-01 -0.580201D-01
     16  0.000000D+00  0.000000D+00  0.000000D+00  0.000000D+00  0.000000D+00
     17  0.000000D+00  0.000000D+00  0.000000D+00  0.000000D+00  0.000000D+00
     18 -0.248889D+00 -0.102276D-04 -0.499977D-03 -0.161723D-01 -0.213117D-01
     19  0.182216D+01  0.341989D-04  0.219558D-02  0.684543D-01  0.554438D-01
     20  0.000000D+00  0.000000D+00  0.000000D+00  0.000000D+00  0.000000D+00
     21  0.000000D+00  0.000000D+00  0.000000D+00  0.000000D+00  0.000000D+00
     22  0.000000D+00  0.000000D+00  0.000000D+00  0.000000D+00  0.000000D+00
     23  0.000000D+00  0.000000D+00  0.000000D+00  0.000000D+00  0.000000D+00
     24  0.112519D+01  0.121789D-04  0.781671D-03  0.426662D-01  0.403680D-01
     25  0.000000D+00  0.000000D+00  0.000000D+00  0.000000D+00  0.000000D+00
     26  0.000000D+00  0.000000D+00  0.000000D+00  0.000000D+00  0.000000D+00
     27  0.000000D+00  0.000000D+00  0.000000D+00  0.000000D+00  0.000000D+00
     28  0.000000D+00  0.000000D+00  0.000000D+00  0.000000D+00  0.000000D+00
                6             7             8             9            10 
      6  0.162208D+01
      7  0.000000D+00  0.189618D+02
      8  0.000000D+00  0.000000D+00  0.189618D+02
      9 -0.590020D-02  0.000000D+00  0.000000D+00  0.189726D+02
     10  0.000000D+00  0.122799D+01  0.000000D+00  0.000000D+00  0.319755D+01
     11  0.000000D+00  0.000000D+00  0.122799D+01  0.000000D+00  0.000000D+00
     12 -0.507743D-01  0.000000D+00  0.000000D+00  0.123543D+01  0.000000D+00
     13  0.000000D+00  0.354685D+00  0.000000D+00  0.000000D+00  0.175176D+01
     14  0.000000D+00  0.000000D+00  0.354685D+00  0.000000D+00  0.000000D+00
     15 -0.428401D-01  0.000000D+00  0.000000D+00  0.357002D+00  0.000000D+00
     16  0.000000D+00  0.818985D-01  0.000000D+00  0.000000D+00  0.562255D+00
     17  0.000000D+00  0.000000D+00  0.818985D-01  0.000000D+00  0.000000D+00
     18 -0.219171D-01  0.000000D+00  0.000000D+00  0.824649D-01  0.000000D+00
     19  0.304796D-01  0.000000D+00  0.000000D+00 -0.111758D-01  0.000000D+00
     20  0.000000D+00 -0.617348D-02  0.000000D+00  0.000000D+00 -0.591355D-01
     21  0.000000D+00  0.000000D+00 -0.617348D-02  0.000000D+00  0.000000D+00
     22  0.000000D+00  0.000000D+00  0.000000D+00  0.000000D+00  0.000000D+00
     23  0.000000D+00  0.000000D+00  0.000000D+00  0.000000D+00  0.000000D+00
     24  0.250940D-01  0.000000D+00  0.000000D+00 -0.428704D-02  0.000000D+00
     25  0.000000D+00 -0.226299D-02  0.000000D+00  0.000000D+00 -0.429314D-01
     26  0.000000D+00  0.000000D+00 -0.226299D-02  0.000000D+00  0.000000D+00
     27  0.000000D+00  0.000000D+00  0.000000D+00  0.000000D+00  0.000000D+00
     28  0.000000D+00  0.000000D+00  0.000000D+00  0.000000D+00  0.000000D+00
               11            12            13            14            15 
     11  0.319755D+01
     12  0.000000D+00  0.328596D+01
     13  0.000000D+00  0.000000D+00  0.181487D+01
     14  0.175176D+01  0.000000D+00  0.000000D+00  0.181487D+01
     15  0.000000D+00  0.179750D+01  0.000000D+00  0.000000D+00  0.184798D+01
     16  0.000000D+00  0.000000D+00  0.955988D+00  0.000000D+00  0.000000D+00
     17  0.562255D+00  0.000000D+00  0.000000D+00  0.955988D+00  0.000000D+00
     18  0.000000D+00  0.576029D+00  0.000000D+00  0.000000D+00  0.968823D+00
     19  0.000000D+00 -0.139149D+00  0.000000D+00  0.000000D+00 -0.717101D-01
     20  0.000000D+00  0.000000D+00 -0.321436D-01  0.000000D+00  0.000000D+00
     21 -0.591355D-01  0.000000D+00  0.000000D+00 -0.321436D-01  0.000000D+00
     22  0.000000D+00  0.000000D+00  0.000000D+00  0.000000D+00  0.000000D+00
     23  0.000000D+00  0.000000D+00  0.000000D+00  0.000000D+00  0.000000D+00
     24  0.000000D+00 -0.946920D-01  0.000000D+00  0.000000D+00 -0.669528D-01
     25  0.000000D+00  0.000000D+00 -0.346171D-01  0.000000D+00  0.000000D+00
     26 -0.429314D-01  0.000000D+00  0.000000D+00 -0.346171D-01  0.000000D+00
     27  0.000000D+00  0.000000D+00  0.000000D+00  0.000000D+00  0.000000D+00
     28  0.000000D+00  0.000000D+00  0.000000D+00  0.000000D+00  0.000000D+00
               16            17            18            19            20 
     16  0.999229D+00
     17  0.000000D+00  0.999229D+00
     18  0.000000D+00  0.000000D+00  0.100625D+01
     19  0.000000D+00  0.000000D+00 -0.213948D-01  0.323891D+01
     20 -0.987663D-02  0.000000D+00  0.000000D+00  0.000000D+00  0.316065D+01
     21  0.000000D+00 -0.987663D-02  0.000000D+00  0.000000D+00  0.000000D+00
     22  0.000000D+00  0.000000D+00  0.000000D+00  0.000000D+00  0.000000D+00
     23  0.000000D+00  0.000000D+00  0.000000D+00  0.000000D+00  0.000000D+00
     24  0.000000D+00  0.000000D+00 -0.241409D-01  0.221786D+01  0.000000D+00
     25 -0.133391D-01  0.000000D+00  0.000000D+00  0.000000D+00  0.216916D+01
     26  0.000000D+00 -0.133391D-01  0.000000D+00  0.000000D+00  0.000000D+00
     27  0.000000D+00  0.000000D+00  0.000000D+00  0.000000D+00  0.000000D+00
     28  0.000000D+00  0.000000D+00  0.000000D+00  0.000000D+00  0.000000D+00
               21            22            23            24            25 
     21  0.316065D+01
     22  0.000000D+00  0.311974D+01
     23  0.000000D+00  0.000000D+00  0.311974D+01
     24  0.000000D+00  0.000000D+00  0.000000D+00  0.224320D+01
     25  0.000000D+00  0.000000D+00  0.000000D+00  0.000000D+00  0.220706D+01
     26  0.216916D+01  0.000000D+00  0.000000D+00  0.000000D+00  0.000000D+00
     27  0.000000D+00  0.214137D+01  0.000000D+00  0.000000D+00  0.000000D+00
     28  0.000000D+00  0.000000D+00  0.214137D+01  0.000000D+00  0.000000D+00
               26            27            28 
     26  0.220706D+01
     27  0.000000D+00  0.218205D+01
     28  0.000000D+00  0.000000D+00  0.218205D+01
 ****** Core Hamiltonian ****** 
                1             2             3             4             5 
      1 -0.354863D+01
      2 -0.249209D+00 -0.606578D+02
      3 -0.583306D+00 -0.135228D+02 -0.161330D+02
      4 -0.137486D+01 -0.597586D-01 -0.166272D+01 -0.367882D+01
      5 -0.108554D+01 -0.104906D+01 -0.207712D+01 -0.297184D+01 -0.283382D+01
      6 -0.572310D+00 -0.441108D+00 -0.890515D+00 -0.161457D+01 -0.182635D+01
      7  0.000000D+00  0.000000D+00  0.000000D+00  0.000000D+00  0.000000D+00
      8  0.000000D+00  0.000000D+00  0.000000D+00  0.000000D+00  0.000000D+00
      9  0.479262D+00  0.423073D-02  0.348988D-01  0.170512D-01  0.131912D-01
     10  0.000000D+00  0.000000D+00  0.000000D+00  0.000000D+00  0.000000D+00
     11  0.000000D+00  0.000000D+00  0.000000D+00  0.000000D+00  0.000000D+00
     12  0.176225D+01  0.146490D-03  0.761062D-02  0.106431D+00  0.893581D-01
     13  0.000000D+00  0.000000D+00  0.000000D+00  0.000000D+00  0.000000D+00
     14  0.000000D+00  0.000000D+00  0.000000D+00  0.000000D+00  0.000000D+00
     15  0.843974D+00  0.442935D-04  0.213808D-02  0.535429D-01  0.580201D-01
     16  0.000000D+00  0.000000D+00  0.000000D+00  0.000000D+00  0.000000D+00
     17  0.000000D+00  0.000000D+00  0.000000D+00  0.000000D+00  0.000000D+00
     18  0.246688D+00  0.102276D-04  0.499977D-03  0.161723D-01  0.213117D-01
     19 -0.164739D+01 -0.341989D-04 -0.219558D-02 -0.684543D-01 -0.554438D-01
     20  0.000000D+00  0.000000D+00  0.000000D+00  0.000000D+00  0.000000D+00
     21  0.000000D+00  0.000000D+00  0.000000D+00  0.000000D+00  0.000000D+00
     22  0.000000D+00  0.000000D+00  0.000000D+00  0.000000D+00  0.000000D+00
     23  0.000000D+00  0.000000D+00  0.000000D+00  0.000000D+00  0.000000D+00
     24 -0.104861D+01 -0.121789D-04 -0.781671D-03 -0.426662D-01 -0.403680D-01
     25  0.000000D+00  0.000000D+00  0.000000D+00  0.000000D+00  0.000000D+00
     26  0.000000D+00  0.000000D+00  0.000000D+00  0.000000D+00  0.000000D+00
     27  0.000000D+00  0.000000D+00  0.000000D+00  0.000000D+00  0.000000D+00
     28  0.000000D+00  0.000000D+00  0.000000D+00  0.000000D+00  0.000000D+00
                6             7             8             9            10 
      6 -0.161121D+01
      7  0.000000D+00 -0.130575D+02
      8  0.000000D+00  0.000000D+00 -0.130575D+02
      9  0.590020D-02  0.000000D+00  0.000000D+00 -0.130683D+02
     10  0.000000D+00 -0.121473D+01  0.000000D+00  0.000000D+00 -0.303364D+01
     11  0.000000D+00  0.000000D+00 -0.121473D+01  0.000000D+00  0.000000D+00
     12  0.507743D-01  0.000000D+00  0.000000D+00 -0.122217D+01  0.000000D+00
     13  0.000000D+00 -0.350241D+00  0.000000D+00  0.000000D+00 -0.169927D+01
     14  0.000000D+00  0.000000D+00 -0.350241D+00  0.000000D+00  0.000000D+00
     15  0.428401D-01  0.000000D+00  0.000000D+00 -0.352558D+00  0.000000D+00
     16  0.000000D+00 -0.815769D-01  0.000000D+00  0.000000D+00 -0.555614D+00
     17  0.000000D+00  0.000000D+00 -0.815769D-01  0.000000D+00  0.000000D+00
     18  0.219171D-01  0.000000D+00  0.000000D+00 -0.821433D-01  0.000000D+00
     19 -0.304796D-01  0.000000D+00  0.000000D+00  0.111758D-01  0.000000D+00
     20  0.000000D+00  0.617348D-02  0.000000D+00  0.000000D+00  0.591355D-01
     21  0.000000D+00  0.000000D+00  0.617348D-02  0.000000D+00  0.000000D+00
     22  0.000000D+00  0.000000D+00  0.000000D+00  0.000000D+00  0.000000D+00
     23  0.000000D+00  0.000000D+00  0.000000D+00  0.000000D+00  0.000000D+00
     24 -0.250940D-01  0.000000D+00  0.000000D+00  0.428704D-02  0.000000D+00
     25  0.000000D+00  0.226299D-02  0.000000D+00  0.000000D+00  0.429314D-01
     26  0.000000D+00  0.000000D+00  0.226299D-02  0.000000D+00  0.000000D+00
     27  0.000000D+00  0.000000D+00  0.000000D+00  0.000000D+00  0.000000D+00
     28  0.000000D+00  0.000000D+00  0.000000D+00  0.000000D+00  0.000000D+00
               11            12            13            14            15 
     11 -0.303364D+01
     12  0.000000D+00 -0.312206D+01
     13  0.000000D+00  0.000000D+00 -0.176355D+01
     14 -0.169927D+01  0.000000D+00  0.000000D+00 -0.176355D+01
     15  0.000000D+00 -0.174501D+01  0.000000D+00  0.000000D+00 -0.179665D+01
     16  0.000000D+00  0.000000D+00 -0.940553D+00  0.000000D+00  0.000000D+00
     17 -0.555614D+00  0.000000D+00  0.000000D+00 -0.940553D+00  0.000000D+00
     18  0.000000D+00 -0.569388D+00  0.000000D+00  0.000000D+00 -0.953388D+00
     19  0.000000D+00  0.139149D+00  0.000000D+00  0.000000D+00  0.717101D-01
     20  0.000000D+00  0.000000D+00  0.321436D-01  0.000000D+00  0.000000D+00
     21  0.591355D-01  0.000000D+00  0.000000D+00  0.321436D-01  0.000000D+00
     22  0.000000D+00  0.000000D+00  0.000000D+00  0.000000D+00  0.000000D+00
     23  0.000000D+00  0.000000D+00  0.000000D+00  0.000000D+00  0.000000D+00
     24  0.000000D+00  0.946920D-01  0.000000D+00  0.000000D+00  0.669528D-01
     25  0.000000D+00  0.000000D+00  0.346171D-01  0.000000D+00  0.000000D+00
     26  0.429314D-01  0.000000D+00  0.000000D+00  0.346171D-01  0.000000D+00
     27  0.000000D+00  0.000000D+00  0.000000D+00  0.000000D+00  0.000000D+00
     28  0.000000D+00  0.000000D+00  0.000000D+00  0.000000D+00  0.000000D+00
               16            17            18            19            20 
     16 -0.983835D+00
     17  0.000000D+00 -0.983835D+00
     18  0.000000D+00  0.000000D+00 -0.990855D+00
     19  0.000000D+00  0.000000D+00  0.213948D-01 -0.289836D+01
     20  0.987663D-02  0.000000D+00  0.000000D+00  0.000000D+00 -0.282010D+01
     21  0.000000D+00  0.987663D-02  0.000000D+00  0.000000D+00  0.000000D+00
     22  0.000000D+00  0.000000D+00  0.000000D+00  0.000000D+00  0.000000D+00
     23  0.000000D+00  0.000000D+00  0.000000D+00  0.000000D+00  0.000000D+00
     24  0.000000D+00  0.000000D+00  0.241409D-01 -0.204225D+01  0.000000D+00
     25  0.133391D-01  0.000000D+00  0.000000D+00  0.000000D+00 -0.199355D+01
     26  0.000000D+00  0.133391D-01  0.000000D+00  0.000000D+00  0.000000D+00
     27  0.000000D+00  0.000000D+00  0.000000D+00  0.000000D+00  0.000000D+00
     28  0.000000D+00  0.000000D+00  0.000000D+00  0.000000D+00  0.000000D+00
               21            22            23            24            25 
     21 -0.282010D+01
     22  0.000000D+00 -0.277919D+01
     23  0.000000D+00  0.000000D+00 -0.277919D+01
     24  0.000000D+00  0.000000D+00  0.000000D+00 -0.207959D+01
     25  0.000000D+00  0.000000D+00  0.000000D+00  0.000000D+00 -0.204346D+01
     26 -0.199355D+01  0.000000D+00  0.000000D+00  0.000000D+00  0.000000D+00
     27  0.000000D+00 -0.196577D+01  0.000000D+00  0.000000D+00  0.000000D+00
     28  0.000000D+00  0.000000D+00 -0.196577D+01  0.000000D+00  0.000000D+00
               26            27            28 
     26 -0.204346D+01
     27  0.000000D+00 -0.201845D+01
     28  0.000000D+00  0.000000D+00 -0.201845D+01
 SVDSVc IOpt=   1 NormSV=T IR=1
 SVDSVc V= 2.71D+00 2.25D+00 1.92D+00 1.79D+00 1.23D+00 1.05D+00 8.54D-01 7.46D-01 5.23D-01 3.55D-01
 SVDSVc V= 2.06D-01 1.88D-01 1.36D-01 4.73D-02
 SVDSVc IOpt=   1 NormSV=T IR=2
 SVDSVc V= 1.79D+00 2.06D-01
 SVDSVc IOpt=   1 NormSV=T IR=3
 SVDSVc V= 2.07D+00 1.79D+00 1.03D+00 7.26D-01 2.06D-01 1.72D-01
 SVDSVc IOpt=   1 NormSV=T IR=4
 SVDSVc V= 2.07D+00 1.79D+00 1.03D+00 7.26D-01 2.06D-01 1.72D-01
 TstOVc:  Largest diagonal error= 3.00D-15 IB=1 I=    2.
 TstOVc:  Largest same sym error= 2.13D-15 IB=1 I=   14 J=   13.
 TstOVc:  Largest diff sym error= 0.00D+00 IB=0 JB=0 I=    0 J=    0.
 Orthogonalized basis functions: 
                 1             2             3             4             5 
      1   0.234989D+00 -0.185068D+00  0.129164D+00  0.000000D+00 -0.183306D-01
      2   0.178749D-01  0.151795D-01 -0.659857D-02  0.000000D+00  0.656813D+00
      3   0.806250D-01  0.556668D-01 -0.193621D-01  0.000000D+00  0.605768D+00
      4   0.295584D+00  0.170192D+00 -0.475186D-01  0.000000D+00 -0.463259D-01
      5   0.317050D+00  0.198007D+00 -0.608693D-01  0.000000D+00 -0.594726D-01
      6   0.259907D+00  0.176740D+00 -0.592331D-01  0.000000D+00 -0.105963D+00
      7   0.000000D+00  0.000000D+00  0.000000D+00  0.000000D+00  0.000000D+00
      8   0.000000D+00  0.000000D+00  0.000000D+00  0.000000D+00  0.000000D+00
      9  -0.223526D-01  0.599970D-01  0.367426D-01  0.000000D+00  0.508998D-02
     10   0.000000D+00  0.000000D+00  0.000000D+00  0.000000D+00  0.000000D+00
     11   0.000000D+00  0.000000D+00  0.000000D+00  0.000000D+00  0.000000D+00
     12  -0.118563D+00  0.299137D+00  0.181036D+00  0.000000D+00  0.340998D-02
     13   0.000000D+00  0.000000D+00  0.000000D+00  0.000000D+00  0.000000D+00
     14   0.000000D+00  0.000000D+00  0.000000D+00  0.000000D+00  0.000000D+00
     15  -0.107026D+00  0.325610D+00  0.253626D+00  0.000000D+00 -0.819474D-02
     16   0.000000D+00  0.000000D+00  0.000000D+00  0.000000D+00  0.000000D+00
     17   0.000000D+00  0.000000D+00  0.000000D+00  0.000000D+00  0.000000D+00
     18  -0.675102D-01  0.238735D+00  0.216833D+00  0.000000D+00 -0.137400D-01
     19   0.107248D+00 -0.167872D+00  0.423653D+00  0.000000D+00  0.113778D-01
     20   0.000000D+00  0.000000D+00  0.000000D+00  0.000000D+00  0.000000D+00
     21   0.000000D+00  0.000000D+00  0.000000D+00  0.000000D+00  0.000000D+00
     22   0.000000D+00  0.000000D+00  0.000000D+00  0.527854D+00  0.000000D+00
     23   0.000000D+00  0.000000D+00  0.000000D+00  0.000000D+00  0.000000D+00
     24   0.937534D-01 -0.154801D+00  0.412772D+00  0.000000D+00  0.139685D-01
     25   0.000000D+00  0.000000D+00  0.000000D+00  0.000000D+00  0.000000D+00
     26   0.000000D+00  0.000000D+00  0.000000D+00  0.000000D+00  0.000000D+00
     27   0.000000D+00  0.000000D+00  0.000000D+00  0.527854D+00  0.000000D+00
     28   0.000000D+00  0.000000D+00  0.000000D+00  0.000000D+00  0.000000D+00
                 6             7             8             9            10 
      1  -0.179052D+00  0.441659D+00 -0.515967D-02 -0.459337D+00  0.907966D+00
      2  -0.101441D-01 -0.122516D-01 -0.786525D+00 -0.117570D+00 -0.487178D-01
      3  -0.339911D-02  0.100813D-01  0.814906D+00  0.215415D+00  0.115811D+00
      4   0.609805D-02  0.285537D-01  0.681900D-01 -0.670766D+00 -0.676959D+00
      5   0.350392D-01 -0.732746D-01 -0.417128D-01 -0.175378D-01 -0.230390D+00
      6   0.597267D-01 -0.176445D+00 -0.215969D+00  0.877176D+00  0.597852D+00
      7   0.000000D+00  0.000000D+00  0.000000D+00  0.000000D+00  0.000000D+00
      8   0.000000D+00  0.000000D+00  0.000000D+00  0.000000D+00  0.000000D+00
      9   0.807994D+00  0.588650D+00 -0.251601D-01  0.842308D-01 -0.278888D-01
     10   0.000000D+00  0.000000D+00  0.000000D+00  0.000000D+00  0.000000D+00
     11   0.000000D+00  0.000000D+00  0.000000D+00  0.000000D+00  0.000000D+00
     12   0.253172D+00 -0.439196D+00  0.417292D-01 -0.416420D+00  0.379605D+00
     13   0.000000D+00  0.000000D+00  0.000000D+00  0.000000D+00  0.000000D+00
     14   0.000000D+00  0.000000D+00  0.000000D+00  0.000000D+00  0.000000D+00
     15  -0.155039D+00  0.743285D-01  0.183126D-02 -0.183332D+00  0.459801D+00
     16   0.000000D+00  0.000000D+00  0.000000D+00  0.000000D+00  0.000000D+00
     17   0.000000D+00  0.000000D+00  0.000000D+00  0.000000D+00  0.000000D+00
     18  -0.396994D+00  0.565651D+00 -0.440153D-01  0.381615D+00 -0.496224D+00
     19   0.791459D-01 -0.135826D+00  0.124990D-02  0.378624D-01  0.190286D+00
     20   0.000000D+00  0.000000D+00  0.000000D+00  0.000000D+00  0.000000D+00
     21   0.000000D+00  0.000000D+00  0.000000D+00  0.000000D+00  0.000000D+00
     22   0.000000D+00  0.000000D+00  0.000000D+00  0.000000D+00  0.000000D+00
     23   0.000000D+00  0.000000D+00  0.000000D+00  0.000000D+00  0.000000D+00
     24   0.109761D+00 -0.233942D+00  0.262501D-02  0.246490D+00 -0.686740D+00
     25   0.000000D+00  0.000000D+00  0.000000D+00  0.000000D+00  0.000000D+00
     26   0.000000D+00  0.000000D+00  0.000000D+00  0.000000D+00  0.000000D+00
     27   0.000000D+00  0.000000D+00  0.000000D+00  0.000000D+00  0.000000D+00
     28   0.000000D+00  0.000000D+00  0.000000D+00  0.000000D+00  0.000000D+00
                11            12            13            14            15 
      1   0.000000D+00 -0.304911D+00  0.930699D+00  0.212740D+00  0.000000D+00
      2   0.000000D+00  0.385382D-02 -0.805074D-02 -0.318770D-01  0.000000D+00
      3   0.000000D+00 -0.112433D-01  0.267767D-01 -0.813369D-01  0.000000D+00
      4   0.000000D+00  0.992773D-01 -0.231362D+00 -0.243237D+01  0.000000D+00
      5   0.000000D+00  0.737183D-01 -0.263902D+00  0.353571D+01  0.000000D+00
      6   0.000000D+00 -0.763440D-01  0.212047D+00 -0.162336D+01  0.000000D+00
      7   0.000000D+00  0.000000D+00  0.000000D+00  0.000000D+00  0.000000D+00
      8   0.000000D+00  0.000000D+00  0.000000D+00  0.000000D+00  0.000000D+00
      9   0.000000D+00 -0.763369D-01 -0.121111D+00 -0.727358D-02  0.000000D+00
     10   0.000000D+00  0.000000D+00  0.000000D+00  0.000000D+00  0.000000D+00
     11   0.000000D+00  0.000000D+00  0.000000D+00  0.000000D+00  0.000000D+00
     12   0.000000D+00  0.554850D+00  0.139127D+01  0.146645D+00  0.000000D+00
     13   0.000000D+00  0.000000D+00  0.000000D+00  0.000000D+00  0.000000D+00
     14   0.000000D+00  0.000000D+00  0.000000D+00  0.000000D+00  0.000000D+00
     15   0.000000D+00 -0.111729D+01 -0.135391D+01 -0.639197D-01  0.000000D+00
     16   0.000000D+00  0.000000D+00  0.000000D+00  0.000000D+00  0.000000D+00
     17   0.000000D+00  0.000000D+00  0.000000D+00  0.000000D+00  0.000000D+00
     18   0.000000D+00  0.707917D+00  0.724526D+00  0.243764D-01  0.000000D+00
     19   0.000000D+00  0.132612D+01 -0.119228D+01 -0.144801D+00  0.000000D+00
     20   0.000000D+00  0.000000D+00  0.000000D+00  0.000000D+00  0.000000D+00
     21   0.000000D+00  0.000000D+00  0.000000D+00  0.000000D+00  0.000000D+00
     22   0.155982D+01  0.000000D+00  0.000000D+00  0.000000D+00  0.000000D+00
     23   0.000000D+00  0.000000D+00  0.000000D+00  0.000000D+00  0.527854D+00
     24   0.000000D+00 -0.117671D+01  0.750373D+00  0.489469D-01  0.000000D+00
     25   0.000000D+00  0.000000D+00  0.000000D+00  0.000000D+00  0.000000D+00
     26   0.000000D+00  0.000000D+00  0.000000D+00  0.000000D+00  0.000000D+00
     27  -0.155982D+01  0.000000D+00  0.000000D+00  0.000000D+00  0.000000D+00
     28   0.000000D+00  0.000000D+00  0.000000D+00  0.000000D+00  0.527854D+00
                16            17            18            19            20 
      1   0.000000D+00  0.000000D+00  0.000000D+00  0.000000D+00  0.000000D+00
      2   0.000000D+00  0.000000D+00  0.000000D+00  0.000000D+00  0.000000D+00
      3   0.000000D+00  0.000000D+00  0.000000D+00  0.000000D+00  0.000000D+00
      4   0.000000D+00  0.000000D+00  0.000000D+00  0.000000D+00  0.000000D+00
      5   0.000000D+00  0.000000D+00  0.000000D+00  0.000000D+00  0.000000D+00
      6   0.000000D+00  0.000000D+00  0.000000D+00  0.000000D+00  0.000000D+00
      7   0.000000D+00  0.763384D-01  0.000000D+00  0.915870D+00  0.411771D+00
      8   0.000000D+00  0.000000D+00  0.000000D+00  0.000000D+00  0.000000D+00
      9   0.000000D+00  0.000000D+00  0.000000D+00  0.000000D+00  0.000000D+00
     10   0.000000D+00  0.374475D+00  0.000000D+00  0.209616D+00 -0.765212D+00
     11   0.000000D+00  0.000000D+00  0.000000D+00  0.000000D+00  0.000000D+00
     12   0.000000D+00  0.000000D+00  0.000000D+00  0.000000D+00  0.000000D+00
     13   0.000000D+00  0.455065D+00  0.000000D+00 -0.102551D+00 -0.593626D-01
     14   0.000000D+00  0.000000D+00  0.000000D+00  0.000000D+00  0.000000D+00
     15   0.000000D+00  0.000000D+00  0.000000D+00  0.000000D+00  0.000000D+00
     16   0.000000D+00  0.358930D+00  0.000000D+00 -0.283466D+00  0.786037D+00
     17   0.000000D+00  0.000000D+00  0.000000D+00  0.000000D+00  0.000000D+00
     18   0.000000D+00  0.000000D+00  0.000000D+00  0.000000D+00  0.000000D+00
     19   0.000000D+00  0.000000D+00  0.000000D+00  0.000000D+00  0.000000D+00
     20   0.000000D+00  0.000000D+00  0.527854D+00  0.000000D+00  0.000000D+00
     21   0.000000D+00  0.000000D+00  0.000000D+00  0.000000D+00  0.000000D+00
     22   0.000000D+00  0.000000D+00  0.000000D+00  0.000000D+00  0.000000D+00
     23   0.155982D+01  0.000000D+00  0.000000D+00  0.000000D+00  0.000000D+00
     24   0.000000D+00  0.000000D+00  0.000000D+00  0.000000D+00  0.000000D+00
     25   0.000000D+00  0.000000D+00  0.527854D+00  0.000000D+00  0.000000D+00
     26   0.000000D+00  0.000000D+00  0.000000D+00  0.000000D+00  0.000000D+00
     27   0.000000D+00  0.000000D+00  0.000000D+00  0.000000D+00  0.000000D+00
     28  -0.155982D+01  0.000000D+00  0.000000D+00  0.000000D+00  0.000000D+00
                21            22            23            24            25 
      1   0.000000D+00  0.000000D+00  0.000000D+00  0.000000D+00  0.000000D+00
      2   0.000000D+00  0.000000D+00  0.000000D+00  0.000000D+00  0.000000D+00
      3   0.000000D+00  0.000000D+00  0.000000D+00  0.000000D+00  0.000000D+00
      4   0.000000D+00  0.000000D+00  0.000000D+00  0.000000D+00  0.000000D+00
      5   0.000000D+00  0.000000D+00  0.000000D+00  0.000000D+00  0.000000D+00
      6   0.000000D+00  0.000000D+00  0.000000D+00  0.000000D+00  0.000000D+00
      7   0.000000D+00  0.136327D+00  0.000000D+00  0.000000D+00  0.000000D+00
      8   0.000000D+00  0.000000D+00  0.763384D-01  0.000000D+00  0.915870D+00
      9   0.000000D+00  0.000000D+00  0.000000D+00  0.000000D+00  0.000000D+00
     10   0.000000D+00 -0.117890D+01  0.000000D+00  0.000000D+00  0.000000D+00
     11   0.000000D+00  0.000000D+00  0.374475D+00  0.000000D+00  0.209616D+00
     12   0.000000D+00  0.000000D+00  0.000000D+00  0.000000D+00  0.000000D+00
     13   0.000000D+00  0.180149D+01  0.000000D+00  0.000000D+00  0.000000D+00
     14   0.000000D+00  0.000000D+00  0.455065D+00  0.000000D+00 -0.102551D+00
     15   0.000000D+00  0.000000D+00  0.000000D+00  0.000000D+00  0.000000D+00
     16   0.000000D+00 -0.108303D+01  0.000000D+00  0.000000D+00  0.000000D+00
     17   0.000000D+00  0.000000D+00  0.358930D+00  0.000000D+00 -0.283466D+00
     18   0.000000D+00  0.000000D+00  0.000000D+00  0.000000D+00  0.000000D+00
     19   0.000000D+00  0.000000D+00  0.000000D+00  0.000000D+00  0.000000D+00
     20   0.155982D+01  0.000000D+00  0.000000D+00  0.000000D+00  0.000000D+00
     21   0.000000D+00  0.000000D+00  0.000000D+00  0.527854D+00  0.000000D+00
     22   0.000000D+00  0.000000D+00  0.000000D+00  0.000000D+00  0.000000D+00
     23   0.000000D+00  0.000000D+00  0.000000D+00  0.000000D+00  0.000000D+00
     24   0.000000D+00  0.000000D+00  0.000000D+00  0.000000D+00  0.000000D+00
     25  -0.155982D+01  0.000000D+00  0.000000D+00  0.000000D+00  0.000000D+00
     26   0.000000D+00  0.000000D+00  0.000000D+00  0.527854D+00  0.000000D+00
     27   0.000000D+00  0.000000D+00  0.000000D+00  0.000000D+00  0.000000D+00
     28   0.000000D+00  0.000000D+00  0.000000D+00  0.000000D+00  0.000000D+00
                26            27            28 
      1   0.000000D+00  0.000000D+00  0.000000D+00
      2   0.000000D+00  0.000000D+00  0.000000D+00
      3   0.000000D+00  0.000000D+00  0.000000D+00
      4   0.000000D+00  0.000000D+00  0.000000D+00
      5   0.000000D+00  0.000000D+00  0.000000D+00
      6   0.000000D+00  0.000000D+00  0.000000D+00
      7   0.000000D+00  0.000000D+00  0.000000D+00
      8   0.411771D+00  0.000000D+00  0.136327D+00
      9   0.000000D+00  0.000000D+00  0.000000D+00
     10   0.000000D+00  0.000000D+00  0.000000D+00
     11  -0.765212D+00  0.000000D+00 -0.117890D+01
     12   0.000000D+00  0.000000D+00  0.000000D+00
     13   0.000000D+00  0.000000D+00  0.000000D+00
     14  -0.593626D-01  0.000000D+00  0.180149D+01
     15   0.000000D+00  0.000000D+00  0.000000D+00
     16   0.000000D+00  0.000000D+00  0.000000D+00
     17   0.786037D+00  0.000000D+00 -0.108303D+01
     18   0.000000D+00  0.000000D+00  0.000000D+00
     19   0.000000D+00  0.000000D+00  0.000000D+00
     20   0.000000D+00  0.000000D+00  0.000000D+00
     21   0.000000D+00  0.155982D+01  0.000000D+00
     22   0.000000D+00  0.000000D+00  0.000000D+00
     23   0.000000D+00  0.000000D+00  0.000000D+00
     24   0.000000D+00  0.000000D+00  0.000000D+00
     25   0.000000D+00  0.000000D+00  0.000000D+00
     26   0.000000D+00 -0.155982D+01  0.000000D+00
     27   0.000000D+00  0.000000D+00  0.000000D+00
     28   0.000000D+00  0.000000D+00  0.000000D+00
 NBasis=    28 RedAO= T EigKep=  4.73D-02  NBF=    14     2     6     6
 NBsUse=    28 1.00D-06 EigRej= -1.00D+00 NBFU=    14     2     6     6
 Leave Link  302 at Thu Mar 24 15:58:03 2022, MaxMem=  9663676416 cpu:               3.6 elap:               0.1
 (Enter /nopt/nrel/apps/gaussian/g16C_1/g16/l303.exe)
 DipDrv will not compute anything.
 Fermi contact integrals: 
                 1             2 
      1   0.628247D+00  0.983823D-02
      2   0.185471D-05  0.194288D+02
      3   0.115550D-03  0.784000D-02
      4   0.427930D-01 -0.235257D-01
      5   0.314587D-01  0.421887D-01
      6   0.161409D-01  0.176993D-01
      7   0.000000D+00  0.000000D+00
      8   0.000000D+00  0.000000D+00
      9  -0.191433D-02  0.000000D+00
     10   0.000000D+00  0.000000D+00
     11   0.000000D+00  0.000000D+00
     12  -0.729172D-01  0.000000D+00
     13   0.000000D+00  0.000000D+00
     14   0.000000D+00  0.000000D+00
     15  -0.304275D-01  0.000000D+00
     16   0.000000D+00  0.000000D+00
     17   0.000000D+00  0.000000D+00
     18  -0.810854D-02  0.000000D+00
     19   0.102938D+00  0.000000D+00
     20   0.000000D+00  0.000000D+00
     21   0.000000D+00  0.000000D+00
     22   0.000000D+00  0.000000D+00
     23   0.000000D+00  0.000000D+00
     24   0.542891D-01  0.000000D+00
     25   0.000000D+00  0.000000D+00
     26   0.000000D+00  0.000000D+00
     27   0.000000D+00  0.000000D+00
     28   0.000000D+00  0.000000D+00
 Leave Link  303 at Thu Mar 24 15:58:03 2022, MaxMem=  9663676416 cpu:               1.1 elap:               0.1
 (Enter /nopt/nrel/apps/gaussian/g16C_1/g16/l401.exe)
 ExpMin= 6.16D-03 ExpMax= 3.17D+04 ExpMxC= 1.08D+03 IAcc=3 IRadAn=         5 AccDes= 0.00D+00
 Harris functional with IExCor=  205 and IRadAn=       5 diagonalized for initial guess.
 HarFok:  IExCor=  205 AccDes= 0.00D+00 IRadAn=         5 IDoV= 1 UseB2=F ITyADJ=14
 ICtDFT=  3500011 ScaDFX=  1.000000  1.000000  1.000000  1.000000
 FoFCou: FMM=F IPFlag=           0 FMFlag=      100000 FMFlg1=           0
         NFxFlg=           0 DoJE=T BraDBF=F KetDBF=T FulRan=T
         wScrn=  0.000000 ICntrl=       500 IOpCl=  0 I1Cent=   200000004 NGrid=           0
         NMat0=    1 NMatS0=      1 NMatT0=    0 NMatD0=    1 NMtDS0=    0 NMtDT0=    0
 Petite list used in FoFCou.
 Harris En= -162.241634999717    
 JPrj=0 DoOrth=F DoCkMO=F.
 Initial guess orbital symmetries:
       Occupied  (SG) (SG) (SG) (PI) (PI) (SG)
       Virtual   (SG) (PI) (PI) (SG) (SG) (PI) (PI) (SG) (PI) (PI)
                 (DLTA) (DLTA) (SG) (PI) (PI) (SG) (SG) (PI) (PI)
                 (DLTA) (DLTA) (SG)
 The electronic state of the initial guess is 1-SG.
 Leave Link  401 at Thu Mar 24 15:58:03 2022, MaxMem=  9663676416 cpu:               4.9 elap:               0.2
 (Enter /nopt/nrel/apps/gaussian/g16C_1/g16/l502.exe)
 Keep R1 ints in memory in symmetry-blocked form, NReq=7535936.
 FoFCou: FMM=F IPFlag=           0 FMFlag=           0 FMFlg1=           0
         NFxFlg=           0 DoJE=F BraDBF=F KetDBF=F FulRan=T
         wScrn=  0.000000 ICntrl=       600 IOpCl=  0 I1Cent=           0 NGrid=           0
         NMat0=    1 NMatS0=    406 NMatT0=    0 NMatD0=    1 NMtDS0=    0 NMtDT0=    0
 Petite list used in FoFCou.
 Closed shell SCF:
 Using DIIS extrapolation, IDIIS=  1040.
 NGot=  9663676416 LenX=  9663648323 LenY=  9663646982
 Requested convergence on RMS density matrix=1.00D-08 within 128 cycles.
 Requested convergence on MAX density matrix=1.00D-06.
 Requested convergence on             energy=1.00D-06.
 No special actions if energy rises.

 Cycle   1  Pass 1  IDiag  1:
 E= -162.347350860008    
 DIIS: error= 2.60D-02 at cycle   1 NSaved=   1.
 NSaved= 1 IEnMin= 1 EnMin= -162.347350860008     IErMin= 1 ErrMin= 2.60D-02
 ErrMax= 2.60D-02  0.00D+00 EMaxC= 1.00D-01 BMatC= 1.29D-02 BMatP= 1.29D-02
 IDIUse=3 WtCom= 7.40D-01 WtEn= 2.60D-01
 Coeff-Com:  0.100D+01
 Coeff-En:   0.100D+01
 Coeff:      0.100D+01
 Gap=     0.233 Goal=   None    Shift=    0.000
 GapD=    0.233 DampG=1.000 DampE=0.500 DampFc=0.5000 IDamp=-1.
 Damping current iteration by 5.00D-01
 RMSDP=8.05D-03 MaxDP=1.58D-01              OVMax= 1.20D-01

 Cycle   2  Pass 1  IDiag  1:
 E= -162.361283065075     Delta-E=       -0.013932205068 Rises=F Damp=T
 DIIS: error= 1.37D-02 at cycle   2 NSaved=   2.
 NSaved= 2 IEnMin= 2 EnMin= -162.361283065075     IErMin= 2 ErrMin= 1.37D-02
 ErrMax= 1.37D-02  0.00D+00 EMaxC= 1.00D-01 BMatC= 3.54D-03 BMatP= 1.29D-02
 IDIUse=3 WtCom= 8.63D-01 WtEn= 1.37D-01
 Coeff-Com: -0.109D+01 0.209D+01
 Coeff-En:   0.000D+00 0.100D+01
 Coeff:     -0.940D+00 0.194D+01
 Gap=     0.259 Goal=   None    Shift=    0.000
 RMSDP=4.49D-03 MaxDP=8.58D-02 DE=-1.39D-02 OVMax= 1.55D-02

 Cycle   3  Pass 1  IDiag  1:
 E= -162.376686957851     Delta-E=       -0.015403892776 Rises=F Damp=F
 DIIS: error= 5.34D-04 at cycle   3 NSaved=   3.
 NSaved= 3 IEnMin= 3 EnMin= -162.376686957851     IErMin= 3 ErrMin= 5.34D-04
 ErrMax= 5.34D-04  0.00D+00 EMaxC= 1.00D-01 BMatC= 4.73D-06 BMatP= 3.54D-03
 IDIUse=3 WtCom= 9.95D-01 WtEn= 5.34D-03
 Coeff-Com:  0.373D+00-0.715D+00 0.134D+01
 Coeff-En:   0.000D+00 0.000D+00 0.100D+01
 Coeff:      0.371D+00-0.711D+00 0.134D+01
 Gap=     0.265 Goal=   None    Shift=    0.000
 RMSDP=2.88D-04 MaxDP=2.73D-03 DE=-1.54D-02 OVMax= 6.48D-03

 Cycle   4  Pass 1  IDiag  1:
 E= -162.376718411897     Delta-E=       -0.000031454045 Rises=F Damp=F
 DIIS: error= 1.34D-04 at cycle   4 NSaved=   4.
 NSaved= 4 IEnMin= 4 EnMin= -162.376718411897     IErMin= 4 ErrMin= 1.34D-04
 ErrMax= 1.34D-04  0.00D+00 EMaxC= 1.00D-01 BMatC= 1.95D-07 BMatP= 4.73D-06
 IDIUse=3 WtCom= 9.99D-01 WtEn= 1.34D-03
 Coeff-Com: -0.304D-01 0.614D-01-0.320D+00 0.129D+01
 Coeff-En:   0.000D+00 0.000D+00 0.000D+00 0.100D+01
 Coeff:     -0.304D-01 0.614D-01-0.319D+00 0.129D+01
 Gap=     0.266 Goal=   None    Shift=    0.000
 RMSDP=6.32D-05 MaxDP=7.51D-04 DE=-3.15D-05 OVMax= 1.70D-03

 Cycle   5  Pass 1  IDiag  1:
 E= -162.376719995158     Delta-E=       -0.000001583261 Rises=F Damp=F
 DIIS: error= 2.21D-05 at cycle   5 NSaved=   5.
 NSaved= 5 IEnMin= 5 EnMin= -162.376719995158     IErMin= 5 ErrMin= 2.21D-05
 ErrMax= 2.21D-05  0.00D+00 EMaxC= 1.00D-01 BMatC= 5.70D-09 BMatP= 1.95D-07
 IDIUse=1 WtCom= 1.00D+00 WtEn= 0.00D+00
 Coeff-Com:  0.892D-02-0.181D-01 0.116D+00-0.521D+00 0.141D+01
 Coeff:      0.892D-02-0.181D-01 0.116D+00-0.521D+00 0.141D+01
 Gap=     0.266 Goal=   None    Shift=    0.000
 RMSDP=1.39D-05 MaxDP=1.70D-04 DE=-1.58D-06 OVMax= 2.98D-04

 Cycle   6  Pass 1  IDiag  1:
 E= -162.376720051157     Delta-E=       -0.000000055999 Rises=F Damp=F
 DIIS: error= 4.40D-06 at cycle   6 NSaved=   6.
 NSaved= 6 IEnMin= 6 EnMin= -162.376720051157     IErMin= 6 ErrMin= 4.40D-06
 ErrMax= 4.40D-06  0.00D+00 EMaxC= 1.00D-01 BMatC= 2.03D-10 BMatP= 5.70D-09
 IDIUse=1 WtCom= 1.00D+00 WtEn= 0.00D+00
 Coeff-Com: -0.162D-02 0.330D-02-0.235D-01 0.890D-01-0.390D+00 0.132D+01
 Coeff:     -0.162D-02 0.330D-02-0.235D-01 0.890D-01-0.390D+00 0.132D+01
 Gap=     0.266 Goal=   None    Shift=    0.000
 RMSDP=2.92D-06 MaxDP=4.15D-05 DE=-5.60D-08 OVMax= 7.83D-05

 Cycle   7  Pass 1  IDiag  1:
 E= -162.376720053328     Delta-E=       -0.000000002171 Rises=F Damp=F
 DIIS: error= 4.78D-07 at cycle   7 NSaved=   7.
 NSaved= 7 IEnMin= 7 EnMin= -162.376720053328     IErMin= 7 ErrMin= 4.78D-07
 ErrMax= 4.78D-07  0.00D+00 EMaxC= 1.00D-01 BMatC= 3.27D-12 BMatP= 2.03D-10
 IDIUse=1 WtCom= 1.00D+00 WtEn= 0.00D+00
 Coeff-Com:  0.350D-03-0.714D-03 0.529D-02-0.145D-01 0.907D-01-0.392D+00
 Coeff-Com:  0.131D+01
 Coeff:      0.350D-03-0.714D-03 0.529D-02-0.145D-01 0.907D-01-0.392D+00
 Coeff:      0.131D+01
 Gap=     0.266 Goal=   None    Shift=    0.000
 RMSDP=3.83D-07 MaxDP=2.78D-06 DE=-2.17D-09 OVMax= 8.11D-06

 Cycle   8  Pass 1  IDiag  1:
 E= -162.376720053354     Delta-E=       -0.000000000025 Rises=F Damp=F
 DIIS: error= 7.80D-08 at cycle   8 NSaved=   8.
 NSaved= 8 IEnMin= 8 EnMin= -162.376720053354     IErMin= 8 ErrMin= 7.80D-08
 ErrMax= 7.80D-08  0.00D+00 EMaxC= 1.00D-01 BMatC= 9.16D-14 BMatP= 3.27D-12
 IDIUse=1 WtCom= 1.00D+00 WtEn= 0.00D+00
 Coeff-Com: -0.338D-05 0.814D-05-0.224D-03-0.500D-03-0.450D-02 0.293D-01
 Coeff-Com: -0.163D+00 0.114D+01
 Coeff:     -0.338D-05 0.814D-05-0.224D-03-0.500D-03-0.450D-02 0.293D-01
 Coeff:     -0.163D+00 0.114D+01
 Gap=     0.266 Goal=   None    Shift=    0.000
 RMSDP=5.21D-08 MaxDP=6.11D-07 DE=-2.52D-11 OVMax= 1.25D-06

 Cycle   9  Pass 1  IDiag  1:
 E= -162.376720053354     Delta-E=       -0.000000000001 Rises=F Damp=F
 DIIS: error= 3.46D-09 at cycle   9 NSaved=   9.
 NSaved= 9 IEnMin= 9 EnMin= -162.376720053354     IErMin= 9 ErrMin= 3.46D-09
 ErrMax= 3.46D-09  0.00D+00 EMaxC= 1.00D-01 BMatC= 2.29D-16 BMatP= 9.16D-14
 IDIUse=1 WtCom= 1.00D+00 WtEn= 0.00D+00
 Coeff-Com: -0.222D-05 0.430D-05 0.613D-05 0.266D-03 0.253D-03-0.334D-02
 Coeff-Com:  0.267D-01-0.284D+00 0.126D+01
 Coeff:     -0.222D-05 0.430D-05 0.613D-05 0.266D-03 0.253D-03-0.334D-02
 Coeff:      0.267D-01-0.284D+00 0.126D+01
 Gap=     0.266 Goal=   None    Shift=    0.000
 RMSDP=4.15D-09 MaxDP=4.61D-08 DE=-7.11D-13 OVMax= 5.51D-08

 SCF Done:  E(RHF) =  -162.376720053     A.U. after    9 cycles
            NFock=  9  Conv=0.42D-08     -V/T= 1.9998
 KE= 1.624168021517D+02 PE=-3.972251926956D+02 EE= 6.934756043431D+01
 Leave Link  502 at Thu Mar 24 15:58:03 2022, MaxMem=  9663676416 cpu:               4.6 elap:               0.2
 (Enter /nopt/nrel/apps/gaussian/g16C_1/g16/l801.exe)
 Windowed orbitals will be sorted by symmetry type.
 ExpMin= 6.16D-03 ExpMax= 3.17D+04 ExpMxC= 1.08D+03 IAcc=3 IRadAn=         5 AccDes= 0.00D+00
 HarFok:  IExCor=  205 AccDes= 0.00D+00 IRadAn=         5 IDoV=-2 UseB2=F ITyADJ=14
 ICtDFT= 12500011 ScaDFX=  1.000000  1.000000  1.000000  1.000000
 Largest valence mixing into a core orbital is  9.02D-05
 Largest core mixing into a valence orbital is  2.73D-05
 Range of M.O.s used for correlation:     6    28
 NBasis=    28 NAE=     6 NBE=     6 NFC=     5 NFV=     0
 NROrb=     23 NOA=     1 NOB=     1 NVA=    22 NVB=    22
 Leave Link  801 at Thu Mar 24 15:58:04 2022, MaxMem=  9663676416 cpu:               1.8 elap:               0.1
 (Enter /nopt/nrel/apps/gaussian/g16C_1/g16/l804.exe)
 Closed-shell transformation, MDV=  9663676416 ITran=4 ISComp=2.
 Unit  1 TFree=         27656 TCopy=        227791.
 Semi-Direct transformation.
 ModeAB=           2 MOrb=             1 LenV=    9663476925
 LASXX=         1504 LTotXX=        1504 LenRXX=        1504
 LTotAB=        1823 MaxLAS=       10695 LenRXY=       10695
 NonZer=       11661 LenScr=      785920 LnRSAI=           0
 LnScr1=           0 LExtra=      229258 Total=      1027377
 MaxDsk= 34359738368 SrtSym=           F ITran=            4
 DoSDTr:  NPSUse= 36
 JobTyp=0 Pass  1:  I=   1 to   1.
 (rs|ai) integrals will be sorted in core.
 Complete sort for first half transformation.
 First half transformation complete.
 Complete sort for second half transformation.
 Second half transformation complete.
 Spin components of T(2) and E(2):
     alpha-alpha T2 =       0.0000000000D+00 E2=      0.0000000000D+00
     alpha-beta  T2 =       0.1262510614D-01 E2=     -0.1543736610D-01
     beta-beta   T2 =       0.0000000000D+00 E2=      0.0000000000D+00
 ANorm=    0.1006292754D+01
 E2 =    -0.1543736610D-01 EUMP2 =    -0.16239215741945D+03
 Leave Link  804 at Thu Mar 24 15:58:04 2022, MaxMem=  9663676416 cpu:               5.6 elap:               0.2
 (Enter /nopt/nrel/apps/gaussian/g16C_1/g16/l913.exe)
 CIDS:  MDV=  9663676416.
 Frozen-core window:  NFC=   5 NFV=   0.
 IFCWin=0 IBDFC=1 NFBD=     0     0 NFCmp=     0     0 NFFFC=     0     0
 Using DD3R+UMP44R for 1st iteration.
 Using DD4RQ for 2nd and later iterations.
 Keep R2 and R3 ints in memory in symmetry-blocked form, NReq=7538414.
 FoFCou: FMM=F IPFlag=           0 FMFlag=           0 FMFlg1=           0
         NFxFlg=           0 DoJE=F BraDBF=F KetDBF=F FulRan=T
         wScrn=  0.000000 ICntrl=       600 IOpCl=  0 I1Cent=           0 NGrid=           0
         NMat0=    1 NMatS0=    406 NMatT0=    0 NMatD0=    1 NMtDS0=    0 NMtDT0=    0
 Petite list used in FoFCou.
 CIDS: In Core Option IDoMem=           1.
 Coupled Cluster theory with single and double substitutions
 ===========================================================
 Iterations=  50 Convergence= 0.100D-06
 Produce multiple copies of IABC intergrals
 Iteration Nr.   1
 **********************
 DD1Dir will call FoFMem   1 times, MxPair=         2
 NAB=     1 NAA=     0 NBB=     0.
 MP4(R+Q)=  0.19489839D-03
 Maximum subspace dimension=  5
 A-vector RMS=  8.9206421D-03 Max=  1.1459010D-02 conv= 1.00D-05.
 RLE energy=       -0.0225227989
 E3=       -0.50565992D-02        EUMP3=      -0.16239721402D+03
 E4(DQ)=   -0.17797297D-02        UMP4(DQ)=   -0.16239899375D+03
 E4(SDQ)=  -0.19920575D-02        UMP4(SDQ)=  -0.16239920608D+03
 VARIATIONAL ENERGIES WITH THE FIRST-ORDER WAVEFUNCTION:
 DE(Corr)= -0.20293800E-01 E(Corr)=     -162.39701385    
 NORM(A)=   0.10140470D+01
 Iteration Nr.   2
 **********************
 DD1Dir will call FoFMem   1 times, MxPair=         2
 NAB=     1 NAA=     0 NBB=     0.
 A-vector RMS=  4.7633607D-03 Max=  5.7558394D-03 conv= 1.00D-05.
 RLE energy=       -0.0238182240
 DE(Corr)= -0.23177007E-01 E(CORR)=     -162.39989706     Delta=-2.88D-03
 NORM(A)=   0.10173813D+01
 Iteration Nr.   3
 **********************
 DD1Dir will call FoFMem   1 times, MxPair=         2
 NAB=     1 NAA=     0 NBB=     0.
 A-vector RMS=  3.5771674D-03 Max=  5.5350349D-03 conv= 1.00D-05.
 RLE energy=       -0.0242151872
 DE(Corr)= -0.23827756E-01 E(CORR)=     -162.40054781     Delta=-6.51D-04
 NORM(A)=   0.10201610D+01
 Iteration Nr.   4
 **********************
 DD1Dir will call FoFMem   1 times, MxPair=         2
 NAB=     1 NAA=     0 NBB=     0.
 A-vector RMS=  9.9539343D-04 Max=  2.0706569D-03 conv= 1.00D-05.
 RLE energy=       -0.0243491174
 DE(Corr)= -0.24251898E-01 E(CORR)=     -162.40097195     Delta=-4.24D-04
 NORM(A)=   0.10212433D+01
 Iteration Nr.   5
 **********************
 DD1Dir will call FoFMem   1 times, MxPair=         2
 NAB=     1 NAA=     0 NBB=     0.
 A-vector RMS=  4.9181902D-04 Max=  7.7657535D-04 conv= 1.00D-05.
 RLE energy=       -0.0243495281
 DE(Corr)= -0.24337987E-01 E(CORR)=     -162.40105804     Delta=-8.61D-05
 NORM(A)=   0.10215149D+01
 Iteration Nr.   6
 **********************
 DD1Dir will call FoFMem   1 times, MxPair=         2
 NAB=     1 NAA=     0 NBB=     0.
 A-vector RMS=  1.4573549D-04 Max=  2.5361268D-04 conv= 1.00D-05.
 RLE energy=       -0.0243427789
 DE(Corr)= -0.24345674E-01 E(CORR)=     -162.40106573     Delta=-7.69D-06
 NORM(A)=   0.10215400D+01
 Iteration Nr.   7
 **********************
 DD1Dir will call FoFMem   1 times, MxPair=         2
 NAB=     1 NAA=     0 NBB=     0.
 A-vector RMS=  6.6711364D-05 Max=  1.0500212D-04 conv= 1.00D-05.
 RLE energy=       -0.0243462341
 DE(Corr)= -0.24344902E-01 E(CORR)=     -162.40106496     Delta= 7.72D-07
 NORM(A)=   0.10215516D+01
 Iteration Nr.   8
 **********************
 DD1Dir will call FoFMem   1 times, MxPair=         2
 NAB=     1 NAA=     0 NBB=     0.
 A-vector RMS=  2.2783039D-05 Max=  2.7995847D-05 conv= 1.00D-05.
 RLE energy=       -0.0243457569
 DE(Corr)= -0.24345830E-01 E(CORR)=     -162.40106588     Delta=-9.28D-07
 NORM(A)=   0.10215479D+01
 Iteration Nr.   9
 **********************
 DD1Dir will call FoFMem   1 times, MxPair=         2
 NAB=     1 NAA=     0 NBB=     0.
 A-vector RMS=  5.3117020D-06 Max=  9.7297397D-06 conv= 1.00D-05.
 RLE energy=       -0.0243462610
 DE(Corr)= -0.24345982E-01 E(CORR)=     -162.40106604     Delta=-1.52D-07
 NORM(A)=   0.10215497D+01
 Iteration Nr.  10
 **********************
 DD1Dir will call FoFMem   1 times, MxPair=         2
 NAB=     1 NAA=     0 NBB=     0.
 A-vector RMS=  3.1186839D-06 Max=  3.4668202D-06 conv= 1.00D-05.
 RLE energy=       -0.0243463716
 DE(Corr)= -0.24346222E-01 E(CORR)=     -162.40106627     Delta=-2.40D-07
 NORM(A)=   0.10215508D+01
 Iteration Nr.  11
 **********************
 DD1Dir will call FoFMem   1 times, MxPair=         2
 NAB=     1 NAA=     0 NBB=     0.
 A-vector RMS=  1.4994198D-06 Max=  2.2487237D-06 conv= 1.00D-05.
 RLE energy=       -0.0243465074
 DE(Corr)= -0.24346393E-01 E(CORR)=     -162.40106645     Delta=-1.71D-07
 NORM(A)=   0.10215520D+01
 Iteration Nr.  12
 **********************
 DD1Dir will call FoFMem   1 times, MxPair=         2
 NAB=     1 NAA=     0 NBB=     0.
 A-vector RMS=  7.6732777D-07 Max=  1.0651496D-06 conv= 1.00D-05.
 RLE energy=       -0.0243465642
 DE(Corr)= -0.24346505E-01 E(CORR)=     -162.40106656     Delta=-1.12D-07
 NORM(A)=   0.10215526D+01
 Iteration Nr.  13
 **********************
 DD1Dir will call FoFMem   1 times, MxPair=         2
 NAB=     1 NAA=     0 NBB=     0.
 A-vector RMS=  4.1803261D-07 Max=  5.9291651D-07 conv= 1.00D-05.
 RLE energy=       -0.0243465764
 DE(Corr)= -0.24346559E-01 E(CORR)=     -162.40106661     Delta=-5.36D-08
 NORM(A)=   0.10215529D+01
 CI/CC converged in   13 iterations to DelEn=-5.36D-08 Conv= 1.00D-07 ErrA1= 4.18D-07 Conv= 1.00D-05
 Wavefunction amplitudes converged. E(Corr)=     -162.40106661    
 Largest amplitude= 5.61D-02
 Discarding MO integrals.
 Leave Link  913 at Thu Mar 24 15:58:04 2022, MaxMem=  9663676416 cpu:               5.5 elap:               0.2
 (Enter /nopt/nrel/apps/gaussian/g16C_1/g16/l601.exe)
 Copying SCF densities to generalized density rwf, IOpCl= 0 IROHF=0.

 **********************************************************************

            Population analysis using the SCF Density.

 **********************************************************************

 Orbital symmetries:
       Occupied  (SG) (SG) (PI) (PI) (SG) (SG)
       Virtual   (SG) (PI) (PI) (SG) (SG) (PI) (PI) (SG) (DLTA)
                 (DLTA) (PI) (PI) (SG) (SG) (PI) (PI) (SG) (DLTA)
                 (DLTA) (PI) (PI) (SG)
 The electronic state is 1-SG.
 Alpha  occ. eigenvalues --  -40.46552  -2.78868  -1.51001  -1.51001  -1.50866
 Alpha  occ. eigenvalues --   -0.27375
 Alpha virt. eigenvalues --   -0.00809   0.01226   0.01226   0.02014   0.02787
 Alpha virt. eigenvalues --    0.04641   0.04641   0.08907   0.13174   0.13174
 Alpha virt. eigenvalues --    0.13983   0.13983   0.14612   0.16785   0.17595
 Alpha virt. eigenvalues --    0.17595   0.31643   0.38916   0.38916   0.39200
 Alpha virt. eigenvalues --    0.39200   0.77112
          Condensed to atoms (all electrons):
               1          2
     1  H    0.491301   0.377997
     2  Na   0.377997  10.752704
 Mulliken charges:
               1
     1  H    0.130701
     2  Na  -0.130701
 Sum of Mulliken charges =  -0.00000
 Mulliken charges with hydrogens summed into heavy atoms:
               1
     2  Na  -0.000000
 N-N= 3.084110056225D+00 E-N=-3.972251927037D+02  KE= 1.624168021517D+02
 Symmetry A1   KE= 1.388584721222D+02
 Symmetry A2   KE= 3.714753094713D-52
 Symmetry B1   KE= 1.177916501472D+01
 Symmetry B2   KE= 1.177916501472D+01

 Atomic contributions to Alpha molecular orbitals:
 Alpha occ 1 OE=-40.466 is Na2-s=1.0000
 Alpha occ 2 OE=-2.789 is Na2-s=0.9996
 Alpha occ 3 OE=-1.510 is Na2-p=1.0000
 Alpha occ 4 OE=-1.510 is Na2-p=1.0000
 Alpha occ 5 OE=-1.509 is Na2-p=0.9989
 Alpha occ 6 OE=-0.274 is H1-s=0.4338 Na2-s=0.3279 Na2-p=0.1794
 Alpha vir 7 OE=-0.008 is Na2-s=0.5508 Na2-p=0.4378
 Alpha vir 8 OE=0.012 is Na2-p=0.9959
 Alpha vir 9 OE=0.012 is Na2-p=0.9959
 Alpha vir 10 OE=0.020 is Na2-p=0.8538 Na2-s=0.1368
 Alpha vir 11 OE=0.028 is Na2-s=0.7701 Na2-p=0.2250
 Alpha vir 12 OE=0.046 is Na2-p=0.9578
 Alpha vir 13 OE=0.046 is Na2-p=0.9578
 Alpha vir 14 OE=0.089 is Na2-d=0.4150 Na2-p=0.3971 Na2-s=0.1547
 Alpha vir 15 OE=0.132 is Na2-d=1.0000
 Alpha vir 16 OE=0.132 is Na2-d=1.0000
 Alpha vir 17 OE=0.140 is Na2-d=0.9459
 Alpha vir 18 OE=0.140 is Na2-d=0.9459
 Alpha vir 19 OE=0.146 is Na2-p=0.4596 Na2-s=0.3354 Na2-d=0.2029
 Alpha vir 20 OE=0.168 is Na2-s=0.5888 Na2-d=0.2649 Na2-p=0.1440
 Alpha vir 21 OE=0.176 is Na2-p=0.9789
 Alpha vir 22 OE=0.176 is Na2-p=0.9789
 Alpha vir 23 OE=0.316 is Na2-d=0.7518 Na2-p=0.1190
 Alpha vir 24 OE=0.389 is Na2-d=1.0000
 Alpha vir 25 OE=0.389 is Na2-d=1.0000
 Alpha vir 26 OE=0.392 is Na2-d=0.9867
 Alpha vir 27 OE=0.392 is Na2-d=0.9867
 Alpha vir 28 OE=0.771 is H1-s=0.4440 Na2-d=0.3002 Na2-p=0.1851
 
 Leave Link  601 at Thu Mar 24 15:58:04 2022, MaxMem=  9663676416 cpu:               2.6 elap:               0.1
 (Enter /nopt/nrel/apps/gaussian/g16C_1/g16/l9999.exe)

 Test job not archived.
 1\1\GINC-R6I7N35\SP\RCCSD-FC\Gen\H1Na1\USER\24-Mar-2022\0\\#P CCSD
 /GEN sp pop=AllOrbitals iop(3/33=1,3/36=-1)\\test\\0,1\H,0,0.,0.,0.\Na
 ,0,0.,0.,1.8874\\Version=ES64L-G16RevC.01\State=1-SG\HF=-162.3767201\M
 P2=-162.3921574\MP3=-162.397214\MP4D=-162.3991886\MP4DQ=-162.3989937\M
 P4SDQ=-162.3992061\CCSD=-162.4010666\RMSD=4.152e-09\PG=C*V [C*(H1Na1)]
 \\@


 We're simply so accustomed to the marvels of everyday thought
 that we never wonder about it.
 -- Marvin Minsky in "Why people think computers are smart"
 Job cpu time:       0 days  0 hours  0 minutes 39.0 seconds.
 Elapsed time:       0 days  0 hours  0 minutes  1.5 seconds.
 File lengths (MBytes):  RWF=     13 Int=      0 D2E=      0 Chk=      1 Scr=      1
 Normal termination of Gaussian 16 at Thu Mar 24 15:58:04 2022.
