 Entering Gaussian System, Link 0=g16
 Initial command:
 /nopt/nrel/apps/gaussian/g16C_1/g16/l1.exe "/lustre/eaglefs/scratch/user/qc/gaussian-final/nah-1-ccsd-631g/Gau-170798.inp" -scrdir="/lustre/eaglefs/scratch/user/qc/gaussian-final/nah-1-ccsd-631g/"
 Default is to use a total of  36 processors:
                               36 via shared-memory
                                1 via Linda
 Entering Link 1 = /nopt/nrel/apps/gaussian/g16C_1/g16/l1.exe PID=    170799.
  
 Copyright (c) 1988-2019, Gaussian, Inc.  All Rights Reserved.
  
 This is part of the Gaussian(R) 16 program.  It is based on
 the Gaussian(R) 09 system (copyright 2009, Gaussian, Inc.),
 the Gaussian(R) 03 system (copyright 2003, Gaussian, Inc.),
 the Gaussian(R) 98 system (copyright 1998, Gaussian, Inc.),
 the Gaussian(R) 94 system (copyright 1995, Gaussian, Inc.),
 the Gaussian 92(TM) system (copyright 1992, Gaussian, Inc.),
 the Gaussian 90(TM) system (copyright 1990, Gaussian, Inc.),
 the Gaussian 88(TM) system (copyright 1988, Gaussian, Inc.),
 the Gaussian 86(TM) system (copyright 1986, Carnegie Mellon
 University), and the Gaussian 82(TM) system (copyright 1983,
 Carnegie Mellon University). Gaussian is a federally registered
 trademark of Gaussian, Inc.
  
 This software contains proprietary and confidential information,
 including trade secrets, belonging to Gaussian, Inc.
  
 This software is provided under written license and may be
 used, copied, transmitted, or stored only in accord with that
 written license.
  
 The following legend is applicable only to US Government
 contracts under FAR:
  
                    RESTRICTED RIGHTS LEGEND
  
 Use, reproduction and disclosure by the US Government is
 subject to restrictions as set forth in subparagraphs (a)
 and (c) of the Commercial Computer Software - Restricted
 Rights clause in FAR 52.227-19.
  
 Gaussian, Inc.
 340 Quinnipiac St., Bldg. 40, Wallingford CT 06492
  
  
 ---------------------------------------------------------------
 Warning -- This program may not be used in any manner that
 competes with the business of Gaussian, Inc. or will provide
 assistance to any competitor of Gaussian, Inc.  The licensee
 of this program is prohibited from giving any competitor of
 Gaussian, Inc. access to this program.  By using this program,
 the user acknowledges that Gaussian, Inc. is engaged in the
 business of creating and licensing software in the field of
 computational chemistry and represents and warrants to the
 licensee that it is not a competitor of Gaussian, Inc. and that
 it will not use this program in any manner prohibited above.
 ---------------------------------------------------------------
  

 Cite this work as:
 Gaussian 16, Revision C.01,
 M. J. Frisch, G. W. Trucks, H. B. Schlegel, G. E. Scuseria, 
 M. A. Robb, J. R. Cheeseman, G. Scalmani, V. Barone, 
 G. A. Petersson, H. Nakatsuji, X. Li, M. Caricato, A. V. Marenich, 
 J. Bloino, B. G. Janesko, R. Gomperts, B. Mennucci, H. P. Hratchian, 
 J. V. Ortiz, A. F. Izmaylov, J. L. Sonnenberg, D. Williams-Young, 
 F. Ding, F. Lipparini, F. Egidi, J. Goings, B. Peng, A. Petrone, 
 T. Henderson, D. Ranasinghe, V. G. Zakrzewski, J. Gao, N. Rega, 
 G. Zheng, W. Liang, M. Hada, M. Ehara, K. Toyota, R. Fukuda, 
 J. Hasegawa, M. Ishida, T. Nakajima, Y. Honda, O. Kitao, H. Nakai, 
 T. Vreven, K. Throssell, J. A. Montgomery, Jr., J. E. Peralta, 
 F. Ogliaro, M. J. Bearpark, J. J. Heyd, E. N. Brothers, K. N. Kudin, 
 V. N. Staroverov, T. A. Keith, R. Kobayashi, J. Normand, 
 K. Raghavachari, A. P. Rendell, J. C. Burant, S. S. Iyengar, 
 J. Tomasi, M. Cossi, J. M. Millam, M. Klene, C. Adamo, R. Cammi, 
 J. W. Ochterski, R. L. Martin, K. Morokuma, O. Farkas, 
 J. B. Foresman, and D. J. Fox, Gaussian, Inc., Wallingford CT, 2019.
 
 ******************************************
 Gaussian 16:  ES64L-G16RevC.01  3-Jul-2019
                24-Mar-2022 
 ******************************************
 %chk=molecule
 Default route: CacheSize=180224 MaxDisk=256GB
 --------------------------------------------------
 #P CCSD/GEN sp pop=AllOrbitals iop(3/33=1,3/36=-1)
 --------------------------------------------------
 1/4=180224,38=1,172=1/1;
 2/4=180224,12=2,17=6,18=5,40=1/2;
 3/4=180224,5=7,11=9,25=1,30=1,33=1,36=-1/1,2,3;
 4/4=180224/1;
 5/4=180224,5=2,38=5/2;
 8/4=180224,6=4,9=120000,10=1/1,4;
 9/4=180224,5=7/13;
 6/4=180224,7=2,8=2,9=2,10=2,96=-1/1;
 99/4=180224,5=1,9=1/99;
 Leave Link    1 at Thu Mar 24 15:57:58 2022, MaxMem=           0 cpu:               2.1 elap:               0.1
 (Enter /nopt/nrel/apps/gaussian/g16C_1/g16/l101.exe)
 ----
 test
 ----
 Symbolic Z-matrix:
 Charge =  0 Multiplicity = 1
 H                     0.        0.        0. 
 Na                    0.        0.        1.8874 
 
 ITRead=  0  0
 MicOpt= -1 -1
 NAtoms=      2 NQM=        2 NQMF=       0 NMMI=      0 NMMIF=      0
                NMic=       0 NMicF=      0.
                    Isotopes and Nuclear Properties:
 (Nuclear quadrupole moments (NQMom) in fm**2, nuclear magnetic moments (NMagM)
  in nuclear magnetons)

  Atom         1           2
 IAtWgt=           1          23
 AtmWgt=   1.0078250  22.9897697
 NucSpn=           1           3
 AtZEff=  -0.0000000  -0.0000000
 NQMom=    0.0000000  10.4000000
 NMagM=    2.7928460   2.2175200
 AtZNuc=   1.0000000  11.0000000
 Leave Link  101 at Thu Mar 24 15:57:58 2022, MaxMem=  9663676416 cpu:               3.3 elap:               0.1
 (Enter /nopt/nrel/apps/gaussian/g16C_1/g16/l202.exe)
                          Input orientation:                          
 ---------------------------------------------------------------------
 Center     Atomic      Atomic             Coordinates (Angstroms)
 Number     Number       Type             X           Y           Z
 ---------------------------------------------------------------------
      1          1           0        0.000000    0.000000    0.000000
      2         11           0        0.000000    0.000000    1.887400
 ---------------------------------------------------------------------
 Stoichiometry    HNa
 Framework group  C*V[C*(HNa)]
 Deg. of freedom     1
 Full point group                 C*V     NOp   4
 Largest Abelian subgroup         C2V     NOp   4
 Largest concise Abelian subgroup C1      NOp   1
                         Standard orientation:                         
 ---------------------------------------------------------------------
 Center     Atomic      Atomic             Coordinates (Angstroms)
 Number     Number       Type             X           Y           Z
 ---------------------------------------------------------------------
      1          1           0        0.000000    0.000000   -1.730117
      2         11           0        0.000000    0.000000    0.157283
 ---------------------------------------------------------------------
 Rotational constants (GHZ):           0.0000000         146.9390573         146.9390573
 Leave Link  202 at Thu Mar 24 15:57:58 2022, MaxMem=  9663676416 cpu:               1.1 elap:               0.1
 (Enter /nopt/nrel/apps/gaussian/g16C_1/g16/l301.exe)
 General basis read from cards:  (5D, 7F)
                         Coordinates in L301:                         
 ---------------------------------------------------------------------
 Center     Atomic      Atomic             Coordinates (Angstroms)
 Number     Number       Type             X           Y           Z
 ---------------------------------------------------------------------
      1          1           0        0.000000    0.000000   -1.730117
      2         11           0        0.000000    0.000000    0.157283
 ---------------------------------------------------------------------
 Centers:       1
 STO-3G
 ****
 Centers:       2
 6-31G
 ****
 FixB: optimizing general contractions.
 Ernie: Thresh=  0.10000D-02 Tol=  0.10000D-05 Strict=F.
 IA=     1 ShT= 0 ShC= 0 NL=   1 NS=   0.
 IA=     1 L=0 SC=0 ISt=    0 NBk=    0 NP=    0 IndPr=    0.
 IA=     2 ShT= 0 ShC= 0 NL=   1 NS=   0.
 IA=     2 L=0 SC=0 ISt=    0 NBk=    0 NP=    0 IndPr=    0.
 IA=     2 ShT= 1 ShC= 0 NL=   3 NS=   1.
 IA=     2 L=1 SC=0 ISt=    1 NBk=    2 NP=    9 IndPr=    0.
 DoElim1:  L=1 select primitive    1 from    2 using    1 C=-3.54D-03
 DoElim2:  L=1 select primitive    9 from    1 using    2 C= 1.23D+00
 DoElim1:  L=1 select primitive    1 from    2 using    1 C= 5.00D-03
 DoElim2:  L=1 select primitive    8 from    1 using    2 C= 9.50D-01
 Delete L=1 primitive    7 from    2 C=  0.00D+00.
 Delete L=1 primitive    5 from    2 C=  0.00D+00.
 Delete L=1 primitive    4 from    2 C=  0.00D+00.
 Delete L=1 primitive    3 from    2 C=  0.00D+00.
 Delete L=1 primitive    2 from    2 C=  0.00D+00.
 Delete L=1 primitive    1 from    2 C=  0.00D+00.
 Delete L=1 primitive    9 from    1 C=  0.00D+00.
 Delete L=1 primitive    8 from    1 C=  0.00D+00.
 Delete L=1 primitive    6 from    1 C=  0.00D+00.
 IA=     2 L=1 SC=0 ISt=    0 NBk=    0 NP=    0 IndPr=    9.
 LdAtmC:  AtmChg=     1.000000    11.000000
 AtZEff=     -1.0000000    -10.0400000
 NEqShl: 
              1            2            3            4
     1            1            1            1            1
     2            2            2            2            2
     3            3            3            3            3
     4            4            4            4            4
     5            5            5            5            5
 NEqBas: 
              1            2            3            4
     1            1            1            1            1
     2            2            2            2            2
     3            3            3            3            3
     4            4           -4           -4            4
     5            5           -5            5           -5
     6            6            6            6            6
     7            7            7            7            7
     8            8           -8           -8            8
     9            9           -9            9           -9
    10           10           10           10           10
    11           11           11           11           11
    12           12          -12          -12           12
    13           13          -13           13          -13
    14           14           14           14           14
 There are     8 symmetry adapted cartesian basis functions of A1  symmetry.
   1         1   1   1   1
   2         2   2   2   2
   3         3   3   3   3
   4         6   6   6   6
   5         7   7   7   7
   6        10  10  10  10
   7        11  11  11  11
   8        14  14  14  14
 There are     0 symmetry adapted cartesian basis functions of A2  symmetry.
 There are     3 symmetry adapted cartesian basis functions of B1  symmetry.
   9         4   4   4   4
  10         8   8   8   8
  11        12  12  12  12
 There are     3 symmetry adapted cartesian basis functions of B2  symmetry.
  12         5   5   5   5
  13         9   9   9   9
  14        13  13  13  13
 Order= 1 2 4 3
 Reordered character table:
              1            2            3            4            5
     1            1            1            1            1            1
     2            2            1            1           -1           -1
     3            4            1           -1           -1            1
     4            3            1           -1            1           -1
 NEqShl: 
              1            2            3            4
     1            1            1            1            1
     2            2            2            2            2
     3            3            3            3            3
     4            4            4            4            4
     5            5            5            5            5
 NEqBas: 
              1            2            3            4
     1            1            1            1            1
     2            2            2            2            2
     3            3            3            3            3
     4            4           -4           -4            4
     5            5           -5            5           -5
     6            6            6            6            6
     7            7            7            7            7
     8            8           -8           -8            8
     9            9           -9            9           -9
    10           10           10           10           10
    11           11           11           11           11
    12           12          -12          -12           12
    13           13          -13           13          -13
    14           14           14           14           14
 There are     8 symmetry adapted basis functions of A1  symmetry.
   1         1   1   1   1
   2         2   2   2   2
   3         3   3   3   3
   4         6   6   6   6
   5         7   7   7   7
   6        10  10  10  10
   7        11  11  11  11
   8        14  14  14  14
 There are     0 symmetry adapted basis functions of A2  symmetry.
 There are     3 symmetry adapted basis functions of B1  symmetry.
   9         4   4   4   4
  10         8   8   8   8
  11        12  12  12  12
 There are     3 symmetry adapted basis functions of B2  symmetry.
  12         5   5   5   5
  13         9   9   9   9
  14        13  13  13  13
 Order= 1 2 4 3
 Reordered character table:
              1            2            3            4            5
     1            1            1            1            1            1
     2            2            1            1           -1           -1
     3            4            1           -1           -1            1
     4            3            1           -1            1           -1
    14 basis functions,    49 primitive gaussians,    14 cartesian basis functions
     6 alpha electrons        6 beta electrons
       nuclear repulsion energy         3.0841100562 Hartrees.
 IS=     1 IAt=     1 ISR=     1 T=0 IP=      1 IndIP=      1 IndIPD=      0 C=  2.769344D-01  0.000000D+00                             NZ=T
 IS=     1 IAt=     1 ISR=     1 T=0 IP=      2 IndIP=      2 IndIPD=      1 C=  2.678389D-01  0.000000D+00                             NZ=T
 IS=     1 IAt=     1 ISR=     1 T=0 IP=      3 IndIP=      3 IndIPD=      2 C=  8.347367D-02  0.000000D+00                             NZ=T
 IS=     2 IAt=     2 ISR=     1 T=0 IP=      1 IndIP=      4 IndIPD=      0 C=  1.380276D+00  0.000000D+00                             NZ=T
 IS=     2 IAt=     2 ISR=     1 T=0 IP=      2 IndIP=      5 IndIPD=      1 C=  2.543440D+00  0.000000D+00                             NZ=T
 IS=     2 IAt=     2 ISR=     1 T=0 IP=      3 IndIP=      6 IndIPD=      2 C=  4.120502D+00  0.000000D+00                             NZ=T
 IS=     2 IAt=     2 ISR=     1 T=0 IP=      4 IndIP=      7 IndIPD=      3 C=  5.464941D+00  0.000000D+00                             NZ=T
 IS=     2 IAt=     2 ISR=     1 T=0 IP=      5 IndIP=      8 IndIPD=      4 C=  4.476262D+00  0.000000D+00                             NZ=T
 IS=     2 IAt=     2 ISR=     1 T=0 IP=      6 IndIP=      9 IndIPD=      5 C=  1.255723D+00  0.000000D+00                             NZ=T
 IS=     3 IAt=     2 ISR=     2 T=1 IP=      1 IndIP=     10 IndIPD=      0 C= -1.087231D-01  3.772614D+00                             NZ=T
 IS=     3 IAt=     2 ISR=     2 T=1 IP=      2 IndIP=     11 IndIPD=      1 C= -4.564910D-01  4.399752D+00                             NZ=T
 IS=     3 IAt=     2 ISR=     2 T=1 IP=      3 IndIP=     12 IndIPD=      2 C= -4.778739D-01  4.156503D+00                             NZ=T
 IS=     3 IAt=     2 ISR=     2 T=1 IP=      4 IndIP=     13 IndIPD=      3 C=  3.708017D-01  2.647056D+00                             NZ=T
 IS=     3 IAt=     2 ISR=     2 T=1 IP=      5 IndIP=     14 IndIPD=      4 C=  5.874076D-01  9.643141D-01                             NZ=T
 IS=     3 IAt=     2 ISR=     2 T=1 IP=      6 IndIP=     15 IndIPD=      5 C=  1.231036D-01  1.501277D-01                             NZ=T
 IS=     4 IAt=     2 ISR=     3 T=1 IP=      1 IndIP=     16 IndIPD=      0 C= -1.049885D-01 -1.372752D-02                             NZ=T
 IS=     4 IAt=     2 ISR=     3 T=1 IP=      2 IndIP=     17 IndIPD=      1 C= -1.469212D-02  6.158186D-02                             NZ=T
 IS=     4 IAt=     2 ISR=     3 T=1 IP=      3 IndIP=     18 IndIPD=      2 C=  1.153011D-01  2.888614D-03                             NZ=T
 IS=     5 IAt=     2 ISR=     4 T=1 IP=      1 IndIP=     19 IndIPD=      0 C=  4.608593D-02  1.484923D-02                             NZ=T
 IExCor=    0 DFT=F Ex=HF Corr=None ExCW=0 ScaHFX=  1.000000
 ScaDFX=  1.000000  1.000000  1.000000  1.000000 ScalE2=  1.000000  1.000000
 IRadAn=      5 IRanWt=     -1 IRanGd=            0 ICorTp=0 IEmpDi=  4
 NAtoms=    2 NActive=    2 NUniq=    2 SFac= 1.00D+00 NAtFMM=   60 NAOKFM=F Big=F
 Integral buffers will be    131072 words long.
 Raffenetti 1 integral format.
 Two-electron integral symmetry is turned on.
 Leave Link  301 at Thu Mar 24 15:57:58 2022, MaxMem=  9663676416 cpu:               2.2 elap:               0.1
 (Enter /nopt/nrel/apps/gaussian/g16C_1/g16/l302.exe)
 NPDir=0 NMtPBC=     1 NCelOv=     1 NCel=       1 NClECP=     1 NCelD=      1
         NCelK=      1 NCelE2=     1 NClLst=     1 CellRange=     0.0.
 One-electron integrals computed using PRISM.
 One-electron integral symmetry used in STVInt
 Entering OneElI...
 Calculate overlap and kinetic energy integrals
    NBasis =  14  MinDer = 0  MaxDer = 0
 Requested accuracy = 0.1000D-12
 Symmetry will be used
 PrmmSu-InSpLW:  IPartL=    0 NPrtUS=   36 NPrtUL=    1 DoSpLW=F IThBeg=    0 IThEnd=   35 NThAct=   36.
 PrSmSu:  IncTry=   512 NBBP=             15 NTPThr=   100 NPartT=   36 Incr=           1 LDynOK=F GPUOK=F.
 PrsmSu:  NPrtUS=  36 ThrOK=T IAlg=1 LenDen=           0 ISkipM=0 DoSpLW=F IThBeg=    0 IThEnd=   35.
 Prism:   IPart=     0 DynPar=F LinDyn=F Incr=           1.
 PRISM was handed   268432468 working-precision words and    15 shell-pairs
 PRISM was handed   268432468 working-precision words and    15 shell-pairs
 PRISM was handed   268432468 working-precision words and    15 shell-pairs
 PRISM was handed   268432468 working-precision words and    15 shell-pairs
 PRISM was handed   268432468 working-precision words and    15 shell-pairs
 PRISM was handed   268432468 working-precision words and    15 shell-pairs
 PRISM was handed   268432468 working-precision words and    15 shell-pairs
 PRISM was handed   268432468 working-precision words and    15 shell-pairs
 PRISM was handed   268432468 working-precision words and    15 shell-pairs
 PRISM was handed   268432468 working-precision words and    15 shell-pairs
 PRISM was handed   268432468 working-precision words and    15 shell-pairs
 PRISM was handed   268432468 working-precision words and    15 shell-pairs
 PRISM was handed   268432468 working-precision words and    15 shell-pairs
 IPart= 16 NShTot=           0 NBatch=           0 AvBLen=         0.0
 IPart=  8 NShTot=           0 NBatch=           0 AvBLen=         0.0
 IPart= 32 NShTot=           0 NBatch=           0 AvBLen=         0.0
 IPart= 33 NShTot=           0 NBatch=           0 AvBLen=         0.0
 IPart= 27 NShTot=           0 NBatch=           0 AvBLen=         0.0
 IPart= 26 NShTot=           0 NBatch=           0 AvBLen=         0.0
 IPart=  3 NShTot=           0 NBatch=           0 AvBLen=         0.0
 PRISM was handed   268432468 working-precision words and    15 shell-pairs
 IPart= 22 NShTot=           0 NBatch=           0 AvBLen=         0.0
 IPart=  6 NShTot=           0 NBatch=           0 AvBLen=         0.0
 IPart= 17 NShTot=           0 NBatch=           0 AvBLen=         0.0
 IPart= 25 NShTot=           0 NBatch=           0 AvBLen=         0.0
 IPart= 19 NShTot=           0 NBatch=           0 AvBLen=         0.0
 PRISM was handed   268432468 working-precision words and    15 shell-pairs
 PRISM was handed   268432468 working-precision words and    15 shell-pairs
 IPart=  1 NShTot=           1 NBatch=           1 AvBLen=         1.0
 PRISM was handed   268432468 working-precision words and    15 shell-pairs
 PRISM was handed   268432468 working-precision words and    15 shell-pairs
 PRISM was handed   268432468 working-precision words and    15 shell-pairs
 PRISM was handed   268432468 working-precision words and    15 shell-pairs
 PRISM was handed   268432468 working-precision words and    15 shell-pairs
 PRISM was handed   268432468 working-precision words and    15 shell-pairs
 PRISM was handed   268432468 working-precision words and    15 shell-pairs
 IPart= 15 NShTot=           0 NBatch=           0 AvBLen=         0.0
 IPart=  4 NShTot=           0 NBatch=           0 AvBLen=         0.0
 IPart= 35 NShTot=           0 NBatch=           0 AvBLen=         0.0
 PRISM was handed   268432468 working-precision words and    15 shell-pairs
 IPart= 30 NShTot=           0 NBatch=           0 AvBLen=         0.0
 PRISM was handed   268432468 working-precision words and    15 shell-pairs
 IPart= 31 NShTot=           0 NBatch=           0 AvBLen=         0.0
 IPart= 28 NShTot=           0 NBatch=           0 AvBLen=         0.0
 IPart= 11 NShTot=           0 NBatch=           0 AvBLen=         0.0
 IPart= 20 NShTot=           0 NBatch=           0 AvBLen=         0.0
 IPart= 21 NShTot=           0 NBatch=           0 AvBLen=         0.0
 IPart= 12 NShTot=           0 NBatch=           0 AvBLen=         0.0
 PRISM was handed   268432468 working-precision words and    15 shell-pairs
 PRISM was handed   268432468 working-precision words and    15 shell-pairs
 PRISM was handed   268432468 working-precision words and    15 shell-pairs
 IPart= 14 NShTot=           0 NBatch=           0 AvBLen=         0.0
 PRISM was handed   268432468 working-precision words and    15 shell-pairs
 PRISM was handed   268432468 working-precision words and    15 shell-pairs
 PRISM was handed   268432468 working-precision words and    15 shell-pairs
 IPart= 18 NShTot=           0 NBatch=           0 AvBLen=         0.0
 IPart=  5 NShTot=           0 NBatch=           0 AvBLen=         0.0
 IPart=  7 NShTot=           0 NBatch=           0 AvBLen=         0.0
 PRISM was handed   268432468 working-precision words and    15 shell-pairs
 PRISM was handed   268432468 working-precision words and    15 shell-pairs
 IPart= 23 NShTot=           0 NBatch=           0 AvBLen=         0.0
 PRISM was handed   268432468 working-precision words and    15 shell-pairs
 PRISM was handed   268432468 working-precision words and    15 shell-pairs
 PRISM was handed   268432468 working-precision words and    15 shell-pairs
 IPart= 34 NShTot=           0 NBatch=           0 AvBLen=         0.0
 IPart= 29 NShTot=           0 NBatch=           0 AvBLen=         0.0
 IPart= 13 NShTot=           0 NBatch=           0 AvBLen=         0.0
 IPart= 24 NShTot=           0 NBatch=           0 AvBLen=         0.0
 IPart=  0 NShTot=          14 NBatch=          14 AvBLen=         1.0
 IPart=  2 NShTot=           0 NBatch=           0 AvBLen=         0.0
 IPart= 10 NShTot=           0 NBatch=           0 AvBLen=         0.0
 IPart=  9 NShTot=           0 NBatch=           0 AvBLen=         0.0
 PrSmSu:  NxtVal=             37.
 *** Overlap *** 
                1             2             3             4             5 
      1  0.100000D+01
      2  0.408936D-02  0.100000D+01
      3  0.529502D-01  0.230835D+00  0.100000D+01
      4  0.000000D+00  0.000000D+00  0.000000D+00  0.100000D+01
      5  0.000000D+00  0.000000D+00  0.000000D+00  0.000000D+00  0.100000D+01
      6 -0.600377D-01  0.000000D+00  0.000000D+00  0.000000D+00  0.000000D+00
      7  0.342874D+00 -0.127644D-04  0.161245D+00  0.000000D+00  0.000000D+00
      8  0.000000D+00  0.000000D+00  0.000000D+00  0.186871D+00  0.000000D+00
      9  0.000000D+00  0.000000D+00  0.000000D+00  0.000000D+00  0.186871D+00
     10 -0.492473D+00  0.000000D+00  0.000000D+00  0.000000D+00  0.000000D+00
     11  0.290673D+00  0.189170D-01  0.190082D+00  0.000000D+00  0.000000D+00
     12  0.000000D+00  0.000000D+00  0.000000D+00  0.574619D-01  0.000000D+00
     13  0.000000D+00  0.000000D+00  0.000000D+00  0.000000D+00  0.574619D-01
     14 -0.300938D+00  0.000000D+00  0.000000D+00  0.000000D+00  0.000000D+00
                6             7             8             9            10 
      6  0.100000D+01
      7  0.000000D+00  0.100000D+01
      8  0.000000D+00  0.000000D+00  0.100000D+01
      9  0.000000D+00  0.000000D+00  0.000000D+00  0.100000D+01
     10  0.186871D+00  0.000000D+00  0.000000D+00  0.000000D+00  0.100000D+01
     11  0.000000D+00  0.876272D+00  0.000000D+00  0.000000D+00  0.000000D+00
     12  0.000000D+00  0.000000D+00  0.672925D+00  0.000000D+00  0.000000D+00
     13  0.000000D+00  0.000000D+00  0.000000D+00  0.672925D+00  0.000000D+00
     14  0.574619D-01  0.000000D+00  0.000000D+00  0.000000D+00  0.672925D+00
               11            12            13            14 
     11  0.100000D+01
     12  0.000000D+00  0.100000D+01
     13  0.000000D+00  0.000000D+00  0.100000D+01
     14  0.000000D+00  0.000000D+00  0.000000D+00  0.100000D+01
 *** Kinetic Energy *** 
                1             2             3             4             5 
      1  0.760032D+00
      2 -0.121514D-02  0.565455D+02
      3 -0.139590D-01 -0.266647D+01  0.196759D+01
      4  0.000000D+00  0.000000D+00  0.000000D+00  0.588848D+01
      5  0.000000D+00  0.000000D+00  0.000000D+00  0.000000D+00  0.588848D+01
      6  0.578198D-02  0.000000D+00  0.000000D+00  0.000000D+00  0.000000D+00
      7  0.366645D-01 -0.516638D-01 -0.152029D+00  0.000000D+00  0.000000D+00
      8  0.000000D+00  0.000000D+00  0.000000D+00  0.478086D-01  0.000000D+00
      9  0.000000D+00  0.000000D+00  0.000000D+00  0.000000D+00  0.478086D-01
     10 -0.105842D+00  0.000000D+00  0.000000D+00  0.000000D+00  0.000000D+00
     11  0.163358D-01  0.147038D-02  0.142898D-01  0.000000D+00  0.000000D+00
     12  0.000000D+00  0.000000D+00  0.000000D+00  0.716353D-02  0.000000D+00
     13  0.000000D+00  0.000000D+00  0.000000D+00  0.000000D+00  0.716353D-02
     14 -0.310559D-01  0.000000D+00  0.000000D+00  0.000000D+00  0.000000D+00
                6             7             8             9            10 
      6  0.588848D+01
      7  0.000000D+00  0.116833D+00
      8  0.000000D+00  0.000000D+00  0.205703D+00
      9  0.000000D+00  0.000000D+00  0.000000D+00  0.205703D+00
     10  0.478086D-01  0.000000D+00  0.000000D+00  0.000000D+00  0.205703D+00
     11  0.000000D+00  0.474660D-01  0.000000D+00  0.000000D+00  0.000000D+00
     12  0.000000D+00  0.000000D+00  0.664432D-01  0.000000D+00  0.000000D+00
     13  0.000000D+00  0.000000D+00  0.000000D+00  0.664432D-01  0.000000D+00
     14  0.716353D-02  0.000000D+00  0.000000D+00  0.000000D+00  0.664432D-01
               11            12            13            14 
     11  0.389316D-01
     12  0.000000D+00  0.648860D-01
     13  0.000000D+00  0.000000D+00  0.648860D-01
     14  0.000000D+00  0.000000D+00  0.000000D+00  0.648860D-01
 Entering OneElI...
 Calculate potential energy integrals
    NBasis =  14  MinDer = 0  MaxDer = 0
 Requested accuracy = 0.1000D-12
 Symmetry will be used
 PrmmSu-InSpLW:  IPartL=    0 NPrtUS=   36 NPrtUL=    1 DoSpLW=F IThBeg=    0 IThEnd=   35 NThAct=   36.
 PrSmSu:  IncTry=   512 NBBP=             30 NTPThr=   100 NPartT=   36 Incr=           1 LDynOK=F GPUOK=F.
 PrsmSu:  NPrtUS=  36 ThrOK=T IAlg=1 LenDen=           0 ISkipM=0 DoSpLW=F IThBeg=    0 IThEnd=   35.
 Prism:   IPart=     0 DynPar=F LinDyn=F Incr=           1.
 PRISM was handed   268432635 working-precision words and    15 shell-pairs
 PRISM was handed   268432635 working-precision words and    15 shell-pairs
 PRISM was handed   268432635 working-precision words and    15 shell-pairs
 PRISM was handed   268432635 working-precision words and    15 shell-pairs
 PRISM was handed   268432635 working-precision words and    15 shell-pairs
 PRISM was handed   268432635 working-precision words and    15 shell-pairs
 PRISM was handed   268432635 working-precision words and    15 shell-pairs
 PRISM was handed   268432635 working-precision words and    15 shell-pairs
 PRISM was handed   268432635 working-precision words and    15 shell-pairs
 PRISM was handed   268432635 working-precision words and    15 shell-pairs
 PRISM was handed   268432635 working-precision words and    15 shell-pairs
 PRISM was handed   268432635 working-precision words and    15 shell-pairs
 PRISM was handed   268432635 working-precision words and    15 shell-pairs
 PRISM was handed   268432635 working-precision words and    15 shell-pairs
 PRISM was handed   268432635 working-precision words and    15 shell-pairs
 PRISM was handed   268432635 working-precision words and    15 shell-pairs
 PRISM was handed   268432635 working-precision words and    15 shell-pairs
 PRISM was handed   268432635 working-precision words and    15 shell-pairs
 PRISM was handed   268432635 working-precision words and    15 shell-pairs
 PRISM was handed   268432635 working-precision words and    15 shell-pairs
 PRISM was handed   268432635 working-precision words and    15 shell-pairs
 PRISM was handed   268432635 working-precision words and    15 shell-pairs
 PRISM was handed   268432635 working-precision words and    15 shell-pairs
 PRISM was handed   268432635 working-precision words and    15 shell-pairs
 PRISM was handed   268432635 working-precision words and    15 shell-pairs
 PRISM was handed   268432635 working-precision words and    15 shell-pairs
 PRISM was handed   268432635 working-precision words and    15 shell-pairs
 PRISM was handed   268432635 working-precision words and    15 shell-pairs
 PRISM was handed   268432635 working-precision words and    15 shell-pairs
 PRISM was handed   268432635 working-precision words and    15 shell-pairs
 PRISM was handed   268432635 working-precision words and    15 shell-pairs
 PRISM was handed   268432635 working-precision words and    15 shell-pairs
 PRISM was handed   268432635 working-precision words and    15 shell-pairs
 PRISM was handed   268432635 working-precision words and    15 shell-pairs
 PRISM was handed   268432635 working-precision words and    15 shell-pairs
 PRISM was handed   268432635 working-precision words and    15 shell-pairs
 IPart= 15 NShTot=           0 NBatch=           0 AvBLen=         0.0
 IPart= 10 NShTot=           0 NBatch=           0 AvBLen=         0.0
 IPart=  7 NShTot=           0 NBatch=           0 AvBLen=         0.0
 IPart=  1 NShTot=           0 NBatch=           0 AvBLen=         0.0
 IPart= 29 NShTot=           0 NBatch=           0 AvBLen=         0.0
 IPart=  6 NShTot=           0 NBatch=           0 AvBLen=         0.0
 IPart= 22 NShTot=           0 NBatch=           0 AvBLen=         0.0
 IPart= 19 NShTot=           0 NBatch=           0 AvBLen=         0.0
 IPart=  4 NShTot=           0 NBatch=           0 AvBLen=         0.0
 IPart=  8 NShTot=           0 NBatch=           0 AvBLen=         0.0
 IPart= 18 NShTot=           0 NBatch=           0 AvBLen=         0.0
 IPart= 24 NShTot=           0 NBatch=           0 AvBLen=         0.0
 IPart= 33 NShTot=           0 NBatch=           0 AvBLen=         0.0
 IPart= 12 NShTot=           0 NBatch=           0 AvBLen=         0.0
 IPart= 26 NShTot=           0 NBatch=           0 AvBLen=         0.0
 IPart=  3 NShTot=           0 NBatch=           0 AvBLen=         0.0
 IPart=  2 NShTot=           0 NBatch=           0 AvBLen=         0.0
 IPart=  9 NShTot=           0 NBatch=           0 AvBLen=         0.0
 IPart= 16 NShTot=           0 NBatch=           0 AvBLen=         0.0
 IPart= 28 NShTot=           0 NBatch=           0 AvBLen=         0.0
 IPart= 23 NShTot=           0 NBatch=           0 AvBLen=         0.0
 IPart= 34 NShTot=           0 NBatch=           0 AvBLen=         0.0
 IPart= 31 NShTot=           0 NBatch=           0 AvBLen=         0.0
 IPart= 25 NShTot=           0 NBatch=           0 AvBLen=         0.0
 IPart= 14 NShTot=           0 NBatch=           0 AvBLen=         0.0
 IPart= 17 NShTot=           0 NBatch=           0 AvBLen=         0.0
 IPart= 21 NShTot=           0 NBatch=           0 AvBLen=         0.0
 IPart= 27 NShTot=           0 NBatch=           0 AvBLen=         0.0
 IPart= 30 NShTot=           0 NBatch=           0 AvBLen=         0.0
 IPart= 35 NShTot=           0 NBatch=           0 AvBLen=         0.0
 IPart= 11 NShTot=           0 NBatch=           0 AvBLen=         0.0
 IPart= 20 NShTot=           0 NBatch=           0 AvBLen=         0.0
 IPart= 32 NShTot=           0 NBatch=           0 AvBLen=         0.0
 IPart= 13 NShTot=           0 NBatch=           0 AvBLen=         0.0
 IPart=  5 NShTot=           0 NBatch=           0 AvBLen=         0.0
 IPart=  0 NShTot=          30 NBatch=          15 AvBLen=         2.0
 PrSmSu:  NxtVal=             37.
 ***** Potential Energy ***** 
                1             2             3             4             5 
      1  0.430866D+01
      2  0.238773D+00  0.117241D+03
      3  0.582514D+00  0.106714D+02  0.181065D+02
      4  0.000000D+00  0.000000D+00  0.000000D+00  0.189341D+02
      5  0.000000D+00  0.000000D+00  0.000000D+00  0.000000D+00  0.189341D+02
      6 -0.467733D+00 -0.361459D-02 -0.350887D-01  0.000000D+00  0.000000D+00
      7  0.142738D+01 -0.498352D-01  0.133287D+01  0.000000D+00  0.000000D+00
      8  0.000000D+00  0.000000D+00  0.000000D+00  0.156430D+01  0.000000D+00
      9  0.000000D+00  0.000000D+00  0.000000D+00  0.000000D+00  0.156430D+01
     10 -0.197813D+01 -0.552924D-04 -0.102675D-01  0.000000D+00  0.000000D+00
     11  0.115699D+01  0.111111D+01  0.230042D+01  0.000000D+00  0.000000D+00
     12  0.000000D+00  0.000000D+00  0.000000D+00  0.464787D+00  0.000000D+00
     13  0.000000D+00  0.000000D+00  0.000000D+00  0.000000D+00  0.464787D+00
     14 -0.105821D+01 -0.160224D-04 -0.318612D-02  0.000000D+00  0.000000D+00
                6             7             8             9            10 
      6  0.189449D+02
      7 -0.165303D-01  0.385624D+01
      8  0.000000D+00  0.000000D+00  0.354183D+01
      9  0.000000D+00  0.000000D+00  0.000000D+00  0.354183D+01
     10  0.157267D+01 -0.113481D+00  0.000000D+00  0.000000D+00  0.363861D+01
     11 -0.139676D-01  0.311565D+01  0.000000D+00  0.000000D+00 -0.936416D-01
     12  0.000000D+00  0.000000D+00  0.196105D+01  0.000000D+00  0.000000D+00
     13  0.000000D+00  0.000000D+00  0.000000D+00  0.196105D+01  0.000000D+00
     14  0.467597D+00 -0.630117D-01  0.000000D+00  0.000000D+00  0.201519D+01
               11            12            13            14 
     11  0.303808D+01
     12  0.000000D+00  0.203689D+01
     13  0.000000D+00  0.000000D+00  0.203689D+01
     14 -0.672802D-01  0.000000D+00  0.000000D+00  0.207969D+01
 ****** Core Hamiltonian ****** 
                1             2             3             4             5 
      1 -0.354863D+01
      2 -0.239988D+00 -0.606956D+02
      3 -0.596473D+00 -0.133379D+02 -0.161389D+02
      4  0.000000D+00  0.000000D+00  0.000000D+00 -0.130457D+02
      5  0.000000D+00  0.000000D+00  0.000000D+00  0.000000D+00 -0.130457D+02
      6  0.473515D+00  0.361459D-02  0.350887D-01  0.000000D+00  0.000000D+00
      7 -0.139072D+01 -0.182860D-02 -0.148489D+01  0.000000D+00  0.000000D+00
      8  0.000000D+00  0.000000D+00  0.000000D+00 -0.151649D+01  0.000000D+00
      9  0.000000D+00  0.000000D+00  0.000000D+00  0.000000D+00 -0.151649D+01
     10  0.187229D+01  0.552924D-04  0.102675D-01  0.000000D+00  0.000000D+00
     11 -0.114066D+01 -0.110964D+01 -0.228613D+01  0.000000D+00  0.000000D+00
     12  0.000000D+00  0.000000D+00  0.000000D+00 -0.457623D+00  0.000000D+00
     13  0.000000D+00  0.000000D+00  0.000000D+00  0.000000D+00 -0.457623D+00
     14  0.102715D+01  0.160224D-04  0.318612D-02  0.000000D+00  0.000000D+00
                6             7             8             9            10 
      6 -0.130565D+02
      7  0.165303D-01 -0.373940D+01
      8  0.000000D+00  0.000000D+00 -0.333612D+01
      9  0.000000D+00  0.000000D+00  0.000000D+00 -0.333612D+01
     10 -0.152486D+01  0.113481D+00  0.000000D+00  0.000000D+00 -0.343291D+01
     11  0.139676D-01 -0.306819D+01  0.000000D+00  0.000000D+00  0.936416D-01
     12  0.000000D+00  0.000000D+00 -0.189461D+01  0.000000D+00  0.000000D+00
     13  0.000000D+00  0.000000D+00  0.000000D+00 -0.189461D+01  0.000000D+00
     14 -0.460434D+00  0.630117D-01  0.000000D+00  0.000000D+00 -0.194875D+01
               11            12            13            14 
     11 -0.299914D+01
     12  0.000000D+00 -0.197200D+01
     13  0.000000D+00  0.000000D+00 -0.197200D+01
     14  0.672802D-01  0.000000D+00  0.000000D+00 -0.201481D+01
 SVDSVc IOpt=   1 NormSV=T IR=1
 SVDSVc V= 2.25D+00 1.84D+00 1.19D+00 9.76D-01 7.48D-01 6.08D-01 2.68D-01 1.20D-01
 SVDSVc IOpt=   1 NormSV=T IR=3
 SVDSVc V= 1.72D+00 9.71D-01 3.14D-01
 SVDSVc IOpt=   1 NormSV=T IR=4
 SVDSVc V= 1.72D+00 9.71D-01 3.14D-01
 TstOVc:  Largest diagonal error= 2.66D-15 IB=1 I=    8.
 TstOVc:  Largest same sym error= 7.69D-16 IB=1 I=    8 J=    3.
 TstOVc:  Largest diff sym error= 0.00D+00 IB=0 JB=0 I=    0 J=    0.
 Orthogonalized basis functions: 
                 1             2             3             4             5 
      1   0.324010D+00 -0.119113D+00 -0.637940D-01  0.951843D-01 -0.170396D+00
      2   0.261096D-01  0.453499D-01  0.682922D+00  0.295815D-01 -0.760784D+00
      3   0.109562D+00  0.139915D+00  0.575466D+00 -0.182468D-02  0.837942D+00
      4   0.000000D+00  0.000000D+00  0.000000D+00  0.000000D+00  0.000000D+00
      5   0.000000D+00  0.000000D+00  0.000000D+00  0.000000D+00  0.000000D+00
      6  -0.633100D-01  0.121231D+00 -0.332390D-01  0.985033D+00  0.109254D-01
      7   0.327912D+00  0.317837D+00 -0.142842D+00 -0.308241D-01 -0.911990D-01
      8   0.000000D+00  0.000000D+00  0.000000D+00  0.000000D+00  0.000000D+00
      9   0.000000D+00  0.000000D+00  0.000000D+00  0.000000D+00  0.000000D+00
     10  -0.253452D+00  0.391847D+00 -0.395080D-01 -0.342800D-01 -0.341134D-01
     11   0.321682D+00  0.324323D+00 -0.112061D+00 -0.360595D-01 -0.613222D-01
     12   0.000000D+00  0.000000D+00  0.000000D+00  0.000000D+00  0.000000D+00
     13   0.000000D+00  0.000000D+00  0.000000D+00  0.000000D+00  0.000000D+00
     14  -0.216961D+00  0.366341D+00 -0.486721D-01 -0.202655D+00 -0.114971D+00
                 6             7             8             9            10 
      1   0.987874D+00  0.619435D+00 -0.224327D+00  0.000000D+00  0.000000D+00
      2  -0.925464D-01 -0.380959D-02  0.285274D-01  0.000000D+00  0.000000D+00
      3   0.165819D+00  0.203421D-01  0.587402D-01  0.000000D+00  0.000000D+00
      4   0.000000D+00  0.000000D+00  0.000000D+00  0.180764D+00  0.976429D+00
      5   0.000000D+00  0.000000D+00  0.000000D+00  0.000000D+00  0.000000D+00
      6   0.329756D-01 -0.236683D+00  0.170500D-01  0.000000D+00  0.000000D+00
      7  -0.218887D+00 -0.136991D-01  0.206240D+01  0.000000D+00  0.000000D+00
      8   0.000000D+00  0.000000D+00  0.000000D+00  0.532957D+00 -0.716361D-01
      9   0.000000D+00  0.000000D+00  0.000000D+00  0.000000D+00  0.000000D+00
     10   0.349750D-01  0.145309D+01 -0.167885D+00  0.000000D+00  0.000000D+00
     11  -0.319125D+00 -0.234672D+00 -0.199352D+01  0.000000D+00  0.000000D+00
     12   0.000000D+00  0.000000D+00  0.000000D+00  0.516103D+00 -0.268016D+00
     13   0.000000D+00  0.000000D+00  0.000000D+00  0.000000D+00  0.000000D+00
     14   0.693432D+00 -0.106219D+01  0.505687D-01  0.000000D+00  0.000000D+00
                11            12            13            14 
      1   0.000000D+00  0.000000D+00  0.000000D+00  0.000000D+00
      2   0.000000D+00  0.000000D+00  0.000000D+00  0.000000D+00
      3   0.000000D+00  0.000000D+00  0.000000D+00  0.000000D+00
      4  -0.243572D+00  0.000000D+00  0.000000D+00  0.000000D+00
      5   0.000000D+00  0.180764D+00  0.976429D+00 -0.243572D+00
      6   0.000000D+00  0.000000D+00  0.000000D+00  0.000000D+00
      7   0.000000D+00  0.000000D+00  0.000000D+00  0.000000D+00
      8   0.127086D+01  0.000000D+00  0.000000D+00  0.000000D+00
      9   0.000000D+00  0.532957D+00 -0.716361D-01  0.127086D+01
     10   0.000000D+00  0.000000D+00  0.000000D+00  0.000000D+00
     11   0.000000D+00  0.000000D+00  0.000000D+00  0.000000D+00
     12  -0.122706D+01  0.000000D+00  0.000000D+00  0.000000D+00
     13   0.000000D+00  0.516103D+00 -0.268016D+00 -0.122706D+01
     14   0.000000D+00  0.000000D+00  0.000000D+00  0.000000D+00
 NBasis=    14 RedAO= T EigKep=  1.20D-01  NBF=     8     0     3     3
 NBsUse=    14 1.00D-06 EigRej= -1.00D+00 NBFU=     8     0     3     3
 Leave Link  302 at Thu Mar 24 15:57:58 2022, MaxMem=  9663676416 cpu:               3.9 elap:               0.1
 (Enter /nopt/nrel/apps/gaussian/g16C_1/g16/l303.exe)
 DipDrv will not compute anything.
 Fermi contact integrals: 
                 1             2 
      1   0.628247D+00  0.983823D-02
      2   0.000000D+00  0.192411D+02
      3   0.326333D-03  0.382249D-01
      4   0.000000D+00  0.000000D+00
      5   0.000000D+00  0.000000D+00
      6  -0.141945D-02  0.000000D+00
      7   0.441859D-01 -0.437955D-02
      8   0.000000D+00  0.000000D+00
      9   0.000000D+00  0.000000D+00
     10  -0.794356D-01  0.000000D+00
     11   0.331267D-01  0.460859D-01
     12   0.000000D+00  0.000000D+00
     13   0.000000D+00  0.000000D+00
     14  -0.380694D-01  0.000000D+00
 Leave Link  303 at Thu Mar 24 15:57:58 2022, MaxMem=  9663676416 cpu:               0.6 elap:               0.0
 (Enter /nopt/nrel/apps/gaussian/g16C_1/g16/l401.exe)
 ExpMin= 2.60D-02 ExpMax= 9.99D+03 ExpMxC= 1.50D+03 IAcc=3 IRadAn=         5 AccDes= 0.00D+00
 Harris functional with IExCor=  205 and IRadAn=       5 diagonalized for initial guess.
 HarFok:  IExCor=  205 AccDes= 0.00D+00 IRadAn=         5 IDoV= 1 UseB2=F ITyADJ=14
 ICtDFT=  3500011 ScaDFX=  1.000000  1.000000  1.000000  1.000000
 FoFCou: FMM=F IPFlag=           0 FMFlag=      100000 FMFlg1=           0
         NFxFlg=           0 DoJE=T BraDBF=F KetDBF=T FulRan=T
         wScrn=  0.000000 ICntrl=       500 IOpCl=  0 I1Cent=   200000004 NGrid=           0
         NMat0=    1 NMatS0=      1 NMatT0=    0 NMatD0=    1 NMtDS0=    0 NMtDT0=    0
 Petite list used in FoFCou.
 Harris En= -162.218357856032    
 JPrj=0 DoOrth=F DoCkMO=F.
 Initial guess orbital symmetries:
       Occupied  (SG) (SG) (SG) (PI) (PI) (SG)
       Virtual   (SG) (PI) (PI) (SG) (SG) (PI) (PI) (SG)
 The electronic state of the initial guess is 1-SG.
 Leave Link  401 at Thu Mar 24 15:57:58 2022, MaxMem=  9663676416 cpu:               3.5 elap:               0.1
 (Enter /nopt/nrel/apps/gaussian/g16C_1/g16/l502.exe)
 Keep R1 ints in memory in symmetry-blocked form, NReq=7223019.
 FoFCou: FMM=F IPFlag=           0 FMFlag=           0 FMFlg1=           0
         NFxFlg=           0 DoJE=F BraDBF=F KetDBF=F FulRan=T
         wScrn=  0.000000 ICntrl=       600 IOpCl=  0 I1Cent=           0 NGrid=           0
         NMat0=    1 NMatS0=    105 NMatT0=    0 NMatD0=    1 NMtDS0=    0 NMtDT0=    0
 Petite list used in FoFCou.
 Closed shell SCF:
 Using DIIS extrapolation, IDIIS=  1040.
 NGot=  9663676416 LenX=  9663671753 LenY=  9663670871
 Requested convergence on RMS density matrix=1.00D-08 within 128 cycles.
 Requested convergence on MAX density matrix=1.00D-06.
 Requested convergence on             energy=1.00D-06.
 No special actions if energy rises.

 Cycle   1  Pass 1  IDiag  1:
 E= -162.317094278472    
 DIIS: error= 3.56D-02 at cycle   1 NSaved=   1.
 NSaved= 1 IEnMin= 1 EnMin= -162.317094278472     IErMin= 1 ErrMin= 3.56D-02
 ErrMax= 3.56D-02  0.00D+00 EMaxC= 1.00D-01 BMatC= 1.29D-02 BMatP= 1.29D-02
 IDIUse=3 WtCom= 6.44D-01 WtEn= 3.56D-01
 Coeff-Com:  0.100D+01
 Coeff-En:   0.100D+01
 Coeff:      0.100D+01
 Gap=     0.226 Goal=   None    Shift=    0.000
 GapD=    0.226 DampG=1.000 DampE=0.500 DampFc=0.5000 IDamp=-1.
 Damping current iteration by 5.00D-01
 RMSDP=1.72D-02 MaxDP=1.88D-01              OVMax= 1.07D-02

 Cycle   2  Pass 1  IDiag  1:
 E= -162.333450091664     Delta-E=       -0.016355813192 Rises=F Damp=T
 DIIS: error= 1.81D-02 at cycle   2 NSaved=   2.
 NSaved= 2 IEnMin= 2 EnMin= -162.333450091664     IErMin= 2 ErrMin= 1.81D-02
 ErrMax= 1.81D-02  0.00D+00 EMaxC= 1.00D-01 BMatC= 3.38D-03 BMatP= 1.29D-02
 IDIUse=3 WtCom= 8.19D-01 WtEn= 1.81D-01
 Coeff-Com: -0.104D+01 0.204D+01
 Coeff-En:   0.000D+00 0.100D+01
 Coeff:     -0.851D+00 0.185D+01
 Gap=     0.271 Goal=   None    Shift=    0.000
 RMSDP=8.88D-03 MaxDP=9.50D-02 DE=-1.64D-02 OVMax= 5.81D-04

 Cycle   3  Pass 1  IDiag  1:
 E= -162.350413901693     Delta-E=       -0.016963810029 Rises=F Damp=F
 DIIS: error= 3.77D-04 at cycle   3 NSaved=   3.
 NSaved= 3 IEnMin= 3 EnMin= -162.350413901693     IErMin= 3 ErrMin= 3.77D-04
 ErrMax= 3.77D-04  0.00D+00 EMaxC= 1.00D-01 BMatC= 2.15D-06 BMatP= 3.38D-03
 IDIUse=3 WtCom= 9.96D-01 WtEn= 3.77D-03
 Coeff-Com:  0.324D+00-0.637D+00 0.131D+01
 Coeff-En:   0.000D+00 0.000D+00 0.100D+01
 Coeff:      0.323D+00-0.635D+00 0.131D+01
 Gap=     0.276 Goal=   None    Shift=    0.000
 RMSDP=4.04D-04 MaxDP=1.97D-03 DE=-1.70D-02 OVMax= 1.52D-04

 Cycle   4  Pass 1  IDiag  1:
 E= -162.350426371082     Delta-E=       -0.000012469389 Rises=F Damp=F
 DIIS: error= 1.15D-04 at cycle   4 NSaved=   4.
 NSaved= 4 IEnMin= 4 EnMin= -162.350426371082     IErMin= 4 ErrMin= 1.15D-04
 ErrMax= 1.15D-04  0.00D+00 EMaxC= 1.00D-01 BMatC= 1.02D-07 BMatP= 2.15D-06
 IDIUse=3 WtCom= 9.99D-01 WtEn= 1.15D-03
 Coeff-Com:  0.592D-01-0.115D+00 0.625D-01 0.993D+00
 Coeff-En:   0.000D+00 0.000D+00 0.000D+00 0.100D+01
 Coeff:      0.592D-01-0.115D+00 0.625D-01 0.993D+00
 Gap=     0.277 Goal=   None    Shift=    0.000
 RMSDP=7.90D-05 MaxDP=4.11D-04 DE=-1.25D-05 OVMax= 2.07D-06

 Cycle   5  Pass 1  IDiag  1:
 E= -162.350427235304     Delta-E=       -0.000000864222 Rises=F Damp=F
 DIIS: error= 4.59D-05 at cycle   5 NSaved=   5.
 NSaved= 5 IEnMin= 5 EnMin= -162.350427235304     IErMin= 5 ErrMin= 4.59D-05
 ErrMax= 4.59D-05  0.00D+00 EMaxC= 1.00D-01 BMatC= 1.36D-08 BMatP= 1.02D-07
 IDIUse=1 WtCom= 1.00D+00 WtEn= 0.00D+00
 Coeff-Com: -0.104D-01 0.201D-01 0.801D-02-0.784D+00 0.177D+01
 Coeff:     -0.104D-01 0.201D-01 0.801D-02-0.784D+00 0.177D+01
 Gap=     0.277 Goal=   None    Shift=    0.000
 RMSDP=4.16D-05 MaxDP=2.01D-04 DE=-8.64D-07 OVMax= 4.40D-06

 Cycle   6  Pass 1  IDiag  1:
 E= -162.350427384181     Delta-E=       -0.000000148876 Rises=F Damp=F
 DIIS: error= 4.56D-06 at cycle   6 NSaved=   6.
 NSaved= 6 IEnMin= 6 EnMin= -162.350427384181     IErMin= 6 ErrMin= 4.56D-06
 ErrMax= 4.56D-06  0.00D+00 EMaxC= 1.00D-01 BMatC= 2.02D-10 BMatP= 1.36D-08
 IDIUse=1 WtCom= 1.00D+00 WtEn= 0.00D+00
 Coeff-Com: -0.633D-03 0.128D-02-0.156D-01 0.340D+00-0.764D+00 0.144D+01
 Coeff:     -0.633D-03 0.128D-02-0.156D-01 0.340D+00-0.764D+00 0.144D+01
 Gap=     0.277 Goal=   None    Shift=    0.000
 RMSDP=7.82D-06 MaxDP=4.00D-05 DE=-1.49D-07 OVMax= 2.65D-07

 Cycle   7  Pass 1  IDiag  1:
 E= -162.350427385478     Delta-E=       -0.000000001297 Rises=F Damp=F
 DIIS: error= 1.81D-07 at cycle   7 NSaved=   7.
 NSaved= 7 IEnMin= 7 EnMin= -162.350427385478     IErMin= 7 ErrMin= 1.81D-07
 ErrMax= 1.81D-07  0.00D+00 EMaxC= 1.00D-01 BMatC= 4.73D-13 BMatP= 2.02D-10
 IDIUse=1 WtCom= 1.00D+00 WtEn= 0.00D+00
 Coeff-Com: -0.456D-05 0.308D-05 0.233D-02-0.600D-01 0.138D+00-0.275D+00
 Coeff-Com:  0.119D+01
 Coeff:     -0.456D-05 0.308D-05 0.233D-02-0.600D-01 0.138D+00-0.275D+00
 Coeff:      0.119D+01
 Gap=     0.277 Goal=   None    Shift=    0.000
 RMSDP=3.00D-07 MaxDP=1.72D-06 DE=-1.30D-09 OVMax= 6.75D-08

 Cycle   8  Pass 1  IDiag  1:
 E= -162.350427385481     Delta-E=       -0.000000000003 Rises=F Damp=F
 DIIS: error= 1.26D-08 at cycle   8 NSaved=   8.
 NSaved= 8 IEnMin= 8 EnMin= -162.350427385481     IErMin= 8 ErrMin= 1.26D-08
 ErrMax= 1.26D-08  0.00D+00 EMaxC= 1.00D-01 BMatC= 2.19D-15 BMatP= 4.73D-13
 IDIUse=1 WtCom= 1.00D+00 WtEn= 0.00D+00
 Coeff-Com: -0.109D-04 0.224D-04-0.391D-03 0.889D-02-0.205D-01 0.418D-01
 Coeff-Com: -0.220D+00 0.119D+01
 Coeff:     -0.109D-04 0.224D-04-0.391D-03 0.889D-02-0.205D-01 0.418D-01
 Coeff:     -0.220D+00 0.119D+01
 Gap=     0.277 Goal=   None    Shift=    0.000
 RMSDP=2.27D-08 MaxDP=1.17D-07 DE=-2.96D-12 OVMax= 8.93D-10

 Cycle   9  Pass 1  IDiag  1:
 E= -162.350427385481     Delta-E=        0.000000000000 Rises=F Damp=F
 DIIS: error= 3.29D-09 at cycle   9 NSaved=   9.
 NSaved= 9 IEnMin= 8 EnMin= -162.350427385481     IErMin= 9 ErrMin= 3.29D-09
 ErrMax= 3.29D-09  0.00D+00 EMaxC= 1.00D-01 BMatC= 1.28D-16 BMatP= 2.19D-15
 IDIUse=1 WtCom= 1.00D+00 WtEn= 0.00D+00
 Coeff-Com:  0.301D-05-0.613D-05 0.738D-04-0.153D-02 0.357D-02-0.748D-02
 Coeff-Com:  0.377D-01-0.287D+00 0.125D+01
 Coeff:      0.301D-05-0.613D-05 0.738D-04-0.153D-02 0.357D-02-0.748D-02
 Coeff:      0.377D-01-0.287D+00 0.125D+01
 Gap=     0.277 Goal=   None    Shift=    0.000
 RMSDP=6.79D-09 MaxDP=4.06D-08 DE= 0.00D+00 OVMax= 3.58D-11

 SCF Done:  E(RHF) =  -162.350427385     A.U. after    9 cycles
            NFock=  9  Conv=0.68D-08     -V/T= 2.0002
 KE= 1.623144454509D+02 PE=-3.970427881283D+02 EE= 6.929380523571D+01
 Leave Link  502 at Thu Mar 24 15:57:59 2022, MaxMem=  9663676416 cpu:               3.2 elap:               0.1
 (Enter /nopt/nrel/apps/gaussian/g16C_1/g16/l801.exe)
 Windowed orbitals will be sorted by symmetry type.
 ExpMin= 2.60D-02 ExpMax= 9.99D+03 ExpMxC= 1.50D+03 IAcc=3 IRadAn=         5 AccDes= 0.00D+00
 HarFok:  IExCor=  205 AccDes= 0.00D+00 IRadAn=         5 IDoV=-2 UseB2=F ITyADJ=14
 ICtDFT= 12500011 ScaDFX=  1.000000  1.000000  1.000000  1.000000
 Largest valence mixing into a core orbital is  1.12D-04
 Largest core mixing into a valence orbital is  2.85D-05
 Range of M.O.s used for correlation:     6    14
 NBasis=    14 NAE=     6 NBE=     6 NFC=     5 NFV=     0
 NROrb=      9 NOA=     1 NOB=     1 NVA=     8 NVB=     8
 Leave Link  801 at Thu Mar 24 15:57:59 2022, MaxMem=  9663676416 cpu:               2.0 elap:               0.1
 (Enter /nopt/nrel/apps/gaussian/g16C_1/g16/l804.exe)
 Closed-shell transformation, MDV=  9663676416 ITran=4 ISComp=2.
 Unit  1 TFree=          8118 TCopy=        116807.
 Semi-Direct transformation.
 ModeAB=           2 MOrb=             1 LenV=    9663552905
 LASXX=           88 LTotXX=          88 LenRXX=          88
 LTotAB=         141 MaxLAS=         945 LenRXY=         945
 NonZer=        1107 LenScr=      785920 LnRSAI=           0
 LnScr1=           0 LExtra=      220231 Total=      1007184
 MaxDsk= 34359738368 SrtSym=           F ITran=            4
 DoSDTr:  NPSUse= 36
 JobTyp=0 Pass  1:  I=   1 to   1.
 (rs|ai) integrals will be sorted in core.
 Complete sort for first half transformation.
 First half transformation complete.
 Complete sort for second half transformation.
 Second half transformation complete.
 Spin components of T(2) and E(2):
     alpha-alpha T2 =       0.0000000000D+00 E2=      0.0000000000D+00
     alpha-beta  T2 =       0.1502071768D-01 E2=     -0.1666400535D-01
     beta-beta   T2 =       0.0000000000D+00 E2=      0.0000000000D+00
 ANorm=    0.1007482366D+01
 E2 =    -0.1666400535D-01 EUMP2 =    -0.16236709139083D+03
 Leave Link  804 at Thu Mar 24 15:57:59 2022, MaxMem=  9663676416 cpu:               3.5 elap:               0.1
 (Enter /nopt/nrel/apps/gaussian/g16C_1/g16/l913.exe)
 CIDS:  MDV=  9663676416.
 Frozen-core window:  NFC=   5 NFV=   0.
 IFCWin=0 IBDFC=1 NFBD=     0     0 NFCmp=     0     0 NFFFC=     0     0
 Using DD3R+UMP44R for 1st iteration.
 Using DD4RQ for 2nd and later iterations.
 Keep R2 and R3 ints in memory in symmetry-blocked form, NReq=7225413.
 FoFCou: FMM=F IPFlag=           0 FMFlag=           0 FMFlg1=           0
         NFxFlg=           0 DoJE=F BraDBF=F KetDBF=F FulRan=T
         wScrn=  0.000000 ICntrl=       600 IOpCl=  0 I1Cent=           0 NGrid=           0
         NMat0=    1 NMatS0=    105 NMatT0=    0 NMatD0=    1 NMtDS0=    0 NMtDT0=    0
 Petite list used in FoFCou.
 CIDS: In Core Option IDoMem=           1.
 Coupled Cluster theory with single and double substitutions
 ===========================================================
 Iterations=  50 Convergence= 0.100D-06
 Produce multiple copies of IABC intergrals
 Iteration Nr.   1
 **********************
 DD1Dir will call FoFMem   1 times, MxPair=         2
 NAB=     1 NAA=     0 NBB=     0.
 MP4(R+Q)=  0.25030532D-03
 Maximum subspace dimension=  5
 A-vector RMS=  1.7623013D-02 Max=  2.6223741D-02 conv= 1.00D-05.
 RLE energy=       -0.0263528468
 E3=       -0.63810456D-02        EUMP3=      -0.16237347244D+03
 E4(DQ)=   -0.24892759D-02        UMP4(DQ)=   -0.16237596171D+03
 E4(SDQ)=  -0.26642408D-02        UMP4(SDQ)=  -0.16237613668D+03
 VARIATIONAL ENERGIES WITH THE FIRST-ORDER WAVEFUNCTION:
 DE(Corr)= -0.22790666E-01 E(Corr)=     -162.37321805    
 NORM(A)=   0.10192626D+01
 Iteration Nr.   2
 **********************
 DD1Dir will call FoFMem   1 times, MxPair=         2
 NAB=     1 NAA=     0 NBB=     0.
 A-vector RMS=  8.4094512D-03 Max=  8.4299495D-03 conv= 1.00D-05.
 RLE energy=       -0.0274603092
 DE(Corr)= -0.26886330E-01 E(CORR)=     -162.37731372     Delta=-4.10D-03
 NORM(A)=   0.10224424D+01
 Iteration Nr.   3
 **********************
 DD1Dir will call FoFMem   1 times, MxPair=         2
 NAB=     1 NAA=     0 NBB=     0.
 A-vector RMS=  5.9419965D-03 Max=  6.9642000D-03 conv= 1.00D-05.
 RLE energy=       -0.0278418343
 DE(Corr)= -0.27491553E-01 E(CORR)=     -162.37791894     Delta=-6.05D-04
 NORM(A)=   0.10255251D+01
 Iteration Nr.   4
 **********************
 DD1Dir will call FoFMem   1 times, MxPair=         2
 NAB=     1 NAA=     0 NBB=     0.
 A-vector RMS=  1.8763831D-03 Max=  2.4608501D-03 conv= 1.00D-05.
 RLE energy=       -0.0280137871
 DE(Corr)= -0.27878692E-01 E(CORR)=     -162.37830608     Delta=-3.87D-04
 NORM(A)=   0.10270037D+01
 Iteration Nr.   5
 **********************
 DD1Dir will call FoFMem   1 times, MxPair=         2
 NAB=     1 NAA=     0 NBB=     0.
 A-vector RMS=  5.1951431D-04 Max=  4.2426219D-04 conv= 1.00D-05.
 RLE energy=       -0.0279824711
 DE(Corr)= -0.27993510E-01 E(CORR)=     -162.37842090     Delta=-1.15D-04
 NORM(A)=   0.10270429D+01
 Iteration Nr.   6
 **********************
 DD1Dir will call FoFMem   1 times, MxPair=         2
 NAB=     1 NAA=     0 NBB=     0.
 A-vector RMS=  2.0357918D-04 Max=  2.1339041D-04 conv= 1.00D-05.
 RLE energy=       -0.0279826977
 DE(Corr)= -0.27983836E-01 E(CORR)=     -162.37841122     Delta= 9.67D-06
 NORM(A)=   0.10270565D+01
 Iteration Nr.   7
 **********************
 DD1Dir will call FoFMem   1 times, MxPair=         2
 NAB=     1 NAA=     0 NBB=     0.
 A-vector RMS=  6.1206286D-05 Max=  6.7151207D-05 conv= 1.00D-05.
 RLE energy=       -0.0279862955
 DE(Corr)= -0.27984472E-01 E(CORR)=     -162.37841186     Delta=-6.36D-07
 NORM(A)=   0.10270658D+01
 Iteration Nr.   8
 **********************
 DD1Dir will call FoFMem   1 times, MxPair=         2
 NAB=     1 NAA=     0 NBB=     0.
 A-vector RMS=  9.4389665D-06 Max=  6.7116851D-06 conv= 1.00D-05.
 RLE energy=       -0.0279853873
 DE(Corr)= -0.27985792E-01 E(CORR)=     -162.37841318     Delta=-1.32D-06
 NORM(A)=   0.10270617D+01
 Iteration Nr.   9
 **********************
 DD1Dir will call FoFMem   1 times, MxPair=         2
 NAB=     1 NAA=     0 NBB=     0.
 A-vector RMS=  3.1116376D-06 Max=  3.3875108D-06 conv= 1.00D-05.
 RLE energy=       -0.0279856700
 DE(Corr)= -0.27985524E-01 E(CORR)=     -162.37841291     Delta= 2.67D-07
 NORM(A)=   0.10270624D+01
 Iteration Nr.  10
 **********************
 DD1Dir will call FoFMem   1 times, MxPair=         2
 NAB=     1 NAA=     0 NBB=     0.
 A-vector RMS=  1.7396542D-06 Max=  1.9661425D-06 conv= 1.00D-05.
 RLE energy=       -0.0279856410
 DE(Corr)= -0.27985635E-01 E(CORR)=     -162.37841302     Delta=-1.11D-07
 NORM(A)=   0.10270627D+01
 Iteration Nr.  11
 **********************
 DD1Dir will call FoFMem   1 times, MxPair=         2
 NAB=     1 NAA=     0 NBB=     0.
 A-vector RMS=  5.1291824D-07 Max=  8.2245199D-07 conv= 1.00D-05.
 RLE energy=       -0.0279856789
 DE(Corr)= -0.27985659E-01 E(CORR)=     -162.37841304     Delta=-2.38D-08
 NORM(A)=   0.10270630D+01
 CI/CC converged in   11 iterations to DelEn=-2.38D-08 Conv= 1.00D-07 ErrA1= 5.13D-07 Conv= 1.00D-05
 Wavefunction amplitudes converged. E(Corr)=     -162.37841304    
 Dominant configurations:
 ***********************
 Spin Case        I    J    A    B          Value
   ABAB           6    6   14   14      -0.108948D+00
 Largest amplitude= 1.09D-01
 Discarding MO integrals.
 Leave Link  913 at Thu Mar 24 15:57:59 2022, MaxMem=  9663676416 cpu:               8.0 elap:               0.3
 (Enter /nopt/nrel/apps/gaussian/g16C_1/g16/l601.exe)
 Copying SCF densities to generalized density rwf, IOpCl= 0 IROHF=0.

 **********************************************************************

            Population analysis using the SCF Density.

 **********************************************************************

 Orbital symmetries:
       Occupied  (SG) (SG) (SG) (PI) (PI) (SG)
       Virtual   (SG) (PI) (PI) (SG) (SG) (PI) (PI) (SG)
 The electronic state is 1-SG.
 Alpha  occ. eigenvalues --  -40.47321  -2.79089  -1.51144  -1.51129  -1.51129
 Alpha  occ. eigenvalues --   -0.27226
 Alpha virt. eigenvalues --    0.00461   0.04514   0.04514   0.12908   0.15068
 Alpha virt. eigenvalues --    0.21491   0.21491   0.45711
          Condensed to atoms (all electrons):
               1          2
     1  H    0.601149   0.342040
     2  Na   0.342040  10.714770
 Mulliken charges:
               1
     1  H    0.056810
     2  Na  -0.056810
 Sum of Mulliken charges =   0.00000
 Mulliken charges with hydrogens summed into heavy atoms:
               1
     2  Na   0.000000
 N-N= 3.084110056225D+00 E-N=-3.970427881645D+02  KE= 1.623144454509D+02
 Symmetry A1   KE= 1.388490323620D+02
 Symmetry A2   KE= 0.000000000000D+00
 Symmetry B1   KE= 1.173270654446D+01
 Symmetry B2   KE= 1.173270654446D+01

 Atomic contributions to Alpha molecular orbitals:
 Alpha occ 1 OE=-40.473 is Na2-s=1.0000
 Alpha occ 2 OE=-2.791 is Na2-s=0.9996
 Alpha occ 3 OE=-1.511 is Na2-p=0.9990
 Alpha occ 4 OE=-1.511 is Na2-p=1.0000
 Alpha occ 5 OE=-1.511 is Na2-p=1.0000
 Alpha occ 6 OE=-0.272 is H1-s=0.4708 Na2-s=0.3442 Na2-p=0.1850
 Alpha vir 7 OE=0.005 is Na2-p=0.4993 Na2-s=0.4816
 Alpha vir 8 OE=0.045 is Na2-p=1.0000
 Alpha vir 9 OE=0.045 is Na2-p=1.0000
 Alpha vir 10 OE=0.129 is Na2-p=0.6275 Na2-s=0.3016
 Alpha vir 11 OE=0.151 is Na2-s=0.7278 Na2-p=0.2642
 Alpha vir 12 OE=0.215 is Na2-p=1.0000
 Alpha vir 13 OE=0.215 is Na2-p=1.0000
 Alpha vir 14 OE=0.457 is H1-s=0.4304 Na2-p=0.4247 Na2-s=0.1449
 
 Leave Link  601 at Thu Mar 24 15:57:59 2022, MaxMem=  9663676416 cpu:               2.0 elap:               0.1
 (Enter /nopt/nrel/apps/gaussian/g16C_1/g16/l9999.exe)

 Test job not archived.
 1\1\GINC-R6I7N35\SP\RCCSD-FC\Gen\H1Na1\USER\24-Mar-2022\0\\#P CCSD
 /GEN sp pop=AllOrbitals iop(3/33=1,3/36=-1)\\test\\0,1\H,0,0.,0.,0.\Na
 ,0,0.,0.,1.8874\\Version=ES64L-G16RevC.01\State=1-SG\HF=-162.3504274\M
 P2=-162.3670914\MP3=-162.3734724\MP4D=-162.376212\MP4DQ=-162.3759617\M
 P4SDQ=-162.3761367\CCSD=-162.378413\RMSD=6.786e-09\PG=C*V [C*(H1Na1)]\
 \@


 ... A MOLECULAR SYSTEM ... (PASSES) ... FROM ONE STATE OF EQUILIBRIUM 
 TO ANOTHER ... BY MEANS OF ALL POSSIBLE INTERMEDIATE PATHS, 
 BUT THE PATH MOST ECONOMICAL OF ENERGY WILL BE THE MORE OFTEN TRAVELED.

                      -- HENRY EYRING, 1945
 Job cpu time:       0 days  0 hours  0 minutes 37.2 seconds.
 Elapsed time:       0 days  0 hours  0 minutes  1.4 seconds.
 File lengths (MBytes):  RWF=     13 Int=      0 D2E=      0 Chk=      1 Scr=      1
 Normal termination of Gaussian 16 at Thu Mar 24 15:57:59 2022.
