 Entering Gaussian System, Link 0=g16
 Initial command:
 /nopt/nrel/apps/gaussian/g16C_1/g16/l1.exe "/lustre/eaglefs/scratch/user/qc/gaussian-final/nah-1-ccsd-631gdp/Gau-117769.inp" -scrdir="/lustre/eaglefs/scratch/user/qc/gaussian-final/nah-1-ccsd-631gdp/"
 Default is to use a total of  36 processors:
                               36 via shared-memory
                                1 via Linda
 Entering Link 1 = /nopt/nrel/apps/gaussian/g16C_1/g16/l1.exe PID=    117770.
  
 Copyright (c) 1988-2019, Gaussian, Inc.  All Rights Reserved.
  
 This is part of the Gaussian(R) 16 program.  It is based on
 the Gaussian(R) 09 system (copyright 2009, Gaussian, Inc.),
 the Gaussian(R) 03 system (copyright 2003, Gaussian, Inc.),
 the Gaussian(R) 98 system (copyright 1998, Gaussian, Inc.),
 the Gaussian(R) 94 system (copyright 1995, Gaussian, Inc.),
 the Gaussian 92(TM) system (copyright 1992, Gaussian, Inc.),
 the Gaussian 90(TM) system (copyright 1990, Gaussian, Inc.),
 the Gaussian 88(TM) system (copyright 1988, Gaussian, Inc.),
 the Gaussian 86(TM) system (copyright 1986, Carnegie Mellon
 University), and the Gaussian 82(TM) system (copyright 1983,
 Carnegie Mellon University). Gaussian is a federally registered
 trademark of Gaussian, Inc.
  
 This software contains proprietary and confidential information,
 including trade secrets, belonging to Gaussian, Inc.
  
 This software is provided under written license and may be
 used, copied, transmitted, or stored only in accord with that
 written license.
  
 The following legend is applicable only to US Government
 contracts under FAR:
  
                    RESTRICTED RIGHTS LEGEND
  
 Use, reproduction and disclosure by the US Government is
 subject to restrictions as set forth in subparagraphs (a)
 and (c) of the Commercial Computer Software - Restricted
 Rights clause in FAR 52.227-19.
  
 Gaussian, Inc.
 340 Quinnipiac St., Bldg. 40, Wallingford CT 06492
  
  
 ---------------------------------------------------------------
 Warning -- This program may not be used in any manner that
 competes with the business of Gaussian, Inc. or will provide
 assistance to any competitor of Gaussian, Inc.  The licensee
 of this program is prohibited from giving any competitor of
 Gaussian, Inc. access to this program.  By using this program,
 the user acknowledges that Gaussian, Inc. is engaged in the
 business of creating and licensing software in the field of
 computational chemistry and represents and warrants to the
 licensee that it is not a competitor of Gaussian, Inc. and that
 it will not use this program in any manner prohibited above.
 ---------------------------------------------------------------
  

 Cite this work as:
 Gaussian 16, Revision C.01,
 M. J. Frisch, G. W. Trucks, H. B. Schlegel, G. E. Scuseria, 
 M. A. Robb, J. R. Cheeseman, G. Scalmani, V. Barone, 
 G. A. Petersson, H. Nakatsuji, X. Li, M. Caricato, A. V. Marenich, 
 J. Bloino, B. G. Janesko, R. Gomperts, B. Mennucci, H. P. Hratchian, 
 J. V. Ortiz, A. F. Izmaylov, J. L. Sonnenberg, D. Williams-Young, 
 F. Ding, F. Lipparini, F. Egidi, J. Goings, B. Peng, A. Petrone, 
 T. Henderson, D. Ranasinghe, V. G. Zakrzewski, J. Gao, N. Rega, 
 G. Zheng, W. Liang, M. Hada, M. Ehara, K. Toyota, R. Fukuda, 
 J. Hasegawa, M. Ishida, T. Nakajima, Y. Honda, O. Kitao, H. Nakai, 
 T. Vreven, K. Throssell, J. A. Montgomery, Jr., J. E. Peralta, 
 F. Ogliaro, M. J. Bearpark, J. J. Heyd, E. N. Brothers, K. N. Kudin, 
 V. N. Staroverov, T. A. Keith, R. Kobayashi, J. Normand, 
 K. Raghavachari, A. P. Rendell, J. C. Burant, S. S. Iyengar, 
 J. Tomasi, M. Cossi, J. M. Millam, M. Klene, C. Adamo, R. Cammi, 
 J. W. Ochterski, R. L. Martin, K. Morokuma, O. Farkas, 
 J. B. Foresman, and D. J. Fox, Gaussian, Inc., Wallingford CT, 2019.
 
 ******************************************
 Gaussian 16:  ES64L-G16RevC.01  3-Jul-2019
                25-Mar-2022 
 ******************************************
 %chk=molecule
 Default route: CacheSize=180224 MaxDisk=256GB
 --------------------------------------------------
 #P CCSD/GEN sp pop=AllOrbitals iop(3/33=1,3/36=-1)
 --------------------------------------------------
 1/4=180224,38=1,172=1/1;
 2/4=180224,12=2,17=6,18=5,40=1/2;
 3/4=180224,5=7,11=9,25=1,30=1,33=1,36=-1/1,2,3;
 4/4=180224/1;
 5/4=180224,5=2,38=5/2;
 8/4=180224,6=4,9=120000,10=1/1,4;
 9/4=180224,5=7/13;
 6/4=180224,7=2,8=2,9=2,10=2,96=-1/1;
 99/4=180224,5=1,9=1/99;
 Leave Link    1 at Fri Mar 25 09:48:25 2022, MaxMem=           0 cpu:               3.1 elap:               0.1
 (Enter /nopt/nrel/apps/gaussian/g16C_1/g16/l101.exe)
 ----
 test
 ----
 Symbolic Z-matrix:
 Charge =  0 Multiplicity = 1
 H                     0.        0.        0. 
 Na                    0.        0.        1.8874 
 
 ITRead=  0  0
 MicOpt= -1 -1
 NAtoms=      2 NQM=        2 NQMF=       0 NMMI=      0 NMMIF=      0
                NMic=       0 NMicF=      0.
                    Isotopes and Nuclear Properties:
 (Nuclear quadrupole moments (NQMom) in fm**2, nuclear magnetic moments (NMagM)
  in nuclear magnetons)

  Atom         1           2
 IAtWgt=           1          23
 AtmWgt=   1.0078250  22.9897697
 NucSpn=           1           3
 AtZEff=  -0.0000000  -0.0000000
 NQMom=    0.0000000  10.4000000
 NMagM=    2.7928460   2.2175200
 AtZNuc=   1.0000000  11.0000000
 Leave Link  101 at Fri Mar 25 09:48:26 2022, MaxMem=  9663676416 cpu:               3.2 elap:               0.1
 (Enter /nopt/nrel/apps/gaussian/g16C_1/g16/l202.exe)
                          Input orientation:                          
 ---------------------------------------------------------------------
 Center     Atomic      Atomic             Coordinates (Angstroms)
 Number     Number       Type             X           Y           Z
 ---------------------------------------------------------------------
      1          1           0        0.000000    0.000000    0.000000
      2         11           0        0.000000    0.000000    1.887400
 ---------------------------------------------------------------------
 Stoichiometry    HNa
 Framework group  C*V[C*(HNa)]
 Deg. of freedom     1
 Full point group                 C*V     NOp   4
 Largest Abelian subgroup         C2V     NOp   4
 Largest concise Abelian subgroup C1      NOp   1
                         Standard orientation:                         
 ---------------------------------------------------------------------
 Center     Atomic      Atomic             Coordinates (Angstroms)
 Number     Number       Type             X           Y           Z
 ---------------------------------------------------------------------
      1          1           0        0.000000    0.000000   -1.730117
      2         11           0        0.000000    0.000000    0.157283
 ---------------------------------------------------------------------
 Rotational constants (GHZ):           0.0000000         146.9390573         146.9390573
 Leave Link  202 at Fri Mar 25 09:48:26 2022, MaxMem=  9663676416 cpu:               1.0 elap:               0.1
 (Enter /nopt/nrel/apps/gaussian/g16C_1/g16/l301.exe)
 General basis read from cards:  (5D, 7F)
                         Coordinates in L301:                         
 ---------------------------------------------------------------------
 Center     Atomic      Atomic             Coordinates (Angstroms)
 Number     Number       Type             X           Y           Z
 ---------------------------------------------------------------------
      1          1           0        0.000000    0.000000   -1.730117
      2         11           0        0.000000    0.000000    0.157283
 ---------------------------------------------------------------------
 Centers:       1
 STO-3G
 ****
 Centers:       2
 6-31G(d',p')
 ****
 FixB: optimizing general contractions.
 Ernie: Thresh=  0.10000D-02 Tol=  0.10000D-05 Strict=F.
 IA=     1 ShT= 0 ShC= 0 NL=   1 NS=   0.
 IA=     1 L=0 SC=0 ISt=    0 NBk=    0 NP=    0 IndPr=    0.
 IA=     2 ShT= 0 ShC= 0 NL=   1 NS=   0.
 IA=     2 L=0 SC=0 ISt=    0 NBk=    0 NP=    0 IndPr=    0.
 IA=     2 ShT= 1 ShC= 0 NL=   3 NS=   1.
 IA=     2 L=1 SC=0 ISt=    1 NBk=    2 NP=    9 IndPr=    0.
 DoElim1:  L=1 select primitive    1 from    2 using    1 C=-3.54D-03
 DoElim2:  L=1 select primitive    9 from    1 using    2 C= 1.23D+00
 DoElim1:  L=1 select primitive    1 from    2 using    1 C= 5.00D-03
 DoElim2:  L=1 select primitive    8 from    1 using    2 C= 9.50D-01
 Delete L=1 primitive    7 from    2 C=  0.00D+00.
 Delete L=1 primitive    5 from    2 C=  0.00D+00.
 Delete L=1 primitive    4 from    2 C=  0.00D+00.
 Delete L=1 primitive    3 from    2 C=  0.00D+00.
 Delete L=1 primitive    2 from    2 C=  0.00D+00.
 Delete L=1 primitive    1 from    2 C=  0.00D+00.
 Delete L=1 primitive    9 from    1 C=  0.00D+00.
 Delete L=1 primitive    8 from    1 C=  0.00D+00.
 Delete L=1 primitive    6 from    1 C=  0.00D+00.
 IA=     2 L=1 SC=0 ISt=    0 NBk=    0 NP=    0 IndPr=    9.
 IA=     2 ShT= 2 ShC= 2 NL=   1 NS=   1.
 IA=     2 L=2 SC=2 ISt=    0 NBk=    0 NP=    0 IndPr=    0.
 LdAtmC:  AtmChg=     1.000000    11.000000
 AtZEff=     -1.0000000    -10.0400000
 NEqShl: 
              1            2            3            4
     1            1            1            1            1
     2            2            2            2            2
     3            3            3            3            3
     4            4            4            4            4
     5            5            5            5            5
     6            6            6            6            6
 NEqBas: 
              1            2            3            4
     1            1            1            1            1
     2            2            2            2            2
     3            3            3            3            3
     4            4           -4           -4            4
     5            5           -5            5           -5
     6            6            6            6            6
     7            7            7            7            7
     8            8           -8           -8            8
     9            9           -9            9           -9
    10           10           10           10           10
    11           11           11           11           11
    12           12          -12          -12           12
    13           13          -13           13          -13
    14           14           14           14           14
    15           15           15           15           15
    16           16           16           16           16
    17           17           17           17           17
    18           18           18          -18          -18
    19           19          -19          -19           19
    20           20          -20           20          -20
 There are    11 symmetry adapted cartesian basis functions of A1  symmetry.
   1         1   1   1   1
   2         2   2   2   2
   3         3   3   3   3
   4         6   6   6   6
   5         7   7   7   7
   6        10  10  10  10
   7        11  11  11  11
   8        14  14  14  14
   9        15  15  15  15
  10        16  16  16  16
  11        17  17  17  17
 There are     1 symmetry adapted cartesian basis functions of A2  symmetry.
  12        18  18  18  18
 There are     4 symmetry adapted cartesian basis functions of B1  symmetry.
  13         4   4   4   4
  14         8   8   8   8
  15        12  12  12  12
  16        19  19  19  19
 There are     4 symmetry adapted cartesian basis functions of B2  symmetry.
  17         5   5   5   5
  18         9   9   9   9
  19        13  13  13  13
  20        20  20  20  20
 Order= 1 2 4 3
 Reordered character table:
              1            2            3            4            5
     1            1            1            1            1            1
     2            2            1            1           -1           -1
     3            4            1           -1           -1            1
     4            3            1           -1            1           -1
 NEqShl: 
              1            2            3            4
     1            1            1            1            1
     2            2            2            2            2
     3            3            3            3            3
     4            4            4            4            4
     5            5            5            5            5
     6            6            6            6            6
 NEqBas: 
              1            2            3            4
     1            1            1            1            1
     2            2            2            2            2
     3            3            3            3            3
     4            4           -4           -4            4
     5            5           -5            5           -5
     6            6            6            6            6
     7            7            7            7            7
     8            8           -8           -8            8
     9            9           -9            9           -9
    10           10           10           10           10
    11           11           11           11           11
    12           12          -12          -12           12
    13           13          -13           13          -13
    14           14           14           14           14
    15           15           15           15           15
    16           16          -16          -16           16
    17           17          -17           17          -17
    18           18           18           18           18
    19           19           19          -19          -19
 There are    10 symmetry adapted basis functions of A1  symmetry.
   1         1   1   1   1
   2         2   2   2   2
   3         3   3   3   3
   4         6   6   6   6
   5         7   7   7   7
   6        10  10  10  10
   7        11  11  11  11
   8        14  14  14  14
   9        15  15  15  15
  10        18  18  18  18
 There are     1 symmetry adapted basis functions of A2  symmetry.
  11        19  19  19  19
 There are     4 symmetry adapted basis functions of B1  symmetry.
  12         4   4   4   4
  13         8   8   8   8
  14        12  12  12  12
  15        16  16  16  16
 There are     4 symmetry adapted basis functions of B2  symmetry.
  16         5   5   5   5
  17         9   9   9   9
  18        13  13  13  13
  19        17  17  17  17
 Order= 1 2 4 3
 Reordered character table:
              1            2            3            4            5
     1            1            1            1            1            1
     2            2            1            1           -1           -1
     3            4            1           -1           -1            1
     4            3            1           -1            1           -1
    19 basis functions,    55 primitive gaussians,    20 cartesian basis functions
     6 alpha electrons        6 beta electrons
       nuclear repulsion energy         3.0841100562 Hartrees.
 IS=     1 IAt=     1 ISR=     1 T=0 IP=      1 IndIP=      1 IndIPD=      0 C=  2.769344D-01  0.000000D+00                             NZ=T
 IS=     1 IAt=     1 ISR=     1 T=0 IP=      2 IndIP=      2 IndIPD=      1 C=  2.678389D-01  0.000000D+00                             NZ=T
 IS=     1 IAt=     1 ISR=     1 T=0 IP=      3 IndIP=      3 IndIPD=      2 C=  8.347367D-02  0.000000D+00                             NZ=T
 IS=     2 IAt=     2 ISR=     1 T=0 IP=      1 IndIP=      4 IndIPD=      0 C=  1.380276D+00  0.000000D+00                             NZ=T
 IS=     2 IAt=     2 ISR=     1 T=0 IP=      2 IndIP=      5 IndIPD=      1 C=  2.543440D+00  0.000000D+00                             NZ=T
 IS=     2 IAt=     2 ISR=     1 T=0 IP=      3 IndIP=      6 IndIPD=      2 C=  4.120502D+00  0.000000D+00                             NZ=T
 IS=     2 IAt=     2 ISR=     1 T=0 IP=      4 IndIP=      7 IndIPD=      3 C=  5.464941D+00  0.000000D+00                             NZ=T
 IS=     2 IAt=     2 ISR=     1 T=0 IP=      5 IndIP=      8 IndIPD=      4 C=  4.476262D+00  0.000000D+00                             NZ=T
 IS=     2 IAt=     2 ISR=     1 T=0 IP=      6 IndIP=      9 IndIPD=      5 C=  1.255723D+00  0.000000D+00                             NZ=T
 IS=     3 IAt=     2 ISR=     2 T=1 IP=      1 IndIP=     10 IndIPD=      0 C= -1.087231D-01  3.772614D+00                             NZ=T
 IS=     3 IAt=     2 ISR=     2 T=1 IP=      2 IndIP=     11 IndIPD=      1 C= -4.564910D-01  4.399752D+00                             NZ=T
 IS=     3 IAt=     2 ISR=     2 T=1 IP=      3 IndIP=     12 IndIPD=      2 C= -4.778739D-01  4.156503D+00                             NZ=T
 IS=     3 IAt=     2 ISR=     2 T=1 IP=      4 IndIP=     13 IndIPD=      3 C=  3.708017D-01  2.647056D+00                             NZ=T
 IS=     3 IAt=     2 ISR=     2 T=1 IP=      5 IndIP=     14 IndIPD=      4 C=  5.874076D-01  9.643141D-01                             NZ=T
 IS=     3 IAt=     2 ISR=     2 T=1 IP=      6 IndIP=     15 IndIPD=      5 C=  1.231036D-01  1.501277D-01                             NZ=T
 IS=     4 IAt=     2 ISR=     3 T=1 IP=      1 IndIP=     16 IndIPD=      0 C= -1.049885D-01 -1.372752D-02                             NZ=T
 IS=     4 IAt=     2 ISR=     3 T=1 IP=      2 IndIP=     17 IndIPD=      1 C= -1.469212D-02  6.158186D-02                             NZ=T
 IS=     4 IAt=     2 ISR=     3 T=1 IP=      3 IndIP=     18 IndIPD=      2 C=  1.153011D-01  2.888614D-03                             NZ=T
 IS=     5 IAt=     2 ISR=     4 T=1 IP=      1 IndIP=     19 IndIPD=      0 C=  4.608593D-02  1.484923D-02                             NZ=T
 IS=     6 IAt=     2 ISR=     5 T=2 IP=      1 IndIP=     20 IndIPD=      1 C=  0.000000D+00  0.000000D+00  7.793383D-02  0.000000D+00 NZ=T
 IExCor=    0 DFT=F Ex=HF Corr=None ExCW=0 ScaHFX=  1.000000
 ScaDFX=  1.000000  1.000000  1.000000  1.000000 ScalE2=  1.000000  1.000000
 IRadAn=      5 IRanWt=     -1 IRanGd=            0 ICorTp=0 IEmpDi=  4
 NAtoms=    2 NActive=    2 NUniq=    2 SFac= 1.00D+00 NAtFMM=   60 NAOKFM=F Big=F
 Integral buffers will be    131072 words long.
 Raffenetti 1 integral format.
 Two-electron integral symmetry is turned on.
 Leave Link  301 at Fri Mar 25 09:48:26 2022, MaxMem=  9663676416 cpu:               2.0 elap:               0.1
 (Enter /nopt/nrel/apps/gaussian/g16C_1/g16/l302.exe)
 NPDir=0 NMtPBC=     1 NCelOv=     1 NCel=       1 NClECP=     1 NCelD=      1
         NCelK=      1 NCelE2=     1 NClLst=     1 CellRange=     0.0.
 One-electron integrals computed using PRISM.
 One-electron integral symmetry used in STVInt
 Entering OneElI...
 Calculate overlap and kinetic energy integrals
    NBasis =  19  MinDer = 0  MaxDer = 0
 Requested accuracy = 0.1000D-12
 Symmetry will be used
 PrmmSu-InSpLW:  IPartL=    0 NPrtUS=   36 NPrtUL=    1 DoSpLW=F IThBeg=    0 IThEnd=   35 NThAct=   36.
 PrSmSu:  IncTry=   512 NBBP=             21 NTPThr=   100 NPartT=   36 Incr=           1 LDynOK=F GPUOK=F.
 PrsmSu:  NPrtUS=  36 ThrOK=T IAlg=1 LenDen=           0 ISkipM=0 DoSpLW=F IThBeg=    0 IThEnd=   35.
 Prism:   IPart=     0 DynPar=F LinDyn=F Incr=           1.
 PRISM was handed   268432041 working-precision words and    21 shell-pairs
 PRISM was handed   268432041 working-precision words and    21 shell-pairs
 PRISM was handed   268432041 working-precision words and    21 shell-pairs
 PRISM was handed   268432041 working-precision words and    21 shell-pairs
 PRISM was handed   268432041 working-precision words and    21 shell-pairs
 PRISM was handed   268432041 working-precision words and    21 shell-pairs
 PRISM was handed   268432041 working-precision words and    21 shell-pairs
 PRISM was handed   268432041 working-precision words and    21 shell-pairs
 PRISM was handed   268432041 working-precision words and    21 shell-pairs
 PRISM was handed   268432041 working-precision words and    21 shell-pairs
 PRISM was handed   268432041 working-precision words and    21 shell-pairs
 PRISM was handed   268432041 working-precision words and    21 shell-pairs
 PRISM was handed   268432041 working-precision words and    21 shell-pairs
 PRISM was handed   268432041 working-precision words and    21 shell-pairs
 IPart= 32 NShTot=           0 NBatch=           0 AvBLen=         0.0
 IPart= 20 NShTot=           0 NBatch=           0 AvBLen=         0.0
 IPart= 28 NShTot=           0 NBatch=           0 AvBLen=         0.0
 IPart= 16 NShTot=           0 NBatch=           0 AvBLen=         0.0
 IPart= 24 NShTot=           0 NBatch=           0 AvBLen=         0.0
 IPart= 34 NShTot=           0 NBatch=           0 AvBLen=         0.0
 IPart= 26 NShTot=           0 NBatch=           0 AvBLen=         0.0
 PRISM was handed   268432041 working-precision words and    21 shell-pairs
 IPart=  5 NShTot=           0 NBatch=           0 AvBLen=         0.0
 IPart= 15 NShTot=           0 NBatch=           0 AvBLen=         0.0
 IPart= 22 NShTot=           0 NBatch=           0 AvBLen=         0.0
 IPart= 27 NShTot=           0 NBatch=           0 AvBLen=         0.0
 IPart= 30 NShTot=           0 NBatch=           0 AvBLen=         0.0
 IPart= 11 NShTot=           0 NBatch=           0 AvBLen=         0.0
 PRISM was handed   268432041 working-precision words and    21 shell-pairs
 PRISM was handed   268432041 working-precision words and    21 shell-pairs
 PRISM was handed   268432041 working-precision words and    21 shell-pairs
 PRISM was handed   268432041 working-precision words and    21 shell-pairs
 PRISM was handed   268432041 working-precision words and    21 shell-pairs
 PRISM was handed   268432041 working-precision words and    21 shell-pairs
 PRISM was handed   268432041 working-precision words and    21 shell-pairs
 PRISM was handed   268432041 working-precision words and    21 shell-pairs
 IPart= 21 NShTot=           0 NBatch=           0 AvBLen=         0.0
 IPart= 18 NShTot=           0 NBatch=           0 AvBLen=         0.0
 IPart= 10 NShTot=           0 NBatch=           0 AvBLen=         0.0
 PRISM was handed   268432041 working-precision words and    21 shell-pairs
 PRISM was handed   268432041 working-precision words and    21 shell-pairs
 PRISM was handed   268432041 working-precision words and    21 shell-pairs
 PRISM was handed   268432041 working-precision words and    21 shell-pairs
 PRISM was handed   268432041 working-precision words and    21 shell-pairs
 IPart=  9 NShTot=           0 NBatch=           0 AvBLen=         0.0
 IPart= 23 NShTot=           0 NBatch=           0 AvBLen=         0.0
 IPart= 19 NShTot=           0 NBatch=           0 AvBLen=         0.0
 IPart= 29 NShTot=           0 NBatch=           0 AvBLen=         0.0
 IPart= 12 NShTot=           0 NBatch=           0 AvBLen=         0.0
 PRISM was handed   268432041 working-precision words and    21 shell-pairs
 IPart=  1 NShTot=           1 NBatch=           1 AvBLen=         1.0
 IPart= 31 NShTot=           0 NBatch=           0 AvBLen=         0.0
 PRISM was handed   268432041 working-precision words and    21 shell-pairs
 PRISM was handed   268432041 working-precision words and    21 shell-pairs
 PRISM was handed   268432041 working-precision words and    21 shell-pairs
 PRISM was handed   268432041 working-precision words and    21 shell-pairs
 PRISM was handed   268432041 working-precision words and    21 shell-pairs
 PRISM was handed   268432041 working-precision words and    21 shell-pairs
 PRISM was handed   268432041 working-precision words and    21 shell-pairs
 IPart= 35 NShTot=           0 NBatch=           0 AvBLen=         0.0
 IPart=  3 NShTot=           0 NBatch=           0 AvBLen=         0.0
 IPart= 17 NShTot=           0 NBatch=           0 AvBLen=         0.0
 IPart= 13 NShTot=           0 NBatch=           0 AvBLen=         0.0
 IPart= 33 NShTot=           0 NBatch=           0 AvBLen=         0.0
 IPart=  0 NShTot=          20 NBatch=          20 AvBLen=         1.0
 IPart= 14 NShTot=           0 NBatch=           0 AvBLen=         0.0
 IPart=  8 NShTot=           0 NBatch=           0 AvBLen=         0.0
 IPart=  7 NShTot=           0 NBatch=           0 AvBLen=         0.0
 IPart=  4 NShTot=           0 NBatch=           0 AvBLen=         0.0
 IPart= 25 NShTot=           0 NBatch=           0 AvBLen=         0.0
 IPart=  2 NShTot=           0 NBatch=           0 AvBLen=         0.0
 IPart=  6 NShTot=           0 NBatch=           0 AvBLen=         0.0
 PrSmSu:  NxtVal=             37.
 *** Overlap *** 
                1             2             3             4             5 
      1  0.100000D+01
      2  0.408936D-02  0.100000D+01
      3  0.529502D-01  0.230835D+00  0.100000D+01
      4  0.000000D+00  0.000000D+00  0.000000D+00  0.100000D+01
      5  0.000000D+00  0.000000D+00  0.000000D+00  0.000000D+00  0.100000D+01
      6 -0.600377D-01  0.000000D+00  0.000000D+00  0.000000D+00  0.000000D+00
      7  0.342874D+00 -0.127644D-04  0.161245D+00  0.000000D+00  0.000000D+00
      8  0.000000D+00  0.000000D+00  0.000000D+00  0.186871D+00  0.000000D+00
      9  0.000000D+00  0.000000D+00  0.000000D+00  0.000000D+00  0.186871D+00
     10 -0.492473D+00  0.000000D+00  0.000000D+00  0.000000D+00  0.000000D+00
     11  0.290673D+00  0.189170D-01  0.190082D+00  0.000000D+00  0.000000D+00
     12  0.000000D+00  0.000000D+00  0.000000D+00  0.574619D-01  0.000000D+00
     13  0.000000D+00  0.000000D+00  0.000000D+00  0.000000D+00  0.574619D-01
     14 -0.300938D+00  0.000000D+00  0.000000D+00  0.000000D+00  0.000000D+00
     15  0.431039D+00  0.000000D+00  0.000000D+00  0.000000D+00  0.000000D+00
     16  0.000000D+00  0.000000D+00  0.000000D+00  0.000000D+00  0.000000D+00
     17  0.000000D+00  0.000000D+00  0.000000D+00  0.000000D+00  0.000000D+00
     18  0.000000D+00  0.000000D+00  0.000000D+00  0.000000D+00  0.000000D+00
     19  0.000000D+00  0.000000D+00  0.000000D+00  0.000000D+00  0.000000D+00
                6             7             8             9            10 
      6  0.100000D+01
      7  0.000000D+00  0.100000D+01
      8  0.000000D+00  0.000000D+00  0.100000D+01
      9  0.000000D+00  0.000000D+00  0.000000D+00  0.100000D+01
     10  0.186871D+00  0.000000D+00  0.000000D+00  0.000000D+00  0.100000D+01
     11  0.000000D+00  0.876272D+00  0.000000D+00  0.000000D+00  0.000000D+00
     12  0.000000D+00  0.000000D+00  0.672925D+00  0.000000D+00  0.000000D+00
     13  0.000000D+00  0.000000D+00  0.000000D+00  0.672925D+00  0.000000D+00
     14  0.574619D-01  0.000000D+00  0.000000D+00  0.000000D+00  0.672925D+00
     15  0.000000D+00  0.000000D+00  0.000000D+00  0.000000D+00  0.000000D+00
     16  0.000000D+00  0.000000D+00  0.000000D+00  0.000000D+00  0.000000D+00
     17  0.000000D+00  0.000000D+00  0.000000D+00  0.000000D+00  0.000000D+00
     18  0.000000D+00  0.000000D+00  0.000000D+00  0.000000D+00  0.000000D+00
     19  0.000000D+00  0.000000D+00  0.000000D+00  0.000000D+00  0.000000D+00
               11            12            13            14            15 
     11  0.100000D+01
     12  0.000000D+00  0.100000D+01
     13  0.000000D+00  0.000000D+00  0.100000D+01
     14  0.000000D+00  0.000000D+00  0.000000D+00  0.100000D+01
     15  0.000000D+00  0.000000D+00  0.000000D+00  0.000000D+00  0.100000D+01
     16  0.000000D+00  0.000000D+00  0.000000D+00  0.000000D+00  0.000000D+00
     17  0.000000D+00  0.000000D+00  0.000000D+00  0.000000D+00  0.000000D+00
     18  0.000000D+00  0.000000D+00  0.000000D+00  0.000000D+00  0.000000D+00
     19  0.000000D+00  0.000000D+00  0.000000D+00  0.000000D+00  0.000000D+00
               16            17            18            19 
     16  0.100000D+01
     17  0.000000D+00  0.100000D+01
     18  0.000000D+00  0.000000D+00  0.100000D+01
     19  0.000000D+00  0.000000D+00  0.000000D+00  0.100000D+01
 *** Kinetic Energy *** 
                1             2             3             4             5 
      1  0.760032D+00
      2 -0.121514D-02  0.565455D+02
      3 -0.139590D-01 -0.266647D+01  0.196759D+01
      4  0.000000D+00  0.000000D+00  0.000000D+00  0.588848D+01
      5  0.000000D+00  0.000000D+00  0.000000D+00  0.000000D+00  0.588848D+01
      6  0.578198D-02  0.000000D+00  0.000000D+00  0.000000D+00  0.000000D+00
      7  0.366645D-01 -0.516638D-01 -0.152029D+00  0.000000D+00  0.000000D+00
      8  0.000000D+00  0.000000D+00  0.000000D+00  0.478086D-01  0.000000D+00
      9  0.000000D+00  0.000000D+00  0.000000D+00  0.000000D+00  0.478086D-01
     10 -0.105842D+00  0.000000D+00  0.000000D+00  0.000000D+00  0.000000D+00
     11  0.163358D-01  0.147038D-02  0.142898D-01  0.000000D+00  0.000000D+00
     12  0.000000D+00  0.000000D+00  0.000000D+00  0.716353D-02  0.000000D+00
     13  0.000000D+00  0.000000D+00  0.000000D+00  0.000000D+00  0.716353D-02
     14 -0.310559D-01  0.000000D+00  0.000000D+00  0.000000D+00  0.000000D+00
     15  0.194488D+00  0.000000D+00  0.000000D+00  0.000000D+00  0.000000D+00
     16  0.000000D+00  0.000000D+00  0.000000D+00  0.000000D+00  0.000000D+00
     17  0.000000D+00  0.000000D+00  0.000000D+00  0.000000D+00  0.000000D+00
     18  0.000000D+00  0.000000D+00  0.000000D+00  0.000000D+00  0.000000D+00
     19  0.000000D+00  0.000000D+00  0.000000D+00  0.000000D+00  0.000000D+00
                6             7             8             9            10 
      6  0.588848D+01
      7  0.000000D+00  0.116833D+00
      8  0.000000D+00  0.000000D+00  0.205703D+00
      9  0.000000D+00  0.000000D+00  0.000000D+00  0.205703D+00
     10  0.478086D-01  0.000000D+00  0.000000D+00  0.000000D+00  0.205703D+00
     11  0.000000D+00  0.474660D-01  0.000000D+00  0.000000D+00  0.000000D+00
     12  0.000000D+00  0.000000D+00  0.664432D-01  0.000000D+00  0.000000D+00
     13  0.000000D+00  0.000000D+00  0.000000D+00  0.664432D-01  0.000000D+00
     14  0.716353D-02  0.000000D+00  0.000000D+00  0.000000D+00  0.664432D-01
     15  0.000000D+00  0.000000D+00  0.000000D+00  0.000000D+00  0.000000D+00
     16  0.000000D+00  0.000000D+00  0.000000D+00  0.000000D+00  0.000000D+00
     17  0.000000D+00  0.000000D+00  0.000000D+00  0.000000D+00  0.000000D+00
     18  0.000000D+00  0.000000D+00  0.000000D+00  0.000000D+00  0.000000D+00
     19  0.000000D+00  0.000000D+00  0.000000D+00  0.000000D+00  0.000000D+00
               11            12            13            14            15 
     11  0.389316D-01
     12  0.000000D+00  0.648860D-01
     13  0.000000D+00  0.000000D+00  0.648860D-01
     14  0.000000D+00  0.000000D+00  0.000000D+00  0.648860D-01
     15  0.000000D+00  0.000000D+00  0.000000D+00  0.000000D+00  0.612500D+00
     16  0.000000D+00  0.000000D+00  0.000000D+00  0.000000D+00  0.000000D+00
     17  0.000000D+00  0.000000D+00  0.000000D+00  0.000000D+00  0.000000D+00
     18  0.000000D+00  0.000000D+00  0.000000D+00  0.000000D+00  0.000000D+00
     19  0.000000D+00  0.000000D+00  0.000000D+00  0.000000D+00  0.000000D+00
               16            17            18            19 
     16  0.612500D+00
     17  0.000000D+00  0.612500D+00
     18  0.000000D+00  0.000000D+00  0.612500D+00
     19  0.000000D+00  0.000000D+00  0.000000D+00  0.612500D+00
 Entering OneElI...
 Calculate potential energy integrals
    NBasis =  19  MinDer = 0  MaxDer = 0
 Requested accuracy = 0.1000D-12
 Symmetry will be used
 PrmmSu-InSpLW:  IPartL=    0 NPrtUS=   36 NPrtUL=    1 DoSpLW=F IThBeg=    0 IThEnd=   35 NThAct=   36.
 PrSmSu:  IncTry=   512 NBBP=             42 NTPThr=   100 NPartT=   36 Incr=           1 LDynOK=F GPUOK=F.
 PrsmSu:  NPrtUS=  36 ThrOK=T IAlg=1 LenDen=           0 ISkipM=0 DoSpLW=F IThBeg=    0 IThEnd=   35.
 Prism:   IPart=     0 DynPar=F LinDyn=F Incr=           1.
 PRISM was handed   268432309 working-precision words and    21 shell-pairs
 PRISM was handed   268432309 working-precision words and    21 shell-pairs
 PRISM was handed   268432309 working-precision words and    21 shell-pairs
 PRISM was handed   268432309 working-precision words and    21 shell-pairs
 PRISM was handed   268432309 working-precision words and    21 shell-pairs
 PRISM was handed   268432309 working-precision words and    21 shell-pairs
 PRISM was handed   268432309 working-precision words and    21 shell-pairs
 PRISM was handed   268432309 working-precision words and    21 shell-pairs
 PRISM was handed   268432309 working-precision words and    21 shell-pairs
 PRISM was handed   268432309 working-precision words and    21 shell-pairs
 PRISM was handed   268432309 working-precision words and    21 shell-pairs
 PRISM was handed   268432309 working-precision words and    21 shell-pairs
 PRISM was handed   268432309 working-precision words and    21 shell-pairs
 PRISM was handed   268432309 working-precision words and    21 shell-pairs
 PRISM was handed   268432309 working-precision words and    21 shell-pairs
 PRISM was handed   268432309 working-precision words and    21 shell-pairs
 PRISM was handed   268432309 working-precision words and    21 shell-pairs
 PRISM was handed   268432309 working-precision words and    21 shell-pairs
 PRISM was handed   268432309 working-precision words and    21 shell-pairs
 PRISM was handed   268432309 working-precision words and    21 shell-pairs
 PRISM was handed   268432309 working-precision words and    21 shell-pairs
 PRISM was handed   268432309 working-precision words and    21 shell-pairs
 PRISM was handed   268432309 working-precision words and    21 shell-pairs
 PRISM was handed   268432309 working-precision words and    21 shell-pairs
 PRISM was handed   268432309 working-precision words and    21 shell-pairs
 PRISM was handed   268432309 working-precision words and    21 shell-pairs
 PRISM was handed   268432309 working-precision words and    21 shell-pairs
 PRISM was handed   268432309 working-precision words and    21 shell-pairs
 PRISM was handed   268432309 working-precision words and    21 shell-pairs
 PRISM was handed   268432309 working-precision words and    21 shell-pairs
 PRISM was handed   268432309 working-precision words and    21 shell-pairs
 PRISM was handed   268432309 working-precision words and    21 shell-pairs
 PRISM was handed   268432309 working-precision words and    21 shell-pairs
 PRISM was handed   268432309 working-precision words and    21 shell-pairs
 PRISM was handed   268432309 working-precision words and    21 shell-pairs
 PRISM was handed   268432309 working-precision words and    21 shell-pairs
 IPart=  1 NShTot=           0 NBatch=           0 AvBLen=         0.0
 IPart= 18 NShTot=           0 NBatch=           0 AvBLen=         0.0
 IPart=  3 NShTot=           0 NBatch=           0 AvBLen=         0.0
 IPart= 35 NShTot=           0 NBatch=           0 AvBLen=         0.0
 IPart= 21 NShTot=           0 NBatch=           0 AvBLen=         0.0
 IPart= 19 NShTot=           0 NBatch=           0 AvBLen=         0.0
 IPart= 16 NShTot=           0 NBatch=           0 AvBLen=         0.0
 IPart= 10 NShTot=           0 NBatch=           0 AvBLen=         0.0
 IPart= 14 NShTot=           0 NBatch=           0 AvBLen=         0.0
 IPart=  8 NShTot=           0 NBatch=           0 AvBLen=         0.0
 IPart= 29 NShTot=           0 NBatch=           0 AvBLen=         0.0
 IPart=  7 NShTot=           0 NBatch=           0 AvBLen=         0.0
 IPart= 28 NShTot=           0 NBatch=           0 AvBLen=         0.0
 IPart= 25 NShTot=           0 NBatch=           0 AvBLen=         0.0
 IPart= 34 NShTot=           0 NBatch=           0 AvBLen=         0.0
 IPart= 31 NShTot=           0 NBatch=           0 AvBLen=         0.0
 IPart= 24 NShTot=           0 NBatch=           0 AvBLen=         0.0
 IPart= 15 NShTot=           0 NBatch=           0 AvBLen=         0.0
 IPart= 33 NShTot=           0 NBatch=           0 AvBLen=         0.0
 IPart= 20 NShTot=           0 NBatch=           0 AvBLen=         0.0
 IPart= 32 NShTot=           0 NBatch=           0 AvBLen=         0.0
 IPart= 13 NShTot=           0 NBatch=           0 AvBLen=         0.0
 IPart= 12 NShTot=           0 NBatch=           0 AvBLen=         0.0
 IPart=  2 NShTot=           0 NBatch=           0 AvBLen=         0.0
 IPart= 17 NShTot=           0 NBatch=           0 AvBLen=         0.0
 IPart= 22 NShTot=           0 NBatch=           0 AvBLen=         0.0
 IPart=  5 NShTot=           0 NBatch=           0 AvBLen=         0.0
 IPart= 27 NShTot=           0 NBatch=           0 AvBLen=         0.0
 IPart= 11 NShTot=           0 NBatch=           0 AvBLen=         0.0
 IPart=  4 NShTot=           0 NBatch=           0 AvBLen=         0.0
 IPart= 23 NShTot=           0 NBatch=           0 AvBLen=         0.0
 IPart=  9 NShTot=           0 NBatch=           0 AvBLen=         0.0
 IPart=  6 NShTot=           0 NBatch=           0 AvBLen=         0.0
 IPart= 26 NShTot=           0 NBatch=           0 AvBLen=         0.0
 IPart= 30 NShTot=           0 NBatch=           0 AvBLen=         0.0
 IPart=  0 NShTot=          42 NBatch=          21 AvBLen=         2.0
 PrSmSu:  NxtVal=             37.
 ***** Potential Energy ***** 
                1             2             3             4             5 
      1  0.430866D+01
      2  0.238773D+00  0.117241D+03
      3  0.582514D+00  0.106714D+02  0.181065D+02
      4  0.000000D+00  0.000000D+00  0.000000D+00  0.189341D+02
      5  0.000000D+00  0.000000D+00  0.000000D+00  0.000000D+00  0.189341D+02
      6 -0.467733D+00 -0.361459D-02 -0.350887D-01  0.000000D+00  0.000000D+00
      7  0.142738D+01 -0.498352D-01  0.133287D+01  0.000000D+00  0.000000D+00
      8  0.000000D+00  0.000000D+00  0.000000D+00  0.156430D+01  0.000000D+00
      9  0.000000D+00  0.000000D+00  0.000000D+00  0.000000D+00  0.156430D+01
     10 -0.197813D+01 -0.552924D-04 -0.102675D-01  0.000000D+00  0.000000D+00
     11  0.115699D+01  0.111111D+01  0.230042D+01  0.000000D+00  0.000000D+00
     12  0.000000D+00  0.000000D+00  0.000000D+00  0.464787D+00  0.000000D+00
     13  0.000000D+00  0.000000D+00  0.000000D+00  0.000000D+00  0.464787D+00
     14 -0.105821D+01 -0.160224D-04 -0.318612D-02  0.000000D+00  0.000000D+00
     15  0.187806D+01  0.289908D-05  0.506793D-02  0.000000D+00  0.000000D+00
     16  0.000000D+00  0.000000D+00  0.000000D+00 -0.116536D-01  0.000000D+00
     17  0.000000D+00  0.000000D+00  0.000000D+00  0.000000D+00 -0.116536D-01
     18  0.000000D+00  0.000000D+00  0.000000D+00  0.000000D+00  0.000000D+00
     19  0.000000D+00  0.000000D+00  0.000000D+00  0.000000D+00  0.000000D+00
                6             7             8             9            10 
      6  0.189449D+02
      7 -0.165303D-01  0.385624D+01
      8  0.000000D+00  0.000000D+00  0.354183D+01
      9  0.000000D+00  0.000000D+00  0.000000D+00  0.354183D+01
     10  0.157267D+01 -0.113481D+00  0.000000D+00  0.000000D+00  0.363861D+01
     11 -0.139676D-01  0.311565D+01  0.000000D+00  0.000000D+00 -0.936416D-01
     12  0.000000D+00  0.000000D+00  0.196105D+01  0.000000D+00  0.000000D+00
     13  0.000000D+00  0.000000D+00  0.000000D+00  0.196105D+01  0.000000D+00
     14  0.467597D+00 -0.630117D-01  0.000000D+00  0.000000D+00  0.201519D+01
     15 -0.195875D-01  0.725540D-01  0.000000D+00  0.000000D+00 -0.145730D+00
     16  0.000000D+00  0.000000D+00 -0.615051D-01  0.000000D+00  0.000000D+00
     17  0.000000D+00  0.000000D+00  0.000000D+00 -0.615051D-01  0.000000D+00
     18  0.000000D+00  0.000000D+00  0.000000D+00  0.000000D+00  0.000000D+00
     19  0.000000D+00  0.000000D+00  0.000000D+00  0.000000D+00  0.000000D+00
               11            12            13            14            15 
     11  0.303808D+01
     12  0.000000D+00  0.203689D+01
     13  0.000000D+00  0.000000D+00  0.203689D+01
     14 -0.672802D-01  0.000000D+00  0.000000D+00  0.207969D+01
     15  0.543188D-01  0.000000D+00  0.000000D+00 -0.699395D-01  0.427219D+01
     16  0.000000D+00 -0.292766D-01  0.000000D+00  0.000000D+00  0.000000D+00
     17  0.000000D+00  0.000000D+00 -0.292766D-01  0.000000D+00  0.000000D+00
     18  0.000000D+00  0.000000D+00  0.000000D+00  0.000000D+00  0.000000D+00
     19  0.000000D+00  0.000000D+00  0.000000D+00  0.000000D+00  0.000000D+00
               16            17            18            19 
     16  0.418880D+01
     17  0.000000D+00  0.418880D+01
     18  0.000000D+00  0.000000D+00  0.414428D+01
     19  0.000000D+00  0.000000D+00  0.000000D+00  0.414428D+01
 ****** Core Hamiltonian ****** 
                1             2             3             4             5 
      1 -0.354863D+01
      2 -0.239988D+00 -0.606956D+02
      3 -0.596473D+00 -0.133379D+02 -0.161389D+02
      4  0.000000D+00  0.000000D+00  0.000000D+00 -0.130457D+02
      5  0.000000D+00  0.000000D+00  0.000000D+00  0.000000D+00 -0.130457D+02
      6  0.473515D+00  0.361459D-02  0.350887D-01  0.000000D+00  0.000000D+00
      7 -0.139072D+01 -0.182860D-02 -0.148489D+01  0.000000D+00  0.000000D+00
      8  0.000000D+00  0.000000D+00  0.000000D+00 -0.151649D+01  0.000000D+00
      9  0.000000D+00  0.000000D+00  0.000000D+00  0.000000D+00 -0.151649D+01
     10  0.187229D+01  0.552924D-04  0.102675D-01  0.000000D+00  0.000000D+00
     11 -0.114066D+01 -0.110964D+01 -0.228613D+01  0.000000D+00  0.000000D+00
     12  0.000000D+00  0.000000D+00  0.000000D+00 -0.457623D+00  0.000000D+00
     13  0.000000D+00  0.000000D+00  0.000000D+00  0.000000D+00 -0.457623D+00
     14  0.102715D+01  0.160224D-04  0.318612D-02  0.000000D+00  0.000000D+00
     15 -0.168357D+01 -0.289908D-05 -0.506793D-02  0.000000D+00  0.000000D+00
     16  0.000000D+00  0.000000D+00  0.000000D+00  0.116536D-01  0.000000D+00
     17  0.000000D+00  0.000000D+00  0.000000D+00  0.000000D+00  0.116536D-01
     18  0.000000D+00  0.000000D+00  0.000000D+00  0.000000D+00  0.000000D+00
     19  0.000000D+00  0.000000D+00  0.000000D+00  0.000000D+00  0.000000D+00
                6             7             8             9            10 
      6 -0.130565D+02
      7  0.165303D-01 -0.373940D+01
      8  0.000000D+00  0.000000D+00 -0.333612D+01
      9  0.000000D+00  0.000000D+00  0.000000D+00 -0.333612D+01
     10 -0.152486D+01  0.113481D+00  0.000000D+00  0.000000D+00 -0.343291D+01
     11  0.139676D-01 -0.306819D+01  0.000000D+00  0.000000D+00  0.936416D-01
     12  0.000000D+00  0.000000D+00 -0.189461D+01  0.000000D+00  0.000000D+00
     13  0.000000D+00  0.000000D+00  0.000000D+00 -0.189461D+01  0.000000D+00
     14 -0.460434D+00  0.630117D-01  0.000000D+00  0.000000D+00 -0.194875D+01
     15  0.195875D-01 -0.725540D-01  0.000000D+00  0.000000D+00  0.145730D+00
     16  0.000000D+00  0.000000D+00  0.615051D-01  0.000000D+00  0.000000D+00
     17  0.000000D+00  0.000000D+00  0.000000D+00  0.615051D-01  0.000000D+00
     18  0.000000D+00  0.000000D+00  0.000000D+00  0.000000D+00  0.000000D+00
     19  0.000000D+00  0.000000D+00  0.000000D+00  0.000000D+00  0.000000D+00
               11            12            13            14            15 
     11 -0.299914D+01
     12  0.000000D+00 -0.197200D+01
     13  0.000000D+00  0.000000D+00 -0.197200D+01
     14  0.672802D-01  0.000000D+00  0.000000D+00 -0.201481D+01
     15 -0.543188D-01  0.000000D+00  0.000000D+00  0.699395D-01 -0.365969D+01
     16  0.000000D+00  0.292766D-01  0.000000D+00  0.000000D+00  0.000000D+00
     17  0.000000D+00  0.000000D+00  0.292766D-01  0.000000D+00  0.000000D+00
     18  0.000000D+00  0.000000D+00  0.000000D+00  0.000000D+00  0.000000D+00
     19  0.000000D+00  0.000000D+00  0.000000D+00  0.000000D+00  0.000000D+00
               16            17            18            19 
     16 -0.357630D+01
     17  0.000000D+00 -0.357630D+01
     18  0.000000D+00  0.000000D+00 -0.353178D+01
     19  0.000000D+00  0.000000D+00  0.000000D+00 -0.353178D+01
 SVDSVc IOpt=   1 NormSV=T IR=1
 SVDSVc V= 2.29D+00 1.84D+00 1.21D+00 1.16D+00 1.00D+00 9.71D-01 7.44D-01 4.35D-01 2.26D-01 1.18D-01
 SVDSVc IOpt=   1 NormSV=T IR=2
 SVDSVc V= 1.00D+00
 SVDSVc IOpt=   1 NormSV=T IR=3
 SVDSVc V= 1.72D+00 1.00D+00 9.71D-01 3.14D-01
 SVDSVc IOpt=   1 NormSV=T IR=4
 SVDSVc V= 1.72D+00 1.00D+00 9.71D-01 3.14D-01
 TstOVc:  Largest diagonal error= 3.11D-15 IB=1 I=   10.
 TstOVc:  Largest same sym error= 1.88D-15 IB=1 I=   10 J=    9.
 TstOVc:  Largest diff sym error= 0.00D+00 IB=0 JB=0 I=    0 J=    0.
 Orthogonalized basis functions: 
                 1             2             3             4             5 
      1   0.340267D+00 -0.118642D+00 -0.240501D+00  0.217802D+00  0.000000D+00
      2   0.236272D-01  0.471698D-01  0.492452D+00  0.480067D+00  0.000000D+00
      3   0.101214D+00  0.146333D+00  0.456496D+00  0.347743D+00  0.000000D+00
      4   0.000000D+00  0.000000D+00  0.000000D+00  0.000000D+00  0.000000D+00
      5   0.000000D+00  0.000000D+00  0.000000D+00  0.000000D+00  0.000000D+00
      6  -0.615709D-01  0.114945D+00 -0.122579D+00  0.118922D+00  0.000000D+00
      7   0.308130D+00  0.334201D+00 -0.291362D-01 -0.192144D+00  0.000000D+00
      8   0.000000D+00  0.000000D+00  0.000000D+00  0.000000D+00  0.000000D+00
      9   0.000000D+00  0.000000D+00  0.000000D+00  0.000000D+00  0.000000D+00
     10  -0.249970D+00  0.372982D+00 -0.157480D+00  0.124849D+00  0.000000D+00
     11   0.301481D+00  0.340779D+00  0.305881D-02 -0.184682D+00  0.000000D+00
     12   0.000000D+00  0.000000D+00  0.000000D+00  0.000000D+00  0.000000D+00
     13   0.000000D+00  0.000000D+00  0.000000D+00  0.000000D+00  0.000000D+00
     14  -0.212689D+00  0.348170D+00 -0.191605D+00  0.156389D+00  0.000000D+00
     15   0.113788D+00 -0.607069D-01 -0.488751D+00  0.580257D+00  0.000000D+00
     16   0.000000D+00  0.000000D+00  0.000000D+00  0.000000D+00  0.000000D+00
     17   0.000000D+00  0.000000D+00  0.000000D+00  0.000000D+00  0.000000D+00
     18   0.000000D+00  0.000000D+00  0.000000D+00  0.000000D+00  0.100000D+01
     19   0.000000D+00  0.000000D+00  0.000000D+00  0.000000D+00  0.000000D+00
                 6             7             8             9            10 
      1   0.814233D-02 -0.405808D-01  0.851325D+00  0.104766D+01 -0.399830D+00
      2   0.250128D-02 -0.762389D+00 -0.183995D-01 -0.367864D-02  0.291324D-01
      3  -0.208037D-03  0.853501D+00  0.514757D-01  0.320525D-01  0.560409D-01
      4   0.000000D+00  0.000000D+00  0.000000D+00  0.000000D+00  0.000000D+00
      5   0.000000D+00  0.000000D+00  0.000000D+00  0.000000D+00  0.000000D+00
      6   0.970868D+00  0.244195D-02  0.132803D+00 -0.203049D+00  0.299288D-01
      7  -0.260841D-02 -0.124644D+00 -0.123743D+00  0.580487D-01  0.208681D+01
      8   0.000000D+00  0.000000D+00  0.000000D+00  0.000000D+00  0.000000D+00
      9   0.000000D+00  0.000000D+00  0.000000D+00  0.000000D+00  0.000000D+00
     10  -0.680164D-01 -0.796783D-02 -0.415407D+00  0.142975D+01 -0.296792D+00
     11  -0.306127D-02 -0.104829D+00 -0.262813D+00 -0.467092D+00 -0.195425D+01
     12   0.000000D+00  0.000000D+00  0.000000D+00  0.000000D+00  0.000000D+00
     13   0.000000D+00  0.000000D+00  0.000000D+00  0.000000D+00  0.000000D+00
     14  -0.260717D+00 -0.273503D-01  0.934871D+00 -0.820884D+00  0.880696D-01
     15  -0.120914D+00  0.684332D-01 -0.649599D+00 -0.583622D+00  0.195405D+00
     16   0.000000D+00  0.000000D+00  0.000000D+00  0.000000D+00  0.000000D+00
     17   0.000000D+00  0.000000D+00  0.000000D+00  0.000000D+00  0.000000D+00
     18   0.000000D+00  0.000000D+00  0.000000D+00  0.000000D+00  0.000000D+00
     19   0.000000D+00  0.000000D+00  0.000000D+00  0.000000D+00  0.000000D+00
                11            12            13            14            15 
      1   0.000000D+00  0.000000D+00  0.000000D+00  0.000000D+00  0.000000D+00
      2   0.000000D+00  0.000000D+00  0.000000D+00  0.000000D+00  0.000000D+00
      3   0.000000D+00  0.000000D+00  0.000000D+00  0.000000D+00  0.000000D+00
      4   0.000000D+00  0.180764D+00  0.000000D+00  0.976429D+00 -0.243572D+00
      5   0.000000D+00  0.000000D+00  0.000000D+00  0.000000D+00  0.000000D+00
      6   0.000000D+00  0.000000D+00  0.000000D+00  0.000000D+00  0.000000D+00
      7   0.000000D+00  0.000000D+00  0.000000D+00  0.000000D+00  0.000000D+00
      8   0.000000D+00  0.532957D+00  0.000000D+00 -0.716361D-01  0.127086D+01
      9   0.000000D+00  0.000000D+00  0.000000D+00  0.000000D+00  0.000000D+00
     10   0.000000D+00  0.000000D+00  0.000000D+00  0.000000D+00  0.000000D+00
     11   0.000000D+00  0.000000D+00  0.000000D+00  0.000000D+00  0.000000D+00
     12   0.000000D+00  0.516103D+00  0.000000D+00 -0.268016D+00 -0.122706D+01
     13   0.000000D+00  0.000000D+00  0.000000D+00  0.000000D+00  0.000000D+00
     14   0.000000D+00  0.000000D+00  0.000000D+00  0.000000D+00  0.000000D+00
     15   0.000000D+00  0.000000D+00  0.000000D+00  0.000000D+00  0.000000D+00
     16   0.000000D+00  0.000000D+00  0.100000D+01  0.000000D+00  0.000000D+00
     17   0.000000D+00  0.000000D+00  0.000000D+00  0.000000D+00  0.000000D+00
     18   0.000000D+00  0.000000D+00  0.000000D+00  0.000000D+00  0.000000D+00
     19   0.100000D+01  0.000000D+00  0.000000D+00  0.000000D+00  0.000000D+00
                16            17            18            19 
      1   0.000000D+00  0.000000D+00  0.000000D+00  0.000000D+00
      2   0.000000D+00  0.000000D+00  0.000000D+00  0.000000D+00
      3   0.000000D+00  0.000000D+00  0.000000D+00  0.000000D+00
      4   0.000000D+00  0.000000D+00  0.000000D+00  0.000000D+00
      5   0.180764D+00  0.000000D+00  0.976429D+00 -0.243572D+00
      6   0.000000D+00  0.000000D+00  0.000000D+00  0.000000D+00
      7   0.000000D+00  0.000000D+00  0.000000D+00  0.000000D+00
      8   0.000000D+00  0.000000D+00  0.000000D+00  0.000000D+00
      9   0.532957D+00  0.000000D+00 -0.716361D-01  0.127086D+01
     10   0.000000D+00  0.000000D+00  0.000000D+00  0.000000D+00
     11   0.000000D+00  0.000000D+00  0.000000D+00  0.000000D+00
     12   0.000000D+00  0.000000D+00  0.000000D+00  0.000000D+00
     13   0.516103D+00  0.000000D+00 -0.268016D+00 -0.122706D+01
     14   0.000000D+00  0.000000D+00  0.000000D+00  0.000000D+00
     15   0.000000D+00  0.000000D+00  0.000000D+00  0.000000D+00
     16   0.000000D+00  0.000000D+00  0.000000D+00  0.000000D+00
     17   0.000000D+00  0.100000D+01  0.000000D+00  0.000000D+00
     18   0.000000D+00  0.000000D+00  0.000000D+00  0.000000D+00
     19   0.000000D+00  0.000000D+00  0.000000D+00  0.000000D+00
 NBasis=    19 RedAO= T EigKep=  1.18D-01  NBF=    10     1     4     4
 NBsUse=    19 1.00D-06 EigRej= -1.00D+00 NBFU=    10     1     4     4
 Leave Link  302 at Fri Mar 25 09:48:26 2022, MaxMem=  9663676416 cpu:               3.8 elap:               0.1
 (Enter /nopt/nrel/apps/gaussian/g16C_1/g16/l303.exe)
 DipDrv will not compute anything.
 Fermi contact integrals: 
                 1             2 
      1   0.628247D+00  0.983823D-02
      2   0.000000D+00  0.192411D+02
      3   0.326333D-03  0.382249D-01
      4   0.000000D+00  0.000000D+00
      5   0.000000D+00  0.000000D+00
      6  -0.141945D-02  0.000000D+00
      7   0.441859D-01 -0.437955D-02
      8   0.000000D+00  0.000000D+00
      9   0.000000D+00  0.000000D+00
     10  -0.794356D-01  0.000000D+00
     11   0.331267D-01  0.460859D-01
     12   0.000000D+00  0.000000D+00
     13   0.000000D+00  0.000000D+00
     14  -0.380694D-01  0.000000D+00
     15   0.107011D+00  0.000000D+00
     16   0.000000D+00  0.000000D+00
     17   0.000000D+00  0.000000D+00
     18   0.000000D+00  0.000000D+00
     19   0.000000D+00  0.000000D+00
 Leave Link  303 at Fri Mar 25 09:48:26 2022, MaxMem=  9663676416 cpu:               0.8 elap:               0.0
 (Enter /nopt/nrel/apps/gaussian/g16C_1/g16/l401.exe)
 ExpMin= 2.60D-02 ExpMax= 9.99D+03 ExpMxC= 1.50D+03 IAcc=3 IRadAn=         5 AccDes= 0.00D+00
 Harris functional with IExCor=  205 and IRadAn=       5 diagonalized for initial guess.
 HarFok:  IExCor=  205 AccDes= 0.00D+00 IRadAn=         5 IDoV= 1 UseB2=F ITyADJ=14
 ICtDFT=  3500011 ScaDFX=  1.000000  1.000000  1.000000  1.000000
 FoFCou: FMM=F IPFlag=           0 FMFlag=      100000 FMFlg1=           0
         NFxFlg=           0 DoJE=T BraDBF=F KetDBF=T FulRan=T
         wScrn=  0.000000 ICntrl=       500 IOpCl=  0 I1Cent=   200000004 NGrid=           0
         NMat0=    1 NMatS0=      1 NMatT0=    0 NMatD0=    1 NMtDS0=    0 NMtDT0=    0
 Petite list used in FoFCou.
 Harris En= -162.228329520791    
 JPrj=0 DoOrth=F DoCkMO=F.
 Initial guess orbital symmetries:
       Occupied  (SG) (SG) (SG) (PI) (PI) (SG)
       Virtual   (SG) (PI) (PI) (SG) (SG) (PI) (PI) (SG) (PI) (PI)
                 (DLTA) (DLTA) (SG)
 The electronic state of the initial guess is 1-SG.
 Leave Link  401 at Fri Mar 25 09:48:26 2022, MaxMem=  9663676416 cpu:               4.5 elap:               0.2
 (Enter /nopt/nrel/apps/gaussian/g16C_1/g16/l502.exe)
 Keep R1 ints in memory in symmetry-blocked form, NReq=7418382.
 FoFCou: FMM=F IPFlag=           0 FMFlag=           0 FMFlg1=           0
         NFxFlg=           0 DoJE=F BraDBF=F KetDBF=F FulRan=T
         wScrn=  0.000000 ICntrl=       600 IOpCl=  0 I1Cent=           0 NGrid=           0
         NMat0=    1 NMatS0=    190 NMatT0=    0 NMatD0=    1 NMtDS0=    0 NMtDT0=    0
 Petite list used in FoFCou.
 Closed shell SCF:
 Using DIIS extrapolation, IDIIS=  1040.
 NGot=  9663676416 LenX=  9663667918 LenY=  9663667036
 Requested convergence on RMS density matrix=1.00D-08 within 128 cycles.
 Requested convergence on MAX density matrix=1.00D-06.
 Requested convergence on             energy=1.00D-06.
 No special actions if energy rises.

 Cycle   1  Pass 1  IDiag  1:
 E= -162.326650961024    
 DIIS: error= 2.40D-02 at cycle   1 NSaved=   1.
 NSaved= 1 IEnMin= 1 EnMin= -162.326650961024     IErMin= 1 ErrMin= 2.40D-02
 ErrMax= 2.40D-02  0.00D+00 EMaxC= 1.00D-01 BMatC= 1.38D-02 BMatP= 1.38D-02
 IDIUse=3 WtCom= 7.60D-01 WtEn= 2.40D-01
 Coeff-Com:  0.100D+01
 Coeff-En:   0.100D+01
 Coeff:      0.100D+01
 Gap=     0.228 Goal=   None    Shift=    0.000
 GapD=    0.228 DampG=1.000 DampE=0.500 DampFc=0.5000 IDamp=-1.
 Damping current iteration by 5.00D-01
 RMSDP=1.19D-02 MaxDP=1.65D-01              OVMax= 1.41D-01

 Cycle   2  Pass 1  IDiag  1:
 E= -162.342299444866     Delta-E=       -0.015648483843 Rises=F Damp=T
 DIIS: error= 1.24D-02 at cycle   2 NSaved=   2.
 NSaved= 2 IEnMin= 2 EnMin= -162.342299444866     IErMin= 2 ErrMin= 1.24D-02
 ErrMax= 1.24D-02  0.00D+00 EMaxC= 1.00D-01 BMatC= 3.70D-03 BMatP= 1.38D-02
 IDIUse=3 WtCom= 8.76D-01 WtEn= 1.24D-01
 Coeff-Com: -0.106D+01 0.206D+01
 Coeff-En:   0.000D+00 0.100D+01
 Coeff:     -0.927D+00 0.193D+01
 Gap=     0.269 Goal=   None    Shift=    0.000
 RMSDP=6.51D-03 MaxDP=8.73D-02 DE=-1.56D-02 OVMax= 1.25D-02

 Cycle   3  Pass 1  IDiag  1:
 E= -162.359258654148     Delta-E=       -0.016959209282 Rises=F Damp=F
 DIIS: error= 4.50D-04 at cycle   3 NSaved=   3.
 NSaved= 3 IEnMin= 3 EnMin= -162.359258654148     IErMin= 3 ErrMin= 4.50D-04
 ErrMax= 4.50D-04  0.00D+00 EMaxC= 1.00D-01 BMatC= 3.86D-06 BMatP= 3.70D-03
 IDIUse=3 WtCom= 9.96D-01 WtEn= 4.50D-03
 Coeff-Com:  0.294D+00-0.567D+00 0.127D+01
 Coeff-En:   0.000D+00 0.000D+00 0.100D+01
 Coeff:      0.293D+00-0.565D+00 0.127D+01
 Gap=     0.275 Goal=   None    Shift=    0.000
 RMSDP=2.92D-04 MaxDP=1.76D-03 DE=-1.70D-02 OVMax= 4.45D-03

 Cycle   4  Pass 1  IDiag  1:
 E= -162.359277635766     Delta-E=       -0.000018981617 Rises=F Damp=F
 DIIS: error= 1.40D-04 at cycle   4 NSaved=   4.
 NSaved= 4 IEnMin= 4 EnMin= -162.359277635766     IErMin= 4 ErrMin= 1.40D-04
 ErrMax= 1.40D-04  0.00D+00 EMaxC= 1.00D-01 BMatC= 1.65D-07 BMatP= 3.86D-06
 IDIUse=3 WtCom= 9.99D-01 WtEn= 1.40D-03
 Coeff-Com: -0.107D-01 0.226D-01-0.241D+00 0.123D+01
 Coeff-En:   0.000D+00 0.000D+00 0.000D+00 0.100D+01
 Coeff:     -0.107D-01 0.226D-01-0.241D+00 0.123D+01
 Gap=     0.275 Goal=   None    Shift=    0.000
 RMSDP=7.14D-05 MaxDP=4.83D-04 DE=-1.90D-05 OVMax= 1.38D-03

 Cycle   5  Pass 1  IDiag  1:
 E= -162.359278967220     Delta-E=       -0.000001331454 Rises=F Damp=F
 DIIS: error= 3.70D-05 at cycle   5 NSaved=   5.
 NSaved= 5 IEnMin= 5 EnMin= -162.359278967220     IErMin= 5 ErrMin= 3.70D-05
 ErrMax= 3.70D-05  0.00D+00 EMaxC= 1.00D-01 BMatC= 9.48D-09 BMatP= 1.65D-07
 IDIUse=1 WtCom= 1.00D+00 WtEn= 0.00D+00
 Coeff-Com: -0.231D-02 0.382D-02 0.789D-01-0.649D+00 0.157D+01
 Coeff:     -0.231D-02 0.382D-02 0.789D-01-0.649D+00 0.157D+01
 Gap=     0.275 Goal=   None    Shift=    0.000
 RMSDP=2.46D-05 MaxDP=1.87D-04 DE=-1.33D-06 OVMax= 5.02D-04

 Cycle   6  Pass 1  IDiag  1:
 E= -162.359279074250     Delta-E=       -0.000000107030 Rises=F Damp=F
 DIIS: error= 2.30D-06 at cycle   6 NSaved=   6.
 NSaved= 6 IEnMin= 6 EnMin= -162.359279074250     IErMin= 6 ErrMin= 2.30D-06
 ErrMax= 2.30D-06  0.00D+00 EMaxC= 1.00D-01 BMatC= 8.71D-11 BMatP= 9.48D-09
 IDIUse=1 WtCom= 1.00D+00 WtEn= 0.00D+00
 Coeff-Com: -0.701D-03 0.146D-02-0.204D-01 0.144D+00-0.387D+00 0.126D+01
 Coeff:     -0.701D-03 0.146D-02-0.204D-01 0.144D+00-0.387D+00 0.126D+01
 Gap=     0.275 Goal=   None    Shift=    0.000
 RMSDP=2.84D-06 MaxDP=2.30D-05 DE=-1.07D-07 OVMax= 3.56D-05

 Cycle   7  Pass 1  IDiag  1:
 E= -162.359279074867     Delta-E=       -0.000000000617 Rises=F Damp=F
 DIIS: error= 3.24D-07 at cycle   7 NSaved=   7.
 NSaved= 7 IEnMin= 7 EnMin= -162.359279074867     IErMin= 7 ErrMin= 3.24D-07
 ErrMax= 3.24D-07  0.00D+00 EMaxC= 1.00D-01 BMatC= 1.66D-12 BMatP= 8.71D-11
 IDIUse=1 WtCom= 1.00D+00 WtEn= 0.00D+00
 Coeff-Com:  0.181D-03-0.377D-03 0.532D-02-0.362D-01 0.105D+00-0.422D+00
 Coeff-Com:  0.135D+01
 Coeff:      0.181D-03-0.377D-03 0.532D-02-0.362D-01 0.105D+00-0.422D+00
 Coeff:      0.135D+01
 Gap=     0.275 Goal=   None    Shift=    0.000
 RMSDP=4.45D-07 MaxDP=2.55D-06 DE=-6.17D-10 OVMax= 3.48D-06

 Cycle   8  Pass 1  IDiag  1:
 E= -162.359279074876     Delta-E=       -0.000000000009 Rises=F Damp=F
 DIIS: error= 4.81D-08 at cycle   8 NSaved=   8.
 NSaved= 8 IEnMin= 8 EnMin= -162.359279074876     IErMin= 8 ErrMin= 4.81D-08
 ErrMax= 4.81D-08  0.00D+00 EMaxC= 1.00D-01 BMatC= 3.55D-14 BMatP= 1.66D-12
 IDIUse=1 WtCom= 1.00D+00 WtEn= 0.00D+00
 Coeff-Com: -0.137D-04 0.287D-04-0.424D-03 0.231D-02-0.822D-02 0.441D-01
 Coeff-Com: -0.184D+00 0.115D+01
 Coeff:     -0.137D-04 0.287D-04-0.424D-03 0.231D-02-0.822D-02 0.441D-01
 Coeff:     -0.184D+00 0.115D+01
 Gap=     0.275 Goal=   None    Shift=    0.000
 RMSDP=3.52D-08 MaxDP=2.58D-07 DE=-9.04D-12 OVMax= 6.06D-07

 Cycle   9  Pass 1  IDiag  1:
 E= -162.359279074876     Delta-E=        0.000000000000 Rises=F Damp=F
 DIIS: error= 4.29D-09 at cycle   9 NSaved=   9.
 NSaved= 9 IEnMin= 8 EnMin= -162.359279074876     IErMin= 9 ErrMin= 4.29D-09
 ErrMax= 4.29D-09  0.00D+00 EMaxC= 1.00D-01 BMatC= 2.83D-16 BMatP= 3.55D-14
 IDIUse=1 WtCom= 1.00D+00 WtEn= 0.00D+00
 Coeff-Com:  0.292D-06-0.661D-06 0.184D-04 0.176D-04 0.327D-03-0.373D-02
 Coeff-Com:  0.183D-01-0.206D+00 0.119D+01
 Coeff:      0.292D-06-0.661D-06 0.184D-04 0.176D-04 0.327D-03-0.373D-02
 Coeff:      0.183D-01-0.206D+00 0.119D+01
 Gap=     0.275 Goal=   None    Shift=    0.000
 RMSDP=5.17D-09 MaxDP=3.95D-08 DE= 0.00D+00 OVMax= 6.73D-08

 SCF Done:  E(RHF) =  -162.359279075     A.U. after    9 cycles
            NFock=  9  Conv=0.52D-08     -V/T= 2.0004
 KE= 1.622963584164D+02 PE=-3.970790284784D+02 EE= 6.933928093089D+01
 Leave Link  502 at Fri Mar 25 09:48:26 2022, MaxMem=  9663676416 cpu:               4.5 elap:               0.2
 (Enter /nopt/nrel/apps/gaussian/g16C_1/g16/l801.exe)
 Windowed orbitals will be sorted by symmetry type.
 ExpMin= 2.60D-02 ExpMax= 9.99D+03 ExpMxC= 1.50D+03 IAcc=3 IRadAn=         5 AccDes= 0.00D+00
 HarFok:  IExCor=  205 AccDes= 0.00D+00 IRadAn=         5 IDoV=-2 UseB2=F ITyADJ=14
 ICtDFT= 12500011 ScaDFX=  1.000000  1.000000  1.000000  1.000000
 Largest valence mixing into a core orbital is  1.26D-04
 Largest core mixing into a valence orbital is  2.86D-05
 Range of M.O.s used for correlation:     6    19
 NBasis=    19 NAE=     6 NBE=     6 NFC=     5 NFV=     0
 NROrb=     14 NOA=     1 NOB=     1 NVA=    13 NVB=    13
 Leave Link  801 at Fri Mar 25 09:48:26 2022, MaxMem=  9663676416 cpu:               2.1 elap:               0.1
 (Enter /nopt/nrel/apps/gaussian/g16C_1/g16/l804.exe)
 Closed-shell transformation, MDV=  9663676416 ITran=4 ISComp=2.
 Unit  1 TFree=         13637 TCopy=        221654.
 Semi-Direct transformation.
 ModeAB=           2 MOrb=             1 LenV=    9663498592
 LASXX=          322 LTotXX=         322 LenRXX=         322
 LTotAB=         441 MaxLAS=        2940 LenRXY=        2940
 NonZer=        3402 LenScr=      785920 LnRSAI=           0
 LnScr1=           0 LExtra=      222731 Total=      1011913
 MaxDsk= 34359738368 SrtSym=           F ITran=            4
 DoSDTr:  NPSUse= 36
 JobTyp=0 Pass  1:  I=   1 to   1.
 (rs|ai) integrals will be sorted in core.
 Complete sort for first half transformation.
 First half transformation complete.
 Complete sort for second half transformation.
 Second half transformation complete.
 Spin components of T(2) and E(2):
     alpha-alpha T2 =       0.0000000000D+00 E2=      0.0000000000D+00
     alpha-beta  T2 =       0.1426983544D-01 E2=     -0.1670039414D-01
     beta-beta   T2 =       0.0000000000D+00 E2=      0.0000000000D+00
 ANorm=    0.1007109644D+01
 E2 =    -0.1670039414D-01 EUMP2 =    -0.16237597946901D+03
 Leave Link  804 at Fri Mar 25 09:48:26 2022, MaxMem=  9663676416 cpu:               3.3 elap:               0.1
 (Enter /nopt/nrel/apps/gaussian/g16C_1/g16/l913.exe)
 CIDS:  MDV=  9663676416.
 Frozen-core window:  NFC=   5 NFV=   0.
 IFCWin=0 IBDFC=1 NFBD=     0     0 NFCmp=     0     0 NFFFC=     0     0
 Using DD3R+UMP44R for 1st iteration.
 Using DD4RQ for 2nd and later iterations.
 Keep R2 and R3 ints in memory in symmetry-blocked form, NReq=7420800.
 FoFCou: FMM=F IPFlag=           0 FMFlag=           0 FMFlg1=           0
         NFxFlg=           0 DoJE=F BraDBF=F KetDBF=F FulRan=T
         wScrn=  0.000000 ICntrl=       600 IOpCl=  0 I1Cent=           0 NGrid=           0
         NMat0=    1 NMatS0=    190 NMatT0=    0 NMatD0=    1 NMtDS0=    0 NMtDT0=    0
 Petite list used in FoFCou.
 CIDS: In Core Option IDoMem=           1.
 Coupled Cluster theory with single and double substitutions
 ===========================================================
 Iterations=  50 Convergence= 0.100D-06
 Produce multiple copies of IABC intergrals
 Iteration Nr.   1
 **********************
 DD1Dir will call FoFMem   1 times, MxPair=         2
 NAB=     1 NAA=     0 NBB=     0.
 MP4(R+Q)=  0.23831188D-03
 Maximum subspace dimension=  5
 A-vector RMS=  1.2795458D-02 Max=  1.4230106D-02 conv= 1.00D-05.
 RLE energy=       -0.0247246643
 E3=       -0.56666987D-02        EUMP3=      -0.16238164617D+03
 E4(DQ)=   -0.20492656D-02        UMP4(DQ)=   -0.16238369543D+03
 E4(SDQ)=  -0.22771924D-02        UMP4(SDQ)=  -0.16238392336D+03
 VARIATIONAL ENERGIES WITH THE FIRST-ORDER WAVEFUNCTION:
 DE(Corr)= -0.22120432E-01 E(Corr)=     -162.38139951    
 NORM(A)=   0.10165450D+01
 Iteration Nr.   2
 **********************
 DD1Dir will call FoFMem   1 times, MxPair=         2
 NAB=     1 NAA=     0 NBB=     0.
 A-vector RMS=  6.3453369D-03 Max=  7.9025989D-03 conv= 1.00D-05.
 RLE energy=       -0.0261670961
 DE(Corr)= -0.25438795E-01 E(CORR)=     -162.38471787     Delta=-3.32D-03
 NORM(A)=   0.10203545D+01
 Iteration Nr.   3
 **********************
 DD1Dir will call FoFMem   1 times, MxPair=         2
 NAB=     1 NAA=     0 NBB=     0.
 A-vector RMS=  4.6156396D-03 Max=  7.0049192D-03 conv= 1.00D-05.
 RLE energy=       -0.0265472080
 DE(Corr)= -0.26180378E-01 E(CORR)=     -162.38545945     Delta=-7.42D-04
 NORM(A)=   0.10230679D+01
 Iteration Nr.   4
 **********************
 DD1Dir will call FoFMem   1 times, MxPair=         2
 NAB=     1 NAA=     0 NBB=     0.
 A-vector RMS=  1.5681624D-03 Max=  2.6581509D-03 conv= 1.00D-05.
 RLE energy=       -0.0267042007
 DE(Corr)= -0.26583594E-01 E(CORR)=     -162.38586267     Delta=-4.03D-04
 NORM(A)=   0.10243760D+01
 Iteration Nr.   5
 **********************
 DD1Dir will call FoFMem   1 times, MxPair=         2
 NAB=     1 NAA=     0 NBB=     0.
 A-vector RMS=  6.0160747D-04 Max=  8.3603694D-04 conv= 1.00D-05.
 RLE energy=       -0.0266886710
 DE(Corr)= -0.26684713E-01 E(CORR)=     -162.38596379     Delta=-1.01D-04
 NORM(A)=   0.10246251D+01
 Iteration Nr.   6
 **********************
 DD1Dir will call FoFMem   1 times, MxPair=         2
 NAB=     1 NAA=     0 NBB=     0.
 A-vector RMS=  1.3039284D-04 Max=  1.7003759D-04 conv= 1.00D-05.
 RLE energy=       -0.0266860073
 DE(Corr)= -0.26687347E-01 E(CORR)=     -162.38596642     Delta=-2.63D-06
 NORM(A)=   0.10246444D+01
 Iteration Nr.   7
 **********************
 DD1Dir will call FoFMem   1 times, MxPair=         2
 NAB=     1 NAA=     0 NBB=     0.
 A-vector RMS=  4.2939279D-05 Max=  6.3622219D-05 conv= 1.00D-05.
 RLE energy=       -0.0266891060
 DE(Corr)= -0.26687734E-01 E(CORR)=     -162.38596681     Delta=-3.87D-07
 NORM(A)=   0.10246475D+01
 Iteration Nr.   8
 **********************
 DD1Dir will call FoFMem   1 times, MxPair=         2
 NAB=     1 NAA=     0 NBB=     0.
 A-vector RMS=  1.1251222D-05 Max=  1.3273864D-05 conv= 1.00D-05.
 RLE energy=       -0.0266883115
 DE(Corr)= -0.26688573E-01 E(CORR)=     -162.38596765     Delta=-8.38D-07
 NORM(A)=   0.10246445D+01
 Iteration Nr.   9
 **********************
 DD1Dir will call FoFMem   1 times, MxPair=         2
 NAB=     1 NAA=     0 NBB=     0.
 A-vector RMS=  3.5764051D-06 Max=  5.0920629D-06 conv= 1.00D-05.
 RLE energy=       -0.0266885226
 DE(Corr)= -0.26688426E-01 E(CORR)=     -162.38596750     Delta= 1.47D-07
 NORM(A)=   0.10246450D+01
 Iteration Nr.  10
 **********************
 DD1Dir will call FoFMem   1 times, MxPair=         2
 NAB=     1 NAA=     0 NBB=     0.
 A-vector RMS=  1.5533297D-06 Max=  1.4852936D-06 conv= 1.00D-05.
 RLE energy=       -0.0266885004
 DE(Corr)= -0.26688479E-01 E(CORR)=     -162.38596755     Delta=-5.32D-08
 NORM(A)=   0.10246451D+01
 CI/CC converged in   10 iterations to DelEn=-5.32D-08 Conv= 1.00D-07 ErrA1= 1.55D-06 Conv= 1.00D-05
 Wavefunction amplitudes converged. E(Corr)=     -162.38596755    
 Largest amplitude= 7.37D-02
 Discarding MO integrals.
 Leave Link  913 at Fri Mar 25 09:48:27 2022, MaxMem=  9663676416 cpu:               7.5 elap:               0.2
 (Enter /nopt/nrel/apps/gaussian/g16C_1/g16/l601.exe)
 Copying SCF densities to generalized density rwf, IOpCl= 0 IROHF=0.

 **********************************************************************

            Population analysis using the SCF Density.

 **********************************************************************

 Orbital symmetries:
       Occupied  (SG) (SG) (PI) (PI) (SG) (SG)
       Virtual   (SG) (PI) (PI) (SG) (SG) (PI) (PI) (SG) (PI) (PI)
                 (DLTA) (DLTA) (SG)
 The electronic state is 1-SG.
 Alpha  occ. eigenvalues --  -40.47007  -2.78730  -1.50835  -1.50835  -1.50657
 Alpha  occ. eigenvalues --   -0.27141
 Alpha virt. eigenvalues --    0.00393   0.04528   0.04528   0.12770   0.15016
 Alpha virt. eigenvalues --    0.21433   0.21433   0.33699   0.47864   0.47864
 Alpha virt. eigenvalues --    0.47912   0.47912   0.84498
          Condensed to atoms (all electrons):
               1          2
     1  H    0.526672   0.366309
     2  Na   0.366309  10.740709
 Mulliken charges:
               1
     1  H    0.107019
     2  Na  -0.107019
 Sum of Mulliken charges =  -0.00000
 Mulliken charges with hydrogens summed into heavy atoms:
               1
     2  Na  -0.000000
 N-N= 3.084110056225D+00 E-N=-3.970790285305D+02  KE= 1.622963584164D+02
 Symmetry A1   KE= 1.388315764634D+02
 Symmetry A2   KE= 4.827472089099D-52
 Symmetry B1   KE= 1.173239097650D+01
 Symmetry B2   KE= 1.173239097650D+01

 Atomic contributions to Alpha molecular orbitals:
 Alpha occ 1 OE=-40.470 is Na2-s=1.0000
 Alpha occ 2 OE=-2.787 is Na2-s=0.9995
 Alpha occ 3 OE=-1.508 is Na2-p=1.0000
 Alpha occ 4 OE=-1.508 is Na2-p=1.0000
 Alpha occ 5 OE=-1.507 is Na2-p=0.9987
 Alpha occ 6 OE=-0.271 is H1-s=0.4454 Na2-s=0.3405 Na2-p=0.1844
 Alpha vir 7 OE=0.004 is Na2-p=0.4982 Na2-s=0.4832
 Alpha vir 8 OE=0.045 is Na2-p=0.9996
 Alpha vir 9 OE=0.045 is Na2-p=0.9996
 Alpha vir 10 OE=0.128 is Na2-p=0.6169 Na2-s=0.2933
 Alpha vir 11 OE=0.150 is Na2-s=0.7290 Na2-p=0.2645
 Alpha vir 12 OE=0.214 is Na2-p=0.9915
 Alpha vir 13 OE=0.214 is Na2-p=0.9915
 Alpha vir 14 OE=0.337 is Na2-d=0.4699 Na2-p=0.2953 H1-s=0.1262 Na2-s=0.1087
 Alpha vir 15 OE=0.479 is Na2-d=0.9910
 Alpha vir 16 OE=0.479 is Na2-d=0.9910
 Alpha vir 17 OE=0.479 is Na2-d=1.0000
 Alpha vir 18 OE=0.479 is Na2-d=1.0000
 Alpha vir 19 OE=0.845 is Na2-d=0.4783 H1-s=0.3344 Na2-p=0.1417
 
 Leave Link  601 at Fri Mar 25 09:48:27 2022, MaxMem=  9663676416 cpu:               0.8 elap:               0.0
 (Enter /nopt/nrel/apps/gaussian/g16C_1/g16/l9999.exe)

 Test job not archived.
 1\1\GINC-R4I7N35\SP\RCCSD-FC\Gen\H1Na1\USER\25-Mar-2022\0\\#P CCSD
 /GEN sp pop=AllOrbitals iop(3/33=1,3/36=-1)\\test\\0,1\H,0,0.,0.,0.\Na
 ,0,0.,0.,1.8874\\Version=ES64L-G16RevC.01\State=1-SG\HF=-162.3592791\M
 P2=-162.3759795\MP3=-162.3816462\MP4D=-162.3839337\MP4DQ=-162.3836954\
 MP4SDQ=-162.3839234\CCSD=-162.3859676\RMSD=5.165e-09\PG=C*V [C*(H1Na1)
 ]\\@


 CONTRAIWISE...CONTINUED TWEEDLEDEE, IF IT WAS SO, IT MIGHT BE,
 AND IF IT WERE SO, IT WOULD BE.....
 BUT AS IT ISN'T, IT AIN'T....
 THAT'S LOGIC.....
 ALICE THROUGH THE LOOKING GLASS
 Job cpu time:       0 days  0 hours  0 minutes 38.0 seconds.
 Elapsed time:       0 days  0 hours  0 minutes  1.4 seconds.
 File lengths (MBytes):  RWF=     13 Int=      0 D2E=      0 Chk=      1 Scr=      1
 Normal termination of Gaussian 16 at Fri Mar 25 09:48:27 2022.
