 Entering Gaussian System, Link 0=g16
 Initial command:
 /nopt/nrel/apps/gaussian/g16C_1/g16/l1.exe "/lustre/eaglefs/scratch/user/qc/gaussian-final/tih-4-ccsd-ccd/Gau-180200.inp" -scrdir="/lustre/eaglefs/scratch/user/qc/gaussian-final/tih-4-ccsd-ccd/"
 Default is to use a total of  36 processors:
                               36 via shared-memory
                                1 via Linda
 Entering Link 1 = /nopt/nrel/apps/gaussian/g16C_1/g16/l1.exe PID=    180201.
  
 Copyright (c) 1988-2019, Gaussian, Inc.  All Rights Reserved.
  
 This is part of the Gaussian(R) 16 program.  It is based on
 the Gaussian(R) 09 system (copyright 2009, Gaussian, Inc.),
 the Gaussian(R) 03 system (copyright 2003, Gaussian, Inc.),
 the Gaussian(R) 98 system (copyright 1998, Gaussian, Inc.),
 the Gaussian(R) 94 system (copyright 1995, Gaussian, Inc.),
 the Gaussian 92(TM) system (copyright 1992, Gaussian, Inc.),
 the Gaussian 90(TM) system (copyright 1990, Gaussian, Inc.),
 the Gaussian 88(TM) system (copyright 1988, Gaussian, Inc.),
 the Gaussian 86(TM) system (copyright 1986, Carnegie Mellon
 University), and the Gaussian 82(TM) system (copyright 1983,
 Carnegie Mellon University). Gaussian is a federally registered
 trademark of Gaussian, Inc.
  
 This software contains proprietary and confidential information,
 including trade secrets, belonging to Gaussian, Inc.
  
 This software is provided under written license and may be
 used, copied, transmitted, or stored only in accord with that
 written license.
  
 The following legend is applicable only to US Government
 contracts under FAR:
  
                    RESTRICTED RIGHTS LEGEND
  
 Use, reproduction and disclosure by the US Government is
 subject to restrictions as set forth in subparagraphs (a)
 and (c) of the Commercial Computer Software - Restricted
 Rights clause in FAR 52.227-19.
  
 Gaussian, Inc.
 340 Quinnipiac St., Bldg. 40, Wallingford CT 06492
  
  
 ---------------------------------------------------------------
 Warning -- This program may not be used in any manner that
 competes with the business of Gaussian, Inc. or will provide
 assistance to any competitor of Gaussian, Inc.  The licensee
 of this program is prohibited from giving any competitor of
 Gaussian, Inc. access to this program.  By using this program,
 the user acknowledges that Gaussian, Inc. is engaged in the
 business of creating and licensing software in the field of
 computational chemistry and represents and warrants to the
 licensee that it is not a competitor of Gaussian, Inc. and that
 it will not use this program in any manner prohibited above.
 ---------------------------------------------------------------
  

 Cite this work as:
 Gaussian 16, Revision C.01,
 M. J. Frisch, G. W. Trucks, H. B. Schlegel, G. E. Scuseria, 
 M. A. Robb, J. R. Cheeseman, G. Scalmani, V. Barone, 
 G. A. Petersson, H. Nakatsuji, X. Li, M. Caricato, A. V. Marenich, 
 J. Bloino, B. G. Janesko, R. Gomperts, B. Mennucci, H. P. Hratchian, 
 J. V. Ortiz, A. F. Izmaylov, J. L. Sonnenberg, D. Williams-Young, 
 F. Ding, F. Lipparini, F. Egidi, J. Goings, B. Peng, A. Petrone, 
 T. Henderson, D. Ranasinghe, V. G. Zakrzewski, J. Gao, N. Rega, 
 G. Zheng, W. Liang, M. Hada, M. Ehara, K. Toyota, R. Fukuda, 
 J. Hasegawa, M. Ishida, T. Nakajima, Y. Honda, O. Kitao, H. Nakai, 
 T. Vreven, K. Throssell, J. A. Montgomery, Jr., J. E. Peralta, 
 F. Ogliaro, M. J. Bearpark, J. J. Heyd, E. N. Brothers, K. N. Kudin, 
 V. N. Staroverov, T. A. Keith, R. Kobayashi, J. Normand, 
 K. Raghavachari, A. P. Rendell, J. C. Burant, S. S. Iyengar, 
 J. Tomasi, M. Cossi, J. M. Millam, M. Klene, C. Adamo, R. Cammi, 
 J. W. Ochterski, R. L. Martin, K. Morokuma, O. Farkas, 
 J. B. Foresman, and D. J. Fox, Gaussian, Inc., Wallingford CT, 2019.
 
 ******************************************
 Gaussian 16:  ES64L-G16RevC.01  3-Jul-2019
                24-Mar-2022 
 ******************************************
 %chk=molecule
 Default route: CacheSize=180224 MaxDisk=256GB
 --------------------------------------------------
 #P CCSD/GEN sp pop=AllOrbitals iop(3/33=1,3/36=-1)
 --------------------------------------------------
 1/4=180224,38=1,172=1/1;
 2/4=180224,12=2,17=6,18=5,40=1/2;
 3/4=180224,5=7,11=9,25=1,30=1,33=1,36=-1/1,2,3;
 4/4=180224/1;
 5/4=180224,5=2,38=5/2;
 8/4=180224,6=4,9=120000,10=1/1,4;
 9/4=180224,5=7/13;
 6/4=180224,7=2,8=2,9=2,10=2,96=-1/1;
 99/4=180224,5=1,9=1/99;
 Leave Link    1 at Thu Mar 24 16:00:27 2022, MaxMem=           0 cpu:               2.0 elap:               0.1
 (Enter /nopt/nrel/apps/gaussian/g16C_1/g16/l101.exe)
 ----
 test
 ----
 Symbolic Z-matrix:
 Charge =  0 Multiplicity = 4
 H                     0.        0.        0. 
 Ti                    0.        0.        1.7847 
 
 ITRead=  0  0
 MicOpt= -1 -1
 NAtoms=      2 NQM=        2 NQMF=       0 NMMI=      0 NMMIF=      0
                NMic=       0 NMicF=      0.
                    Isotopes and Nuclear Properties:
 (Nuclear quadrupole moments (NQMom) in fm**2, nuclear magnetic moments (NMagM)
  in nuclear magnetons)

  Atom         1           2
 IAtWgt=           1          48
 AtmWgt=   1.0078250  47.9479467
 NucSpn=           1           0
 AtZEff=  -0.0000000  -0.0000000
 NQMom=    0.0000000   0.0000000
 NMagM=    2.7928460   0.0000000
 AtZNuc=   1.0000000  22.0000000
 Leave Link  101 at Thu Mar 24 16:00:28 2022, MaxMem=  9663676416 cpu:               3.1 elap:               0.1
 (Enter /nopt/nrel/apps/gaussian/g16C_1/g16/l202.exe)
                          Input orientation:                          
 ---------------------------------------------------------------------
 Center     Atomic      Atomic             Coordinates (Angstroms)
 Number     Number       Type             X           Y           Z
 ---------------------------------------------------------------------
      1          1           0        0.000000    0.000000    0.000000
      2         22           0        0.000000    0.000000    1.784700
 ---------------------------------------------------------------------
 Stoichiometry    HTi(4)
 Framework group  C*V[C*(HTi)]
 Deg. of freedom     1
 Full point group                 C*V     NOp   4
 Largest Abelian subgroup         C2V     NOp   4
 Largest concise Abelian subgroup C1      NOp   1
                         Standard orientation:                         
 ---------------------------------------------------------------------
 Center     Atomic      Atomic             Coordinates (Angstroms)
 Number     Number       Type             X           Y           Z
 ---------------------------------------------------------------------
      1          1           0        0.000000    0.000000   -1.707104
      2         22           0        0.000000    0.000000    0.077596
 ---------------------------------------------------------------------
 Rotational constants (GHZ):           0.0000000         160.7442684         160.7442684
 Leave Link  202 at Thu Mar 24 16:00:28 2022, MaxMem=  9663676416 cpu:               0.6 elap:               0.0
 (Enter /nopt/nrel/apps/gaussian/g16C_1/g16/l301.exe)
 General basis read from cards:  (5D, 7F)
                         Coordinates in L301:                         
 ---------------------------------------------------------------------
 Center     Atomic      Atomic             Coordinates (Angstroms)
 Number     Number       Type             X           Y           Z
 ---------------------------------------------------------------------
      1          1           0        0.000000    0.000000   -1.707104
      2         22           0        0.000000    0.000000    0.077596
 ---------------------------------------------------------------------
 Centers:       1
 STO-3G
 ****
 Centers:       2
 cc-pVDZ
 ****
 FixB: optimizing general contractions.
 Ernie: Thresh=  0.10000D-02 Tol=  0.10000D-05 Strict=F.
 IA=     1 ShT= 0 ShC= 0 NL=   1 NS=   0.
 IA=     1 L=0 SC=0 ISt=    0 NBk=    0 NP=    0 IndPr=    0.
 IA=     2 ShT= 0 ShC= 0 NL=   6 NS=   1.
 IA=     2 L=0 SC=0 ISt=    1 NBk=    5 NP=   20 IndPr=    0.
 DoElim1:  L=0 select primitive    4 from    2 using    1 C= 1.39D-03
 DoElim1:  L=0 select primitive    4 from    3 using    1 C= 1.39D-03
 DoElim1:  L=0 select primitive    4 from    4 using    1 C= 1.39D-03
 DoElim1:  L=0 select primitive    4 from    5 using    1 C= 1.39D-03
 DoElim1:  L=0 select primitive    8 from    3 using    2 C=-3.89D-03
 DoElim1:  L=0 select primitive    8 from    4 using    2 C=-3.89D-03
 DoElim1:  L=0 select primitive    8 from    5 using    2 C=-3.89D-03
 DoElim1:  L=0 select primitive   11 from    3 using    5 C= 1.17D-02
 DoElim1:  L=0 select primitive   11 from    4 using    5 C= 1.17D-02
 DoElim1:  L=0 select primitive   13 from    4 using    3 C=-8.51D-02
 DoElim2:  L=0 select primitive   19 from    3 using    4 C= 5.74D-01
 DoElim2:  L=0 select primitive   19 from    5 using    4 C= 5.74D-01
 DoElim2:  L=0 select primitive   19 from    2 using    4 C= 5.74D-01
 DoElim2:  L=0 select primitive   19 from    1 using    4 C= 5.74D-01
 DoElim2:  L=0 select primitive   16 from    5 using    3 C= 9.20D-01
 DoElim2:  L=0 select primitive   16 from    2 using    3 C= 9.20D-01
 DoElim2:  L=0 select primitive   16 from    1 using    3 C= 9.20D-01
 DoElim2:  L=0 select primitive   18 from    2 using    5 C= 2.21D+00
 DoElim2:  L=0 select primitive   18 from    1 using    5 C= 2.21D+00
 DoElim2:  L=0 select primitive   14 from    1 using    2 C= 5.61D-01
 DoElim:  L=0 eliminating redundant primitive   20        0.025465 from    1
 DoElim:  L=0 eliminating redundant primitive   20        0.025465 from    2
 DoElim:  L=0 eliminating redundant primitive   20        0.025465 from    3
 DoElim:  L=0 eliminating redundant primitive   20        0.025465 from    4
 DoElim:  L=0 eliminating redundant primitive   20        0.025465 from    5
 Delete L=0 primitive   20 from    5 C=  0.00D+00.
 Delete L=0 primitive   19 from    5 C=  1.06D-16.
 Delete L=0 primitive   16 from    5 C=  8.35D-17.
 Delete L=0 primitive    8 from    5 C=  4.74D-20.
 Delete L=0 primitive    4 from    5 C=  4.08D-21.
 Delete L=0 primitive    3 from    5 C=  5.15D-07.
 Delete L=0 primitive    2 from    5 C=  2.27D-08.
 Delete L=0 primitive    1 from    5 C=  9.55D-09.
 Delete L=0 primitive   20 from    4 C=  0.00D+00.
 Delete L=0 primitive   13 from    4 C=  1.29D-19.
 Delete L=0 primitive   11 from    4 C=  2.99D-20.
 Delete L=0 primitive    8 from    4 C=  1.24D-20.
 Delete L=0 primitive    7 from    4 C=  4.43D-07.
 Delete L=0 primitive    6 from    4 C=  1.27D-08.
 Delete L=0 primitive    5 from    4 C=  3.14D-08.
 Delete L=0 primitive    4 from    4 C=  2.49D-21.
 Delete L=0 primitive    3 from    4 C=  1.55D-09.
 Delete L=0 primitive    2 from    4 C=  6.75D-11.
 Delete L=0 primitive    1 from    4 C=  2.88D-11.
 Delete L=0 primitive   20 from    3 C=  0.00D+00.
 Delete L=0 primitive   19 from    3 C=  1.53D-17.
 Delete L=0 primitive   11 from    3 C=  7.09D-20.
 Delete L=0 primitive    8 from    3 C=  2.65D-20.
 Delete L=0 primitive    4 from    3 C=  2.52D-20.
 Delete L=0 primitive    3 from    3 C=  1.58D-07.
 Delete L=0 primitive    2 from    3 C=  6.88D-09.
 Delete L=0 primitive    1 from    3 C=  2.93D-09.
 Delete L=0 primitive   20 from    2 C=  0.00D+00.
 Delete L=0 primitive   19 from    2 C=  2.91D-19.
 Delete L=0 primitive   18 from    2 C=  6.20D-20.
 Delete L=0 primitive   16 from    2 C=  4.25D-19.
 Delete L=0 primitive    4 from    2 C=  7.32D-20.
 Delete L=0 primitive    3 from    2 C=  1.41D-07.
 Delete L=0 primitive    2 from    2 C=  3.76D-08.
 Delete L=0 primitive    1 from    2 C=  4.97D-09.
 Delete L=0 primitive   20 from    1 C=  0.00D+00.
 Delete L=0 primitive   19 from    1 C=  3.58D-20.
 Delete L=0 primitive   18 from    1 C=  2.69D-21.
 Delete L=0 primitive   16 from    1 C=  3.10D-20.
 Delete L=0 primitive   14 from    1 C=  5.49D-19.
 IA=     2 L=0 SC=0 ISt=    0 NBk=    0 NP=    0 IndPr=   60.
 IA=     2 ShT= 1 ShC= 1 NL=   5 NS=   1.
 IA=     2 L=1 SC=1 ISt=    1 NBk=    4 NP=   16 IndPr=    0.
 DoElim1:  L=1 select primitive    3 from    2 using    1 C= 2.25D-03
 DoElim1:  L=1 select primitive    3 from    3 using    1 C= 2.25D-03
 DoElim1:  L=1 select primitive    3 from    4 using    1 C= 2.25D-03
 DoElim1:  L=1 select primitive    6 from    3 using    2 C=-1.46D-03
 DoElim1:  L=1 select primitive    6 from    4 using    2 C=-1.46D-03
 DoElim1:  L=1 select primitive    9 from    3 using    4 C=-2.24D-03
 DoElim2:  L=1 select primitive   15 from    4 using    3 C= 9.82D-01
 DoElim2:  L=1 select primitive   15 from    2 using    3 C= 9.82D-01
 DoElim2:  L=1 select primitive   15 from    1 using    3 C= 9.82D-01
 DoElim2:  L=1 select primitive   16 from    2 using    4 C=-1.67D-01
 DoElim2:  L=1 select primitive   16 from    1 using    4 C=-1.67D-01
 DoElim2:  L=1 select primitive   12 from    1 using    2 C= 4.62D-01
 DoElim:  L=1 eliminating redundant primitive   16        0.029401 from    1
 DoElim:  L=1 eliminating redundant primitive   16        0.029401 from    2
 DoElim:  L=1 eliminating redundant primitive   16        0.029401 from    3
 DoElim:  L=1 eliminating redundant primitive   16        0.029401 from    4
 Delete L=1 primitive   16 from    4 C=  0.00D+00.
 Delete L=1 primitive   15 from    4 C=  5.44D-18.
 Delete L=1 primitive    6 from    4 C=  1.08D-20.
 Delete L=1 primitive    3 from    4 C=  1.02D-21.
 Delete L=1 primitive    2 from    4 C=  6.07D-07.
 Delete L=1 primitive    1 from    4 C=  5.39D-07.
 Delete L=1 primitive   16 from    3 C=  0.00D+00.
 Delete L=1 primitive    9 from    3 C=  2.49D-20.
 Delete L=1 primitive    6 from    3 C=  1.35D-20.
 Delete L=1 primitive    4 from    3 C=  8.39D-07.
 Delete L=1 primitive    3 from    3 C=  1.18D-21.
 Delete L=1 primitive    2 from    3 C=  3.85D-07.
 Delete L=1 primitive    1 from    3 C=  1.23D-07.
 Delete L=1 primitive   16 from    2 C=  0.00D+00.
 Delete L=1 primitive   15 from    2 C=  4.51D-20.
 Delete L=1 primitive    3 from    2 C=  4.45D-21.
 Delete L=1 primitive    2 from    2 C=  3.29D-07.
 Delete L=1 primitive    1 from    2 C=  2.32D-07.
 Delete L=1 primitive   16 from    1 C=  0.00D+00.
 Delete L=1 primitive   15 from    1 C=  1.95D-23.
 Delete L=1 primitive   12 from    1 C=  4.81D-20.
 IA=     2 L=1 SC=1 ISt=    0 NBk=    0 NP=    0 IndPr=   43.
 IA=     2 ShT= 2 ShC= 2 NL=   3 NS=   1.
 IA=     2 L=2 SC=2 ISt=    1 NBk=    2 NP=    8 IndPr=    0.
 DoElim1:  L=2 select primitive    1 from    1 using    2 C=-3.97D-03
 DoElim2:  L=2 select primitive    7 from    2 using    1 C= 8.24D-01
 DoElim:  L=2 eliminating redundant primitive    8        0.051884 from    1
 DoElim:  L=2 eliminating redundant primitive    8        0.051884 from    2
 Delete L=2 primitive    8 from    2 C=  0.00D+00.
 Delete L=2 primitive    7 from    2 C=  3.53D-17.
 Delete L=2 primitive    8 from    1 C=  0.00D+00.
 Delete L=2 primitive    1 from    1 C=  6.00D-20.
 IA=     2 L=2 SC=2 ISt=    0 NBk=    0 NP=    0 IndPr=   12.
 IA=     2 ShT= 3 ShC= 3 NL=   1 NS=   0.
 IA=     2 L=3 SC=3 ISt=    0 NBk=    0 NP=    0 IndPr=    0.
 Ernie:  65 primitive shells out of 188 were deleted.
 LdAtmC:  AtmChg=     1.000000    22.000000
 AtZEff=     -1.0000000    -23.9800000
 NEqShl: 
              1            2            3            4
     1            1            1            1            1
     2            2            2            2            2
     3            3            3            3            3
     4            4            4            4            4
     5            5            5            5            5
     6            6            6            6            6
     7            7            7            7            7
     8            8            8            8            8
     9            9            9            9            9
    10           10           10           10           10
    11           11           11           11           11
    12           12           12           12           12
    13           13           13           13           13
    14           14           14           14           14
    15           15           15           15           15
    16           16           16           16           16
 NEqBas: 
              1            2            3            4
     1            1            1            1            1
     2            2            2            2            2
     3            3            3            3            3
     4            4            4            4            4
     5            5            5            5            5
     6            6            6            6            6
     7            7            7            7            7
     8            8           -8           -8            8
     9            9           -9            9           -9
    10           10           10           10           10
    11           11          -11          -11           11
    12           12          -12           12          -12
    13           13           13           13           13
    14           14          -14          -14           14
    15           15          -15           15          -15
    16           16           16           16           16
    17           17          -17          -17           17
    18           18          -18           18          -18
    19           19           19           19           19
    20           20          -20          -20           20
    21           21          -21           21          -21
    22           22           22           22           22
    23           23           23           23           23
    24           24           24           24           24
    25           25           25           25           25
    26           26           26          -26          -26
    27           27          -27          -27           27
    28           28          -28           28          -28
    29           29           29           29           29
    30           30           30           30           30
    31           31           31           31           31
    32           32           32          -32          -32
    33           33          -33          -33           33
    34           34          -34           34          -34
    35           35           35           35           35
    36           36           36           36           36
    37           37           37           37           37
    38           38           38          -38          -38
    39           39          -39          -39           39
    40           40          -40           40          -40
    41           41          -41          -41           41
    42           42          -42           42          -42
    43           43           43           43           43
    44           44          -44          -44           44
    45           45          -45           45          -45
    46           46           46           46           46
    47           47          -47          -47           47
    48           48          -48           48          -48
    49           49           49           49           49
    50           50           50          -50          -50
 There are    24 symmetry adapted cartesian basis functions of A1  symmetry.
   1         1   1   1   1
   2         2   2   2   2
   3         3   3   3   3
   4         4   4   4   4
   5         5   5   5   5
   6         6   6   6   6
   7         7   7   7   7
   8        10  10  10  10
   9        13  13  13  13
  10        16  16  16  16
  11        19  19  19  19
  12        22  22  22  22
  13        23  23  23  23
  14        24  24  24  24
  15        25  25  25  25
  16        29  29  29  29
  17        30  30  30  30
  18        31  31  31  31
  19        35  35  35  35
  20        36  36  36  36
  21        37  37  37  37
  22        43  43  43  43
  23        46  46  46  46
  24        49  49  49  49
 There are     4 symmetry adapted cartesian basis functions of A2  symmetry.
  25        26  26  26  26
  26        32  32  32  32
  27        38  38  38  38
  28        50  50  50  50
 There are    11 symmetry adapted cartesian basis functions of B1  symmetry.
  29         8   8   8   8
  30        11  11  11  11
  31        14  14  14  14
  32        17  17  17  17
  33        20  20  20  20
  34        27  27  27  27
  35        33  33  33  33
  36        39  39  39  39
  37        41  41  41  41
  38        44  44  44  44
  39        47  47  47  47
 There are    11 symmetry adapted cartesian basis functions of B2  symmetry.
  40         9   9   9   9
  41        12  12  12  12
  42        15  15  15  15
  43        18  18  18  18
  44        21  21  21  21
  45        28  28  28  28
  46        34  34  34  34
  47        40  40  40  40
  48        42  42  42  42
  49        45  45  45  45
  50        48  48  48  48
 Order= 1 2 4 3
 Reordered character table:
              1            2            3            4            5
     1            1            1            1            1            1
     2            2            1            1           -1           -1
     3            4            1           -1           -1            1
     4            3            1           -1            1           -1
 NEqShl: 
              1            2            3            4
     1            1            1            1            1
     2            2            2            2            2
     3            3            3            3            3
     4            4            4            4            4
     5            5            5            5            5
     6            6            6            6            6
     7            7            7            7            7
     8            8            8            8            8
     9            9            9            9            9
    10           10           10           10           10
    11           11           11           11           11
    12           12           12           12           12
    13           13           13           13           13
    14           14           14           14           14
    15           15           15           15           15
    16           16           16           16           16
 NEqBas: 
              1            2            3            4
     1            1            1            1            1
     2            2            2            2            2
     3            3            3            3            3
     4            4            4            4            4
     5            5            5            5            5
     6            6            6            6            6
     7            7            7            7            7
     8            8           -8           -8            8
     9            9           -9            9           -9
    10           10           10           10           10
    11           11          -11          -11           11
    12           12          -12           12          -12
    13           13           13           13           13
    14           14          -14          -14           14
    15           15          -15           15          -15
    16           16           16           16           16
    17           17          -17          -17           17
    18           18          -18           18          -18
    19           19           19           19           19
    20           20          -20          -20           20
    21           21          -21           21          -21
    22           22           22           22           22
    23           23           23           23           23
    24           24          -24          -24           24
    25           25          -25           25          -25
    26           26           26           26           26
    27           27           27          -27          -27
    28           28           28           28           28
    29           29          -29          -29           29
    30           30          -30           30          -30
    31           31           31           31           31
    32           32           32          -32          -32
    33           33           33           33           33
    34           34          -34          -34           34
    35           35          -35           35          -35
    36           36           36           36           36
    37           37           37          -37          -37
    38           38           38           38           38
    39           39          -39          -39           39
    40           40          -40           40          -40
    41           41           41           41           41
    42           42           42          -42          -42
    43           43          -43          -43           43
    44           44          -44           44          -44
 There are    20 symmetry adapted basis functions of A1  symmetry.
   1         1   1   1   1
   2         2   2   2   2
   3         3   3   3   3
   4         4   4   4   4
   5         5   5   5   5
   6         6   6   6   6
   7         7   7   7   7
   8        10  10  10  10
   9        13  13  13  13
  10        16  16  16  16
  11        19  19  19  19
  12        22  22  22  22
  13        23  23  23  23
  14        26  26  26  26
  15        28  28  28  28
  16        31  31  31  31
  17        33  33  33  33
  18        36  36  36  36
  19        38  38  38  38
  20        41  41  41  41
 There are     4 symmetry adapted basis functions of A2  symmetry.
  21        27  27  27  27
  22        32  32  32  32
  23        37  37  37  37
  24        42  42  42  42
 There are    10 symmetry adapted basis functions of B1  symmetry.
  25         8   8   8   8
  26        11  11  11  11
  27        14  14  14  14
  28        17  17  17  17
  29        20  20  20  20
  30        24  24  24  24
  31        29  29  29  29
  32        34  34  34  34
  33        39  39  39  39
  34        43  43  43  43
 There are    10 symmetry adapted basis functions of B2  symmetry.
  35         9   9   9   9
  36        12  12  12  12
  37        15  15  15  15
  38        18  18  18  18
  39        21  21  21  21
  40        25  25  25  25
  41        30  30  30  30
  42        35  35  35  35
  43        40  40  40  40
  44        44  44  44  44
 Order= 1 2 4 3
 Reordered character table:
              1            2            3            4            5
     1            1            1            1            1            1
     2            2            1            1           -1           -1
     3            4            1           -1           -1            1
     4            3            1           -1            1           -1
    44 basis functions,   294 primitive gaussians,    50 cartesian basis functions
    13 alpha electrons       10 beta electrons
       nuclear repulsion energy         6.5231683982 Hartrees.
 IS=     1 IAt=     1 ISR=     1 T=0 IP=      1 IndIP=      1 IndIPD=      0 C=  2.769344D-01  0.000000D+00                             NZ=T
 IS=     1 IAt=     1 ISR=     1 T=0 IP=      2 IndIP=      2 IndIPD=      1 C=  2.678389D-01  0.000000D+00                             NZ=T
 IS=     1 IAt=     1 ISR=     1 T=0 IP=      3 IndIP=      3 IndIPD=      2 C=  8.347367D-02  0.000000D+00                             NZ=T
 IS=     2 IAt=     2 ISR=     1 T=0 IP=      1 IndIP=      4 IndIPD=      0 C=  4.601961D-01  0.000000D+00                             NZ=T
 IS=     2 IAt=     2 ISR=     1 T=0 IP=      2 IndIP=      5 IndIPD=      1 C=  8.613523D-01  0.000000D+00                             NZ=T
 IS=     2 IAt=     2 ISR=     1 T=0 IP=      3 IndIP=      6 IndIPD=      2 C=  1.492098D+00  0.000000D+00                             NZ=T
 IS=     2 IAt=     2 ISR=     1 T=0 IP=      4 IndIP=      7 IndIPD=      3 C=  2.442647D+00  0.000000D+00                             NZ=T
 IS=     2 IAt=     2 ISR=     1 T=0 IP=      5 IndIP=      8 IndIPD=      4 C=  3.817597D+00  0.000000D+00                             NZ=T
 IS=     2 IAt=     2 ISR=     1 T=0 IP=      6 IndIP=      9 IndIPD=      5 C=  5.697836D+00  0.000000D+00                             NZ=T
 IS=     2 IAt=     2 ISR=     1 T=0 IP=      7 IndIP=     10 IndIPD=      6 C=  8.012644D+00  0.000000D+00                             NZ=T
 IS=     2 IAt=     2 ISR=     1 T=0 IP=      8 IndIP=     11 IndIPD=      7 C=  1.023886D+01  0.000000D+00                             NZ=T
 IS=     2 IAt=     2 ISR=     1 T=0 IP=      9 IndIP=     12 IndIPD=      8 C=  1.103553D+01  0.000000D+00                             NZ=T
 IS=     2 IAt=     2 ISR=     1 T=0 IP=     10 IndIP=     13 IndIPD=      9 C=  8.646511D+00  0.000000D+00                             NZ=T
 IS=     2 IAt=     2 ISR=     1 T=0 IP=     11 IndIP=     14 IndIPD=     10 C=  3.676375D+00  0.000000D+00                             NZ=T
 IS=     2 IAt=     2 ISR=     1 T=0 IP=     12 IndIP=     15 IndIPD=     11 C=  4.678885D-01  0.000000D+00                             NZ=T
 IS=     2 IAt=     2 ISR=     1 T=0 IP=     13 IndIP=     16 IndIPD=     12 C= -1.409058D-02  0.000000D+00                             NZ=T
 IS=     2 IAt=     2 ISR=     1 T=0 IP=     14 IndIP=     17 IndIPD=     13 C= -1.843009D-03  0.000000D+00                             NZ=T
 IS=     2 IAt=     2 ISR=     1 T=0 IP=     15 IndIP=     18 IndIPD=     14 C= -1.927139D-04  0.000000D+00                             NZ=T
 IS=     3 IAt=     2 ISR=     2 T=0 IP=      1 IndIP=     19 IndIPD=      0 C= -4.156296D-03  0.000000D+00                             NZ=T
 IS=     3 IAt=     2 ISR=     2 T=0 IP=      2 IndIP=     20 IndIPD=      1 C= -2.174157D-02  0.000000D+00                             NZ=T
 IS=     3 IAt=     2 ISR=     2 T=0 IP=      3 IndIP=     21 IndIPD=      2 C= -8.573226D-02  0.000000D+00                             NZ=T
 IS=     3 IAt=     2 ISR=     2 T=0 IP=      4 IndIP=     22 IndIPD=      3 C= -2.732897D-01  0.000000D+00                             NZ=T
 IS=     3 IAt=     2 ISR=     2 T=0 IP=      5 IndIP=     23 IndIPD=      4 C= -7.085232D-01  0.000000D+00                             NZ=T
 IS=     3 IAt=     2 ISR=     2 T=0 IP=      6 IndIP=     24 IndIPD=      5 C= -1.357083D+00  0.000000D+00                             NZ=T
 IS=     3 IAt=     2 ISR=     2 T=0 IP=      7 IndIP=     25 IndIPD=      6 C= -1.326175D+00  0.000000D+00                             NZ=T
 IS=     3 IAt=     2 ISR=     2 T=0 IP=      8 IndIP=     26 IndIPD=      7 C=  4.708339D-01  0.000000D+00                             NZ=T
 IS=     3 IAt=     2 ISR=     2 T=0 IP=      9 IndIP=     27 IndIPD=      8 C=  2.041210D+00  0.000000D+00                             NZ=T
 IS=     3 IAt=     2 ISR=     2 T=0 IP=     10 IndIP=     28 IndIPD=      9 C=  1.171232D+00  0.000000D+00                             NZ=T
 IS=     3 IAt=     2 ISR=     2 T=0 IP=     11 IndIP=     29 IndIPD=     10 C=  1.186302D-01  0.000000D+00                             NZ=T
 IS=     3 IAt=     2 ISR=     2 T=0 IP=     12 IndIP=     30 IndIPD=     11 C=  1.645608D-03  0.000000D+00                             NZ=T
 IS=     4 IAt=     2 ISR=     3 T=0 IP=      1 IndIP=     31 IndIPD=      0 C= -2.009719D-03  0.000000D+00                             NZ=T
 IS=     4 IAt=     2 ISR=     3 T=0 IP=      2 IndIP=     32 IndIPD=      1 C=  3.685234D-04  0.000000D+00                             NZ=T
 IS=     4 IAt=     2 ISR=     3 T=0 IP=      3 IndIP=     33 IndIPD=      2 C= -6.543288D-03  0.000000D+00                             NZ=T
 IS=     4 IAt=     2 ISR=     3 T=0 IP=      4 IndIP=     34 IndIPD=      3 C= -1.867953D-02  0.000000D+00                             NZ=T
 IS=     4 IAt=     2 ISR=     3 T=0 IP=      5 IndIP=     35 IndIPD=      4 C=  1.006848D-02  0.000000D+00                             NZ=T
 IS=     4 IAt=     2 ISR=     3 T=0 IP=      6 IndIP=     36 IndIPD=      5 C=  2.898501D-02  0.000000D+00                             NZ=T
 IS=     4 IAt=     2 ISR=     3 T=0 IP=      7 IndIP=     37 IndIPD=      6 C= -3.297137D-01  0.000000D+00                             NZ=T
 IS=     4 IAt=     2 ISR=     3 T=0 IP=      8 IndIP=     38 IndIPD=      7 C= -5.569360D-01  0.000000D+00                             NZ=T
 IS=     4 IAt=     2 ISR=     3 T=0 IP=      9 IndIP=     39 IndIPD=      8 C=  1.218651D-01  0.000000D+00                             NZ=T
 IS=     4 IAt=     2 ISR=     3 T=0 IP=     10 IndIP=     40 IndIPD=      9 C=  6.285222D-01  0.000000D+00                             NZ=T
 IS=     4 IAt=     2 ISR=     3 T=0 IP=     11 IndIP=     41 IndIPD=     10 C=  1.786727D-01  0.000000D+00                             NZ=T
 IS=     4 IAt=     2 ISR=     3 T=0 IP=     12 IndIP=     42 IndIPD=     11 C= -6.692340D-02  0.000000D+00                             NZ=T
 IS=     5 IAt=     2 ISR=     4 T=0 IP=      1 IndIP=     43 IndIPD=      0 C= -2.538325D-04  0.000000D+00                             NZ=T
 IS=     5 IAt=     2 ISR=     4 T=0 IP=      2 IndIP=     44 IndIPD=      1 C=  1.195747D-04  0.000000D+00                             NZ=T
 IS=     5 IAt=     2 ISR=     4 T=0 IP=      3 IndIP=     45 IndIPD=      2 C=  4.327939D-05  0.000000D+00                             NZ=T
 IS=     5 IAt=     2 ISR=     4 T=0 IP=      4 IndIP=     46 IndIPD=      3 C=  5.652494D-03  0.000000D+00                             NZ=T
 IS=     5 IAt=     2 ISR=     4 T=0 IP=      5 IndIP=     47 IndIPD=      4 C= -9.239048D-03  0.000000D+00                             NZ=T
 IS=     5 IAt=     2 ISR=     4 T=0 IP=      6 IndIP=     48 IndIPD=      5 C= -3.834623D-02  0.000000D+00                             NZ=T
 IS=     5 IAt=     2 ISR=     4 T=0 IP=      7 IndIP=     49 IndIPD=      6 C= -8.755720D-02  0.000000D+00                             NZ=T
 IS=     5 IAt=     2 ISR=     4 T=0 IP=      8 IndIP=     50 IndIPD=      7 C=  5.141708D-02  0.000000D+00                             NZ=T
 IS=     5 IAt=     2 ISR=     4 T=0 IP=      9 IndIP=     51 IndIPD=      8 C=  6.056180D-02  0.000000D+00                             NZ=T
 IS=     6 IAt=     2 ISR=     5 T=0 IP=      1 IndIP=     52 IndIPD=      0 C=  2.864993D-03  0.000000D+00                             NZ=T
 IS=     6 IAt=     2 ISR=     5 T=0 IP=      2 IndIP=     53 IndIPD=      1 C= -6.088676D-04  0.000000D+00                             NZ=T
 IS=     6 IAt=     2 ISR=     5 T=0 IP=      3 IndIP=     54 IndIPD=      2 C=  9.145188D-03  0.000000D+00                             NZ=T
 IS=     6 IAt=     2 ISR=     5 T=0 IP=      4 IndIP=     55 IndIPD=      3 C=  3.068466D-02  0.000000D+00                             NZ=T
 IS=     6 IAt=     2 ISR=     5 T=0 IP=      5 IndIP=     56 IndIPD=      4 C=  1.270586D-02  0.000000D+00                             NZ=T
 IS=     6 IAt=     2 ISR=     5 T=0 IP=      6 IndIP=     57 IndIPD=      5 C=  6.411399D-02  0.000000D+00                             NZ=T
 IS=     6 IAt=     2 ISR=     5 T=0 IP=      7 IndIP=     58 IndIPD=      6 C= -4.813885D-02  0.000000D+00                             NZ=T
 IS=     6 IAt=     2 ISR=     5 T=0 IP=      8 IndIP=     59 IndIPD=      7 C= -7.768119D-02  0.000000D+00                             NZ=T
 IS=     6 IAt=     2 ISR=     5 T=0 IP=      9 IndIP=     60 IndIPD=      8 C= -2.457033D-01  0.000000D+00                             NZ=T
 IS=     6 IAt=     2 ISR=     5 T=0 IP=     10 IndIP=     61 IndIPD=      9 C=  9.551324D-02  0.000000D+00                             NZ=T
 IS=     6 IAt=     2 ISR=     5 T=0 IP=     11 IndIP=     62 IndIPD=     10 C=  5.526306D-02  0.000000D+00                             NZ=T
 IS=     6 IAt=     2 ISR=     5 T=0 IP=     12 IndIP=     63 IndIPD=     11 C=  1.188443D-01  0.000000D+00                             NZ=T
 IS=     7 IAt=     2 ISR=     6 T=0 IP=      1 IndIP=     64 IndIPD=      0 C=  4.543263D-02  0.000000D+00                             NZ=T
 IS=     8 IAt=     2 ISR=     7 T=1 IP=      1 IndIP=     65 IndIPD=      0 C=  0.000000D+00  7.795981D+00                             NZ=T
 IS=     8 IAt=     2 ISR=     7 T=1 IP=      2 IndIP=     66 IndIPD=      1 C=  0.000000D+00  1.143990D+01                             NZ=T
 IS=     8 IAt=     2 ISR=     7 T=1 IP=      3 IndIP=     67 IndIPD=      2 C=  0.000000D+00  1.612790D+01                             NZ=T
 IS=     8 IAt=     2 ISR=     7 T=1 IP=      4 IndIP=     68 IndIPD=      3 C=  0.000000D+00  2.120141D+01                             NZ=T
 IS=     8 IAt=     2 ISR=     7 T=1 IP=      5 IndIP=     69 IndIPD=      4 C=  0.000000D+00  2.533977D+01                             NZ=T
 IS=     8 IAt=     2 ISR=     7 T=1 IP=      6 IndIP=     70 IndIPD=      5 C=  0.000000D+00  2.664657D+01                             NZ=T
 IS=     8 IAt=     2 ISR=     7 T=1 IP=      7 IndIP=     71 IndIPD=      6 C=  0.000000D+00  2.296005D+01                             NZ=T
 IS=     8 IAt=     2 ISR=     7 T=1 IP=      8 IndIP=     72 IndIPD=      7 C=  0.000000D+00  1.495671D+01                             NZ=T
 IS=     8 IAt=     2 ISR=     7 T=1 IP=      9 IndIP=     73 IndIPD=      8 C=  0.000000D+00  6.394973D+00                             NZ=T
 IS=     8 IAt=     2 ISR=     7 T=1 IP=     10 IndIP=     74 IndIPD=      9 C=  0.000000D+00  1.316040D+00                             NZ=T
 IS=     8 IAt=     2 ISR=     7 T=1 IP=     11 IndIP=     75 IndIPD=     10 C=  0.000000D+00  8.037045D-02                             NZ=T
 IS=     8 IAt=     2 ISR=     7 T=1 IP=     12 IndIP=     76 IndIPD=     11 C=  0.000000D+00 -1.639389D-04                             NZ=T
 IS=     8 IAt=     2 ISR=     7 T=1 IP=     13 IndIP=     77 IndIPD=     12 C=  0.000000D+00 -1.884516D-05                             NZ=T
 IS=     9 IAt=     2 ISR=     8 T=1 IP=      1 IndIP=     78 IndIPD=      0 C=  0.000000D+00 -4.027304D-02                             NZ=T
 IS=     9 IAt=     2 ISR=     8 T=1 IP=      2 IndIP=     79 IndIPD=      1 C=  0.000000D+00 -1.519980D-01                             NZ=T
 IS=     9 IAt=     2 ISR=     8 T=1 IP=      3 IndIP=     80 IndIPD=      2 C=  0.000000D+00 -3.797862D-01                             NZ=T
 IS=     9 IAt=     2 ISR=     8 T=1 IP=      4 IndIP=     81 IndIPD=      3 C=  0.000000D+00 -6.057571D-01                             NZ=T
 IS=     9 IAt=     2 ISR=     8 T=1 IP=      5 IndIP=     82 IndIPD=      4 C=  0.000000D+00 -6.349846D-01                             NZ=T
 IS=     9 IAt=     2 ISR=     8 T=1 IP=      6 IndIP=     83 IndIPD=      5 C=  0.000000D+00 -3.948474D-01                             NZ=T
 IS=     9 IAt=     2 ISR=     8 T=1 IP=      7 IndIP=     84 IndIPD=      6 C=  0.000000D+00  5.551180D-01                             NZ=T
 IS=     9 IAt=     2 ISR=     8 T=1 IP=      8 IndIP=     85 IndIPD=      7 C=  0.000000D+00  1.049291D+00                             NZ=T
 IS=     9 IAt=     2 ISR=     8 T=1 IP=      9 IndIP=     86 IndIPD=      8 C=  0.000000D+00  6.036670D-01                             NZ=T
 IS=     9 IAt=     2 ISR=     8 T=1 IP=     10 IndIP=     87 IndIPD=      9 C=  0.000000D+00  1.523990D-01                             NZ=T
 IS=     9 IAt=     2 ISR=     8 T=1 IP=     11 IndIP=     88 IndIPD=     10 C=  0.000000D+00  8.253888D-03                             NZ=T
 IS=    10 IAt=     2 ISR=     9 T=1 IP=      1 IndIP=     89 IndIPD=      0 C=  0.000000D+00 -3.269879D-03                             NZ=T
 IS=    10 IAt=     2 ISR=     9 T=1 IP=      2 IndIP=     90 IndIPD=      1 C=  0.000000D+00 -8.378074D-03                             NZ=T
 IS=    10 IAt=     2 ISR=     9 T=1 IP=      3 IndIP=     91 IndIPD=      2 C=  0.000000D+00  2.529722D-03                             NZ=T
 IS=    10 IAt=     2 ISR=     9 T=1 IP=      4 IndIP=     92 IndIPD=      3 C=  0.000000D+00 -8.607827D-03                             NZ=T
 IS=    10 IAt=     2 ISR=     9 T=1 IP=      5 IndIP=     93 IndIPD=      4 C=  0.000000D+00 -2.397739D-02                             NZ=T
 IS=    10 IAt=     2 ISR=     9 T=1 IP=      6 IndIP=     94 IndIPD=      5 C=  0.000000D+00 -3.614299D-02                             NZ=T
 IS=    10 IAt=     2 ISR=     9 T=1 IP=      7 IndIP=     95 IndIPD=      6 C=  0.000000D+00 -2.100047D-02                             NZ=T
 IS=    10 IAt=     2 ISR=     9 T=1 IP=      8 IndIP=     96 IndIPD=      7 C=  0.000000D+00  5.981245D-02                             NZ=T
 IS=    10 IAt=     2 ISR=     9 T=1 IP=      9 IndIP=     97 IndIPD=      8 C=  0.000000D+00  3.898314D-02                             NZ=T
 IS=    11 IAt=     2 ISR=    10 T=1 IP=      1 IndIP=     98 IndIPD=      0 C=  0.000000D+00  1.995377D-01                             NZ=T
 IS=    11 IAt=     2 ISR=    10 T=1 IP=      2 IndIP=     99 IndIPD=      1 C=  0.000000D+00 -9.916829D-02                             NZ=T
 IS=    11 IAt=     2 ISR=    10 T=1 IP=      3 IndIP=    100 IndIPD=      2 C=  0.000000D+00 -5.154941D-01                             NZ=T
 IS=    11 IAt=     2 ISR=    10 T=1 IP=      4 IndIP=    101 IndIPD=      3 C=  0.000000D+00 -2.299023D-01                             NZ=T
 IS=    11 IAt=     2 ISR=    10 T=1 IP=      5 IndIP=    102 IndIPD=      4 C=  0.000000D+00 -4.427241D-01                             NZ=T
 IS=    11 IAt=     2 ISR=    10 T=1 IP=      6 IndIP=    103 IndIPD=      5 C=  0.000000D+00  6.312007D-01                             NZ=T
 IS=    11 IAt=     2 ISR=    10 T=1 IP=      7 IndIP=    104 IndIPD=      6 C=  0.000000D+00  7.247077D-01                             NZ=T
 IS=    11 IAt=     2 ISR=    10 T=1 IP=      8 IndIP=    105 IndIPD=      7 C=  0.000000D+00  5.879952D-01                             NZ=T
 IS=    11 IAt=     2 ISR=    10 T=1 IP=      9 IndIP=    106 IndIPD=      8 C=  0.000000D+00 -4.923816D-02                             NZ=T
 IS=    11 IAt=     2 ISR=    10 T=1 IP=     10 IndIP=    107 IndIPD=      9 C=  0.000000D+00  1.070378D-01                             NZ=T
 IS=    12 IAt=     2 ISR=    11 T=1 IP=      1 IndIP=    108 IndIPD=      0 C=  0.000000D+00  1.735373D-02                             NZ=T
 IS=    13 IAt=     2 ISR=    12 T=2 IP=      1 IndIP=    109 IndIPD=      1 C=  0.000000D+00  0.000000D+00  2.253599D-02  0.000000D+00 NZ=T
 IS=    13 IAt=     2 ISR=    12 T=2 IP=      2 IndIP=    110 IndIPD=      2 C=  0.000000D+00  0.000000D+00 -1.113976D-01  0.000000D+00 NZ=T
 IS=    13 IAt=     2 ISR=    12 T=2 IP=      3 IndIP=    111 IndIPD=      3 C=  0.000000D+00  0.000000D+00  7.556885D-04  0.000000D+00 NZ=T
 IS=    13 IAt=     2 ISR=    12 T=2 IP=      4 IndIP=    112 IndIPD=      4 C=  0.000000D+00  0.000000D+00  8.195510D-02  0.000000D+00 NZ=T
 IS=    13 IAt=     2 ISR=    12 T=2 IP=      5 IndIP=    113 IndIPD=      5 C=  0.000000D+00  0.000000D+00  1.108254D-01  0.000000D+00 NZ=T
 IS=    13 IAt=     2 ISR=    12 T=2 IP=      6 IndIP=    114 IndIPD=      6 C=  0.000000D+00  0.000000D+00  4.815533D-02  0.000000D+00 NZ=T
 IS=    14 IAt=     2 ISR=    13 T=2 IP=      1 IndIP=    115 IndIPD=      7 C=  0.000000D+00  0.000000D+00 -1.207446D+01  0.000000D+00 NZ=T
 IS=    14 IAt=     2 ISR=    13 T=2 IP=      2 IndIP=    116 IndIPD=      8 C=  0.000000D+00  0.000000D+00 -9.614714D+00  0.000000D+00 NZ=T
 IS=    14 IAt=     2 ISR=    13 T=2 IP=      3 IndIP=    117 IndIPD=      9 C=  0.000000D+00  0.000000D+00 -5.925403D+00  0.000000D+00 NZ=T
 IS=    14 IAt=     2 ISR=    13 T=2 IP=      4 IndIP=    118 IndIPD=     10 C=  0.000000D+00  0.000000D+00 -2.773498D+00  0.000000D+00 NZ=T
 IS=    14 IAt=     2 ISR=    13 T=2 IP=      5 IndIP=    119 IndIPD=     11 C=  0.000000D+00  0.000000D+00 -8.295859D-01  0.000000D+00 NZ=T
 IS=    14 IAt=     2 ISR=    13 T=2 IP=      6 IndIP=    120 IndIPD=     12 C=  0.000000D+00  0.000000D+00 -1.298928D-01  0.000000D+00 NZ=T
 IS=    15 IAt=     2 ISR=    14 T=2 IP=      1 IndIP=    121 IndIPD=     13 C=  0.000000D+00  0.000000D+00  9.283634D-03  0.000000D+00 NZ=T
 IS=    16 IAt=     2 ISR=    15 T=3 IP=      1 IndIP=    122 IndIPD=     14 C=  0.000000D+00  0.000000D+00  0.000000D+00  8.360800D-01 NZ=T
 IS=    16 IAt=     2 ISR=    15 T=3 IP=      2 IndIP=    123 IndIPD=     15 C=  0.000000D+00  0.000000D+00  0.000000D+00  6.866491D-02 NZ=T
 IExCor=    0 DFT=F Ex=HF Corr=None ExCW=0 ScaHFX=  1.000000
 ScaDFX=  1.000000  1.000000  1.000000  1.000000 ScalE2=  1.000000  1.000000
 IRadAn=      5 IRanWt=     -1 IRanGd=            0 ICorTp=0 IEmpDi=  4
 NAtoms=    2 NActive=    2 NUniq=    2 SFac= 1.00D+00 NAtFMM=   60 NAOKFM=F Big=F
 Integral buffers will be    131072 words long.
 Raffenetti 2 integral format.
 Two-electron integral symmetry is turned on.
 Leave Link  301 at Thu Mar 24 16:00:28 2022, MaxMem=  9663676416 cpu:               2.2 elap:               0.1
 (Enter /nopt/nrel/apps/gaussian/g16C_1/g16/l302.exe)
 NPDir=0 NMtPBC=     1 NCelOv=     1 NCel=       1 NClECP=     1 NCelD=      1
         NCelK=      1 NCelE2=     1 NClLst=     1 CellRange=     0.0.
 One-electron integrals computed using PRISM.
 One-electron integral symmetry used in STVInt
 Entering OneElI...
 Calculate overlap and kinetic energy integrals
    NBasis =  44  MinDer = 0  MaxDer = 0
 Requested accuracy = 0.1000D-12
 Symmetry will be used
 PrmmSu-InSpLW:  IPartL=    0 NPrtUS=   36 NPrtUL=    1 DoSpLW=F IThBeg=    0 IThEnd=   35 NThAct=   36.
 PrSmSu:  IncTry=   512 NBBP=            136 NTPThr=   100 NPartT=   36 Incr=           1 LDynOK=F GPUOK=F.
 PrsmSu:  NPrtUS=  36 ThrOK=T IAlg=1 LenDen=           0 ISkipM=0 DoSpLW=F IThBeg=    0 IThEnd=   35.
 Prism:   IPart=     0 DynPar=F LinDyn=F Incr=           1.
 PRISM was handed   268364371 working-precision words and   136 shell-pairs
 PRISM was handed   268364371 working-precision words and   136 shell-pairs
 PRISM was handed   268364371 working-precision words and   136 shell-pairs
 PRISM was handed   268364371 working-precision words and   136 shell-pairs
 PRISM was handed   268364371 working-precision words and   136 shell-pairs
 PRISM was handed   268364371 working-precision words and   136 shell-pairs
 PRISM was handed   268364371 working-precision words and   136 shell-pairs
 PRISM was handed   268364371 working-precision words and   136 shell-pairs
 PRISM was handed   268364371 working-precision words and   136 shell-pairs
 PRISM was handed   268364371 working-precision words and   136 shell-pairs
 PRISM was handed   268364371 working-precision words and   136 shell-pairs
 PRISM was handed   268364371 working-precision words and   136 shell-pairs
 PRISM was handed   268364371 working-precision words and   136 shell-pairs
 PRISM was handed   268364371 working-precision words and   136 shell-pairs
 PRISM was handed   268364371 working-precision words and   136 shell-pairs
 PRISM was handed   268364371 working-precision words and   136 shell-pairs
 PRISM was handed   268364371 working-precision words and   136 shell-pairs
 PRISM was handed   268364371 working-precision words and   136 shell-pairs
 PRISM was handed   268364371 working-precision words and   136 shell-pairs
 PRISM was handed   268364371 working-precision words and   136 shell-pairs
 PRISM was handed   268364371 working-precision words and   136 shell-pairs
 PRISM was handed   268364371 working-precision words and   136 shell-pairs
 IPart=  6 NShTot=           0 NBatch=           0 AvBLen=         0.0
 IPart=  8 NShTot=           0 NBatch=           0 AvBLen=         0.0
 IPart= 34 NShTot=           0 NBatch=           0 AvBLen=         0.0
 IPart= 29 NShTot=           0 NBatch=           0 AvBLen=         0.0
 PRISM was handed   268364371 working-precision words and   136 shell-pairs
 IPart=  9 NShTot=           0 NBatch=           0 AvBLen=         0.0
 IPart= 32 NShTot=           0 NBatch=           0 AvBLen=         0.0
 IPart= 24 NShTot=           0 NBatch=           0 AvBLen=         0.0
 IPart= 27 NShTot=           0 NBatch=           0 AvBLen=         0.0
 IPart=  5 NShTot=           2 NBatch=           2 AvBLen=         1.0
 IPart=  7 NShTot=           0 NBatch=           0 AvBLen=         0.0
 IPart=  2 NShTot=          14 NBatch=          14 AvBLen=         1.0
 IPart= 17 NShTot=           0 NBatch=           0 AvBLen=         0.0
 IPart= 15 NShTot=           0 NBatch=           0 AvBLen=         0.0
 IPart= 19 NShTot=           0 NBatch=           0 AvBLen=         0.0
 IPart=  4 NShTot=           2 NBatch=           2 AvBLen=         1.0
 IPart= 10 NShTot=           0 NBatch=           0 AvBLen=         0.0
 PRISM was handed   268364371 working-precision words and   136 shell-pairs
 PRISM was handed   268364371 working-precision words and   136 shell-pairs
 IPart= 18 NShTot=           0 NBatch=           0 AvBLen=         0.0
 PRISM was handed   268364371 working-precision words and   136 shell-pairs
 IPart=  0 NShTot=          89 NBatch=          89 AvBLen=         1.0
 IPart= 21 NShTot=           0 NBatch=           0 AvBLen=         0.0
 PRISM was handed   268364371 working-precision words and   136 shell-pairs
 PRISM was handed   268364371 working-precision words and   136 shell-pairs
 PRISM was handed   268364371 working-precision words and   136 shell-pairs
 PRISM was handed   268364371 working-precision words and   136 shell-pairs
 PRISM was handed   268364371 working-precision words and   136 shell-pairs
 PRISM was handed   268364371 working-precision words and   136 shell-pairs
 PRISM was handed   268364371 working-precision words and   136 shell-pairs
 PRISM was handed   268364371 working-precision words and   136 shell-pairs
 IPart= 20 NShTot=           0 NBatch=           0 AvBLen=         0.0
 PRISM was handed   268364371 working-precision words and   136 shell-pairs
 IPart= 14 NShTot=           0 NBatch=           0 AvBLen=         0.0
 PRISM was handed   268364371 working-precision words and   136 shell-pairs
 IPart= 12 NShTot=           0 NBatch=           0 AvBLen=         0.0
 IPart= 16 NShTot=           0 NBatch=           0 AvBLen=         0.0
 IPart= 26 NShTot=           0 NBatch=           0 AvBLen=         0.0
 IPart=  1 NShTot=          27 NBatch=          27 AvBLen=         1.0
 IPart=  3 NShTot=           2 NBatch=           2 AvBLen=         1.0
 IPart= 22 NShTot=           0 NBatch=           0 AvBLen=         0.0
 IPart= 25 NShTot=           0 NBatch=           0 AvBLen=         0.0
 IPart= 30 NShTot=           0 NBatch=           0 AvBLen=         0.0
 IPart= 35 NShTot=           0 NBatch=           0 AvBLen=         0.0
 IPart= 23 NShTot=           0 NBatch=           0 AvBLen=         0.0
 IPart= 28 NShTot=           0 NBatch=           0 AvBLen=         0.0
 IPart= 13 NShTot=           0 NBatch=           0 AvBLen=         0.0
 IPart= 11 NShTot=           0 NBatch=           0 AvBLen=         0.0
 IPart= 33 NShTot=           0 NBatch=           0 AvBLen=         0.0
 IPart= 31 NShTot=           0 NBatch=           0 AvBLen=         0.0
 PrSmSu:  NxtVal=             37.
 *** Overlap *** 
                1             2             3             4             5 
      1  0.100000D+01
      2  0.170009D-02  0.100000D+01
      3  0.143705D-01  0.279117D+00  0.100000D+01
      4 -0.689945D-01  0.133214D-01  0.392900D+00  0.100000D+01
      5  0.362000D+00 -0.249446D-02  0.242605D-02 -0.181656D+00  0.100000D+01
      6  0.308572D+00 -0.202905D-02  0.120603D+00  0.248298D+00  0.863186D+00
      7  0.297900D+00  0.625628D-02  0.500412D-01 -0.893107D-01  0.867545D+00
      8  0.000000D+00  0.000000D+00  0.000000D+00  0.000000D+00  0.000000D+00
      9  0.000000D+00  0.000000D+00  0.000000D+00  0.000000D+00  0.000000D+00
     10 -0.442118D-02  0.000000D+00  0.000000D+00  0.000000D+00  0.000000D+00
     11  0.000000D+00  0.000000D+00  0.000000D+00  0.000000D+00  0.000000D+00
     12  0.000000D+00  0.000000D+00  0.000000D+00  0.000000D+00  0.000000D+00
     13 -0.112094D+00  0.000000D+00  0.000000D+00  0.000000D+00  0.000000D+00
     14  0.000000D+00  0.000000D+00  0.000000D+00  0.000000D+00  0.000000D+00
     15  0.000000D+00  0.000000D+00  0.000000D+00  0.000000D+00  0.000000D+00
     16 -0.504546D+00  0.000000D+00  0.000000D+00  0.000000D+00  0.000000D+00
     17  0.000000D+00  0.000000D+00  0.000000D+00  0.000000D+00  0.000000D+00
     18  0.000000D+00  0.000000D+00  0.000000D+00  0.000000D+00  0.000000D+00
     19 -0.302174D+00  0.000000D+00  0.000000D+00  0.000000D+00  0.000000D+00
     20  0.000000D+00  0.000000D+00  0.000000D+00  0.000000D+00  0.000000D+00
     21  0.000000D+00  0.000000D+00  0.000000D+00  0.000000D+00  0.000000D+00
     22 -0.322121D+00  0.000000D+00  0.000000D+00  0.000000D+00  0.000000D+00
     23  0.418886D+00  0.000000D+00  0.000000D+00  0.000000D+00  0.000000D+00
     24  0.000000D+00  0.000000D+00  0.000000D+00  0.000000D+00  0.000000D+00
     25  0.000000D+00  0.000000D+00  0.000000D+00  0.000000D+00  0.000000D+00
     26  0.000000D+00  0.000000D+00  0.000000D+00  0.000000D+00  0.000000D+00
     27  0.000000D+00  0.000000D+00  0.000000D+00  0.000000D+00  0.000000D+00
     28 -0.992750D-01  0.000000D+00  0.000000D+00  0.000000D+00  0.000000D+00
     29  0.000000D+00  0.000000D+00  0.000000D+00  0.000000D+00  0.000000D+00
     30  0.000000D+00  0.000000D+00  0.000000D+00  0.000000D+00  0.000000D+00
     31  0.000000D+00  0.000000D+00  0.000000D+00  0.000000D+00  0.000000D+00
     32  0.000000D+00  0.000000D+00  0.000000D+00  0.000000D+00  0.000000D+00
     33  0.330076D+00  0.000000D+00  0.000000D+00  0.000000D+00  0.000000D+00
     34  0.000000D+00  0.000000D+00  0.000000D+00  0.000000D+00  0.000000D+00
     35  0.000000D+00  0.000000D+00  0.000000D+00  0.000000D+00  0.000000D+00
     36  0.000000D+00  0.000000D+00  0.000000D+00  0.000000D+00  0.000000D+00
     37  0.000000D+00  0.000000D+00  0.000000D+00  0.000000D+00  0.000000D+00
     38 -0.268875D+00  0.000000D+00  0.000000D+00  0.000000D+00  0.000000D+00
     39  0.000000D+00  0.000000D+00  0.000000D+00  0.000000D+00  0.000000D+00
     40  0.000000D+00  0.000000D+00  0.000000D+00  0.000000D+00  0.000000D+00
     41  0.000000D+00  0.000000D+00  0.000000D+00  0.000000D+00  0.000000D+00
     42  0.000000D+00  0.000000D+00  0.000000D+00  0.000000D+00  0.000000D+00
     43  0.000000D+00  0.000000D+00  0.000000D+00  0.000000D+00  0.000000D+00
     44  0.000000D+00  0.000000D+00  0.000000D+00  0.000000D+00  0.000000D+00
                6             7             8             9            10 
      6  0.100000D+01
      7  0.671026D+00  0.100000D+01
      8  0.000000D+00  0.000000D+00  0.100000D+01
      9  0.000000D+00  0.000000D+00  0.000000D+00  0.100000D+01
     10  0.000000D+00  0.000000D+00  0.000000D+00  0.000000D+00  0.100000D+01
     11  0.000000D+00  0.000000D+00  0.321080D+00  0.000000D+00  0.000000D+00
     12  0.000000D+00  0.000000D+00  0.000000D+00  0.321080D+00  0.000000D+00
     13  0.000000D+00  0.000000D+00  0.000000D+00  0.000000D+00  0.321080D+00
     14  0.000000D+00  0.000000D+00  0.108247D-01  0.000000D+00  0.000000D+00
     15  0.000000D+00  0.000000D+00  0.000000D+00  0.108247D-01  0.000000D+00
     16  0.000000D+00  0.000000D+00  0.000000D+00  0.000000D+00  0.108247D-01
     17  0.000000D+00  0.000000D+00  0.264262D+00  0.000000D+00  0.000000D+00
     18  0.000000D+00  0.000000D+00  0.000000D+00  0.264262D+00  0.000000D+00
     19  0.000000D+00  0.000000D+00  0.000000D+00  0.000000D+00  0.264262D+00
     20  0.000000D+00  0.000000D+00  0.499923D-02  0.000000D+00  0.000000D+00
     21  0.000000D+00  0.000000D+00  0.000000D+00  0.499923D-02  0.000000D+00
     22  0.000000D+00  0.000000D+00  0.000000D+00  0.000000D+00  0.499923D-02
     23  0.000000D+00  0.000000D+00  0.000000D+00  0.000000D+00  0.000000D+00
     24  0.000000D+00  0.000000D+00  0.000000D+00  0.000000D+00  0.000000D+00
     25  0.000000D+00  0.000000D+00  0.000000D+00  0.000000D+00  0.000000D+00
     26  0.000000D+00  0.000000D+00  0.000000D+00  0.000000D+00  0.000000D+00
     27  0.000000D+00  0.000000D+00  0.000000D+00  0.000000D+00  0.000000D+00
     28  0.000000D+00  0.000000D+00  0.000000D+00  0.000000D+00  0.000000D+00
     29  0.000000D+00  0.000000D+00  0.000000D+00  0.000000D+00  0.000000D+00
     30  0.000000D+00  0.000000D+00  0.000000D+00  0.000000D+00  0.000000D+00
     31  0.000000D+00  0.000000D+00  0.000000D+00  0.000000D+00  0.000000D+00
     32  0.000000D+00  0.000000D+00  0.000000D+00  0.000000D+00  0.000000D+00
     33  0.000000D+00  0.000000D+00  0.000000D+00  0.000000D+00  0.000000D+00
     34  0.000000D+00  0.000000D+00  0.000000D+00  0.000000D+00  0.000000D+00
     35  0.000000D+00  0.000000D+00  0.000000D+00  0.000000D+00  0.000000D+00
     36  0.000000D+00  0.000000D+00  0.000000D+00  0.000000D+00  0.000000D+00
     37  0.000000D+00  0.000000D+00  0.000000D+00  0.000000D+00  0.000000D+00
     38  0.000000D+00  0.000000D+00  0.000000D+00  0.000000D+00  0.000000D+00
     39  0.000000D+00  0.000000D+00  0.000000D+00  0.000000D+00  0.000000D+00
     40  0.000000D+00  0.000000D+00  0.000000D+00  0.000000D+00  0.000000D+00
     41  0.000000D+00  0.000000D+00  0.000000D+00  0.000000D+00  0.000000D+00
     42  0.000000D+00  0.000000D+00  0.000000D+00  0.000000D+00  0.000000D+00
     43  0.000000D+00  0.000000D+00  0.000000D+00  0.000000D+00  0.000000D+00
     44  0.000000D+00  0.000000D+00  0.000000D+00  0.000000D+00  0.000000D+00
               11            12            13            14            15 
     11  0.100000D+01
     12  0.000000D+00  0.100000D+01
     13  0.000000D+00  0.000000D+00  0.100000D+01
     14  0.312924D+00  0.000000D+00  0.000000D+00  0.100000D+01
     15  0.000000D+00  0.312924D+00  0.000000D+00  0.000000D+00  0.100000D+01
     16  0.000000D+00  0.000000D+00  0.312924D+00  0.000000D+00  0.000000D+00
     17  0.908738D+00  0.000000D+00  0.000000D+00  0.652514D+00  0.000000D+00
     18  0.000000D+00  0.908738D+00  0.000000D+00  0.000000D+00  0.652514D+00
     19  0.000000D+00  0.000000D+00  0.908738D+00  0.000000D+00  0.000000D+00
     20  0.102417D+00  0.000000D+00  0.000000D+00  0.695333D+00  0.000000D+00
     21  0.000000D+00  0.102417D+00  0.000000D+00  0.000000D+00  0.695333D+00
     22  0.000000D+00  0.000000D+00  0.102417D+00  0.000000D+00  0.000000D+00
     23  0.000000D+00  0.000000D+00  0.000000D+00  0.000000D+00  0.000000D+00
     24  0.000000D+00  0.000000D+00  0.000000D+00  0.000000D+00  0.000000D+00
     25  0.000000D+00  0.000000D+00  0.000000D+00  0.000000D+00  0.000000D+00
     26  0.000000D+00  0.000000D+00  0.000000D+00  0.000000D+00  0.000000D+00
     27  0.000000D+00  0.000000D+00  0.000000D+00  0.000000D+00  0.000000D+00
     28  0.000000D+00  0.000000D+00  0.000000D+00  0.000000D+00  0.000000D+00
     29  0.000000D+00  0.000000D+00  0.000000D+00  0.000000D+00  0.000000D+00
     30  0.000000D+00  0.000000D+00  0.000000D+00  0.000000D+00  0.000000D+00
     31  0.000000D+00  0.000000D+00  0.000000D+00  0.000000D+00  0.000000D+00
     32  0.000000D+00  0.000000D+00  0.000000D+00  0.000000D+00  0.000000D+00
     33  0.000000D+00  0.000000D+00  0.000000D+00  0.000000D+00  0.000000D+00
     34  0.000000D+00  0.000000D+00  0.000000D+00  0.000000D+00  0.000000D+00
     35  0.000000D+00  0.000000D+00  0.000000D+00  0.000000D+00  0.000000D+00
     36  0.000000D+00  0.000000D+00  0.000000D+00  0.000000D+00  0.000000D+00
     37  0.000000D+00  0.000000D+00  0.000000D+00  0.000000D+00  0.000000D+00
     38  0.000000D+00  0.000000D+00  0.000000D+00  0.000000D+00  0.000000D+00
     39  0.000000D+00  0.000000D+00  0.000000D+00  0.000000D+00  0.000000D+00
     40  0.000000D+00  0.000000D+00  0.000000D+00  0.000000D+00  0.000000D+00
     41  0.000000D+00  0.000000D+00  0.000000D+00  0.000000D+00  0.000000D+00
     42  0.000000D+00  0.000000D+00  0.000000D+00  0.000000D+00  0.000000D+00
     43  0.000000D+00  0.000000D+00  0.000000D+00  0.000000D+00  0.000000D+00
     44  0.000000D+00  0.000000D+00  0.000000D+00  0.000000D+00  0.000000D+00
               16            17            18            19            20 
     16  0.100000D+01
     17  0.000000D+00  0.100000D+01
     18  0.000000D+00  0.000000D+00  0.100000D+01
     19  0.652514D+00  0.000000D+00  0.000000D+00  0.100000D+01
     20  0.000000D+00  0.287068D+00  0.000000D+00  0.000000D+00  0.100000D+01
     21  0.000000D+00  0.000000D+00  0.287068D+00  0.000000D+00  0.000000D+00
     22  0.695333D+00  0.000000D+00  0.000000D+00  0.287068D+00  0.000000D+00
     23  0.000000D+00  0.000000D+00  0.000000D+00  0.000000D+00  0.000000D+00
     24  0.000000D+00  0.000000D+00  0.000000D+00  0.000000D+00  0.000000D+00
     25  0.000000D+00  0.000000D+00  0.000000D+00  0.000000D+00  0.000000D+00
     26  0.000000D+00  0.000000D+00  0.000000D+00  0.000000D+00  0.000000D+00
     27  0.000000D+00  0.000000D+00  0.000000D+00  0.000000D+00  0.000000D+00
     28  0.000000D+00  0.000000D+00  0.000000D+00  0.000000D+00  0.000000D+00
     29  0.000000D+00  0.000000D+00  0.000000D+00  0.000000D+00  0.000000D+00
     30  0.000000D+00  0.000000D+00  0.000000D+00  0.000000D+00  0.000000D+00
     31  0.000000D+00  0.000000D+00  0.000000D+00  0.000000D+00  0.000000D+00
     32  0.000000D+00  0.000000D+00  0.000000D+00  0.000000D+00  0.000000D+00
     33  0.000000D+00  0.000000D+00  0.000000D+00  0.000000D+00  0.000000D+00
     34  0.000000D+00  0.000000D+00  0.000000D+00  0.000000D+00  0.000000D+00
     35  0.000000D+00  0.000000D+00  0.000000D+00  0.000000D+00  0.000000D+00
     36  0.000000D+00  0.000000D+00  0.000000D+00  0.000000D+00  0.000000D+00
     37  0.000000D+00  0.000000D+00  0.000000D+00  0.000000D+00  0.000000D+00
     38  0.000000D+00  0.000000D+00  0.000000D+00  0.000000D+00  0.000000D+00
     39  0.000000D+00  0.000000D+00  0.000000D+00  0.000000D+00  0.000000D+00
     40  0.000000D+00  0.000000D+00  0.000000D+00  0.000000D+00  0.000000D+00
     41  0.000000D+00  0.000000D+00  0.000000D+00  0.000000D+00  0.000000D+00
     42  0.000000D+00  0.000000D+00  0.000000D+00  0.000000D+00  0.000000D+00
     43  0.000000D+00  0.000000D+00  0.000000D+00  0.000000D+00  0.000000D+00
     44  0.000000D+00  0.000000D+00  0.000000D+00  0.000000D+00  0.000000D+00
               21            22            23            24            25 
     21  0.100000D+01
     22  0.000000D+00  0.100000D+01
     23  0.000000D+00  0.000000D+00  0.100000D+01
     24  0.000000D+00  0.000000D+00  0.000000D+00  0.100000D+01
     25  0.000000D+00  0.000000D+00  0.000000D+00  0.000000D+00  0.100000D+01
     26  0.000000D+00  0.000000D+00  0.000000D+00  0.000000D+00  0.000000D+00
     27  0.000000D+00  0.000000D+00  0.000000D+00  0.000000D+00  0.000000D+00
     28  0.000000D+00  0.000000D+00 -0.540500D+00  0.000000D+00  0.000000D+00
     29  0.000000D+00  0.000000D+00  0.000000D+00 -0.540500D+00  0.000000D+00
     30  0.000000D+00  0.000000D+00  0.000000D+00  0.000000D+00 -0.540500D+00
     31  0.000000D+00  0.000000D+00  0.000000D+00  0.000000D+00  0.000000D+00
     32  0.000000D+00  0.000000D+00  0.000000D+00  0.000000D+00  0.000000D+00
     33  0.000000D+00  0.000000D+00  0.516004D+00  0.000000D+00  0.000000D+00
     34  0.000000D+00  0.000000D+00  0.000000D+00  0.516004D+00  0.000000D+00
     35  0.000000D+00  0.000000D+00  0.000000D+00  0.000000D+00  0.516004D+00
     36  0.000000D+00  0.000000D+00  0.000000D+00  0.000000D+00  0.000000D+00
     37  0.000000D+00  0.000000D+00  0.000000D+00  0.000000D+00  0.000000D+00
     38  0.000000D+00  0.000000D+00  0.000000D+00  0.000000D+00  0.000000D+00
     39  0.000000D+00  0.000000D+00  0.000000D+00  0.000000D+00  0.000000D+00
     40  0.000000D+00  0.000000D+00  0.000000D+00  0.000000D+00  0.000000D+00
     41  0.000000D+00  0.000000D+00  0.000000D+00  0.000000D+00  0.000000D+00
     42  0.000000D+00  0.000000D+00  0.000000D+00  0.000000D+00  0.000000D+00
     43  0.000000D+00  0.000000D+00  0.000000D+00  0.000000D+00  0.000000D+00
     44  0.000000D+00  0.000000D+00  0.000000D+00  0.000000D+00  0.000000D+00
               26            27            28            29            30 
     26  0.100000D+01
     27  0.000000D+00  0.100000D+01
     28  0.000000D+00  0.000000D+00  0.100000D+01
     29  0.000000D+00  0.000000D+00  0.000000D+00  0.100000D+01
     30  0.000000D+00  0.000000D+00  0.000000D+00  0.000000D+00  0.100000D+01
     31 -0.540500D+00  0.000000D+00  0.000000D+00  0.000000D+00  0.000000D+00
     32  0.000000D+00 -0.540500D+00  0.000000D+00  0.000000D+00  0.000000D+00
     33  0.000000D+00  0.000000D+00 -0.926197D-01  0.000000D+00  0.000000D+00
     34  0.000000D+00  0.000000D+00  0.000000D+00 -0.926197D-01  0.000000D+00
     35  0.000000D+00  0.000000D+00  0.000000D+00  0.000000D+00 -0.926197D-01
     36  0.516004D+00  0.000000D+00  0.000000D+00  0.000000D+00  0.000000D+00
     37  0.000000D+00  0.516004D+00  0.000000D+00  0.000000D+00  0.000000D+00
     38  0.000000D+00  0.000000D+00  0.000000D+00  0.000000D+00  0.000000D+00
     39  0.000000D+00  0.000000D+00  0.000000D+00  0.000000D+00  0.000000D+00
     40  0.000000D+00  0.000000D+00  0.000000D+00  0.000000D+00  0.000000D+00
     41  0.000000D+00  0.000000D+00  0.000000D+00  0.000000D+00  0.000000D+00
     42  0.000000D+00  0.000000D+00  0.000000D+00  0.000000D+00  0.000000D+00
     43  0.000000D+00  0.000000D+00  0.000000D+00  0.000000D+00  0.000000D+00
     44  0.000000D+00  0.000000D+00  0.000000D+00  0.000000D+00  0.000000D+00
               31            32            33            34            35 
     31  0.100000D+01
     32  0.000000D+00  0.100000D+01
     33  0.000000D+00  0.000000D+00  0.100000D+01
     34  0.000000D+00  0.000000D+00  0.000000D+00  0.100000D+01
     35  0.000000D+00  0.000000D+00  0.000000D+00  0.000000D+00  0.100000D+01
     36 -0.926197D-01  0.000000D+00  0.000000D+00  0.000000D+00  0.000000D+00
     37  0.000000D+00 -0.926197D-01  0.000000D+00  0.000000D+00  0.000000D+00
     38  0.000000D+00  0.000000D+00  0.000000D+00  0.000000D+00  0.000000D+00
     39  0.000000D+00  0.000000D+00  0.000000D+00  0.000000D+00  0.000000D+00
     40  0.000000D+00  0.000000D+00  0.000000D+00  0.000000D+00  0.000000D+00
     41  0.000000D+00  0.000000D+00  0.000000D+00  0.000000D+00  0.000000D+00
     42  0.000000D+00  0.000000D+00  0.000000D+00  0.000000D+00  0.000000D+00
     43  0.000000D+00  0.000000D+00  0.000000D+00  0.000000D+00  0.000000D+00
     44  0.000000D+00  0.000000D+00  0.000000D+00  0.000000D+00  0.000000D+00
               36            37            38            39            40 
     36  0.100000D+01
     37  0.000000D+00  0.100000D+01
     38  0.000000D+00  0.000000D+00  0.100000D+01
     39  0.000000D+00  0.000000D+00  0.000000D+00  0.100000D+01
     40  0.000000D+00  0.000000D+00  0.000000D+00  0.000000D+00  0.100000D+01
     41  0.000000D+00  0.000000D+00  0.000000D+00  0.000000D+00  0.000000D+00
     42  0.000000D+00  0.000000D+00  0.000000D+00  0.000000D+00  0.000000D+00
     43  0.000000D+00  0.000000D+00  0.000000D+00  0.000000D+00  0.000000D+00
     44  0.000000D+00  0.000000D+00  0.000000D+00  0.000000D+00  0.000000D+00
               41            42            43            44 
     41  0.100000D+01
     42  0.000000D+00  0.100000D+01
     43  0.000000D+00  0.000000D+00  0.100000D+01
     44  0.000000D+00  0.000000D+00  0.000000D+00  0.100000D+01
 *** Kinetic Energy *** 
                1             2             3             4             5 
      1  0.760032D+00
      2 -0.455012D-03  0.232583D+03
      3 -0.402443D-02 -0.128622D+02  0.115288D+02
      4 -0.376479D-01 -0.154895D+01 -0.820755D+00  0.179517D+01
      5  0.405052D-01 -0.285017D-01 -0.171041D+00 -0.215769D+00  0.125751D+00
      6  0.242410D-01 -0.104443D+00 -0.732067D+00  0.362044D+00  0.760212D-01
      7  0.169518D-01  0.478399D-03  0.379823D-02 -0.234796D-02  0.464183D-01
      8  0.000000D+00  0.000000D+00  0.000000D+00  0.000000D+00  0.000000D+00
      9  0.000000D+00  0.000000D+00  0.000000D+00  0.000000D+00  0.000000D+00
     10  0.105508D-02  0.000000D+00  0.000000D+00  0.000000D+00  0.000000D+00
     11  0.000000D+00  0.000000D+00  0.000000D+00  0.000000D+00  0.000000D+00
     12  0.000000D+00  0.000000D+00  0.000000D+00  0.000000D+00  0.000000D+00
     13  0.446739D-03  0.000000D+00  0.000000D+00  0.000000D+00  0.000000D+00
     14  0.000000D+00  0.000000D+00  0.000000D+00  0.000000D+00  0.000000D+00
     15  0.000000D+00  0.000000D+00  0.000000D+00  0.000000D+00  0.000000D+00
     16 -0.116140D+00  0.000000D+00  0.000000D+00  0.000000D+00  0.000000D+00
     17  0.000000D+00  0.000000D+00  0.000000D+00  0.000000D+00  0.000000D+00
     18  0.000000D+00  0.000000D+00  0.000000D+00  0.000000D+00  0.000000D+00
     19 -0.652845D-01  0.000000D+00  0.000000D+00  0.000000D+00  0.000000D+00
     20  0.000000D+00  0.000000D+00  0.000000D+00  0.000000D+00  0.000000D+00
     21  0.000000D+00  0.000000D+00  0.000000D+00  0.000000D+00  0.000000D+00
     22 -0.372118D-01  0.000000D+00  0.000000D+00  0.000000D+00  0.000000D+00
     23  0.191301D+00  0.000000D+00  0.000000D+00  0.000000D+00  0.000000D+00
     24  0.000000D+00  0.000000D+00  0.000000D+00  0.000000D+00  0.000000D+00
     25  0.000000D+00  0.000000D+00  0.000000D+00  0.000000D+00  0.000000D+00
     26  0.000000D+00  0.000000D+00  0.000000D+00  0.000000D+00  0.000000D+00
     27  0.000000D+00  0.000000D+00  0.000000D+00  0.000000D+00  0.000000D+00
     28 -0.236861D-01  0.000000D+00  0.000000D+00  0.000000D+00  0.000000D+00
     29  0.000000D+00  0.000000D+00  0.000000D+00  0.000000D+00  0.000000D+00
     30  0.000000D+00  0.000000D+00  0.000000D+00  0.000000D+00  0.000000D+00
     31  0.000000D+00  0.000000D+00  0.000000D+00  0.000000D+00  0.000000D+00
     32  0.000000D+00  0.000000D+00  0.000000D+00  0.000000D+00  0.000000D+00
     33  0.864043D-01  0.000000D+00  0.000000D+00  0.000000D+00  0.000000D+00
     34  0.000000D+00  0.000000D+00  0.000000D+00  0.000000D+00  0.000000D+00
     35  0.000000D+00  0.000000D+00  0.000000D+00  0.000000D+00  0.000000D+00
     36  0.000000D+00  0.000000D+00  0.000000D+00  0.000000D+00  0.000000D+00
     37  0.000000D+00  0.000000D+00  0.000000D+00  0.000000D+00  0.000000D+00
     38 -0.216421D+00  0.000000D+00  0.000000D+00  0.000000D+00  0.000000D+00
     39  0.000000D+00  0.000000D+00  0.000000D+00  0.000000D+00  0.000000D+00
     40  0.000000D+00  0.000000D+00  0.000000D+00  0.000000D+00  0.000000D+00
     41  0.000000D+00  0.000000D+00  0.000000D+00  0.000000D+00  0.000000D+00
     42  0.000000D+00  0.000000D+00  0.000000D+00  0.000000D+00  0.000000D+00
     43  0.000000D+00  0.000000D+00  0.000000D+00  0.000000D+00  0.000000D+00
     44  0.000000D+00  0.000000D+00  0.000000D+00  0.000000D+00  0.000000D+00
                6             7             8             9            10 
      6  0.256601D+00
      7  0.417924D-01  0.381975D-01
      8  0.000000D+00  0.000000D+00  0.395927D+02
      9  0.000000D+00  0.000000D+00  0.000000D+00  0.395927D+02
     10  0.000000D+00  0.000000D+00  0.000000D+00  0.000000D+00  0.395927D+02
     11  0.000000D+00  0.000000D+00  0.114763D+01  0.000000D+00  0.000000D+00
     12  0.000000D+00  0.000000D+00  0.000000D+00  0.114763D+01  0.000000D+00
     13  0.000000D+00  0.000000D+00  0.000000D+00  0.000000D+00  0.114763D+01
     14  0.000000D+00  0.000000D+00 -0.629779D-01  0.000000D+00  0.000000D+00
     15  0.000000D+00  0.000000D+00  0.000000D+00 -0.629779D-01  0.000000D+00
     16  0.000000D+00  0.000000D+00  0.000000D+00  0.000000D+00 -0.629779D-01
     17  0.000000D+00  0.000000D+00  0.118366D+01  0.000000D+00  0.000000D+00
     18  0.000000D+00  0.000000D+00  0.000000D+00  0.118366D+01  0.000000D+00
     19  0.000000D+00  0.000000D+00  0.000000D+00  0.000000D+00  0.118366D+01
     20  0.000000D+00  0.000000D+00  0.731911D-03  0.000000D+00  0.000000D+00
     21  0.000000D+00  0.000000D+00  0.000000D+00  0.731911D-03  0.000000D+00
     22  0.000000D+00  0.000000D+00  0.000000D+00  0.000000D+00  0.731911D-03
     23  0.000000D+00  0.000000D+00  0.000000D+00  0.000000D+00  0.000000D+00
     24  0.000000D+00  0.000000D+00  0.000000D+00  0.000000D+00  0.000000D+00
     25  0.000000D+00  0.000000D+00  0.000000D+00  0.000000D+00  0.000000D+00
     26  0.000000D+00  0.000000D+00  0.000000D+00  0.000000D+00  0.000000D+00
     27  0.000000D+00  0.000000D+00  0.000000D+00  0.000000D+00  0.000000D+00
     28  0.000000D+00  0.000000D+00  0.000000D+00  0.000000D+00  0.000000D+00
     29  0.000000D+00  0.000000D+00  0.000000D+00  0.000000D+00  0.000000D+00
     30  0.000000D+00  0.000000D+00  0.000000D+00  0.000000D+00  0.000000D+00
     31  0.000000D+00  0.000000D+00  0.000000D+00  0.000000D+00  0.000000D+00
     32  0.000000D+00  0.000000D+00  0.000000D+00  0.000000D+00  0.000000D+00
     33  0.000000D+00  0.000000D+00  0.000000D+00  0.000000D+00  0.000000D+00
     34  0.000000D+00  0.000000D+00  0.000000D+00  0.000000D+00  0.000000D+00
     35  0.000000D+00  0.000000D+00  0.000000D+00  0.000000D+00  0.000000D+00
     36  0.000000D+00  0.000000D+00  0.000000D+00  0.000000D+00  0.000000D+00
     37  0.000000D+00  0.000000D+00  0.000000D+00  0.000000D+00  0.000000D+00
     38  0.000000D+00  0.000000D+00  0.000000D+00  0.000000D+00  0.000000D+00
     39  0.000000D+00  0.000000D+00  0.000000D+00  0.000000D+00  0.000000D+00
     40  0.000000D+00  0.000000D+00  0.000000D+00  0.000000D+00  0.000000D+00
     41  0.000000D+00  0.000000D+00  0.000000D+00  0.000000D+00  0.000000D+00
     42  0.000000D+00  0.000000D+00  0.000000D+00  0.000000D+00  0.000000D+00
     43  0.000000D+00  0.000000D+00  0.000000D+00  0.000000D+00  0.000000D+00
     44  0.000000D+00  0.000000D+00  0.000000D+00  0.000000D+00  0.000000D+00
               11            12            13            14            15 
     11  0.260289D+01
     12  0.000000D+00  0.260289D+01
     13  0.000000D+00  0.000000D+00  0.260289D+01
     14  0.536747D-01  0.000000D+00  0.000000D+00  0.237446D+00
     15  0.000000D+00  0.536747D-01  0.000000D+00  0.000000D+00  0.237446D+00
     16  0.000000D+00  0.000000D+00  0.536747D-01  0.000000D+00  0.000000D+00
     17  0.203947D+01  0.000000D+00  0.000000D+00  0.159802D+00  0.000000D+00
     18  0.000000D+00  0.203947D+01  0.000000D+00  0.000000D+00  0.159802D+00
     19  0.000000D+00  0.000000D+00  0.203947D+01  0.000000D+00  0.000000D+00
     20  0.140941D-01  0.000000D+00  0.000000D+00  0.758826D-01  0.000000D+00
     21  0.000000D+00  0.140941D-01  0.000000D+00  0.000000D+00  0.758826D-01
     22  0.000000D+00  0.000000D+00  0.140941D-01  0.000000D+00  0.000000D+00
     23  0.000000D+00  0.000000D+00  0.000000D+00  0.000000D+00  0.000000D+00
     24  0.000000D+00  0.000000D+00  0.000000D+00  0.000000D+00  0.000000D+00
     25  0.000000D+00  0.000000D+00  0.000000D+00  0.000000D+00  0.000000D+00
     26  0.000000D+00  0.000000D+00  0.000000D+00  0.000000D+00  0.000000D+00
     27  0.000000D+00  0.000000D+00  0.000000D+00  0.000000D+00  0.000000D+00
     28  0.000000D+00  0.000000D+00  0.000000D+00  0.000000D+00  0.000000D+00
     29  0.000000D+00  0.000000D+00  0.000000D+00  0.000000D+00  0.000000D+00
     30  0.000000D+00  0.000000D+00  0.000000D+00  0.000000D+00  0.000000D+00
     31  0.000000D+00  0.000000D+00  0.000000D+00  0.000000D+00  0.000000D+00
     32  0.000000D+00  0.000000D+00  0.000000D+00  0.000000D+00  0.000000D+00
     33  0.000000D+00  0.000000D+00  0.000000D+00  0.000000D+00  0.000000D+00
     34  0.000000D+00  0.000000D+00  0.000000D+00  0.000000D+00  0.000000D+00
     35  0.000000D+00  0.000000D+00  0.000000D+00  0.000000D+00  0.000000D+00
     36  0.000000D+00  0.000000D+00  0.000000D+00  0.000000D+00  0.000000D+00
     37  0.000000D+00  0.000000D+00  0.000000D+00  0.000000D+00  0.000000D+00
     38  0.000000D+00  0.000000D+00  0.000000D+00  0.000000D+00  0.000000D+00
     39  0.000000D+00  0.000000D+00  0.000000D+00  0.000000D+00  0.000000D+00
     40  0.000000D+00  0.000000D+00  0.000000D+00  0.000000D+00  0.000000D+00
     41  0.000000D+00  0.000000D+00  0.000000D+00  0.000000D+00  0.000000D+00
     42  0.000000D+00  0.000000D+00  0.000000D+00  0.000000D+00  0.000000D+00
     43  0.000000D+00  0.000000D+00  0.000000D+00  0.000000D+00  0.000000D+00
     44  0.000000D+00  0.000000D+00  0.000000D+00  0.000000D+00  0.000000D+00
               16            17            18            19            20 
     16  0.237446D+00
     17  0.000000D+00  0.167591D+01
     18  0.000000D+00  0.000000D+00  0.167591D+01
     19  0.159802D+00  0.000000D+00  0.000000D+00  0.167591D+01
     20  0.000000D+00  0.366117D-01  0.000000D+00  0.000000D+00  0.735025D-01
     21  0.000000D+00  0.000000D+00  0.366117D-01  0.000000D+00  0.000000D+00
     22  0.758826D-01  0.000000D+00  0.000000D+00  0.366117D-01  0.000000D+00
     23  0.000000D+00  0.000000D+00  0.000000D+00  0.000000D+00  0.000000D+00
     24  0.000000D+00  0.000000D+00  0.000000D+00  0.000000D+00  0.000000D+00
     25  0.000000D+00  0.000000D+00  0.000000D+00  0.000000D+00  0.000000D+00
     26  0.000000D+00  0.000000D+00  0.000000D+00  0.000000D+00  0.000000D+00
     27  0.000000D+00  0.000000D+00  0.000000D+00  0.000000D+00  0.000000D+00
     28  0.000000D+00  0.000000D+00  0.000000D+00  0.000000D+00  0.000000D+00
     29  0.000000D+00  0.000000D+00  0.000000D+00  0.000000D+00  0.000000D+00
     30  0.000000D+00  0.000000D+00  0.000000D+00  0.000000D+00  0.000000D+00
     31  0.000000D+00  0.000000D+00  0.000000D+00  0.000000D+00  0.000000D+00
     32  0.000000D+00  0.000000D+00  0.000000D+00  0.000000D+00  0.000000D+00
     33  0.000000D+00  0.000000D+00  0.000000D+00  0.000000D+00  0.000000D+00
     34  0.000000D+00  0.000000D+00  0.000000D+00  0.000000D+00  0.000000D+00
     35  0.000000D+00  0.000000D+00  0.000000D+00  0.000000D+00  0.000000D+00
     36  0.000000D+00  0.000000D+00  0.000000D+00  0.000000D+00  0.000000D+00
     37  0.000000D+00  0.000000D+00  0.000000D+00  0.000000D+00  0.000000D+00
     38  0.000000D+00  0.000000D+00  0.000000D+00  0.000000D+00  0.000000D+00
     39  0.000000D+00  0.000000D+00  0.000000D+00  0.000000D+00  0.000000D+00
     40  0.000000D+00  0.000000D+00  0.000000D+00  0.000000D+00  0.000000D+00
     41  0.000000D+00  0.000000D+00  0.000000D+00  0.000000D+00  0.000000D+00
     42  0.000000D+00  0.000000D+00  0.000000D+00  0.000000D+00  0.000000D+00
     43  0.000000D+00  0.000000D+00  0.000000D+00  0.000000D+00  0.000000D+00
     44  0.000000D+00  0.000000D+00  0.000000D+00  0.000000D+00  0.000000D+00
               21            22            23            24            25 
     21  0.735025D-01
     22  0.000000D+00  0.735025D-01
     23  0.000000D+00  0.000000D+00  0.748962D+00
     24  0.000000D+00  0.000000D+00  0.000000D+00  0.748962D+00
     25  0.000000D+00  0.000000D+00  0.000000D+00  0.000000D+00  0.748962D+00
     26  0.000000D+00  0.000000D+00  0.000000D+00  0.000000D+00  0.000000D+00
     27  0.000000D+00  0.000000D+00  0.000000D+00  0.000000D+00  0.000000D+00
     28  0.000000D+00  0.000000D+00 -0.801358D+00  0.000000D+00  0.000000D+00
     29  0.000000D+00  0.000000D+00  0.000000D+00 -0.801358D+00  0.000000D+00
     30  0.000000D+00  0.000000D+00  0.000000D+00  0.000000D+00 -0.801358D+00
     31  0.000000D+00  0.000000D+00  0.000000D+00  0.000000D+00  0.000000D+00
     32  0.000000D+00  0.000000D+00  0.000000D+00  0.000000D+00  0.000000D+00
     33  0.000000D+00  0.000000D+00  0.143749D+00  0.000000D+00  0.000000D+00
     34  0.000000D+00  0.000000D+00  0.000000D+00  0.143749D+00  0.000000D+00
     35  0.000000D+00  0.000000D+00  0.000000D+00  0.000000D+00  0.143749D+00
     36  0.000000D+00  0.000000D+00  0.000000D+00  0.000000D+00  0.000000D+00
     37  0.000000D+00  0.000000D+00  0.000000D+00  0.000000D+00  0.000000D+00
     38  0.000000D+00  0.000000D+00  0.000000D+00  0.000000D+00  0.000000D+00
     39  0.000000D+00  0.000000D+00  0.000000D+00  0.000000D+00  0.000000D+00
[...]
 Largest core mixing into a valence orbital is  4.34D-04
 Range of M.O.s used for correlation:    10    44
 NBasis=    44 NAE=    13 NBE=    10 NFC=     9 NFV=     0
 NROrb=     35 NOA=     4 NOB=     1 NVA=    31 NVB=    34
 Leave Link  801 at Thu Mar 24 16:00:30 2022, MaxMem=  9663676416 cpu:               2.3 elap:               0.1
 (Enter /nopt/nrel/apps/gaussian/g16C_1/g16/l804.exe)
 Open-shell transformation, MDV=  9663676416 ITran=4 ISComp=2.
 Unit  1 TFree=        123349 TCopy=        149208.
 Semi-Direct transformation.
 ModeAB=           2 MOrb=             4 LenV=    9663292016
 LASXX=        19543 LTotXX=       19543 LenRXX=       19543
 LTotAB=       21974 MaxLAS=      178500 LenRXY=      178500
 NonZer=      193200 LenScr=      785920 LnRSAI=           0
 LnScr1=           0 LExtra=      259875 Total=      1243838
 MaxDsk= 34359738368 SrtSym=           F ITran=            4
 DoSDTr:  NPSUse= 36
 JobTyp=1 Pass  1:  I=   1 to   4.
 (rs|ai) integrals will be sorted in core.
 Complete sort for first half transformation.
 First half transformation complete.
 Complete sort for second half transformation.
 Second half transformation complete.
 ModeAB=           2 MOrb=             1 LenV=    9663292016
 LASXX=         5266 LTotXX=        5266 LenRXX=       44625
 LTotAB=        4663 MaxLAS=       44625 LenRXY=        4663
 NonZer=       48300 LenScr=      785920 LnRSAI=           0
 LnScr1=           0 LExtra=      457918 Total=      1293126
 MaxDsk= 34359738368 SrtSym=           F ITran=            4
 DoSDTr:  NPSUse= 36
 JobTyp=2 Pass  1:  I=   1 to   1.
 (rs|ai) integrals will be sorted in core.
 Complete sort for first half transformation.
 First half transformation complete.
 Complete sort for second half transformation.
 Second half transformation complete.
 Spin components of T(2) and E(2):
     alpha-alpha T2 =       0.7311176236D-02 E2=     -0.1365893608D-01
     alpha-beta  T2 =       0.1210326257D-01 E2=     -0.1997935028D-01
     beta-beta   T2 =       0.0000000000D+00 E2=      0.0000000000D+00
 ANorm=    0.1009660556D+01
 E2 =    -0.3363828636D-01 EUMP2 =    -0.84898388744562D+03
 (S**2,0)=  0.37555D+01           (S**2,1)=  0.37539D+01
 E(PUHF)=      -0.84895040846D+03        E(PMP2)=      -0.84898402330D+03
 Leave Link  804 at Thu Mar 24 16:00:31 2022, MaxMem=  9663676416 cpu:              34.7 elap:               1.0
 (Enter /nopt/nrel/apps/gaussian/g16C_1/g16/l913.exe)
 CIDS:  MDV=  9663676416.
 Frozen-core window:  NFC=   9 NFV=   0.
 IFCWin=0 IBDFC=1 NFBD=     0     0 NFCmp=     0     0 NFFFC=     0     0
 Using original routines for 1st iteration.
 Using DD4UQ or CC4UQ for 2nd and later iterations.
 Keep R2 and R3 ints in memory in symmetry-blocked form, NReq=27569894.
 FoFCou: FMM=F IPFlag=           0 FMFlag=           0 FMFlg1=           0
         NFxFlg=           0 DoJE=F BraDBF=F KetDBF=F FulRan=T
         wScrn=  0.000000 ICntrl=       600 IOpCl=  0 I1Cent=           0 NGrid=           0
         NMat0=    1 NMatS0=    990 NMatT0=    0 NMatD0=    1 NMtDS0=    0 NMtDT0=    0
 Petite list used in FoFCou.
 CIDS: In Core Option IDoMem=           1.
 Coupled Cluster theory with single and double substitutions
 ===========================================================
 Iterations=  50 Convergence= 0.100D-06
 Produce multiple copies of IABC intergrals
 Iteration Nr.   1
 **********************
 DD1Dir will call FoFMem   1 times, MxPair=        14
 NAB=     4 NAA=     6 NBB=     0.
 E(PMP3)=      -0.84899276910D+03
 MP4(R+Q)=  0.42011274D-03
 Maximum subspace dimension=  5
 A-vector RMS=  7.4115009D-03 Max=  1.4337598D-02 conv= 1.00D-05.
 RLE energy=       -0.0447357795
 E3=       -0.87636107D-02        EUMP3=      -0.84899265106D+03
 E4(DQ)=   -0.25651241D-02        UMP4(DQ)=   -0.84899521618D+03
 E4(SDQ)=  -0.33253623D-02        UMP4(SDQ)=  -0.84899597642D+03
 VARIATIONAL ENERGIES WITH THE FIRST-ORDER WAVEFUNCTION:
 DE(Corr)= -0.41982852E-01 E(Corr)=     -848.99223201    
 NORM(A)=   0.10191825D+01
 Iteration Nr.   2
 **********************
 DD1Dir will call FoFMem   1 times, MxPair=        14
 NAB=     4 NAA=     6 NBB=     0.
 A-vector RMS=  4.0041416D-03 Max=  1.1156299D-02 conv= 1.00D-05.
 RLE energy=       -0.0487406236
 DE(Corr)= -0.46411359E-01 E(CORR)=     -848.99666052     Delta=-4.43D-03
 NORM(A)=   0.10276548D+01
 Iteration Nr.   3
 **********************
 DD1Dir will call FoFMem   1 times, MxPair=        14
 NAB=     4 NAA=     6 NBB=     0.
 A-vector RMS=  2.5284226D-03 Max=  9.4764670D-03 conv= 1.00D-05.
 RLE energy=       -0.0512849632
 DE(Corr)= -0.48805424E-01 E(CORR)=     -848.99905458     Delta=-2.39D-03
 NORM(A)=   0.10424959D+01
 Iteration Nr.   4
 **********************
 DD1Dir will call FoFMem   1 times, MxPair=        14
 NAB=     4 NAA=     6 NBB=     0.
 A-vector RMS=  1.6447513D-03 Max=  7.3252473D-03 conv= 1.00D-05.
 RLE energy=       -0.0534798666
 DE(Corr)= -0.51339673E-01 E(CORR)=     -849.00158883     Delta=-2.53D-03
 NORM(A)=   0.10642753D+01
 Iteration Nr.   5
 **********************
 DD1Dir will call FoFMem   1 times, MxPair=        14
 NAB=     4 NAA=     6 NBB=     0.
 A-vector RMS=  1.5855791D-03 Max=  5.4227128D-03 conv= 1.00D-05.
 RLE energy=       -0.0543494405
 DE(Corr)= -0.53379211E-01 E(CORR)=     -849.00362837     Delta=-2.04D-03
 NORM(A)=   0.10811590D+01
 Iteration Nr.   6
 **********************
 DD1Dir will call FoFMem   1 times, MxPair=        14
 NAB=     4 NAA=     6 NBB=     0.
 A-vector RMS=  1.3737443D-03 Max=  5.3060341D-03 conv= 1.00D-05.
 RLE energy=       -0.0553409540
 DE(Corr)= -0.54430034E-01 E(CORR)=     -849.00467919     Delta=-1.05D-03
 NORM(A)=   0.10957180D+01
 Iteration Nr.   7
 **********************
 DD1Dir will call FoFMem   1 times, MxPair=        14
 NAB=     4 NAA=     6 NBB=     0.
 A-vector RMS=  1.0243680D-03 Max=  5.9351272D-03 conv= 1.00D-05.
 RLE energy=       -0.0556263958
 DE(Corr)= -0.55296441E-01 E(CORR)=     -849.00554560     Delta=-8.66D-04
 NORM(A)=   0.11008812D+01
 Iteration Nr.   8
 **********************
 DD1Dir will call FoFMem   1 times, MxPair=        14
 NAB=     4 NAA=     6 NBB=     0.
 A-vector RMS=  8.1082825D-04 Max=  3.7389692D-03 conv= 1.00D-05.
 RLE energy=       -0.0558274948
 DE(Corr)= -0.55603228E-01 E(CORR)=     -849.00585239     Delta=-3.07D-04
 NORM(A)=   0.11046692D+01
 Iteration Nr.   9
 **********************
 DD1Dir will call FoFMem   1 times, MxPair=        14
 NAB=     4 NAA=     6 NBB=     0.
 A-vector RMS=  5.3537220D-04 Max=  1.7336276D-03 conv= 1.00D-05.
 RLE energy=       -0.0558695956
 DE(Corr)= -0.55812940E-01 E(CORR)=     -849.00606210     Delta=-2.10D-04
 NORM(A)=   0.11063094D+01
 Iteration Nr.  10
 **********************
 DD1Dir will call FoFMem   1 times, MxPair=        14
 NAB=     4 NAA=     6 NBB=     0.
 A-vector RMS=  2.4642836D-04 Max=  8.9181353D-04 conv= 1.00D-05.
 RLE energy=       -0.0558827987
 DE(Corr)= -0.55889227E-01 E(CORR)=     -849.00613839     Delta=-7.63D-05
 NORM(A)=   0.11066541D+01
 Iteration Nr.  11
 **********************
 DD1Dir will call FoFMem   1 times, MxPair=        14
 NAB=     4 NAA=     6 NBB=     0.
 A-vector RMS=  1.2474102D-04 Max=  3.5950407D-04 conv= 1.00D-05.
 RLE energy=       -0.0558629537
 DE(Corr)= -0.55897681E-01 E(CORR)=     -849.00614684     Delta=-8.45D-06
 NORM(A)=   0.11064688D+01
 Iteration Nr.  12
 **********************
 DD1Dir will call FoFMem   1 times, MxPair=        14
 NAB=     4 NAA=     6 NBB=     0.
 A-vector RMS=  7.0132048D-05 Max=  1.9365422D-04 conv= 1.00D-05.
 RLE energy=       -0.0558427379
 DE(Corr)= -0.55875291E-01 E(CORR)=     -849.00612445     Delta= 2.24D-05
 NORM(A)=   0.11061563D+01
 Iteration Nr.  13
 **********************
 DD1Dir will call FoFMem   1 times, MxPair=        14
 NAB=     4 NAA=     6 NBB=     0.
 A-vector RMS=  5.2978383D-05 Max=  1.2988444D-04 conv= 1.00D-05.
 RLE energy=       -0.0558290548
 DE(Corr)= -0.55853259E-01 E(CORR)=     -849.00610242     Delta= 2.20D-05
 NORM(A)=   0.11058470D+01
 Iteration Nr.  14
 **********************
 DD1Dir will call FoFMem   1 times, MxPair=        14
 NAB=     4 NAA=     6 NBB=     0.
 A-vector RMS=  3.7990462D-05 Max=  7.4391708D-05 conv= 1.00D-05.
 RLE energy=       -0.0558231872
 DE(Corr)= -0.55836392E-01 E(CORR)=     -849.00608555     Delta= 1.69D-05
 NORM(A)=   0.11056437D+01
 Iteration Nr.  15
 **********************
 DD1Dir will call FoFMem   1 times, MxPair=        14
 NAB=     4 NAA=     6 NBB=     0.
 A-vector RMS=  2.8220295D-05 Max=  9.1143208D-05 conv= 1.00D-05.
 RLE energy=       -0.0558234125
 DE(Corr)= -0.55829550E-01 E(CORR)=     -849.00607871     Delta= 6.84D-06
 NORM(A)=   0.11055110D+01
 Iteration Nr.  16
 **********************
 DD1Dir will call FoFMem   1 times, MxPair=        14
 NAB=     4 NAA=     6 NBB=     0.
 A-vector RMS=  1.8252038D-05 Max=  9.8373810D-05 conv= 1.00D-05.
 RLE energy=       -0.0558186351
 DE(Corr)= -0.55826652E-01 E(CORR)=     -849.00607581     Delta= 2.90D-06
 NORM(A)=   0.11053730D+01
 Iteration Nr.  17
 **********************
 DD1Dir will call FoFMem   1 times, MxPair=        14
 NAB=     4 NAA=     6 NBB=     0.
 A-vector RMS=  1.3491433D-05 Max=  7.1718719D-05 conv= 1.00D-05.
 RLE energy=       -0.0558158900
 DE(Corr)= -0.55821236E-01 E(CORR)=     -849.00607040     Delta= 5.42D-06
 NORM(A)=   0.11052871D+01
 Iteration Nr.  18
 **********************
 DD1Dir will call FoFMem   1 times, MxPair=        14
 NAB=     4 NAA=     6 NBB=     0.
 A-vector RMS=  1.0557148D-05 Max=  5.0435869D-05 conv= 1.00D-05.
 RLE energy=       -0.0558122116
 DE(Corr)= -0.55817084E-01 E(CORR)=     -849.00606624     Delta= 4.15D-06
 NORM(A)=   0.11052065D+01
 Iteration Nr.  19
 **********************
 DD1Dir will call FoFMem   1 times, MxPair=        14
 NAB=     4 NAA=     6 NBB=     0.
 A-vector RMS=  6.3791288D-06 Max=  2.7840049D-05 conv= 1.00D-05.
 RLE energy=       -0.0558122026
 DE(Corr)= -0.55813269E-01 E(CORR)=     -849.00606243     Delta= 3.82D-06
 NORM(A)=   0.11051736D+01
 Iteration Nr.  20
 **********************
 DD1Dir will call FoFMem   1 times, MxPair=        14
 NAB=     4 NAA=     6 NBB=     0.
 A-vector RMS=  3.9664278D-06 Max=  1.2644127D-05 conv= 1.00D-05.
 RLE energy=       -0.0558121656
 DE(Corr)= -0.55812347E-01 E(CORR)=     -849.00606151     Delta= 9.22D-07
 NORM(A)=   0.11051632D+01
 Iteration Nr.  21
 **********************
 DD1Dir will call FoFMem   1 times, MxPair=        14
 NAB=     4 NAA=     6 NBB=     0.
 A-vector RMS=  2.4965806D-06 Max=  9.0110251D-06 conv= 1.00D-05.
 RLE energy=       -0.0558124969
 DE(Corr)= -0.55812300E-01 E(CORR)=     -849.00606146     Delta= 4.62D-08
 NORM(A)=   0.11051561D+01
 CI/CC converged in   21 iterations to DelEn= 4.62D-08 Conv= 1.00D-07 ErrA1= 2.50D-06 Conv= 1.00D-05
 Wavefunction amplitudes converged. E(Corr)=     -849.00606146    
 Dominant configurations:
 ***********************
 Spin Case        I    J    A    B          Value
   AAAA          10   11   18   17      -0.218047D+00
   AAAA          10   11   18   25       0.182295D+00
   AAAA          10   11   26   17       0.182295D+00
   AAAA          10   11   26   25      -0.146304D+00
 Largest amplitude= 2.18D-01

 S**2, projected HF & approx projected MPn energies after annihilation of
 unwanted spin states (see manual for definitions):

 spins       (S**2,0) (S**2,1)    PUHF        PMP2        PMP3        PMP4
 annihilated
 s+1         3.75005  3.75005 -848.950408 -848.984023 -848.992769

 Discarding MO integrals.
 Leave Link  913 at Thu Mar 24 16:00:32 2022, MaxMem=  9663676416 cpu:              57.2 elap:               1.6
 (Enter /nopt/nrel/apps/gaussian/g16C_1/g16/l601.exe)
 Copying SCF densities to generalized density rwf, IOpCl= 1 IROHF=0.

 **********************************************************************

            Population analysis using the SCF Density.

 **********************************************************************

 Orbital symmetries:
 Alpha Orbitals:
       Occupied  (SG) (SG) (PI) (PI) (SG) (SG) (SG) (PI) (PI) (PI)
                 (PI) (SG) (SG)
       Virtual   (PI) (PI) (SG) (DLTA) (DLTA) (SG) (PI) (PI) (SG)
                 (PI) (PI) (DLTA) (DLTA) (SG) (SG) (SG) (PI) (PI)
                 (DLTA) (DLTA) (PI) (PI) (SG) (SG) (DLTA) (DLTA)
                 (PI) (PI) (PHI) (PHI) (SG)
 Beta  Orbitals:
       Occupied  (SG) (SG) (PI) (PI) (SG) (SG) (PI) (PI) (SG) (SG)
       Virtual   (SG) (PI) (PI) (SG) (DLTA) (DLTA) (SG) (PI) (PI)
                 (SG) (PI) (PI) (DLTA) (DLTA) (SG) (PI) (PI) (SG)
                 (SG) (DLTA) (DLTA) (PI) (PI) (PI) (PI) (SG) (SG)
                 (PHI) (PHI) (PI) (PI) (DLTA) (DLTA) (SG)
 The electronic state is 4-SG.
 Alpha  occ. eigenvalues -- -183.27376 -21.43713 -17.80696 -17.80696 -17.80507
 Alpha  occ. eigenvalues --   -2.92763  -1.89318  -1.85272  -1.85272  -0.41592
 Alpha  occ. eigenvalues --   -0.41592  -0.38565  -0.23155
 Alpha virt. eigenvalues --    0.01703   0.01703   0.05752   0.08991   0.08991
 Alpha virt. eigenvalues --    0.09194   0.15529   0.15529   0.16065   0.18676
 Alpha virt. eigenvalues --    0.18676   0.20235   0.20235   0.22193   0.56042
 Alpha virt. eigenvalues --    0.66507   0.78006   0.78006   0.86718   0.86718
 Alpha virt. eigenvalues --    0.96103   0.96103   0.96560   0.99543   1.20046
 Alpha virt. eigenvalues --    1.20046   1.21313   1.21313   1.22921   1.22921
 Alpha virt. eigenvalues --    1.62704
  Beta  occ. eigenvalues -- -183.27168 -21.40228 -17.77992 -17.77992 -17.75687
  Beta  occ. eigenvalues --   -2.79748  -1.73209  -1.73209  -1.66111  -0.34927
  Beta virt. eigenvalues --    0.01777   0.04463   0.04463   0.08280   0.12064
  Beta virt. eigenvalues --    0.12064   0.12726   0.13785   0.13785   0.20276
  Beta virt. eigenvalues --    0.22510   0.22510   0.23419   0.23419   0.25546
  Beta virt. eigenvalues --    0.28125   0.28125   0.60153   0.71010   0.90191
  Beta virt. eigenvalues --    0.90191   0.94385   0.94385   0.97349   0.97349
  Beta virt. eigenvalues --    0.98608   1.03799   1.25413   1.25413   1.29121
  Beta virt. eigenvalues --    1.29121   1.29595   1.29595   1.67458
          Condensed to atoms (all electrons):
               1          2
     1  H    0.524017   0.401400
     2  Ti   0.401400  21.673183
          Atomic-Atomic Spin Densities.
               1          2
     1  H    0.027839   0.004935
     2  Ti   0.004935   2.962290
 Mulliken charges and spin densities:
               1          2
     1  H    0.074583   0.032774
     2  Ti  -0.074583   2.967226
 Sum of Mulliken charges =   0.00000   3.00000
 Mulliken charges and spin densities with hydrogens summed into heavy atoms:
               1          2
     2  Ti   0.000000   3.000000
 N-N= 6.523168398185D+00 E-N=-2.025421145246D+03  KE= 8.488421906519D+02
 Symmetry A1   KE= 6.561209241810D+02
 Symmetry A2   KE=-2.720685499741D-50
 Symmetry B1   KE= 9.636063323543D+01
 Symmetry B2   KE= 9.636063323543D+01
 Symmetry A1   SP= 1.000000000000D+00
 Symmetry A2   SP=-1.745819327751D-51
 Symmetry B1   SP= 1.000000000000D+00
 Symmetry B2   SP= 1.000000000000D+00

 Atomic contributions to Alpha molecular orbitals:
 Alpha occ 1 OE=-183.274 is Ti2-s=1.0000
 Alpha occ 2 OE=-21.437 is Ti2-s=1.0000
 Alpha occ 3 OE=-17.807 is Ti2-p=1.0000
 Alpha occ 4 OE=-17.807 is Ti2-p=1.0000
 Alpha occ 5 OE=-17.805 is Ti2-p=1.0000
 Alpha occ 6 OE=-2.928 is Ti2-s=0.9997
 Alpha occ 7 OE=-1.893 is Ti2-p=0.9961
 Alpha occ 8 OE=-1.853 is Ti2-p=0.9998
 Alpha occ 9 OE=-1.853 is Ti2-p=0.9998
 Alpha occ 10 OE=-0.416 is Ti2-d=0.9964
 Alpha occ 11 OE=-0.416 is Ti2-d=0.9964
 Alpha occ 12 OE=-0.386 is H1-s=0.4371 Ti2-s=0.3123 Ti2-p=0.1248 Ti2-d=0.1205
 Alpha occ 13 OE=-0.232 is Ti2-s=0.5621 Ti2-p=0.3478
 Alpha vir 14 OE=0.017 is Ti2-p=0.9866
 Alpha vir 15 OE=0.017 is Ti2-p=0.9866
 Alpha vir 16 OE=0.058 is Ti2-p=0.4963 Ti2-d=0.4247
 Alpha vir 17 OE=0.090 is Ti2-d=0.9999
 Alpha vir 18 OE=0.090 is Ti2-d=0.9999
 Alpha vir 19 OE=0.092 is Ti2-s=0.9525
 Alpha vir 20 OE=0.155 is Ti2-d=0.9715
 Alpha vir 21 OE=0.155 is Ti2-d=0.9715
 Alpha vir 22 OE=0.161 is Ti2-p=0.6667 Ti2-d=0.3147
 Alpha vir 23 OE=0.187 is Ti2-p=0.9808
 Alpha vir 24 OE=0.187 is Ti2-p=0.9808
 Alpha vir 25 OE=0.202 is Ti2-d=1.0000
 Alpha vir 26 OE=0.202 is Ti2-d=1.0000
 Alpha vir 27 OE=0.222 is Ti2-d=0.9326
 Alpha vir 28 OE=0.560 is H1-s=0.3387 Ti2-d=0.2924 Ti2-p=0.2163
 Alpha vir 29 OE=0.665 is Ti2-s=0.9986
 Alpha vir 30 OE=0.780 is Ti2-d=0.9982
 Alpha vir 31 OE=0.780 is Ti2-d=0.9982
 Alpha vir 32 OE=0.867 is Ti2-d=0.9990
 Alpha vir 33 OE=0.867 is Ti2-d=0.9990
 Alpha vir 34 OE=0.961 is Ti2-p=0.9986
 Alpha vir 35 OE=0.961 is Ti2-p=0.9986
 Alpha vir 36 OE=0.966 is Ti2-p=0.8760 Ti2-d=0.1053
 Alpha vir 37 OE=0.995 is Ti2-d=0.6163 Ti2-f=0.2043 Ti2-p=0.1371
 Alpha vir 38 OE=1.200 is Ti2-f=0.9988
 Alpha vir 39 OE=1.200 is Ti2-f=0.9988
 Alpha vir 40 OE=1.213 is Ti2-f=0.9997
 Alpha vir 41 OE=1.213 is Ti2-f=0.9997
 Alpha vir 42 OE=1.229 is Ti2-f=1.0000
 Alpha vir 43 OE=1.229 is Ti2-f=1.0000
 Alpha vir 44 OE=1.627 is Ti2-f=0.6977 H1-s=0.1310 Ti2-d=0.1248

 Atomic contributions to Beta  molecular orbitals:
 Beta  occ 1 OE=-183.272 is Ti2-s=1.0000
 Beta  occ 2 OE=-21.402 is Ti2-s=1.0000
 Beta  occ 3 OE=-17.780 is Ti2-p=1.0000
 Beta  occ 4 OE=-17.780 is Ti2-p=1.0000
 Beta  occ 5 OE=-17.757 is Ti2-p=1.0000
 Beta  occ 6 OE=-2.797 is Ti2-s=0.9992
 Beta  occ 7 OE=-1.732 is Ti2-p=0.9999
 Beta  occ 8 OE=-1.732 is Ti2-p=0.9999
 Beta  occ 9 OE=-1.661 is Ti2-p=0.9972
 Beta  occ 10 OE=-0.349 is H1-s=0.4433 Ti2-s=0.2635 Ti2-p=0.1781 Ti2-d=0.1107
 Beta  vir 11 OE=0.018 is Ti2-s=0.6795 Ti2-p=0.2287
 Beta  vir 12 OE=0.045 is Ti2-p=0.9997
 Beta  vir 13 OE=0.045 is Ti2-p=0.9997
 Beta  vir 14 OE=0.083 is Ti2-p=0.6341 Ti2-d=0.2574
 Beta  vir 15 OE=0.121 is Ti2-d=1.0000
 Beta  vir 16 OE=0.121 is Ti2-d=1.0000
 Beta  vir 17 OE=0.127 is Ti2-s=0.8072 Ti2-d=0.1894
 Beta  vir 18 OE=0.138 is Ti2-d=0.9969
 Beta  vir 19 OE=0.138 is Ti2-d=0.9969
 Beta  vir 20 OE=0.203 is Ti2-p=0.5091 Ti2-d=0.3851
 Beta  vir 21 OE=0.225 is Ti2-p=0.9969
 Beta  vir 22 OE=0.225 is Ti2-p=0.9969
 Beta  vir 23 OE=0.234 is Ti2-d=1.0000
 Beta  vir 24 OE=0.234 is Ti2-d=1.0000
 Beta  vir 25 OE=0.255 is Ti2-d=0.8489 Ti2-p=0.1516
 Beta  vir 26 OE=0.281 is Ti2-d=0.9998
 Beta  vir 27 OE=0.281 is Ti2-d=0.9998
 Beta  vir 28 OE=0.602 is H1-s=0.3384 Ti2-d=0.2840 Ti2-p=0.2572
 Beta  vir 29 OE=0.710 is Ti2-s=0.9973
 Beta  vir 30 OE=0.902 is Ti2-d=1.0000
 Beta  vir 31 OE=0.902 is Ti2-d=1.0000
 Beta  vir 32 OE=0.944 is Ti2-d=0.9998
 Beta  vir 33 OE=0.944 is Ti2-d=0.9998
 Beta  vir 34 OE=0.973 is Ti2-p=0.9998
 Beta  vir 35 OE=0.973 is Ti2-p=0.9998
 Beta  vir 36 OE=0.986 is Ti2-p=0.9668
 Beta  vir 37 OE=1.038 is Ti2-d=0.7018 Ti2-f=0.2030
 Beta  vir 38 OE=1.254 is Ti2-f=1.0000
 Beta  vir 39 OE=1.254 is Ti2-f=1.0000
 Beta  vir 40 OE=1.291 is Ti2-f=0.9994
 Beta  vir 41 OE=1.291 is Ti2-f=0.9994
 Beta  vir 42 OE=1.296 is Ti2-f=1.0000
 Beta  vir 43 OE=1.296 is Ti2-f=1.0000
 Beta  vir 44 OE=1.675 is Ti2-f=0.7229 H1-s=0.1226 Ti2-d=0.1156
 
 Leave Link  601 at Thu Mar 24 16:00:32 2022, MaxMem=  9663676416 cpu:               1.8 elap:               0.1
 (Enter /nopt/nrel/apps/gaussian/g16C_1/g16/l9999.exe)

 Test job not archived.
 1\1\GINC-R6I7N35\SP\UCCSD-FC\Gen\H1Ti1(4)\USER\24-Mar-2022\0\\#P C
 CSD/GEN sp pop=AllOrbitals iop(3/33=1,3/36=-1)\\test\\0,4\H,0,0.,0.,0.
 \Ti,0,0.,0.,1.7847\\Version=ES64L-G16RevC.01\State=4-SG\HF=-848.950249
 2\MP2=-848.9838874\MP3=-848.9926511\MP4D=-848.9956363\MP4DQ=-848.99521
 62\PUHF=-848.9504085\PMP2-0=-848.9840233\PMP3-0=-848.9927691\MP4SDQ=-8
 48.9959764\CCSD=-849.0060615\S2=3.755496\S2-1=3.753875\S2A=3.75001\RMS
 D=3.334e-09\PG=C*V [C*(H1Ti1)]\\@


 THE ONLY TROUBLE WITH A SURE THING IS THE UNCERTAINTY.
     -- FROM A TEABAG (BELONGING TO W.H.?)
 Job cpu time:       0 days  0 hours  2 minutes 44.8 seconds.
 Elapsed time:       0 days  0 hours  0 minutes  4.9 seconds.
 File lengths (MBytes):  RWF=     14 Int=      0 D2E=      0 Chk=      1 Scr=      1
 Normal termination of Gaussian 16 at Thu Mar 24 16:00:32 2022.
