 Entering Gaussian System, Link 0=g16
 Initial command:
 /nopt/nrel/apps/gaussian/g16C_1/g16/l1.exe "/lustre/eaglefs/scratch/user/qc/gaussian-final/tih-4-ccsd-6311g/Gau-179725.inp" -scrdir="/lustre/eaglefs/scratch/user/qc/gaussian-final/tih-4-ccsd-6311g/"
 Default is to use a total of  36 processors:
                               36 via shared-memory
                                1 via Linda
 Entering Link 1 = /nopt/nrel/apps/gaussian/g16C_1/g16/l1.exe PID=    179726.
  
 Copyright (c) 1988-2019, Gaussian, Inc.  All Rights Reserved.
  
 This is part of the Gaussian(R) 16 program.  It is based on
 the Gaussian(R) 09 system (copyright 2009, Gaussian, Inc.),
 the Gaussian(R) 03 system (copyright 2003, Gaussian, Inc.),
 the Gaussian(R) 98 system (copyright 1998, Gaussian, Inc.),
 the Gaussian(R) 94 system (copyright 1995, Gaussian, Inc.),
 the Gaussian 92(TM) system (copyright 1992, Gaussian, Inc.),
 the Gaussian 90(TM) system (copyright 1990, Gaussian, Inc.),
 the Gaussian 88(TM) system (copyright 1988, Gaussian, Inc.),
 the Gaussian 86(TM) system (copyright 1986, Carnegie Mellon
 University), and the Gaussian 82(TM) system (copyright 1983,
 Carnegie Mellon University). Gaussian is a federally registered
 trademark of Gaussian, Inc.
  
 This software contains proprietary and confidential information,
 including trade secrets, belonging to Gaussian, Inc.
  
 This software is provided under written license and may be
 used, copied, transmitted, or stored only in accord with that
 written license.
  
 The following legend is applicable only to US Government
 contracts under FAR:
  
                    RESTRICTED RIGHTS LEGEND
  
 Use, reproduction and disclosure by the US Government is
 subject to restrictions as set forth in subparagraphs (a)
 and (c) of the Commercial Computer Software - Restricted
 Rights clause in FAR 52.227-19.
  
 Gaussian, Inc.
 340 Quinnipiac St., Bldg. 40, Wallingford CT 06492
  
  
 ---------------------------------------------------------------
 Warning -- This program may not be used in any manner that
 competes with the business of Gaussian, Inc. or will provide
 assistance to any competitor of Gaussian, Inc.  The licensee
 of this program is prohibited from giving any competitor of
 Gaussian, Inc. access to this program.  By using this program,
 the user acknowledges that Gaussian, Inc. is engaged in the
 business of creating and licensing software in the field of
 computational chemistry and represents and warrants to the
 licensee that it is not a competitor of Gaussian, Inc. and that
 it will not use this program in any manner prohibited above.
 ---------------------------------------------------------------
  

 Cite this work as:
 Gaussian 16, Revision C.01,
 M. J. Frisch, G. W. Trucks, H. B. Schlegel, G. E. Scuseria, 
 M. A. Robb, J. R. Cheeseman, G. Scalmani, V. Barone, 
 G. A. Petersson, H. Nakatsuji, X. Li, M. Caricato, A. V. Marenich, 
 J. Bloino, B. G. Janesko, R. Gomperts, B. Mennucci, H. P. Hratchian, 
 J. V. Ortiz, A. F. Izmaylov, J. L. Sonnenberg, D. Williams-Young, 
 F. Ding, F. Lipparini, F. Egidi, J. Goings, B. Peng, A. Petrone, 
 T. Henderson, D. Ranasinghe, V. G. Zakrzewski, J. Gao, N. Rega, 
 G. Zheng, W. Liang, M. Hada, M. Ehara, K. Toyota, R. Fukuda, 
 J. Hasegawa, M. Ishida, T. Nakajima, Y. Honda, O. Kitao, H. Nakai, 
 T. Vreven, K. Throssell, J. A. Montgomery, Jr., J. E. Peralta, 
 F. Ogliaro, M. J. Bearpark, J. J. Heyd, E. N. Brothers, K. N. Kudin, 
 V. N. Staroverov, T. A. Keith, R. Kobayashi, J. Normand, 
 K. Raghavachari, A. P. Rendell, J. C. Burant, S. S. Iyengar, 
 J. Tomasi, M. Cossi, J. M. Millam, M. Klene, C. Adamo, R. Cammi, 
 J. W. Ochterski, R. L. Martin, K. Morokuma, O. Farkas, 
 J. B. Foresman, and D. J. Fox, Gaussian, Inc., Wallingford CT, 2019.
 
 ******************************************
 Gaussian 16:  ES64L-G16RevC.01  3-Jul-2019
                24-Mar-2022 
 ******************************************
 %chk=molecule
 Default route: CacheSize=180224 MaxDisk=256GB
 --------------------------------------------------
 #P CCSD/GEN sp pop=AllOrbitals iop(3/33=1,3/36=-1)
 --------------------------------------------------
 1/4=180224,38=1,172=1/1;
 2/4=180224,12=2,17=6,18=5,40=1/2;
 3/4=180224,5=7,11=9,25=1,30=1,33=1,36=-1/1,2,3;
 4/4=180224/1;
 5/4=180224,5=2,38=5/2;
 8/4=180224,6=4,9=120000,10=1/1,4;
 9/4=180224,5=7/13;
 6/4=180224,7=2,8=2,9=2,10=2,96=-1/1;
 99/4=180224,5=1,9=1/99;
 Leave Link    1 at Thu Mar 24 16:00:26 2022, MaxMem=           0 cpu:               2.0 elap:               0.1
 (Enter /nopt/nrel/apps/gaussian/g16C_1/g16/l101.exe)
 ----
 test
 ----
 Symbolic Z-matrix:
 Charge =  0 Multiplicity = 4
 H                     0.        0.        0. 
 Ti                    0.        0.        1.7847 
 
 ITRead=  0  0
 MicOpt= -1 -1
 NAtoms=      2 NQM=        2 NQMF=       0 NMMI=      0 NMMIF=      0
                NMic=       0 NMicF=      0.
                    Isotopes and Nuclear Properties:
 (Nuclear quadrupole moments (NQMom) in fm**2, nuclear magnetic moments (NMagM)
  in nuclear magnetons)

  Atom         1           2
 IAtWgt=           1          48
 AtmWgt=   1.0078250  47.9479467
 NucSpn=           1           0
 AtZEff=  -0.0000000  -0.0000000
 NQMom=    0.0000000   0.0000000
 NMagM=    2.7928460   0.0000000
 AtZNuc=   1.0000000  22.0000000
 Leave Link  101 at Thu Mar 24 16:00:26 2022, MaxMem=  9663676416 cpu:               2.9 elap:               0.1
 (Enter /nopt/nrel/apps/gaussian/g16C_1/g16/l202.exe)
                          Input orientation:                          
 ---------------------------------------------------------------------
 Center     Atomic      Atomic             Coordinates (Angstroms)
 Number     Number       Type             X           Y           Z
 ---------------------------------------------------------------------
      1          1           0        0.000000    0.000000    0.000000
      2         22           0        0.000000    0.000000    1.784700
 ---------------------------------------------------------------------
 Stoichiometry    HTi(4)
 Framework group  C*V[C*(HTi)]
 Deg. of freedom     1
 Full point group                 C*V     NOp   4
 Largest Abelian subgroup         C2V     NOp   4
 Largest concise Abelian subgroup C1      NOp   1
                         Standard orientation:                         
 ---------------------------------------------------------------------
 Center     Atomic      Atomic             Coordinates (Angstroms)
 Number     Number       Type             X           Y           Z
 ---------------------------------------------------------------------
      1          1           0        0.000000    0.000000   -1.707104
      2         22           0        0.000000    0.000000    0.077596
 ---------------------------------------------------------------------
 Rotational constants (GHZ):           0.0000000         160.7442684         160.7442684
 Leave Link  202 at Thu Mar 24 16:00:26 2022, MaxMem=  9663676416 cpu:               0.5 elap:               0.0
 (Enter /nopt/nrel/apps/gaussian/g16C_1/g16/l301.exe)
 General basis read from cards:  (5D, 7F)
                         Coordinates in L301:                         
 ---------------------------------------------------------------------
 Center     Atomic      Atomic             Coordinates (Angstroms)
 Number     Number       Type             X           Y           Z
 ---------------------------------------------------------------------
      1          1           0        0.000000    0.000000   -1.707104
      2         22           0        0.000000    0.000000    0.077596
 ---------------------------------------------------------------------
 Centers:       1
 STO-3G
 ****
 Centers:       2
 6-311G
 ****
 FixB: optimizing general contractions.
 Ernie: Thresh=  0.10000D-02 Tol=  0.10000D-05 Strict=F.
 IA=     1 ShT= 0 ShC= 0 NL=   1 NS=   0.
 IA=     1 L=0 SC=0 ISt=    0 NBk=    0 NP=    0 IndPr=    0.
 IA=     2 ShT= 0 ShC= 0 NL=   9 NS=   8.
 IA=     2 L=0 SC=0 ISt=    0 NBk=    0 NP=    0 IndPr=    0.
 IA=     2 ShT= 1 ShC= 1 NL=   5 NS=   4.
 IA=     2 L=1 SC=1 ISt=    0 NBk=    0 NP=    0 IndPr=    0.
 IA=     2 ShT= 2 ShC= 2 NL=   3 NS=   2.
 IA=     2 L=2 SC=2 ISt=    0 NBk=    0 NP=    0 IndPr=    0.
 LdAtmC:  AtmChg=     1.000000    22.000000
 AtZEff=     -1.0000000    -23.9800000
 NEqShl: 
              1            2            3            4
     1            1            1            1            1
     2            2            2            2            2
     3            3            3            3            3
     4            4            4            4            4
     5            5            5            5            5
     6            6            6            6            6
     7            7            7            7            7
     8            8            8            8            8
     9            9            9            9            9
    10           10           10           10           10
    11           11           11           11           11
    12           12           12           12           12
    13           13           13           13           13
    14           14           14           14           14
    15           15           15           15           15
    16           16           16           16           16
    17           17           17           17           17
    18           18           18           18           18
 NEqBas: 
              1            2            3            4
     1            1            1            1            1
     2            2            2            2            2
     3            3            3            3            3
     4            4            4            4            4
     5            5            5            5            5
     6            6            6            6            6
     7            7            7            7            7
     8            8            8            8            8
     9            9            9            9            9
    10           10           10           10           10
    11           11          -11          -11           11
    12           12          -12           12          -12
    13           13           13           13           13
    14           14          -14          -14           14
    15           15          -15           15          -15
    16           16           16           16           16
    17           17          -17          -17           17
    18           18          -18           18          -18
    19           19           19           19           19
    20           20          -20          -20           20
    21           21          -21           21          -21
    22           22           22           22           22
    23           23          -23          -23           23
    24           24          -24           24          -24
    25           25           25           25           25
    26           26           26           26           26
    27           27           27           27           27
    28           28           28           28           28
    29           29           29          -29          -29
    30           30          -30          -30           30
    31           31          -31           31          -31
    32           32           32           32           32
    33           33           33           33           33
    34           34           34           34           34
    35           35           35          -35          -35
    36           36          -36          -36           36
    37           37          -37           37          -37
    38           38           38           38           38
    39           39           39           39           39
    40           40           40           40           40
    41           41           41          -41          -41
    42           42          -42          -42           42
    43           43          -43           43          -43
 There are    24 symmetry adapted cartesian basis functions of A1  symmetry.
   1         1   1   1   1
   2         2   2   2   2
   3         3   3   3   3
   4         4   4   4   4
   5         5   5   5   5
   6         6   6   6   6
   7         7   7   7   7
   8         8   8   8   8
   9         9   9   9   9
  10        10  10  10  10
  11        13  13  13  13
  12        16  16  16  16
  13        19  19  19  19
  14        22  22  22  22
  15        25  25  25  25
  16        26  26  26  26
  17        27  27  27  27
  18        28  28  28  28
  19        32  32  32  32
  20        33  33  33  33
  21        34  34  34  34
  22        38  38  38  38
  23        39  39  39  39
  24        40  40  40  40
 There are     3 symmetry adapted cartesian basis functions of A2  symmetry.
  25        29  29  29  29
  26        35  35  35  35
  27        41  41  41  41
 There are     8 symmetry adapted cartesian basis functions of B1  symmetry.
  28        11  11  11  11
  29        14  14  14  14
  30        17  17  17  17
  31        20  20  20  20
  32        23  23  23  23
  33        30  30  30  30
  34        36  36  36  36
  35        42  42  42  42
 There are     8 symmetry adapted cartesian basis functions of B2  symmetry.
  36        12  12  12  12
  37        15  15  15  15
  38        18  18  18  18
  39        21  21  21  21
  40        24  24  24  24
  41        31  31  31  31
  42        37  37  37  37
  43        43  43  43  43
 Order= 1 2 4 3
 Reordered character table:
              1            2            3            4            5
     1            1            1            1            1            1
     2            2            1            1           -1           -1
     3            4            1           -1           -1            1
     4            3            1           -1            1           -1
 NEqShl: 
              1            2            3            4
     1            1            1            1            1
     2            2            2            2            2
     3            3            3            3            3
     4            4            4            4            4
     5            5            5            5            5
     6            6            6            6            6
     7            7            7            7            7
     8            8            8            8            8
     9            9            9            9            9
    10           10           10           10           10
    11           11           11           11           11
    12           12           12           12           12
    13           13           13           13           13
    14           14           14           14           14
    15           15           15           15           15
    16           16           16           16           16
    17           17           17           17           17
    18           18           18           18           18
 NEqBas: 
              1            2            3            4
     1            1            1            1            1
     2            2            2            2            2
     3            3            3            3            3
     4            4            4            4            4
     5            5            5            5            5
     6            6            6            6            6
     7            7            7            7            7
     8            8            8            8            8
     9            9            9            9            9
    10           10           10           10           10
    11           11          -11          -11           11
    12           12          -12           12          -12
    13           13           13           13           13
    14           14          -14          -14           14
    15           15          -15           15          -15
    16           16           16           16           16
    17           17          -17          -17           17
    18           18          -18           18          -18
    19           19           19           19           19
    20           20          -20          -20           20
    21           21          -21           21          -21
    22           22           22           22           22
    23           23          -23          -23           23
    24           24          -24           24          -24
    25           25           25           25           25
    26           26           26           26           26
    27           27          -27          -27           27
    28           28          -28           28          -28
    29           29           29           29           29
    30           30           30          -30          -30
    31           31           31           31           31
    32           32          -32          -32           32
    33           33          -33           33          -33
    34           34           34           34           34
    35           35           35          -35          -35
    36           36           36           36           36
    37           37          -37          -37           37
    38           38          -38           38          -38
    39           39           39           39           39
    40           40           40          -40          -40
 There are    21 symmetry adapted basis functions of A1  symmetry.
   1         1   1   1   1
   2         2   2   2   2
   3         3   3   3   3
   4         4   4   4   4
   5         5   5   5   5
   6         6   6   6   6
   7         7   7   7   7
   8         8   8   8   8
   9         9   9   9   9
  10        10  10  10  10
  11        13  13  13  13
  12        16  16  16  16
  13        19  19  19  19
  14        22  22  22  22
  15        25  25  25  25
  16        26  26  26  26
  17        29  29  29  29
  18        31  31  31  31
  19        34  34  34  34
  20        36  36  36  36
  21        39  39  39  39
 There are     3 symmetry adapted basis functions of A2  symmetry.
  22        30  30  30  30
  23        35  35  35  35
  24        40  40  40  40
 There are     8 symmetry adapted basis functions of B1  symmetry.
  25        11  11  11  11
  26        14  14  14  14
  27        17  17  17  17
  28        20  20  20  20
  29        23  23  23  23
  30        27  27  27  27
  31        32  32  32  32
  32        37  37  37  37
 There are     8 symmetry adapted basis functions of B2  symmetry.
  33        12  12  12  12
  34        15  15  15  15
  35        18  18  18  18
  36        21  21  21  21
  37        24  24  24  24
  38        28  28  28  28
  39        33  33  33  33
  40        38  38  38  38
 Order= 1 2 4 3
 Reordered character table:
              1            2            3            4            5
     1            1            1            1            1            1
     2            2            1            1           -1           -1
     3            4            1           -1           -1            1
     4            3            1           -1            1           -1
    40 basis functions,    74 primitive gaussians,    43 cartesian basis functions
    13 alpha electrons       10 beta electrons
       nuclear repulsion energy         6.5231683982 Hartrees.
 IS=     1 IAt=     1 ISR=     1 T=0 IP=      1 IndIP=      1 IndIPD=      0 C=  2.769344D-01  0.000000D+00                             NZ=T
 IS=     1 IAt=     1 ISR=     1 T=0 IP=      2 IndIP=      2 IndIPD=      1 C=  2.678389D-01  0.000000D+00                             NZ=T
 IS=     1 IAt=     1 ISR=     1 T=0 IP=      3 IndIP=      3 IndIPD=      2 C=  8.347367D-02  0.000000D+00                             NZ=T
 IS=     2 IAt=     2 ISR=     1 T=0 IP=      1 IndIP=      4 IndIPD=      0 C=  3.910790D+00  0.000000D+00                             NZ=T
 IS=     2 IAt=     2 ISR=     1 T=0 IP=      2 IndIP=      5 IndIPD=      1 C=  7.332421D+00  0.000000D+00                             NZ=T
 IS=     2 IAt=     2 ISR=     1 T=0 IP=      3 IndIP=      6 IndIPD=      2 C=  1.248878D+01  0.000000D+00                             NZ=T
 IS=     2 IAt=     2 ISR=     1 T=0 IP=      4 IndIP=      7 IndIPD=      3 C=  1.967067D+01  0.000000D+00                             NZ=T
 IS=     2 IAt=     2 ISR=     1 T=0 IP=      5 IndIP=      8 IndIPD=      4 C=  2.715198D+01  0.000000D+00                             NZ=T
 IS=     2 IAt=     2 ISR=     1 T=0 IP=      6 IndIP=      9 IndIPD=      5 C=  2.990304D+01  0.000000D+00                             NZ=T
 IS=     3 IAt=     2 ISR=     2 T=0 IP=      1 IndIP=     10 IndIPD=      0 C=  2.184535D+01  0.000000D+00                             NZ=T
 IS=     4 IAt=     2 ISR=     3 T=0 IP=      1 IndIP=     11 IndIPD=      0 C=  1.129549D+01  0.000000D+00                             NZ=T
 IS=     5 IAt=     2 ISR=     4 T=0 IP=      1 IndIP=     12 IndIPD=      0 C=  4.658293D+00  0.000000D+00                             NZ=T
 IS=     6 IAt=     2 ISR=     5 T=0 IP=      1 IndIP=     13 IndIPD=      0 C=  2.386226D+00  0.000000D+00                             NZ=T
 IS=     7 IAt=     2 ISR=     6 T=0 IP=      1 IndIP=     14 IndIPD=      0 C=  8.605226D-01  0.000000D+00                             NZ=T
 IS=     8 IAt=     2 ISR=     7 T=0 IP=      1 IndIP=     15 IndIPD=      0 C=  4.318918D-01  0.000000D+00                             NZ=T
 IS=     9 IAt=     2 ISR=     8 T=0 IP=      1 IndIP=     16 IndIPD=      0 C=  1.127649D-01  0.000000D+00                             NZ=T
 IS=    10 IAt=     2 ISR=     9 T=0 IP=      1 IndIP=     17 IndIPD=      0 C=  5.556008D-02  0.000000D+00                             NZ=T
 IS=    11 IAt=     2 ISR=    10 T=1 IP=      1 IndIP=     18 IndIPD=      0 C=  0.000000D+00  3.356293D+01                             NZ=T
 IS=    11 IAt=     2 ISR=    10 T=1 IP=      2 IndIP=     19 IndIPD=      1 C=  0.000000D+00  4.501669D+01                             NZ=T
 IS=    11 IAt=     2 ISR=    10 T=1 IP=      3 IndIP=     20 IndIPD=      2 C=  0.000000D+00  5.136852D+01                             NZ=T
 IS=    11 IAt=     2 ISR=    10 T=1 IP=      4 IndIP=     21 IndIPD=      3 C=  0.000000D+00  4.484585D+01                             NZ=T
 IS=    11 IAt=     2 ISR=    10 T=1 IP=      5 IndIP=     22 IndIPD=      4 C=  0.000000D+00  2.569399D+01                             NZ=T
 IS=    12 IAt=     2 ISR=    11 T=1 IP=      1 IndIP=     23 IndIPD=      0 C=  0.000000D+00  1.415556D+01                             NZ=T
 IS=    13 IAt=     2 ISR=    12 T=1 IP=      1 IndIP=     24 IndIPD=      0 C=  0.000000D+00  4.433407D+00                             NZ=T
 IS=    14 IAt=     2 ISR=    13 T=1 IP=      1 IndIP=     25 IndIPD=      0 C=  0.000000D+00  1.454298D+00                             NZ=T
 IS=    15 IAt=     2 ISR=    14 T=1 IP=      1 IndIP=     26 IndIPD=      0 C=  0.000000D+00  4.508321D-01                             NZ=T
 IS=    16 IAt=     2 ISR=    15 T=2 IP=      1 IndIP=     27 IndIPD=      1 C=  0.000000D+00  0.000000D+00  2.665169D+01  0.000000D+00 NZ=T
 IS=    16 IAt=     2 ISR=    15 T=2 IP=      2 IndIP=     28 IndIPD=      2 C=  0.000000D+00  0.000000D+00  1.455420D+01  0.000000D+00 NZ=T
 IS=    16 IAt=     2 ISR=    15 T=2 IP=      3 IndIP=     29 IndIPD=      3 C=  0.000000D+00  0.000000D+00  5.760785D+00  0.000000D+00 NZ=T
 IS=    17 IAt=     2 ISR=    16 T=2 IP=      1 IndIP=     30 IndIPD=      4 C=  0.000000D+00  0.000000D+00  1.114307D+00  0.000000D+00 NZ=T
 IS=    18 IAt=     2 ISR=    17 T=2 IP=      1 IndIP=     31 IndIPD=      5 C=  0.000000D+00  0.000000D+00  1.579715D-01  0.000000D+00 NZ=T
 IExCor=    0 DFT=F Ex=HF Corr=None ExCW=0 ScaHFX=  1.000000
 ScaDFX=  1.000000  1.000000  1.000000  1.000000 ScalE2=  1.000000  1.000000
 IRadAn=      5 IRanWt=     -1 IRanGd=            0 ICorTp=0 IEmpDi=  4
 NAtoms=    2 NActive=    2 NUniq=    2 SFac= 1.00D+00 NAtFMM=   60 NAOKFM=F Big=F
 Integral buffers will be    131072 words long.
 Raffenetti 2 integral format.
 Two-electron integral symmetry is turned on.
 Leave Link  301 at Thu Mar 24 16:00:26 2022, MaxMem=  9663676416 cpu:               2.0 elap:               0.1
 (Enter /nopt/nrel/apps/gaussian/g16C_1/g16/l302.exe)
 NPDir=0 NMtPBC=     1 NCelOv=     1 NCel=       1 NClECP=     1 NCelD=      1
         NCelK=      1 NCelE2=     1 NClLst=     1 CellRange=     0.0.
 One-electron integrals computed using PRISM.
 One-electron integral symmetry used in STVInt
 Entering OneElI...
 Calculate overlap and kinetic energy integrals
    NBasis =  40  MinDer = 0  MaxDer = 0
 Requested accuracy = 0.1000D-12
 Symmetry will be used
 PrmmSu-InSpLW:  IPartL=    0 NPrtUS=   36 NPrtUL=    1 DoSpLW=F IThBeg=    0 IThEnd=   35 NThAct=   36.
 PrSmSu:  IncTry=   512 NBBP=            171 NTPThr=   100 NPartT=   36 Incr=           1 LDynOK=F GPUOK=F.
 PrsmSu:  NPrtUS=  36 ThrOK=T IAlg=1 LenDen=           0 ISkipM=0 DoSpLW=F IThBeg=    0 IThEnd=   35.
 Prism:   IPart=     0 DynPar=F LinDyn=F Incr=           1.
 PRISM was handed   268428440 working-precision words and   171 shell-pairs
 PRISM was handed   268428440 working-precision words and   171 shell-pairs
 PRISM was handed   268428440 working-precision words and   171 shell-pairs
 PRISM was handed   268428440 working-precision words and   171 shell-pairs
 PRISM was handed   268428440 working-precision words and   171 shell-pairs
 PRISM was handed   268428440 working-precision words and   171 shell-pairs
 PRISM was handed   268428440 working-precision words and   171 shell-pairs
 PRISM was handed   268428440 working-precision words and   171 shell-pairs
 PRISM was handed   268428440 working-precision words and   171 shell-pairs
 PRISM was handed   268428440 working-precision words and   171 shell-pairs
 PRISM was handed   268428440 working-precision words and   171 shell-pairs
 PRISM was handed   268428440 working-precision words and   171 shell-pairs
 PRISM was handed   268428440 working-precision words and   171 shell-pairs
 PRISM was handed   268428440 working-precision words and   171 shell-pairs
 IPart= 30 NShTot=           2 NBatch=           2 AvBLen=         1.0
 IPart= 17 NShTot=           2 NBatch=           2 AvBLen=         1.0
 IPart= 23 NShTot=           2 NBatch=           2 AvBLen=         1.0
 IPart= 12 NShTot=           3 NBatch=           3 AvBLen=         1.0
 IPart= 19 NShTot=           2 NBatch=           2 AvBLen=         1.0
 IPart= 24 NShTot=           2 NBatch=           2 AvBLen=         1.0
 IPart= 33 NShTot=           1 NBatch=           1 AvBLen=         1.0
 IPart= 22 NShTot=           2 NBatch=           2 AvBLen=         1.0
 IPart= 18 NShTot=           2 NBatch=           2 AvBLen=         1.0
 IPart=  8 NShTot=           5 NBatch=           5 AvBLen=         1.0
 PRISM was handed   268428440 working-precision words and   171 shell-pairs
 IPart=  4 NShTot=           9 NBatch=           9 AvBLen=         1.0
 IPart=  7 NShTot=           9 NBatch=           9 AvBLen=         1.0
 PRISM was handed   268428440 working-precision words and   171 shell-pairs
 PRISM was handed   268428440 working-precision words and   171 shell-pairs
 PRISM was handed   268428440 working-precision words and   171 shell-pairs
 PRISM was handed   268428440 working-precision words and   171 shell-pairs
 PRISM was handed   268428440 working-precision words and   171 shell-pairs
 PRISM was handed   268428440 working-precision words and   171 shell-pairs
 PRISM was handed   268428440 working-precision words and   171 shell-pairs
 IPart=  2 NShTot=          14 NBatch=          14 AvBLen=         1.0
 PRISM was handed   268428440 working-precision words and   171 shell-pairs
 PRISM was handed   268428440 working-precision words and   171 shell-pairs
 PRISM was handed   268428440 working-precision words and   171 shell-pairs
 PRISM was handed   268428440 working-precision words and   171 shell-pairs
 PRISM was handed   268428440 working-precision words and   171 shell-pairs
 IPart= 29 NShTot=           2 NBatch=           2 AvBLen=         1.0
 IPart= 26 NShTot=           2 NBatch=           2 AvBLen=         1.0
 IPart= 20 NShTot=           2 NBatch=           2 AvBLen=         1.0
 IPart= 27 NShTot=           2 NBatch=           2 AvBLen=         1.0
 IPart= 31 NShTot=           2 NBatch=           2 AvBLen=         1.0
 IPart= 10 NShTot=           3 NBatch=           3 AvBLen=         1.0
 PRISM was handed   268428440 working-precision words and   171 shell-pairs
 PRISM was handed   268428440 working-precision words and   171 shell-pairs
 PRISM was handed   268428440 working-precision words and   171 shell-pairs
 IPart= 21 NShTot=           2 NBatch=           2 AvBLen=         1.0
 IPart=  3 NShTot=          13 NBatch=          13 AvBLen=         1.0
 PRISM was handed   268428440 working-precision words and   171 shell-pairs
 PRISM was handed   268428440 working-precision words and   171 shell-pairs
 PRISM was handed   268428440 working-precision words and   171 shell-pairs
 PRISM was handed   268428440 working-precision words and   171 shell-pairs
 IPart= 11 NShTot=           3 NBatch=           3 AvBLen=         1.0
 IPart=  5 NShTot=           9 NBatch=           9 AvBLen=         1.0
 IPart= 34 NShTot=           1 NBatch=           1 AvBLen=         1.0
 IPart= 35 NShTot=           1 NBatch=           1 AvBLen=         1.0
 IPart= 28 NShTot=           2 NBatch=           2 AvBLen=         1.0
 IPart= 32 NShTot=           1 NBatch=           1 AvBLen=         1.0
 PRISM was handed   268428440 working-precision words and   171 shell-pairs
 PRISM was handed   268428440 working-precision words and   171 shell-pairs
 IPart= 13 NShTot=           3 NBatch=           3 AvBLen=         1.0
 IPart=  0 NShTot=          27 NBatch=          27 AvBLen=         1.0
 IPart= 14 NShTot=           3 NBatch=           3 AvBLen=         1.0
 IPart= 15 NShTot=           3 NBatch=           3 AvBLen=         1.0
 IPart=  9 NShTot=           5 NBatch=           5 AvBLen=         1.0
 IPart=  6 NShTot=           9 NBatch=           9 AvBLen=         1.0
 IPart= 25 NShTot=           2 NBatch=           2 AvBLen=         1.0
 IPart= 16 NShTot=           2 NBatch=           2 AvBLen=         1.0
 IPart=  1 NShTot=          17 NBatch=          17 AvBLen=         1.0
 PrSmSu:  NxtVal=             37.
 *** Overlap *** 
                1             2             3             4             5 
      1  0.100000D+01
      2  0.670063D-03  0.100000D+01
      3  0.161443D-02  0.763562D+00  0.100000D+01
      4  0.312839D-02  0.498580D+00  0.868861D+00  0.100000D+01
      5  0.764393D-02  0.234986D+00  0.503846D+00  0.780672D+00  0.100000D+01
      6  0.151685D-01  0.124965D+00  0.286247D+00  0.500207D+00  0.865488D+00
      7  0.458449D-01  0.459659D-01  0.109213D+00  0.205445D+00  0.449691D+00
      8  0.106267D+00  0.231660D-01  0.554738D-01  0.106091D+00  0.246556D+00
      9  0.343857D+00  0.606246D-02  0.145807D-01  0.281459D-01  0.677558D-01
     10  0.324763D+00  0.298786D-02  0.718990D-02  0.138950D-01  0.335976D-01
     11  0.000000D+00  0.000000D+00  0.000000D+00  0.000000D+00  0.000000D+00
     12  0.000000D+00  0.000000D+00  0.000000D+00  0.000000D+00  0.000000D+00
     13 -0.153120D-02  0.000000D+00  0.000000D+00  0.000000D+00  0.000000D+00
     14  0.000000D+00  0.000000D+00  0.000000D+00  0.000000D+00  0.000000D+00
     15  0.000000D+00  0.000000D+00  0.000000D+00  0.000000D+00  0.000000D+00
     16 -0.603694D-02  0.000000D+00  0.000000D+00  0.000000D+00  0.000000D+00
     17  0.000000D+00  0.000000D+00  0.000000D+00  0.000000D+00  0.000000D+00
     18  0.000000D+00  0.000000D+00  0.000000D+00  0.000000D+00  0.000000D+00
     19 -0.198684D-01  0.000000D+00  0.000000D+00  0.000000D+00  0.000000D+00
     20  0.000000D+00  0.000000D+00  0.000000D+00  0.000000D+00  0.000000D+00
     21  0.000000D+00  0.000000D+00  0.000000D+00  0.000000D+00  0.000000D+00
     22 -0.649067D-01  0.000000D+00  0.000000D+00  0.000000D+00  0.000000D+00
     23  0.000000D+00  0.000000D+00  0.000000D+00  0.000000D+00  0.000000D+00
     24  0.000000D+00  0.000000D+00  0.000000D+00  0.000000D+00  0.000000D+00
     25 -0.217216D+00  0.000000D+00  0.000000D+00  0.000000D+00  0.000000D+00
     26  0.924661D-02  0.000000D+00  0.000000D+00  0.000000D+00  0.000000D+00
     27  0.000000D+00  0.000000D+00  0.000000D+00  0.000000D+00  0.000000D+00
     28  0.000000D+00  0.000000D+00  0.000000D+00  0.000000D+00  0.000000D+00
     29  0.000000D+00  0.000000D+00  0.000000D+00  0.000000D+00  0.000000D+00
     30  0.000000D+00  0.000000D+00  0.000000D+00  0.000000D+00  0.000000D+00
     31  0.789081D-01  0.000000D+00  0.000000D+00  0.000000D+00  0.000000D+00
     32  0.000000D+00  0.000000D+00  0.000000D+00  0.000000D+00  0.000000D+00
     33  0.000000D+00  0.000000D+00  0.000000D+00  0.000000D+00  0.000000D+00
     34  0.000000D+00  0.000000D+00  0.000000D+00  0.000000D+00  0.000000D+00
     35  0.000000D+00  0.000000D+00  0.000000D+00  0.000000D+00  0.000000D+00
     36  0.357530D+00  0.000000D+00  0.000000D+00  0.000000D+00  0.000000D+00
     37  0.000000D+00  0.000000D+00  0.000000D+00  0.000000D+00  0.000000D+00
     38  0.000000D+00  0.000000D+00  0.000000D+00  0.000000D+00  0.000000D+00
     39  0.000000D+00  0.000000D+00  0.000000D+00  0.000000D+00  0.000000D+00
     40  0.000000D+00  0.000000D+00  0.000000D+00  0.000000D+00  0.000000D+00
                6             7             8             9            10 
      6  0.100000D+01
      7  0.724029D+00  0.100000D+01
      8  0.442294D+00  0.858021D+00  0.100000D+01
      9  0.130308D+00  0.336495D+00  0.585876D+00  0.100000D+01
     10  0.652048D-01  0.175747D+00  0.331089D+00  0.851157D+00  0.100000D+01
     11  0.000000D+00  0.000000D+00  0.000000D+00  0.000000D+00  0.000000D+00
     12  0.000000D+00  0.000000D+00  0.000000D+00  0.000000D+00  0.000000D+00
     13  0.000000D+00  0.000000D+00  0.000000D+00  0.000000D+00  0.000000D+00
     14  0.000000D+00  0.000000D+00  0.000000D+00  0.000000D+00  0.000000D+00
     15  0.000000D+00  0.000000D+00  0.000000D+00  0.000000D+00  0.000000D+00
     16  0.000000D+00  0.000000D+00  0.000000D+00  0.000000D+00  0.000000D+00
     17  0.000000D+00  0.000000D+00  0.000000D+00  0.000000D+00  0.000000D+00
     18  0.000000D+00  0.000000D+00  0.000000D+00  0.000000D+00  0.000000D+00
     19  0.000000D+00  0.000000D+00  0.000000D+00  0.000000D+00  0.000000D+00
     20  0.000000D+00  0.000000D+00  0.000000D+00  0.000000D+00  0.000000D+00
     21  0.000000D+00  0.000000D+00  0.000000D+00  0.000000D+00  0.000000D+00
     22  0.000000D+00  0.000000D+00  0.000000D+00  0.000000D+00  0.000000D+00
     23  0.000000D+00  0.000000D+00  0.000000D+00  0.000000D+00  0.000000D+00
     24  0.000000D+00  0.000000D+00  0.000000D+00  0.000000D+00  0.000000D+00
     25  0.000000D+00  0.000000D+00  0.000000D+00  0.000000D+00  0.000000D+00
     26  0.000000D+00  0.000000D+00  0.000000D+00  0.000000D+00  0.000000D+00
     27  0.000000D+00  0.000000D+00  0.000000D+00  0.000000D+00  0.000000D+00
     28  0.000000D+00  0.000000D+00  0.000000D+00  0.000000D+00  0.000000D+00
     29  0.000000D+00  0.000000D+00  0.000000D+00  0.000000D+00  0.000000D+00
     30  0.000000D+00  0.000000D+00  0.000000D+00  0.000000D+00  0.000000D+00
     31  0.000000D+00  0.000000D+00  0.000000D+00  0.000000D+00  0.000000D+00
     32  0.000000D+00  0.000000D+00  0.000000D+00  0.000000D+00  0.000000D+00
     33  0.000000D+00  0.000000D+00  0.000000D+00  0.000000D+00  0.000000D+00
     34  0.000000D+00  0.000000D+00  0.000000D+00  0.000000D+00  0.000000D+00
     35  0.000000D+00  0.000000D+00  0.000000D+00  0.000000D+00  0.000000D+00
     36  0.000000D+00  0.000000D+00  0.000000D+00  0.000000D+00  0.000000D+00
     37  0.000000D+00  0.000000D+00  0.000000D+00  0.000000D+00  0.000000D+00
     38  0.000000D+00  0.000000D+00  0.000000D+00  0.000000D+00  0.000000D+00
     39  0.000000D+00  0.000000D+00  0.000000D+00  0.000000D+00  0.000000D+00
     40  0.000000D+00  0.000000D+00  0.000000D+00  0.000000D+00  0.000000D+00
               11            12            13            14            15 
     11  0.100000D+01
     12  0.000000D+00  0.100000D+01
     13  0.000000D+00  0.000000D+00  0.100000D+01
     14  0.666335D+00  0.000000D+00  0.000000D+00  0.100000D+01
     15  0.000000D+00  0.666335D+00  0.000000D+00  0.000000D+00  0.100000D+01
     16  0.000000D+00  0.000000D+00  0.666335D+00  0.000000D+00  0.000000D+00
     17  0.321858D+00  0.000000D+00  0.000000D+00  0.770750D+00  0.000000D+00
     18  0.000000D+00  0.321858D+00  0.000000D+00  0.000000D+00  0.770750D+00
     19  0.000000D+00  0.000000D+00  0.321858D+00  0.000000D+00  0.000000D+00
     20  0.128431D+00  0.000000D+00  0.000000D+00  0.399331D+00  0.000000D+00
     21  0.000000D+00  0.128431D+00  0.000000D+00  0.000000D+00  0.399331D+00
     22  0.000000D+00  0.000000D+00  0.128431D+00  0.000000D+00  0.000000D+00
     23  0.435158D-01  0.000000D+00  0.000000D+00  0.154477D+00  0.000000D+00
     24  0.000000D+00  0.435158D-01  0.000000D+00  0.000000D+00  0.154477D+00
     25  0.000000D+00  0.000000D+00  0.435158D-01  0.000000D+00  0.000000D+00
     26  0.000000D+00  0.000000D+00  0.000000D+00  0.000000D+00  0.000000D+00
     27  0.000000D+00  0.000000D+00  0.000000D+00  0.000000D+00  0.000000D+00
     28  0.000000D+00  0.000000D+00  0.000000D+00  0.000000D+00  0.000000D+00
     29  0.000000D+00  0.000000D+00  0.000000D+00  0.000000D+00  0.000000D+00
     30  0.000000D+00  0.000000D+00  0.000000D+00  0.000000D+00  0.000000D+00
     31  0.000000D+00  0.000000D+00  0.000000D+00  0.000000D+00  0.000000D+00
     32  0.000000D+00  0.000000D+00  0.000000D+00  0.000000D+00  0.000000D+00
     33  0.000000D+00  0.000000D+00  0.000000D+00  0.000000D+00  0.000000D+00
     34  0.000000D+00  0.000000D+00  0.000000D+00  0.000000D+00  0.000000D+00
     35  0.000000D+00  0.000000D+00  0.000000D+00  0.000000D+00  0.000000D+00
     36  0.000000D+00  0.000000D+00  0.000000D+00  0.000000D+00  0.000000D+00
     37  0.000000D+00  0.000000D+00  0.000000D+00  0.000000D+00  0.000000D+00
     38  0.000000D+00  0.000000D+00  0.000000D+00  0.000000D+00  0.000000D+00
     39  0.000000D+00  0.000000D+00  0.000000D+00  0.000000D+00  0.000000D+00
     40  0.000000D+00  0.000000D+00  0.000000D+00  0.000000D+00  0.000000D+00
               16            17            18            19            20 
     16  0.100000D+01
     17  0.000000D+00  0.100000D+01
     18  0.000000D+00  0.000000D+00  0.100000D+01
     19  0.770750D+00  0.000000D+00  0.000000D+00  0.100000D+01
     20  0.000000D+00  0.786104D+00  0.000000D+00  0.000000D+00  0.100000D+01
     21  0.000000D+00  0.000000D+00  0.786104D+00  0.000000D+00  0.000000D+00
     22  0.399331D+00  0.000000D+00  0.000000D+00  0.786104D+00  0.000000D+00
     23  0.000000D+00  0.396387D+00  0.000000D+00  0.000000D+00  0.767321D+00
     24  0.000000D+00  0.000000D+00  0.396387D+00  0.000000D+00  0.000000D+00
     25  0.154477D+00  0.000000D+00  0.000000D+00  0.396387D+00  0.000000D+00
     26  0.000000D+00  0.000000D+00  0.000000D+00  0.000000D+00  0.000000D+00
     27  0.000000D+00  0.000000D+00  0.000000D+00  0.000000D+00  0.000000D+00
     28  0.000000D+00  0.000000D+00  0.000000D+00  0.000000D+00  0.000000D+00
     29  0.000000D+00  0.000000D+00  0.000000D+00  0.000000D+00  0.000000D+00
     30  0.000000D+00  0.000000D+00  0.000000D+00  0.000000D+00  0.000000D+00
     31  0.000000D+00  0.000000D+00  0.000000D+00  0.000000D+00  0.000000D+00
     32  0.000000D+00  0.000000D+00  0.000000D+00  0.000000D+00  0.000000D+00
     33  0.000000D+00  0.000000D+00  0.000000D+00  0.000000D+00  0.000000D+00
     34  0.000000D+00  0.000000D+00  0.000000D+00  0.000000D+00  0.000000D+00
     35  0.000000D+00  0.000000D+00  0.000000D+00  0.000000D+00  0.000000D+00
     36  0.000000D+00  0.000000D+00  0.000000D+00  0.000000D+00  0.000000D+00
     37  0.000000D+00  0.000000D+00  0.000000D+00  0.000000D+00  0.000000D+00
     38  0.000000D+00  0.000000D+00  0.000000D+00  0.000000D+00  0.000000D+00
     39  0.000000D+00  0.000000D+00  0.000000D+00  0.000000D+00  0.000000D+00
     40  0.000000D+00  0.000000D+00  0.000000D+00  0.000000D+00  0.000000D+00
               21            22            23            24            25 
     21  0.100000D+01
     22  0.000000D+00  0.100000D+01
     23  0.000000D+00  0.000000D+00  0.100000D+01
     24  0.767321D+00  0.000000D+00  0.000000D+00  0.100000D+01
     25  0.000000D+00  0.767321D+00  0.000000D+00  0.000000D+00  0.100000D+01
     26  0.000000D+00  0.000000D+00  0.000000D+00  0.000000D+00  0.000000D+00
     27  0.000000D+00  0.000000D+00  0.000000D+00  0.000000D+00  0.000000D+00
     28  0.000000D+00  0.000000D+00  0.000000D+00  0.000000D+00  0.000000D+00
     29  0.000000D+00  0.000000D+00  0.000000D+00  0.000000D+00  0.000000D+00
     30  0.000000D+00  0.000000D+00  0.000000D+00  0.000000D+00  0.000000D+00
     31  0.000000D+00  0.000000D+00  0.000000D+00  0.000000D+00  0.000000D+00
     32  0.000000D+00  0.000000D+00  0.000000D+00  0.000000D+00  0.000000D+00
     33  0.000000D+00  0.000000D+00  0.000000D+00  0.000000D+00  0.000000D+00
     34  0.000000D+00  0.000000D+00  0.000000D+00  0.000000D+00  0.000000D+00
     35  0.000000D+00  0.000000D+00  0.000000D+00  0.000000D+00  0.000000D+00
     36  0.000000D+00  0.000000D+00  0.000000D+00  0.000000D+00  0.000000D+00
     37  0.000000D+00  0.000000D+00  0.000000D+00  0.000000D+00  0.000000D+00
     38  0.000000D+00  0.000000D+00  0.000000D+00  0.000000D+00  0.000000D+00
     39  0.000000D+00  0.000000D+00  0.000000D+00  0.000000D+00  0.000000D+00
     40  0.000000D+00  0.000000D+00  0.000000D+00  0.000000D+00  0.000000D+00
               26            27            28            29            30 
     26  0.100000D+01
     27  0.000000D+00  0.100000D+01
     28  0.000000D+00  0.000000D+00  0.100000D+01
     29  0.000000D+00  0.000000D+00  0.000000D+00  0.100000D+01
     30  0.000000D+00  0.000000D+00  0.000000D+00  0.000000D+00  0.100000D+01
     31  0.534266D+00  0.000000D+00  0.000000D+00  0.000000D+00  0.000000D+00
     32  0.000000D+00  0.534266D+00  0.000000D+00  0.000000D+00  0.000000D+00
     33  0.000000D+00  0.000000D+00  0.534266D+00  0.000000D+00  0.000000D+00
     34  0.000000D+00  0.000000D+00  0.000000D+00  0.534266D+00  0.000000D+00
     35  0.000000D+00  0.000000D+00  0.000000D+00  0.000000D+00  0.534266D+00
     36  0.141295D+00  0.000000D+00  0.000000D+00  0.000000D+00  0.000000D+00
     37  0.000000D+00  0.141295D+00  0.000000D+00  0.000000D+00  0.000000D+00
     38  0.000000D+00  0.000000D+00  0.141295D+00  0.000000D+00  0.000000D+00
     39  0.000000D+00  0.000000D+00  0.000000D+00  0.141295D+00  0.000000D+00
     40  0.000000D+00  0.000000D+00  0.000000D+00  0.000000D+00  0.141295D+00
               31            32            33            34            35 
     31  0.100000D+01
     32  0.000000D+00  0.100000D+01
     33  0.000000D+00  0.000000D+00  0.100000D+01
     34  0.000000D+00  0.000000D+00  0.000000D+00  0.100000D+01
     35  0.000000D+00  0.000000D+00  0.000000D+00  0.000000D+00  0.100000D+01
     36  0.595087D+00  0.000000D+00  0.000000D+00  0.000000D+00  0.000000D+00
     37  0.000000D+00  0.595087D+00  0.000000D+00  0.000000D+00  0.000000D+00
     38  0.000000D+00  0.000000D+00  0.595087D+00  0.000000D+00  0.000000D+00
     39  0.000000D+00  0.000000D+00  0.000000D+00  0.595087D+00  0.000000D+00
     40  0.000000D+00  0.000000D+00  0.000000D+00  0.000000D+00  0.595087D+00
               36            37            38            39            40 
     36  0.100000D+01
     37  0.000000D+00  0.100000D+01
     38  0.000000D+00  0.000000D+00  0.100000D+01
     39  0.000000D+00  0.000000D+00  0.000000D+00  0.100000D+01
     40  0.000000D+00  0.000000D+00  0.000000D+00  0.000000D+00  0.100000D+01
 *** Kinetic Energy *** 
                1             2             3             4             5 
      1  0.760032D+00
      2 -0.177065D-03  0.597470D+03
      3 -0.427744D-03  0.166559D+03  0.143887D+03
      4 -0.833579D-03  0.523017D+02  0.733339D+02  0.597152D+02
      5 -0.208091D-02  0.825600D+01  0.163844D+02  0.218984D+02  0.183307D+02
      6 -0.429943D-02  0.184472D+01  0.408782D+01  0.667633D+01  0.922441D+01
      7 -0.137848D-01  0.176479D+00  0.415672D+00  0.767626D+00  0.156938D+01
      8 -0.212429D-01  0.355734D-01  0.848880D-01  0.161136D+00  0.364030D+00
      9  0.332947D-01  0.155592D-02  0.373994D-02  0.721034D-02  0.172738D-01
     10  0.221406D-01  0.298469D-03  0.718065D-03  0.138703D-02  0.334748D-02
     11  0.000000D+00  0.000000D+00  0.000000D+00  0.000000D+00  0.000000D+00
     12  0.000000D+00  0.000000D+00  0.000000D+00  0.000000D+00  0.000000D+00
     13  0.304403D-03  0.000000D+00  0.000000D+00  0.000000D+00  0.000000D+00
     14  0.000000D+00  0.000000D+00  0.000000D+00  0.000000D+00  0.000000D+00
     15  0.000000D+00  0.000000D+00  0.000000D+00  0.000000D+00  0.000000D+00
     16  0.137483D-02  0.000000D+00  0.000000D+00  0.000000D+00  0.000000D+00
     17  0.000000D+00  0.000000D+00  0.000000D+00  0.000000D+00  0.000000D+00
     18  0.000000D+00  0.000000D+00  0.000000D+00  0.000000D+00  0.000000D+00
     19  0.516453D-02  0.000000D+00  0.000000D+00  0.000000D+00  0.000000D+00
     20  0.000000D+00  0.000000D+00  0.000000D+00  0.000000D+00  0.000000D+00
     21  0.000000D+00  0.000000D+00  0.000000D+00  0.000000D+00  0.000000D+00
     22  0.127874D-01  0.000000D+00  0.000000D+00  0.000000D+00  0.000000D+00
     23  0.000000D+00  0.000000D+00  0.000000D+00  0.000000D+00  0.000000D+00
     24  0.000000D+00  0.000000D+00  0.000000D+00  0.000000D+00  0.000000D+00
     25 -0.186811D-01  0.000000D+00  0.000000D+00  0.000000D+00  0.000000D+00
     26 -0.355583D-02  0.000000D+00  0.000000D+00  0.000000D+00  0.000000D+00
     27  0.000000D+00  0.000000D+00  0.000000D+00  0.000000D+00  0.000000D+00
     28  0.000000D+00  0.000000D+00  0.000000D+00  0.000000D+00  0.000000D+00
     29  0.000000D+00  0.000000D+00  0.000000D+00  0.000000D+00  0.000000D+00
     30  0.000000D+00  0.000000D+00  0.000000D+00  0.000000D+00  0.000000D+00
     31  0.231019D-02  0.000000D+00  0.000000D+00  0.000000D+00  0.000000D+00
     32  0.000000D+00  0.000000D+00  0.000000D+00  0.000000D+00  0.000000D+00
     33  0.000000D+00  0.000000D+00  0.000000D+00  0.000000D+00  0.000000D+00
     34  0.000000D+00  0.000000D+00  0.000000D+00  0.000000D+00  0.000000D+00
     35  0.000000D+00  0.000000D+00  0.000000D+00  0.000000D+00  0.000000D+00
     36  0.176078D+00  0.000000D+00  0.000000D+00  0.000000D+00  0.000000D+00
     37  0.000000D+00  0.000000D+00  0.000000D+00  0.000000D+00  0.000000D+00
     38  0.000000D+00  0.000000D+00  0.000000D+00  0.000000D+00  0.000000D+00
     39  0.000000D+00  0.000000D+00  0.000000D+00  0.000000D+00  0.000000D+00
     40  0.000000D+00  0.000000D+00  0.000000D+00  0.000000D+00  0.000000D+00
                6             7             8             9            10 
      6  0.751323D+01
      7  0.222222D+01  0.192854D+01
      8  0.617239D+00  0.943624D+00  0.769209D+00
      9  0.328918D-01  0.809965D-01  0.128900D+00  0.128364D+00
     10  0.647132D-02  0.171148D-01  0.310607D-01  0.612141D-01  0.499530D-01
     11  0.000000D+00  0.000000D+00  0.000000D+00  0.000000D+00  0.000000D+00
     12  0.000000D+00  0.000000D+00  0.000000D+00  0.000000D+00  0.000000D+00
     13  0.000000D+00  0.000000D+00  0.000000D+00  0.000000D+00  0.000000D+00
     14  0.000000D+00  0.000000D+00  0.000000D+00  0.000000D+00  0.000000D+00
     15  0.000000D+00  0.000000D+00  0.000000D+00  0.000000D+00  0.000000D+00
     16  0.000000D+00  0.000000D+00  0.000000D+00  0.000000D+00  0.000000D+00
     17  0.000000D+00  0.000000D+00  0.000000D+00  0.000000D+00  0.000000D+00
     18  0.000000D+00  0.000000D+00  0.000000D+00  0.000000D+00  0.000000D+00
     19  0.000000D+00  0.000000D+00  0.000000D+00  0.000000D+00  0.000000D+00
     20  0.000000D+00  0.000000D+00  0.000000D+00  0.000000D+00  0.000000D+00
     21  0.000000D+00  0.000000D+00  0.000000D+00  0.000000D+00  0.000000D+00
     22  0.000000D+00  0.000000D+00  0.000000D+00  0.000000D+00  0.000000D+00
     23  0.000000D+00  0.000000D+00  0.000000D+00  0.000000D+00  0.000000D+00
     24  0.000000D+00  0.000000D+00  0.000000D+00  0.000000D+00  0.000000D+00
     25  0.000000D+00  0.000000D+00  0.000000D+00  0.000000D+00  0.000000D+00
     26  0.000000D+00  0.000000D+00  0.000000D+00  0.000000D+00  0.000000D+00
     27  0.000000D+00  0.000000D+00  0.000000D+00  0.000000D+00  0.000000D+00
     28  0.000000D+00  0.000000D+00  0.000000D+00  0.000000D+00  0.000000D+00
     29  0.000000D+00  0.000000D+00  0.000000D+00  0.000000D+00  0.000000D+00
     30  0.000000D+00  0.000000D+00  0.000000D+00  0.000000D+00  0.000000D+00
     31  0.000000D+00  0.000000D+00  0.000000D+00  0.000000D+00  0.000000D+00
     32  0.000000D+00  0.000000D+00  0.000000D+00  0.000000D+00  0.000000D+00
     33  0.000000D+00  0.000000D+00  0.000000D+00  0.000000D+00  0.000000D+00
     34  0.000000D+00  0.000000D+00  0.000000D+00  0.000000D+00  0.000000D+00
     35  0.000000D+00  0.000000D+00  0.000000D+00  0.000000D+00  0.000000D+00
     36  0.000000D+00  0.000000D+00  0.000000D+00  0.000000D+00  0.000000D+00
     37  0.000000D+00  0.000000D+00  0.000000D+00  0.000000D+00  0.000000D+00
     38  0.000000D+00  0.000000D+00  0.000000D+00  0.000000D+00  0.000000D+00
     39  0.000000D+00  0.000000D+00  0.000000D+00  0.000000D+00  0.000000D+00
     40  0.000000D+00  0.000000D+00  0.000000D+00  0.000000D+00  0.000000D+00
               11            12            13            14            15 
     11  0.621479D+02
     12  0.000000D+00  0.621479D+02
     13  0.000000D+00  0.000000D+00  0.621479D+02
     14  0.155284D+02  0.000000D+00  0.000000D+00  0.156866D+02
     15  0.000000D+00  0.155284D+02  0.000000D+00  0.000000D+00  0.156866D+02
     16  0.000000D+00  0.000000D+00  0.155284D+02  0.000000D+00  0.000000D+00
     17  0.348444D+01  0.000000D+00  0.000000D+00  0.684751D+01  0.000000D+00
     18  0.000000D+00  0.348444D+01  0.000000D+00  0.000000D+00  0.684751D+01
     19  0.000000D+00  0.000000D+00  0.348444D+01  0.000000D+00  0.000000D+00
     20  0.615214D+00  0.000000D+00  0.000000D+00  0.174617D+01  0.000000D+00
     21  0.000000D+00  0.615214D+00  0.000000D+00  0.000000D+00  0.174617D+01
     22  0.000000D+00  0.000000D+00  0.615214D+00  0.000000D+00  0.000000D+00
     23  0.846020D-01  0.000000D+00  0.000000D+00  0.289184D+00  0.000000D+00
     24  0.000000D+00  0.846020D-01  0.000000D+00  0.000000D+00  0.289184D+00
     25  0.000000D+00  0.000000D+00  0.846020D-01  0.000000D+00  0.000000D+00
     26  0.000000D+00  0.000000D+00  0.000000D+00  0.000000D+00  0.000000D+00
     27  0.000000D+00  0.000000D+00  0.000000D+00  0.000000D+00  0.000000D+00
     28  0.000000D+00  0.000000D+00  0.000000D+00  0.000000D+00  0.000000D+00
     29  0.000000D+00  0.000000D+00  0.000000D+00  0.000000D+00  0.000000D+00
     30  0.000000D+00  0.000000D+00  0.000000D+00  0.000000D+00  0.000000D+00
     31  0.000000D+00  0.000000D+00  0.000000D+00  0.000000D+00  0.000000D+00
     32  0.000000D+00  0.000000D+00  0.000000D+00  0.000000D+00  0.000000D+00
     33  0.000000D+00  0.000000D+00  0.000000D+00  0.000000D+00  0.000000D+00
     34  0.000000D+00  0.000000D+00  0.000000D+00  0.000000D+00  0.000000D+00
     35  0.000000D+00  0.000000D+00  0.000000D+00  0.000000D+00  0.000000D+00
     36  0.000000D+00  0.000000D+00  0.000000D+00  0.000000D+00  0.000000D+00
     37  0.000000D+00  0.000000D+00  0.000000D+00  0.000000D+00  0.000000D+00
     38  0.000000D+00  0.000000D+00  0.000000D+00  0.000000D+00  0.000000D+00
     39  0.000000D+00  0.000000D+00  0.000000D+00  0.000000D+00  0.000000D+00
     40  0.000000D+00  0.000000D+00  0.000000D+00  0.000000D+00  0.000000D+00
               16            17            18            19            20 
     16  0.156866D+02
     17  0.000000D+00  0.619695D+01
     18  0.000000D+00  0.000000D+00  0.619695D+01
     19  0.684751D+01  0.000000D+00  0.000000D+00  0.619695D+01
     20  0.000000D+00  0.283280D+01  0.000000D+00  0.000000D+00  0.254045D+01
     21  0.000000D+00  0.000000D+00  0.283280D+01  0.000000D+00  0.000000D+00
     22  0.174617D+01  0.000000D+00  0.000000D+00  0.283280D+01  0.000000D+00
     23  0.000000D+00  0.679917D+00  0.000000D+00  0.000000D+00  0.109755D+01
     24  0.000000D+00  0.000000D+00  0.679917D+00  0.000000D+00  0.000000D+00
     25  0.289184D+00  0.000000D+00  0.000000D+00  0.679917D+00  0.000000D+00
     26  0.000000D+00  0.000000D+00  0.000000D+00  0.000000D+00  0.000000D+00
     27  0.000000D+00  0.000000D+00  0.000000D+00  0.000000D+00  0.000000D+00
     28  0.000000D+00  0.000000D+00  0.000000D+00  0.000000D+00  0.000000D+00
     29  0.000000D+00  0.000000D+00  0.000000D+00  0.000000D+00  0.000000D+00
     30  0.000000D+00  0.000000D+00  0.000000D+00  0.000000D+00  0.000000D+00
     31  0.000000D+00  0.000000D+00  0.000000D+00  0.000000D+00  0.000000D+00
     32  0.000000D+00  0.000000D+00  0.000000D+00  0.000000D+00  0.000000D+00
     33  0.000000D+00  0.000000D+00  0.000000D+00  0.000000D+00  0.000000D+00
     34  0.000000D+00  0.000000D+00  0.000000D+00  0.000000D+00  0.000000D+00
     35  0.000000D+00  0.000000D+00  0.000000D+00  0.000000D+00  0.000000D+00
     36  0.000000D+00  0.000000D+00  0.000000D+00  0.000000D+00  0.000000D+00
     37  0.000000D+00  0.000000D+00  0.000000D+00  0.000000D+00  0.000000D+00
     38  0.000000D+00  0.000000D+00  0.000000D+00  0.000000D+00  0.000000D+00
     39  0.000000D+00  0.000000D+00  0.000000D+00  0.000000D+00  0.000000D+00
     40  0.000000D+00  0.000000D+00  0.000000D+00  0.000000D+00  0.000000D+00
               21            22            23            24            25 
     21  0.254045D+01
     22  0.000000D+00  0.254045D+01
     23  0.000000D+00  0.000000D+00  0.995405D+00
     24  0.109755D+01  0.000000D+00  0.000000D+00  0.995405D+00
     25  0.000000D+00  0.109755D+01  0.000000D+00  0.000000D+00  0.995405D+00
     26  0.000000D+00  0.000000D+00  0.000000D+00  0.000000D+00  0.000000D+00
     27  0.000000D+00  0.000000D+00  0.000000D+00  0.000000D+00  0.000000D+00
     28  0.000000D+00  0.000000D+00  0.000000D+00  0.000000D+00  0.000000D+00
     29  0.000000D+00  0.000000D+00  0.000000D+00  0.000000D+00  0.000000D+00
     30  0.000000D+00  0.000000D+00  0.000000D+00  0.000000D+00  0.000000D+00
     31  0.000000D+00  0.000000D+00  0.000000D+00  0.000000D+00  0.000000D+00
     32  0.000000D+00  0.000000D+00  0.000000D+00  0.000000D+00  0.000000D+00
     33  0.000000D+00  0.000000D+00  0.000000D+00  0.000000D+00  0.000000D+00
     34  0.000000D+00  0.000000D+00  0.000000D+00  0.000000D+00  0.000000D+00
     35  0.000000D+00  0.000000D+00  0.000000D+00  0.000000D+00  0.000000D+00
     36  0.000000D+00  0.000000D+00  0.000000D+00  0.000000D+00  0.000000D+00
     37  0.000000D+00  0.000000D+00  0.000000D+00  0.000000D+00  0.000000D+00
     38  0.000000D+00  0.000000D+00  0.000000D+00  0.000000D+00  0.000000D+00
     39  0.000000D+00  0.000000D+00  0.000000D+00  0.000000D+00  0.000000D+00
     40  0.000000D+00  0.000000D+00  0.000000D+00  0.000000D+00  0.000000D+00
               26            27            28            29            30 
     26  0.115033D+02
     27  0.000000D+00  0.115033D+02
     28  0.000000D+00  0.000000D+00  0.115033D+02
     29  0.000000D+00  0.000000D+00  0.000000D+00  0.115033D+02
     30  0.000000D+00  0.000000D+00  0.000000D+00  0.000000D+00  0.115033D+02
     31  0.227575D+01  0.000000D+00  0.000000D+00  0.000000D+00  0.000000D+00
     32  0.000000D+00  0.227575D+01  0.000000D+00  0.000000D+00  0.000000D+00
     33  0.000000D+00  0.000000D+00  0.227575D+01  0.000000D+00  0.000000D+00
     34  0.000000D+00  0.000000D+00  0.000000D+00  0.227575D+01  0.000000D+00
     35  0.000000D+00  0.000000D+00  0.000000D+00  0.000000D+00  0.227575D+01
     36  0.234260D+00  0.000000D+00  0.000000D+00  0.000000D+00  0.000000D+00
     37  0.000000D+00  0.234260D+00  0.000000D+00  0.000000D+00  0.000000D+00
     38  0.000000D+00  0.000000D+00  0.234260D+00  0.000000D+00  0.000000D+00
     39  0.000000D+00  0.000000D+00  0.000000D+00  0.234260D+00  0.000000D+00
     40  0.000000D+00  0.000000D+00  0.000000D+00  0.000000D+00  0.234260D+00
               31            32            33            34            35 
     31  0.280069D+01
     32  0.000000D+00  0.280069D+01
     33  0.000000D+00  0.000000D+00  0.280069D+01
     34  0.000000D+00  0.000000D+00  0.000000D+00  0.280069D+01
     35  0.000000D+00  0.000000D+00  0.000000D+00  0.000000D+00  0.280069D+01
     36  0.822305D+00  0.000000D+00  0.000000D+00  0.000000D+00  0.000000D+00
     37  0.000000D+00  0.822305D+00  0.000000D+00  0.000000D+00  0.000000D+00
     38  0.000000D+00  0.000000D+00  0.822305D+00  0.000000D+00  0.000000D+00
     39  0.000000D+00  0.000000D+00  0.000000D+00  0.822305D+00  0.000000D+00
     40  0.000000D+00  0.000000D+00  0.000000D+00  0.000000D+00  0.822305D+00
               36            37            38            39            40 
     36  0.917172D+00
     37  0.000000D+00  0.917172D+00
     38  0.000000D+00  0.000000D+00  0.917172D+00
     39  0.000000D+00  0.000000D+00  0.000000D+00  0.917172D+00
     40  0.000000D+00  0.000000D+00  0.000000D+00  0.000000D+00  0.917172D+00
 Entering OneElI...
 Calculate potential energy integrals
    NBasis =  40  MinDer = 0  MaxDer = 0
 Requested accuracy = 0.1000D-12
 Symmetry will be used
 PrmmSu-InSpLW:  IPartL=    0 NPrtUS=   36 NPrtUL=    1 DoSpLW=F IThBeg=    0 IThEnd=   35 NThAct=   36.
 PrSmSu:  IncTry=   512 NBBP=            342 NTPThr=   100 NPartT=   36 Incr=           1 LDynOK=F GPUOK=F.
 PrsmSu:  NPrtUS=  36 ThrOK=T IAlg=1 LenDen=           0 ISkipM=0 DoSpLW=F IThBeg=    0 IThEnd=   35.
 Prism:   IPart=     0 DynPar=F LinDyn=F Incr=           1.
 PRISM was handed   268429454 working-precision words and   171 shell-pairs
 PRISM was handed   268429454 working-precision words and   171 shell-pairs
 PRISM was handed   268429454 working-precision words and   171 shell-pairs
 PRISM was handed   268429454 working-precision words and   171 shell-pairs
 PRISM was handed   268429454 working-precision words and   171 shell-pairs
 PRISM was handed   268429454 working-precision words and   171 shell-pairs
 PRISM was handed   268429454 working-precision words and   171 shell-pairs
 PRISM was handed   268429454 working-precision words and   171 shell-pairs
 PRISM was handed   268429454 working-precision words and   171 shell-pairs
 PRISM was handed   268429454 working-precision words and   171 shell-pairs
 PRISM was handed   268429454 working-precision words and   171 shell-pairs
 PRISM was handed   268429454 working-precision words and   171 shell-pairs
 PRISM was handed   268429454 working-precision words and   171 shell-pairs
 PRISM was handed   268429454 working-precision words and   171 shell-pairs
 PRISM was handed   268429454 working-precision words and   171 shell-pairs
 PRISM was handed   268429454 working-precision words and   171 shell-pairs
 PRISM was handed   268429454 working-precision words and   171 shell-pairs
 PRISM was handed   268429454 working-precision words and   171 shell-pairs
 PRISM was handed   268429454 working-precision words and   171 shell-pairs
 PRISM was handed   268429454 working-precision words and   171 shell-pairs
 PRISM was handed   268429454 working-precision words and   171 shell-pairs
 PRISM was handed   268429454 working-precision words and   171 shell-pairs
 PRISM was handed   268429454 working-precision words and   171 shell-pairs
 PRISM was handed   268429454 working-precision words and   171 shell-pairs
 PRISM was handed   268429454 working-precision words and   171 shell-pairs
 PRISM was handed   268429454 working-precision words and   171 shell-pairs
 PRISM was handed   268429454 working-precision words and   171 shell-pairs
 PRISM was handed   268429454 working-precision words and   171 shell-pairs
 PRISM was handed   268429454 working-precision words and   171 shell-pairs
 PRISM was handed   268429454 working-precision words and   171 shell-pairs
 PRISM was handed   268429454 working-precision words and   171 shell-pairs
 PRISM was handed   268429454 working-precision words and   171 shell-pairs
 PRISM was handed   268429454 working-precision words and   171 shell-pairs
 PRISM was handed   268429454 working-precision words and   171 shell-pairs
 PRISM was handed   268429454 working-precision words and   171 shell-pairs
 PRISM was handed   268429454 working-precision words and   171 shell-pairs
 IPart= 23 NShTot=           4 NBatch=           2 AvBLen=         2.0
 IPart= 18 NShTot=           4 NBatch=           2 AvBLen=         2.0
 IPart= 27 NShTot=           4 NBatch=           2 AvBLen=         2.0
 IPart= 21 NShTot=           4 NBatch=           2 AvBLen=         2.0
 IPart=  9 NShTot=          10 NBatch=           5 AvBLen=         2.0
 IPart= 12 NShTot=           6 NBatch=           3 AvBLen=         2.0
 IPart= 30 NShTot=           4 NBatch=           2 AvBLen=         2.0
 IPart= 28 NShTot=           4 NBatch=           2 AvBLen=         2.0
 IPart= 11 NShTot=           6 NBatch=           3 AvBLen=         2.0
 IPart= 16 NShTot=           4 NBatch=           2 AvBLen=         2.0
 IPart= 34 NShTot=           2 NBatch=           1 AvBLen=         2.0
 IPart= 14 NShTot=           6 NBatch=           3 AvBLen=         2.0
 IPart= 25 NShTot=           4 NBatch=           2 AvBLen=         2.0
 IPart=  0 NShTot=          56 NBatch=          28 AvBLen=         2.0
 IPart=  8 NShTot=          10 NBatch=           5 AvBLen=         2.0
 IPart= 10 NShTot=           6 NBatch=           3 AvBLen=         2.0
 IPart=  5 NShTot=          18 NBatch=           9 AvBLen=         2.0
 IPart=  3 NShTot=          26 NBatch=          13 AvBLen=         2.0
 IPart=  7 NShTot=          16 NBatch=           8 AvBLen=         2.0
 IPart= 35 NShTot=           2 NBatch=           1 AvBLen=         2.0
 IPart= 19 NShTot=           4 NBatch=           2 AvBLen=         2.0
 IPart= 15 NShTot=           6 NBatch=           3 AvBLen=         2.0
 IPart=  2 NShTot=          28 NBatch=          14 AvBLen=         2.0
 IPart= 26 NShTot=           4 NBatch=           2 AvBLen=         2.0
 IPart= 33 NShTot=           2 NBatch=           1 AvBLen=         2.0
 IPart= 32 NShTot=           2 NBatch=           1 AvBLen=         2.0
 IPart= 31 NShTot=           4 NBatch=           2 AvBLen=         2.0
 IPart= 29 NShTot=           4 NBatch=           2 AvBLen=         2.0
 IPart=  6 NShTot=          16 NBatch=           8 AvBLen=         2.0
 IPart= 22 NShTot=           4 NBatch=           2 AvBLen=         2.0
 IPart= 20 NShTot=           4 NBatch=           2 AvBLen=         2.0
 IPart= 24 NShTot=           4 NBatch=           2 AvBLen=         2.0
 IPart=  1 NShTot=          36 NBatch=          18 AvBLen=         2.0
 IPart= 13 NShTot=           6 NBatch=           3 AvBLen=         2.0
 IPart=  4 NShTot=          18 NBatch=           9 AvBLen=         2.0
 IPart= 17 NShTot=           4 NBatch=           2 AvBLen=         2.0
 PrSmSu:  NxtVal=             37.
 ***** Potential Energy ***** 
                1             2             3             4             5 
      1  0.774254D+01
      2  0.301150D+00  0.754417D+03
      3  0.392821D+00  0.406707D+03  0.344138D+03
      4  0.490387D+00  0.242317D+03  0.251547D+03  0.221804D+03
      5  0.663211D+00  0.108345D+03  0.130220D+03  0.140021D+03  0.123023D+03
      6  0.839666D+00  0.567710D+02  0.714747D+02  0.832783D+02  0.894377D+02
      7  0.125794D+01  0.207191D+02  0.267630D+02  0.327553D+02  0.411593D+02
      8  0.179297D+01  0.104249D+02  0.135399D+02  0.167551D+02  0.219136D+02
      9  0.306738D+01  0.272569D+01  0.355096D+01  0.442157D+01  0.592052D+01
     10  0.252536D+01  0.134319D+01  0.175054D+01  0.218140D+01  0.292955D+01
     11  0.000000D+00  0.000000D+00  0.000000D+00  0.000000D+00  0.000000D+00
     12  0.000000D+00  0.000000D+00  0.000000D+00  0.000000D+00  0.000000D+00
     13 -0.108877D+00 -0.724017D-03 -0.286726D-02 -0.638232D-02 -0.113396D-01
     14  0.000000D+00  0.000000D+00  0.000000D+00  0.000000D+00  0.000000D+00
     15  0.000000D+00  0.000000D+00  0.000000D+00  0.000000D+00  0.000000D+00
     16 -0.251706D+00 -0.113180D-03 -0.716851D-03 -0.271460D-02 -0.109717D-01
     17  0.000000D+00  0.000000D+00  0.000000D+00  0.000000D+00  0.000000D+00
     18  0.000000D+00  0.000000D+00  0.000000D+00  0.000000D+00  0.000000D+00
     19 -0.520518D+00 -0.367642D-04 -0.246793D-03 -0.105401D-02 -0.610226D-02
     20  0.000000D+00  0.000000D+00  0.000000D+00  0.000000D+00  0.000000D+00
     21  0.000000D+00  0.000000D+00  0.000000D+00  0.000000D+00  0.000000D+00
     22 -0.108992D+01 -0.122325D-04 -0.840443D-04 -0.377551D-03 -0.260135D-02
     23  0.000000D+00  0.000000D+00  0.000000D+00  0.000000D+00  0.000000D+00
     24  0.000000D+00  0.000000D+00  0.000000D+00  0.000000D+00  0.000000D+00
     25 -0.241506D+01 -0.381503D-05 -0.264736D-04 -0.121590D-03 -0.908814D-03
     26  0.197141D+00  0.000000D+00  0.774379D-05  0.540798D-04  0.520095D-03
     27  0.000000D+00  0.000000D+00  0.000000D+00  0.000000D+00  0.000000D+00
     28  0.000000D+00  0.000000D+00  0.000000D+00  0.000000D+00  0.000000D+00
     29  0.000000D+00  0.000000D+00  0.000000D+00  0.000000D+00  0.000000D+00
     30  0.000000D+00  0.000000D+00  0.000000D+00  0.000000D+00  0.000000D+00
     31  0.984239D+00  0.000000D+00  0.000000D+00  0.321053D-05  0.709424D-04
     32  0.000000D+00  0.000000D+00  0.000000D+00  0.000000D+00  0.000000D+00
     33  0.000000D+00  0.000000D+00  0.000000D+00  0.000000D+00  0.000000D+00
     34  0.000000D+00  0.000000D+00  0.000000D+00  0.000000D+00  0.000000D+00
     35  0.000000D+00  0.000000D+00  0.000000D+00  0.000000D+00  0.000000D+00
     36  0.311933D+01  0.000000D+00  0.000000D+00  0.000000D+00  0.116584D-04
     37  0.000000D+00  0.000000D+00  0.000000D+00  0.000000D+00  0.000000D+00
     38  0.000000D+00  0.000000D+00  0.000000D+00  0.000000D+00  0.000000D+00
     39  0.000000D+00  0.000000D+00  0.000000D+00  0.000000D+00  0.000000D+00
     40  0.000000D+00  0.000000D+00  0.000000D+00  0.000000D+00  0.000000D+00
                6             7             8             9            10 
      6  0.788672D+02
      7  0.453082D+02  0.401036D+02
      8  0.259313D+02  0.288192D+02  0.254367D+02
      9  0.733986D+01  0.988154D+01  0.114242D+02  0.105521D+02
     10  0.365399D+01  0.506266D+01  0.617195D+01  0.751226D+01  0.663837D+01
     11  0.000000D+00  0.000000D+00  0.000000D+00  0.000000D+00  0.000000D+00
     12  0.000000D+00  0.000000D+00  0.000000D+00  0.000000D+00  0.000000D+00
     13 -0.112934D-01 -0.643473D-02 -0.360400D-02 -0.100249D-02 -0.497843D-03
     14  0.000000D+00  0.000000D+00  0.000000D+00  0.000000D+00  0.000000D+00
     15  0.000000D+00  0.000000D+00  0.000000D+00  0.000000D+00  0.000000D+00
     16 -0.193330D-01 -0.189715D-01 -0.124681D-01 -0.382989D-02 -0.192635D-02
     17  0.000000D+00  0.000000D+00  0.000000D+00  0.000000D+00  0.000000D+00
     18  0.000000D+00  0.000000D+00  0.000000D+00  0.000000D+00  0.000000D+00
     19 -0.168795D-01 -0.339631D-01 -0.302779D-01 -0.116207D-01 -0.602813D-02
     20  0.000000D+00  0.000000D+00  0.000000D+00  0.000000D+00  0.000000D+00
     21  0.000000D+00  0.000000D+00  0.000000D+00  0.000000D+00  0.000000D+00
     22 -0.953321D-02 -0.381049D-01 -0.531846D-01 -0.315046D-01 -0.175281D-01
     23  0.000000D+00  0.000000D+00  0.000000D+00  0.000000D+00  0.000000D+00
     24  0.000000D+00  0.000000D+00  0.000000D+00  0.000000D+00  0.000000D+00
     25 -0.387352D-02 -0.258098D-01 -0.601653D-01 -0.755645D-01 -0.491268D-01
     26  0.204138D-02  0.672348D-02  0.741259D-02  0.332678D-02  0.176367D-02
     27  0.000000D+00  0.000000D+00  0.000000D+00  0.000000D+00  0.000000D+00
     28  0.000000D+00  0.000000D+00  0.000000D+00  0.000000D+00  0.000000D+00
     29  0.000000D+00  0.000000D+00  0.000000D+00  0.000000D+00  0.000000D+00
     30  0.000000D+00  0.000000D+00  0.000000D+00  0.000000D+00  0.000000D+00
     31  0.612704D-03  0.796421D-02  0.201993D-01  0.208898D-01  0.127245D-01
     32  0.000000D+00  0.000000D+00  0.000000D+00  0.000000D+00  0.000000D+00
     33  0.000000D+00  0.000000D+00  0.000000D+00  0.000000D+00  0.000000D+00
     34  0.000000D+00  0.000000D+00  0.000000D+00  0.000000D+00  0.000000D+00
     35  0.000000D+00  0.000000D+00  0.000000D+00  0.000000D+00  0.000000D+00
     36  0.122067D-03  0.320843D-02  0.180748D-01  0.656637D-01  0.516999D-01
     37  0.000000D+00  0.000000D+00  0.000000D+00  0.000000D+00  0.000000D+00
     38  0.000000D+00  0.000000D+00  0.000000D+00  0.000000D+00  0.000000D+00
     39  0.000000D+00  0.000000D+00  0.000000D+00  0.000000D+00  0.000000D+00
     40  0.000000D+00  0.000000D+00  0.000000D+00  0.000000D+00  0.000000D+00
               11            12            13            14            15 
     11  0.122683D+03
     12  0.000000D+00  0.122683D+03
     13  0.000000D+00  0.000000D+00  0.122684D+03
     14  0.575457D+02  0.000000D+00  0.000000D+00  0.589223D+02
     15  0.000000D+00  0.575457D+02  0.000000D+00  0.000000D+00  0.589223D+02
     16  0.000000D+00  0.000000D+00  0.575468D+02  0.000000D+00  0.000000D+00
     17  0.249473D+02  0.000000D+00  0.000000D+00  0.379663D+02  0.000000D+00
     18  0.000000D+00  0.249473D+02  0.000000D+00  0.000000D+00  0.379663D+02
     19  0.000000D+00  0.000000D+00  0.249479D+02  0.000000D+00  0.000000D+00
     20  0.947952D+01  0.000000D+00  0.000000D+00  0.179623D+02  0.000000D+00
     21  0.000000D+00  0.947952D+01  0.000000D+00  0.000000D+00  0.179623D+02
     22  0.000000D+00  0.000000D+00  0.947980D+01  0.000000D+00  0.000000D+00
     23  0.314148D+01  0.000000D+00  0.000000D+00  0.664948D+01  0.000000D+00
     24  0.000000D+00  0.314148D+01  0.000000D+00  0.000000D+00  0.664948D+01
     25  0.000000D+00  0.000000D+00  0.314158D+01  0.000000D+00  0.000000D+00
     26  0.000000D+00  0.000000D+00 -0.470583D-02  0.000000D+00  0.000000D+00
     27 -0.401515D-02  0.000000D+00  0.000000D+00 -0.144167D-01  0.000000D+00
     28  0.000000D+00 -0.401515D-02  0.000000D+00  0.000000D+00 -0.144167D-01
     29  0.000000D+00  0.000000D+00  0.000000D+00  0.000000D+00  0.000000D+00
     30  0.000000D+00  0.000000D+00  0.000000D+00  0.000000D+00  0.000000D+00
     31  0.000000D+00  0.000000D+00 -0.516079D-03  0.000000D+00  0.000000D+00
     32 -0.438034D-03  0.000000D+00  0.000000D+00 -0.348376D-02  0.000000D+00
     33  0.000000D+00 -0.438034D-03  0.000000D+00  0.000000D+00 -0.348376D-02
     34  0.000000D+00  0.000000D+00  0.000000D+00  0.000000D+00  0.000000D+00
     35  0.000000D+00  0.000000D+00  0.000000D+00  0.000000D+00  0.000000D+00
     36  0.000000D+00  0.000000D+00 -0.823131D-04  0.000000D+00  0.000000D+00
     37 -0.698111D-04  0.000000D+00  0.000000D+00 -0.650425D-03  0.000000D+00
     38  0.000000D+00 -0.698111D-04  0.000000D+00  0.000000D+00 -0.650425D-03
     39  0.000000D+00  0.000000D+00  0.000000D+00  0.000000D+00  0.000000D+00
     40  0.000000D+00  0.000000D+00  0.000000D+00  0.000000D+00  0.000000D+00
               16            17            18            19            20 
     16  0.589254D+02
     17  0.000000D+00  0.371424D+02
     18  0.000000D+00  0.000000D+00  0.371424D+02
     19  0.379697D+02  0.000000D+00  0.000000D+00  0.371503D+02
     20  0.000000D+00  0.245515D+02  0.000000D+00  0.000000D+00  0.238833D+02
     21  0.000000D+00  0.000000D+00  0.245515D+02  0.000000D+00  0.000000D+00
     22  0.179645D+02  0.000000D+00  0.000000D+00  0.245603D+02  0.000000D+00
     23  0.000000D+00  0.112426D+02  0.000000D+00  0.000000D+00  0.153227D+02
     24  0.000000D+00  0.000000D+00  0.112426D+02  0.000000D+00  0.000000D+00
     25  0.665038D+01  0.000000D+00  0.000000D+00  0.112480D+02  0.000000D+00
     26 -0.172000D-01  0.000000D+00  0.000000D+00 -0.325197D-01  0.000000D+00
     27  0.000000D+00 -0.264905D-01  0.000000D+00  0.000000D+00 -0.274107D-01
     28  0.000000D+00  0.000000D+00 -0.264905D-01  0.000000D+00  0.000000D+00
     29  0.000000D+00  0.000000D+00  0.000000D+00  0.000000D+00  0.000000D+00
     30  0.000000D+00  0.000000D+00  0.000000D+00  0.000000D+00  0.000000D+00
     31 -0.421371D-02  0.000000D+00  0.000000D+00 -0.200847D-01  0.000000D+00
     32  0.000000D+00 -0.157445D-01  0.000000D+00  0.000000D+00 -0.394457D-01
     33  0.000000D+00  0.000000D+00 -0.157445D-01  0.000000D+00  0.000000D+00
     34  0.000000D+00  0.000000D+00  0.000000D+00  0.000000D+00  0.000000D+00
     35  0.000000D+00  0.000000D+00  0.000000D+00  0.000000D+00  0.000000D+00
     36 -0.789706D-03  0.000000D+00  0.000000D+00 -0.539214D-02  0.000000D+00
     37  0.000000D+00 -0.414583D-02  0.000000D+00  0.000000D+00 -0.184973D-01
     38  0.000000D+00  0.000000D+00 -0.414583D-02  0.000000D+00  0.000000D+00
     39  0.000000D+00  0.000000D+00  0.000000D+00  0.000000D+00  0.000000D+00
     40  0.000000D+00  0.000000D+00  0.000000D+00  0.000000D+00  0.000000D+00
               21            22            23            24            25 
     21  0.238833D+02
     22  0.000000D+00  0.239025D+02
     23  0.000000D+00  0.000000D+00  0.150485D+02
     24  0.153227D+02  0.000000D+00  0.000000D+00  0.150485D+02
     25  0.000000D+00  0.153439D+02  0.000000D+00  0.000000D+00  0.150974D+02
     26  0.000000D+00 -0.346665D-01  0.000000D+00  0.000000D+00 -0.213080D-01
     27  0.000000D+00  0.000000D+00 -0.164759D-01  0.000000D+00  0.000000D+00
     28 -0.274107D-01  0.000000D+00  0.000000D+00 -0.164759D-01  0.000000D+00
     29  0.000000D+00  0.000000D+00  0.000000D+00  0.000000D+00  0.000000D+00
     30  0.000000D+00  0.000000D+00  0.000000D+00  0.000000D+00  0.000000D+00
     31  0.000000D+00 -0.544625D-01  0.000000D+00  0.000000D+00 -0.760418D-01
     32  0.000000D+00  0.000000D+00 -0.503071D-01  0.000000D+00  0.000000D+00
     33 -0.394457D-01  0.000000D+00  0.000000D+00 -0.503071D-01  0.000000D+00
     34  0.000000D+00  0.000000D+00  0.000000D+00  0.000000D+00  0.000000D+00
     35  0.000000D+00  0.000000D+00  0.000000D+00  0.000000D+00  0.000000D+00
     36  0.000000D+00 -0.275008D-01  0.000000D+00  0.000000D+00 -0.955795D-01
     37  0.000000D+00  0.000000D+00 -0.516852D-01  0.000000D+00  0.000000D+00
     38 -0.184973D-01  0.000000D+00  0.000000D+00 -0.516852D-01  0.000000D+00
     39  0.000000D+00  0.000000D+00  0.000000D+00  0.000000D+00  0.000000D+00
     40  0.000000D+00  0.000000D+00  0.000000D+00  0.000000D+00  0.000000D+00
               26            27            28            29            30 
     26  0.353679D+02
     27  0.000000D+00  0.353652D+02
     28  0.000000D+00  0.000000D+00  0.353652D+02
     29  0.000000D+00  0.000000D+00  0.000000D+00  0.353590D+02
     30  0.000000D+00  0.000000D+00  0.000000D+00  0.000000D+00  0.353590D+02
     31  0.134442D+02  0.000000D+00  0.000000D+00  0.000000D+00  0.000000D+00
     32  0.000000D+00  0.134412D+02  0.000000D+00  0.000000D+00  0.000000D+00
     33  0.000000D+00  0.000000D+00  0.134412D+02  0.000000D+00  0.000000D+00
     34  0.000000D+00  0.000000D+00  0.000000D+00  0.134354D+02  0.000000D+00
     35  0.000000D+00  0.000000D+00  0.000000D+00  0.000000D+00  0.134354D+02
     36  0.320431D+01  0.000000D+00  0.000000D+00  0.000000D+00  0.000000D+00
     37  0.000000D+00  0.320330D+01  0.000000D+00  0.000000D+00  0.000000D+00
     38  0.000000D+00  0.000000D+00  0.320330D+01  0.000000D+00  0.000000D+00
     39  0.000000D+00  0.000000D+00  0.000000D+00  0.320144D+01  0.000000D+00
     40  0.000000D+00  0.000000D+00  0.000000D+00  0.000000D+00  0.320144D+01
               31            32            33            34            35 
     31  0.170659D+02
     32  0.000000D+00  0.170510D+02
     33  0.000000D+00  0.000000D+00  0.170510D+02
     34  0.000000D+00  0.000000D+00  0.000000D+00  0.170299D+02
     35  0.000000D+00  0.000000D+00  0.000000D+00  0.000000D+00  0.170299D+02
     36  0.831671D+01  0.000000D+00  0.000000D+00  0.000000D+00  0.000000D+00
     37  0.000000D+00  0.830038D+01  0.000000D+00  0.000000D+00  0.000000D+00
     38  0.000000D+00  0.000000D+00  0.830038D+01  0.000000D+00  0.000000D+00
     39  0.000000D+00  0.000000D+00  0.000000D+00  0.828301D+01  0.000000D+00
     40  0.000000D+00  0.000000D+00  0.000000D+00  0.000000D+00  0.828301D+01
               36            37            38            39            40 
     36  0.995342D+01
     37  0.000000D+00  0.988168D+01
     38  0.000000D+00  0.000000D+00  0.988168D+01
     39  0.000000D+00  0.000000D+00  0.000000D+00  0.983781D+01
     40  0.000000D+00  0.000000D+00  0.000000D+00  0.000000D+00  0.983781D+01
 ****** Core Hamiltonian ****** 
                1             2             3             4             5 
      1 -0.698251D+01
      2 -0.301327D+00 -0.156946D+03
      3 -0.393248D+00 -0.240149D+03 -0.200251D+03
      4 -0.491220D+00 -0.190015D+03 -0.178213D+03 -0.162089D+03
      5 -0.665292D+00 -0.100089D+03 -0.113836D+03 -0.118123D+03 -0.104692D+03
      6 -0.843965D+00 -0.549263D+02 -0.673869D+02 -0.766020D+02 -0.802133D+02
      7 -0.127173D+01 -0.205427D+02 -0.263474D+02 -0.319876D+02 -0.395899D+02
      8 -0.181421D+01 -0.103894D+02 -0.134551D+02 -0.165940D+02 -0.215496D+02
      9 -0.303409D+01 -0.272413D+01 -0.354722D+01 -0.441436D+01 -0.590325D+01
     10 -0.250322D+01 -0.134290D+01 -0.174982D+01 -0.218001D+01 -0.292620D+01
     11  0.000000D+00  0.000000D+00  0.000000D+00  0.000000D+00  0.000000D+00
     12  0.000000D+00  0.000000D+00  0.000000D+00  0.000000D+00  0.000000D+00
     13  0.109181D+00  0.724017D-03  0.286726D-02  0.638232D-02  0.113396D-01
     14  0.000000D+00  0.000000D+00  0.000000D+00  0.000000D+00  0.000000D+00
     15  0.000000D+00  0.000000D+00  0.000000D+00  0.000000D+00  0.000000D+00
     16  0.253081D+00  0.113180D-03  0.716851D-03  0.271460D-02  0.109717D-01
     17  0.000000D+00  0.000000D+00  0.000000D+00  0.000000D+00  0.000000D+00
     18  0.000000D+00  0.000000D+00  0.000000D+00  0.000000D+00  0.000000D+00
     19  0.525682D+00  0.367642D-04  0.246793D-03  0.105401D-02  0.610226D-02
     20  0.000000D+00  0.000000D+00  0.000000D+00  0.000000D+00  0.000000D+00
     21  0.000000D+00  0.000000D+00  0.000000D+00  0.000000D+00  0.000000D+00
     22  0.110271D+01  0.122325D-04  0.840443D-04  0.377551D-03  0.260135D-02
     23  0.000000D+00  0.000000D+00  0.000000D+00  0.000000D+00  0.000000D+00
     24  0.000000D+00  0.000000D+00  0.000000D+00  0.000000D+00  0.000000D+00
     25  0.239637D+01  0.381503D-05  0.264736D-04  0.121590D-03  0.908814D-03
     26 -0.200697D+00  0.000000D+00 -0.774379D-05 -0.540798D-04 -0.520095D-03
     27  0.000000D+00  0.000000D+00  0.000000D+00  0.000000D+00  0.000000D+00
     28  0.000000D+00  0.000000D+00  0.000000D+00  0.000000D+00  0.000000D+00
     29  0.000000D+00  0.000000D+00  0.000000D+00  0.000000D+00  0.000000D+00
     30  0.000000D+00  0.000000D+00  0.000000D+00  0.000000D+00  0.000000D+00
     31 -0.981929D+00  0.000000D+00  0.000000D+00 -0.321053D-05 -0.709424D-04
     32  0.000000D+00  0.000000D+00  0.000000D+00  0.000000D+00  0.000000D+00
     33  0.000000D+00  0.000000D+00  0.000000D+00  0.000000D+00  0.000000D+00
     34  0.000000D+00  0.000000D+00  0.000000D+00  0.000000D+00  0.000000D+00
     35  0.000000D+00  0.000000D+00  0.000000D+00  0.000000D+00  0.000000D+00
     36 -0.294325D+01  0.000000D+00  0.000000D+00  0.000000D+00 -0.116584D-04
     37  0.000000D+00  0.000000D+00  0.000000D+00  0.000000D+00  0.000000D+00
     38  0.000000D+00  0.000000D+00  0.000000D+00  0.000000D+00  0.000000D+00
[...]
 DIIS: error= 3.02D-09 at cycle  19 NSaved=  16.
 NSaved=16 IEnMin=15 EnMin= -848.822034436465     IErMin=16 ErrMin= 3.02D-09
 ErrMax= 3.02D-09  0.00D+00 EMaxC= 1.00D-01 BMatC= 8.53D-16 BMatP= 1.11D-14
 IDIUse=1 WtCom= 1.00D+00 WtEn= 0.00D+00
 Large coefficients: NSaved= 16 BigCof=    0.00 CofMax=   10.00 Det=-3.26D-16
 Inversion failed.  Reducing to 15 matrices.
 Coeff-Com:  0.195D-06 0.195D-06-0.162D-05-0.174D-05 0.279D-05-0.271D-05
 Coeff-Com: -0.121D-05-0.369D-04 0.102D-03 0.208D-03-0.348D-02 0.151D-01
 Coeff-Com:  0.629D-01-0.471D+00 0.140D+01
 Coeff:      0.195D-06 0.195D-06-0.162D-05-0.174D-05 0.279D-05-0.271D-05
 Coeff:     -0.121D-05-0.369D-04 0.102D-03 0.208D-03-0.348D-02 0.151D-01
 Coeff:      0.629D-01-0.471D+00 0.140D+01
 Gap=     0.335 Goal=   None    Shift=    0.000
 Gap=     0.351 Goal=   None    Shift=    0.000
 RMSDP=3.71D-09 MaxDP=1.00D-07 DE= 2.27D-13 OVMax= 4.70D-08

 SCF Done:  E(UHF) =  -848.822034436     A.U. after   19 cycles
            NFock= 19  Conv=0.37D-08     -V/T= 1.9993
 <Sx>= 0.0000 <Sy>= 0.0000 <Sz>= 1.5000 <S**2>= 3.7898 S= 1.5099
 <L.S>= 0.000000000000E+00
 KE= 8.494457234197D+02 PE=-2.027020607419D+03 EE= 3.222296811647D+02
 Annihilation of the first spin contaminant:
 S**2 before annihilation     3.7898,   after     3.7500
 Leave Link  502 at Thu Mar 24 16:00:26 2022, MaxMem=  9663676416 cpu:               7.1 elap:               0.3
 (Enter /nopt/nrel/apps/gaussian/g16C_1/g16/l801.exe)
 Windowed orbitals will be sorted by symmetry type.
 ExpMin= 3.33D-02 ExpMax= 2.06D+05 ExpMxC= 7.20D+03 IAcc=3 IRadAn=         5 AccDes= 0.00D+00
 HarFok:  IExCor=  205 AccDes= 0.00D+00 IRadAn=         5 IDoV=-2 UseB2=F ITyADJ=14
 ICtDFT= 12500011 ScaDFX=  1.000000  1.000000  1.000000  1.000000
 Largest valence mixing into a core orbital is  1.34D-03
 Largest core mixing into a valence orbital is  6.72D-04
 Largest valence mixing into a core orbital is  1.32D-03
 Largest core mixing into a valence orbital is  9.51D-05
 Range of M.O.s used for correlation:    10    40
 NBasis=    40 NAE=    13 NBE=    10 NFC=     9 NFV=     0
 NROrb=     31 NOA=     4 NOB=     1 NVA=    27 NVB=    30
 Leave Link  801 at Thu Mar 24 16:00:27 2022, MaxMem=  9663676416 cpu:               1.4 elap:               0.1
 (Enter /nopt/nrel/apps/gaussian/g16C_1/g16/l804.exe)
 Open-shell transformation, MDV=  9663676416 ITran=4 ISComp=2.
 Unit  1 TFree=        102531 TCopy=        245133.
 Semi-Direct transformation.
 ModeAB=           2 MOrb=             4 LenV=    9663476381
 LASXX=        13843 LTotXX=       13843 LenRXX=       13843
 LTotAB=       15952 MaxLAS=      117304 LenRXY=      117304
 NonZer=      124744 LenScr=      785920 LnRSAI=           0
 LnScr1=           0 LExtra=      251695 Total=      1168762
 MaxDsk= 34359738368 SrtSym=           F ITran=            4
 DoSDTr:  NPSUse= 36
 JobTyp=1 Pass  1:  I=   1 to   4.
 (rs|ai) integrals will be sorted in core.
 Complete sort for first half transformation.
 First half transformation complete.
 Complete sort for second half transformation.
 Second half transformation complete.
 ModeAB=           2 MOrb=             1 LenV=    9663476381
 LASXX=         3915 LTotXX=        3915 LenRXX=       29326
 LTotAB=        3477 MaxLAS=       29326 LenRXY=        3477
 NonZer=       31186 LenScr=      785920 LnRSAI=           0
 LnScr1=           0 LExtra=      382842 Total=      1201565
 MaxDsk= 34359738368 SrtSym=           F ITran=            4
 DoSDTr:  NPSUse= 36
 JobTyp=2 Pass  1:  I=   1 to   1.
 (rs|ai) integrals will be sorted in core.
 Complete sort for first half transformation.
 First half transformation complete.
 Complete sort for second half transformation.
 Second half transformation complete.
 Spin components of T(2) and E(2):
     alpha-alpha T2 =       0.4323905787D-02 E2=     -0.1024395936D-01
     alpha-beta  T2 =       0.8925881485D-02 E2=     -0.1311452168D-01
     beta-beta   T2 =       0.0000000000D+00 E2=      0.0000000000D+00
 ANorm=    0.1006603093D+01
 E2 =    -0.2335848105D-01 EUMP2 =    -0.84884539291751D+03
 (S**2,0)=  0.37898D+01           (S**2,1)=  0.37777D+01
 E(PUHF)=      -0.84882348430D+03        E(PMP2)=      -0.84884662222D+03
 Leave Link  804 at Thu Mar 24 16:00:27 2022, MaxMem=  9663676416 cpu:               5.4 elap:               0.2
 (Enter /nopt/nrel/apps/gaussian/g16C_1/g16/l913.exe)
 CIDS:  MDV=  9663676416.
 Frozen-core window:  NFC=   9 NFV=   0.
 IFCWin=0 IBDFC=1 NFBD=     0     0 NFCmp=     0     0 NFFFC=     0     0
 Using original routines for 1st iteration.
 Using DD4UQ or CC4UQ for 2nd and later iterations.
 Keep R2 and R3 ints in memory in symmetry-blocked form, NReq=7756610.
 FoFCou: FMM=F IPFlag=           0 FMFlag=           0 FMFlg1=           0
         NFxFlg=           0 DoJE=F BraDBF=F KetDBF=F FulRan=T
         wScrn=  0.000000 ICntrl=       600 IOpCl=  0 I1Cent=           0 NGrid=           0
         NMat0=    1 NMatS0=    820 NMatT0=    0 NMatD0=    1 NMtDS0=    0 NMtDT0=    0
 Petite list used in FoFCou.
 CIDS: In Core Option IDoMem=           1.
 Coupled Cluster theory with single and double substitutions
 ===========================================================
 Iterations=  50 Convergence= 0.100D-06
 Produce multiple copies of IABC intergrals
 Iteration Nr.   1
 **********************
 DD1Dir will call FoFMem   1 times, MxPair=        14
 NAB=     4 NAA=     6 NBB=     0.
 E(PMP3)=      -0.84885361628D+03
 MP4(R+Q)=  0.19967732D-03
 Maximum subspace dimension=  5
 A-vector RMS=  8.1329565D-03 Max=  2.3892945D-02 conv= 1.00D-05.
 RLE energy=       -0.0333626827
 E3=       -0.71861025D-02        EUMP3=      -0.84885257902D+03
 E4(DQ)=   -0.30280245D-02        UMP4(DQ)=   -0.84885560704D+03
 E4(SDQ)=  -0.39381904D-02        UMP4(SDQ)=  -0.84885651721D+03
 VARIATIONAL ENERGIES WITH THE FIRST-ORDER WAVEFUNCTION:
 DE(Corr)= -0.30362822E-01 E(Corr)=     -848.85239726    
 NORM(A)=   0.10172301D+01
 Iteration Nr.   2
 **********************
 DD1Dir will call FoFMem   1 times, MxPair=        14
 NAB=     4 NAA=     6 NBB=     0.
 A-vector RMS=  7.2297595D-03 Max=  1.8167100D-02 conv= 1.00D-05.
 RLE energy=       -0.0424835303
 DE(Corr)= -0.35940923E-01 E(CORR)=     -848.85797536     Delta=-5.58D-03
 NORM(A)=   0.10416367D+01
 Iteration Nr.   3
 **********************
 DD1Dir will call FoFMem   1 times, MxPair=        14
 NAB=     4 NAA=     6 NBB=     0.
 A-vector RMS=  4.7453296D-03 Max=  1.5172606D-02 conv= 1.00D-05.
 RLE energy=       -0.0472630394
 DE(Corr)= -0.42523738E-01 E(CORR)=     -848.86455817     Delta=-6.58D-03
 NORM(A)=   0.10712371D+01
 Iteration Nr.   4
 **********************
 DD1Dir will call FoFMem   1 times, MxPair=        14
 NAB=     4 NAA=     6 NBB=     0.
 A-vector RMS=  1.3573855D-03 Max=  1.3909798D-02 conv= 1.00D-05.
 RLE energy=       -0.0489501438
 DE(Corr)= -0.47243585E-01 E(CORR)=     -848.86927802     Delta=-4.72D-03
 NORM(A)=   0.10868669D+01
 Iteration Nr.   5
 **********************
 DD1Dir will call FoFMem   1 times, MxPair=        14
 NAB=     4 NAA=     6 NBB=     0.
 A-vector RMS=  2.0151434D-03 Max=  1.2328912D-02 conv= 1.00D-05.
 RLE energy=       -0.0512269751
 DE(Corr)= -0.48896434E-01 E(CORR)=     -848.87093087     Delta=-1.65D-03
 NORM(A)=   0.11136612D+01
 Iteration Nr.   6
 **********************
 DD1Dir will call FoFMem   1 times, MxPair=        14
 NAB=     4 NAA=     6 NBB=     0.
 A-vector RMS=  2.7434559D-03 Max=  8.9535937D-03 conv= 1.00D-05.
 RLE energy=       -0.0542279896
 DE(Corr)= -0.51070280E-01 E(CORR)=     -848.87310472     Delta=-2.17D-03
 NORM(A)=   0.11752817D+01
 Iteration Nr.   7
 **********************
 DD1Dir will call FoFMem   1 times, MxPair=        14
 NAB=     4 NAA=     6 NBB=     0.
 A-vector RMS=  2.0796865D-03 Max=  6.1798420D-03 conv= 1.00D-05.
 RLE energy=       -0.0543818322
 DE(Corr)= -0.53960252E-01 E(CORR)=     -848.87599469     Delta=-2.89D-03
 NORM(A)=   0.11891813D+01
 Iteration Nr.   8
 **********************
 DD1Dir will call FoFMem   1 times, MxPair=        14
 NAB=     4 NAA=     6 NBB=     0.
 A-vector RMS=  1.2172595D-03 Max=  3.6126248D-03 conv= 1.00D-05.
 RLE energy=       -0.0546253999
 DE(Corr)= -0.54348478E-01 E(CORR)=     -848.87638291     Delta=-3.88D-04
 NORM(A)=   0.11966152D+01
 Iteration Nr.   9
 **********************
 DD1Dir will call FoFMem   1 times, MxPair=        14
 NAB=     4 NAA=     6 NBB=     0.
 A-vector RMS=  5.2124052D-04 Max=  1.5037250D-03 conv= 1.00D-05.
 RLE energy=       -0.0545140843
 DE(Corr)= -0.54616692E-01 E(CORR)=     -848.87665113     Delta=-2.68D-04
 NORM(A)=   0.11958310D+01
 Iteration Nr.  10
 **********************
 DD1Dir will call FoFMem   1 times, MxPair=        14
 NAB=     4 NAA=     6 NBB=     0.
 A-vector RMS=  2.5767035D-04 Max=  7.1469220D-04 conv= 1.00D-05.
 RLE energy=       -0.0544906368
 DE(Corr)= -0.54539569E-01 E(CORR)=     -848.87657401     Delta= 7.71D-05
 NORM(A)=   0.11953896D+01
 Iteration Nr.  11
 **********************
 DD1Dir will call FoFMem   1 times, MxPair=        14
 NAB=     4 NAA=     6 NBB=     0.
 A-vector RMS=  7.5111201D-05 Max=  2.2140387D-04 conv= 1.00D-05.
 RLE energy=       -0.0544300419
 DE(Corr)= -0.54489633E-01 E(CORR)=     -848.87652407     Delta= 4.99D-05
 NORM(A)=   0.11946589D+01
 Iteration Nr.  12
 **********************
 DD1Dir will call FoFMem   1 times, MxPair=        14
 NAB=     4 NAA=     6 NBB=     0.
 A-vector RMS=  2.2867647D-05 Max=  6.3707808D-05 conv= 1.00D-05.
 RLE energy=       -0.0544204860
 DE(Corr)= -0.54435293E-01 E(CORR)=     -848.87646973     Delta= 5.43D-05
 NORM(A)=   0.11943870D+01
 Iteration Nr.  13
 **********************
 DD1Dir will call FoFMem   1 times, MxPair=        14
 NAB=     4 NAA=     6 NBB=     0.
 A-vector RMS=  9.5659085D-06 Max=  3.7631887D-05 conv= 1.00D-05.
 RLE energy=       -0.0544091676
 DE(Corr)= -0.54422232E-01 E(CORR)=     -848.87645667     Delta= 1.31D-05
 NORM(A)=   0.11941135D+01
 Iteration Nr.  14
 **********************
 DD1Dir will call FoFMem   1 times, MxPair=        14
 NAB=     4 NAA=     6 NBB=     0.
 A-vector RMS=  1.0640604D-05 Max=  2.4051983D-05 conv= 1.00D-05.
 RLE energy=       -0.0544134842
 DE(Corr)= -0.54411620E-01 E(CORR)=     -848.87644606     Delta= 1.06D-05
 NORM(A)=   0.11940817D+01
 Iteration Nr.  15
 **********************
 DD1Dir will call FoFMem   1 times, MxPair=        14
 NAB=     4 NAA=     6 NBB=     0.
 A-vector RMS=  6.6400049D-06 Max=  1.7680887D-05 conv= 1.00D-05.
 RLE energy=       -0.0544132285
 DE(Corr)= -0.54414330E-01 E(CORR)=     -848.87644877     Delta=-2.71D-06
 NORM(A)=   0.11940277D+01
 Iteration Nr.  16
 **********************
 DD1Dir will call FoFMem   1 times, MxPair=        14
 NAB=     4 NAA=     6 NBB=     0.
 A-vector RMS=  3.4703911D-06 Max=  1.0594314D-05 conv= 1.00D-05.
 RLE energy=       -0.0544136475
 DE(Corr)= -0.54413846E-01 E(CORR)=     -848.87644828     Delta= 4.84D-07
 NORM(A)=   0.11940170D+01
 Iteration Nr.  17
 **********************
 DD1Dir will call FoFMem   1 times, MxPair=        14
 NAB=     4 NAA=     6 NBB=     0.
 A-vector RMS=  2.0670972D-06 Max=  6.3977954D-06 conv= 1.00D-05.
 RLE energy=       -0.0544135355
 DE(Corr)= -0.54413795E-01 E(CORR)=     -848.87644823     Delta= 5.13D-08
 NORM(A)=   0.11940104D+01
 CI/CC converged in   17 iterations to DelEn= 5.13D-08 Conv= 1.00D-07 ErrA1= 2.07D-06 Conv= 1.00D-05
 Wavefunction amplitudes converged. E(Corr)=     -848.87644823    
 Dominant configurations:
 ***********************
 Spin Case        I    J    A    B          Value
    AA           10        17            0.127673D+00
    AA           13        17           -0.110034D+00
    BB           10        11           -0.124840D+00
   AAAA          11   12   15   16      -0.541425D+00
   ABAB          10   10   17   11      -0.118907D+00
   ABAB          10   10   17   17       0.119822D+00
 Largest amplitude= 5.41D-01

 S**2, projected HF & approx projected MPn energies after annihilation of
 unwanted spin states (see manual for definitions):

 spins       (S**2,0) (S**2,1)    PUHF        PMP2        PMP3        PMP4
 annihilated
 s+1         3.74998  3.74999 -848.823484 -848.846622 -848.853616

 Discarding MO integrals.
 Leave Link  913 at Thu Mar 24 16:00:27 2022, MaxMem=  9663676416 cpu:               9.7 elap:               0.3
 (Enter /nopt/nrel/apps/gaussian/g16C_1/g16/l601.exe)
 Copying SCF densities to generalized density rwf, IOpCl= 1 IROHF=0.

 **********************************************************************

            Population analysis using the SCF Density.

 **********************************************************************

 Orbital symmetries:
 Alpha Orbitals:
       Occupied  (SG) (SG) (PI) (PI) (SG) (SG) (SG) (PI) (PI) (SG)
                 (PI) (PI) (SG)
       Virtual   (SG) (DLTA) (DLTA) (SG) (PI) (PI) (PI) (PI) (SG)
                 (DLTA) (DLTA) (SG) (SG) (PI) (PI) (DLTA) (DLTA)
                 (SG) (PI) (PI) (SG) (SG) (PI) (PI) (SG) (SG) (SG)
 Beta  Orbitals:
       Occupied  (SG) (SG) (PI) (PI) (SG) (SG) (PI) (PI) (SG) (SG)
       Virtual   (SG) (SG) (DLTA) (DLTA) (PI) (PI) (SG) (PI) (PI)
                 (DLTA) (DLTA) (SG) (PI) (PI) (SG) (SG) (DLTA)
                 (DLTA) (PI) (PI) (SG) (PI) (PI) (SG) (SG) (PI)
                 (PI) (SG) (SG) (SG)
 The electronic state is 4-SG.
 Alpha  occ. eigenvalues -- -183.20838 -21.36582 -17.74472 -17.74472 -17.74091
 Alpha  occ. eigenvalues --   -2.87487  -1.85474  -1.80051  -1.80051  -0.45103
 Alpha  occ. eigenvalues --   -0.37071  -0.37071  -0.18901
 Alpha virt. eigenvalues --    0.14587   0.18730   0.18730   0.27698   0.89474
 Alpha virt. eigenvalues --    0.89474   0.91812   0.91812   0.94957   0.98214
 Alpha virt. eigenvalues --    0.98214   1.22201   2.08663   3.94471   3.94471
 Alpha virt. eigenvalues --    3.98199   3.98199   4.06015   5.69667   5.69667
 Alpha virt. eigenvalues --    5.82160  18.55869  24.99863  24.99863  25.09137
 Alpha virt. eigenvalues --  110.71640 601.29943
  Beta  occ. eigenvalues -- -183.20932 -21.33186 -17.71912 -17.71912 -17.69274
  Beta  occ. eigenvalues --   -2.73953  -1.67613  -1.67613  -1.59825  -0.23666
  Beta virt. eigenvalues --    0.11468   0.21069   0.24558   0.24558   0.28885
  Beta virt. eigenvalues --    0.28885   0.37664   0.97654   0.97654   1.01616
  Beta virt. eigenvalues --    1.01616   1.02207   1.05468   1.05468   1.29831
  Beta virt. eigenvalues --    2.13677   4.01092   4.01092   4.06310   4.06310
  Beta virt. eigenvalues --    4.09916   5.73157   5.73157   5.88748  18.58646
  Beta virt. eigenvalues --   25.01418  25.01418  25.12215 110.72192 601.30013
          Condensed to atoms (all electrons):
               1          2
     1  H    0.885451   0.158731
     2  Ti   0.158731  21.797087
          Atomic-Atomic Spin Densities.
               1          2
     1  H    0.614998  -0.068265
     2  Ti  -0.068265   2.521532
 Mulliken charges and spin densities:
               1          2
     1  H   -0.044182   0.546733
     2  Ti   0.044182   2.453267
 Sum of Mulliken charges =  -0.00000   3.00000
 Mulliken charges and spin densities with hydrogens summed into heavy atoms:
               1          2
     2  Ti  -0.000000   3.000000
 N-N= 6.523168398185D+00 E-N=-2.027020607498D+03  KE= 8.494457234197D+02
 Symmetry A1   KE= 6.565081042185D+02
 Symmetry A2   KE=-6.642936058460D-50
 Symmetry B1   KE= 9.646880960059D+01
 Symmetry B2   KE= 9.646880960059D+01
 Symmetry A1   SP= 1.000000000000D+00
 Symmetry A2   SP=-3.788303403440D-50
 Symmetry B1   SP= 1.000000000000D+00
 Symmetry B2   SP= 1.000000000000D+00

 Atomic contributions to Alpha molecular orbitals:
 Alpha occ 1 OE=-183.208 is Ti2-s=1.0000
 Alpha occ 2 OE=-21.366 is Ti2-s=1.0000
 Alpha occ 3 OE=-17.745 is Ti2-p=1.0000
 Alpha occ 4 OE=-17.745 is Ti2-p=1.0000
 Alpha occ 5 OE=-17.741 is Ti2-p=1.0000
 Alpha occ 6 OE=-2.875 is Ti2-s=0.9996
 Alpha occ 7 OE=-1.855 is Ti2-p=0.9965
 Alpha occ 8 OE=-1.801 is Ti2-p=1.0000
 Alpha occ 9 OE=-1.801 is Ti2-p=1.0000
 Alpha occ 10 OE=-0.451 is H1-s=0.7578 Ti2-s=0.1312
 Alpha occ 11 OE=-0.371 is Ti2-d=0.9999
 Alpha occ 12 OE=-0.371 is Ti2-d=0.9999
 Alpha occ 13 OE=-0.189 is Ti2-s=0.7701 Ti2-d=0.1891
 Alpha vir 14 OE=0.146 is Ti2-s=0.9028
 Alpha vir 15 OE=0.187 is Ti2-d=1.0000
 Alpha vir 16 OE=0.187 is Ti2-d=1.0000
 Alpha vir 17 OE=0.277 is Ti2-d=0.6306 Ti2-s=0.1882 H1-s=0.1537
 Alpha vir 18 OE=0.895 is Ti2-d=0.9477
 Alpha vir 19 OE=0.895 is Ti2-d=0.9477
 Alpha vir 20 OE=0.918 is Ti2-p=0.9476
 Alpha vir 21 OE=0.918 is Ti2-p=0.9476
 Alpha vir 22 OE=0.950 is Ti2-d=0.5082 Ti2-p=0.4894
 Alpha vir 23 OE=0.982 is Ti2-d=1.0000
 Alpha vir 24 OE=0.982 is Ti2-d=1.0000
 Alpha vir 25 OE=1.222 is Ti2-d=0.4867 Ti2-p=0.4595
 Alpha vir 26 OE=2.087 is Ti2-s=0.9981
 Alpha vir 27 OE=3.945 is Ti2-d=1.0000
 Alpha vir 28 OE=3.945 is Ti2-d=1.0000
 Alpha vir 29 OE=3.982 is Ti2-d=1.0000
 Alpha vir 30 OE=3.982 is Ti2-d=1.0000
 Alpha vir 31 OE=4.060 is Ti2-d=0.9975
 Alpha vir 32 OE=5.697 is Ti2-p=1.0000
 Alpha vir 33 OE=5.697 is Ti2-p=1.0000
 Alpha vir 34 OE=5.822 is Ti2-p=0.9968
 Alpha vir 35 OE=18.559 is Ti2-s=1.0000
 Alpha vir 36 OE=24.999 is Ti2-p=1.0000
 Alpha vir 37 OE=24.999 is Ti2-p=1.0000
 Alpha vir 38 OE=25.091 is Ti2-p=0.9999
 Alpha vir 39 OE=110.716 is Ti2-s=1.0000
 Alpha vir 40 OE=601.299 is Ti2-s=1.0000

 Atomic contributions to Beta  molecular orbitals:
 Beta  occ 1 OE=-183.209 is Ti2-s=1.0000
 Beta  occ 2 OE=-21.332 is Ti2-s=1.0000
 Beta  occ 3 OE=-17.719 is Ti2-p=1.0000
 Beta  occ 4 OE=-17.719 is Ti2-p=1.0000
 Beta  occ 5 OE=-17.693 is Ti2-p=1.0000
 Beta  occ 6 OE=-2.740 is Ti2-s=0.9993
 Beta  occ 7 OE=-1.676 is Ti2-p=1.0000
 Beta  occ 8 OE=-1.676 is Ti2-p=1.0000
 Beta  occ 9 OE=-1.598 is Ti2-p=0.9975
 Beta  occ 10 OE=-0.237 is Ti2-s=0.7156 H1-s=0.2461
 Beta  vir 11 OE=0.115 is Ti2-s=0.5492 H1-s=0.2627 Ti2-d=0.1762
 Beta  vir 12 OE=0.211 is Ti2-s=0.6802 Ti2-d=0.2181
 Beta  vir 13 OE=0.246 is Ti2-d=1.0000
 Beta  vir 14 OE=0.246 is Ti2-d=1.0000
 Beta  vir 15 OE=0.289 is Ti2-d=0.9999
 Beta  vir 16 OE=0.289 is Ti2-d=0.9999
 Beta  vir 17 OE=0.377 is Ti2-d=0.5722 H1-s=0.3182
 Beta  vir 18 OE=0.977 is Ti2-p=0.9997
 Beta  vir 19 OE=0.977 is Ti2-p=0.9997
 Beta  vir 20 OE=1.016 is Ti2-d=1.0000
 Beta  vir 21 OE=1.016 is Ti2-d=1.0000
 Beta  vir 22 OE=1.022 is Ti2-d=0.6042 Ti2-p=0.3943
 Beta  vir 23 OE=1.055 is Ti2-d=0.9997
 Beta  vir 24 OE=1.055 is Ti2-d=0.9997
 Beta  vir 25 OE=1.298 is Ti2-p=0.5250 Ti2-d=0.3946
 Beta  vir 26 OE=2.137 is Ti2-s=0.9983
 Beta  vir 27 OE=4.011 is Ti2-d=1.0000
 Beta  vir 28 OE=4.011 is Ti2-d=1.0000
 Beta  vir 29 OE=4.063 is Ti2-d=1.0000
 Beta  vir 30 OE=4.063 is Ti2-d=1.0000
 Beta  vir 31 OE=4.099 is Ti2-d=0.9972
 Beta  vir 32 OE=5.732 is Ti2-p=1.0000
 Beta  vir 33 OE=5.732 is Ti2-p=1.0000
 Beta  vir 34 OE=5.887 is Ti2-p=0.9968
 Beta  vir 35 OE=18.586 is Ti2-s=1.0000
 Beta  vir 36 OE=25.014 is Ti2-p=1.0000
 Beta  vir 37 OE=25.014 is Ti2-p=1.0000
 Beta  vir 38 OE=25.122 is Ti2-p=0.9999
 Beta  vir 39 OE=110.722 is Ti2-s=1.0000
 Beta  vir 40 OE=601.300 is Ti2-s=1.0000
 
 Leave Link  601 at Thu Mar 24 16:00:27 2022, MaxMem=  9663676416 cpu:               5.1 elap:               0.2
 (Enter /nopt/nrel/apps/gaussian/g16C_1/g16/l9999.exe)

 Test job not archived.
 1\1\GINC-R6I7N35\SP\UCCSD-FC\Gen\H1Ti1(4)\USER\24-Mar-2022\0\\#P C
 CSD/GEN sp pop=AllOrbitals iop(3/33=1,3/36=-1)\\test\\0,4\H,0,0.,0.,0.
 \Ti,0,0.,0.,1.7847\\Version=ES64L-G16RevC.01\State=4-SG\HF=-848.822034
 4\MP2=-848.8453929\MP3=-848.852579\MP4D=-848.8558067\MP4DQ=-848.855607
 \PUHF=-848.8234843\PMP2-0=-848.8466222\PMP3-0=-848.8536163\MP4SDQ=-848
 .8565172\CCSD=-848.8764482\S2=3.789821\S2-1=3.777701\S2A=3.75002\RMSD=
 3.713e-09\PG=C*V [C*(H1Ti1)]\\@


 YOU CAN LEAD A BOY TO COLLEGE....
 BUT YOU CANNOT MAKE HIM THINK....
           ELBERT HUBBARD
 Job cpu time:       0 days  0 hours  0 minutes 48.3 seconds.
 Elapsed time:       0 days  0 hours  0 minutes  1.7 seconds.
 File lengths (MBytes):  RWF=     14 Int=      0 D2E=      0 Chk=      1 Scr=      1
 Normal termination of Gaussian 16 at Thu Mar 24 16:00:27 2022.
