 Entering Gaussian System, Link 0=g16
 Initial command:
 /nopt/nrel/apps/gaussian/g16C_1/g16/l1.exe "/lustre/eaglefs/scratch/user/qc/lih-dissc/lih-3-ccsd-1.8-321g/Gau-33643.inp" -scrdir="/lustre/eaglefs/scratch/user/qc/lih-dissc/lih-3-ccsd-1.8-321g/"
 Default is to use a total of  36 processors:
                               36 via shared-memory
                                1 via Linda
 Entering Link 1 = /nopt/nrel/apps/gaussian/g16C_1/g16/l1.exe PID=     33644.
  
 Copyright (c) 1988-2019, Gaussian, Inc.  All Rights Reserved.
  
 This is part of the Gaussian(R) 16 program.  It is based on
 the Gaussian(R) 09 system (copyright 2009, Gaussian, Inc.),
 the Gaussian(R) 03 system (copyright 2003, Gaussian, Inc.),
 the Gaussian(R) 98 system (copyright 1998, Gaussian, Inc.),
 the Gaussian(R) 94 system (copyright 1995, Gaussian, Inc.),
 the Gaussian 92(TM) system (copyright 1992, Gaussian, Inc.),
 the Gaussian 90(TM) system (copyright 1990, Gaussian, Inc.),
 the Gaussian 88(TM) system (copyright 1988, Gaussian, Inc.),
 the Gaussian 86(TM) system (copyright 1986, Carnegie Mellon
 University), and the Gaussian 82(TM) system (copyright 1983,
 Carnegie Mellon University). Gaussian is a federally registered
 trademark of Gaussian, Inc.
  
 This software contains proprietary and confidential information,
 including trade secrets, belonging to Gaussian, Inc.
  
 This software is provided under written license and may be
 used, copied, transmitted, or stored only in accord with that
 written license.
  
 The following legend is applicable only to US Government
 contracts under FAR:
  
                    RESTRICTED RIGHTS LEGEND
  
 Use, reproduction and disclosure by the US Government is
 subject to restrictions as set forth in subparagraphs (a)
 and (c) of the Commercial Computer Software - Restricted
 Rights clause in FAR 52.227-19.
  
 Gaussian, Inc.
 340 Quinnipiac St., Bldg. 40, Wallingford CT 06492
  
  
 ---------------------------------------------------------------
 Warning -- This program may not be used in any manner that
 competes with the business of Gaussian, Inc. or will provide
 assistance to any competitor of Gaussian, Inc.  The licensee
 of this program is prohibited from giving any competitor of
 Gaussian, Inc. access to this program.  By using this program,
 the user acknowledges that Gaussian, Inc. is engaged in the
 business of creating and licensing software in the field of
 computational chemistry and represents and warrants to the
 licensee that it is not a competitor of Gaussian, Inc. and that
 it will not use this program in any manner prohibited above.
 ---------------------------------------------------------------
  

 Cite this work as:
 Gaussian 16, Revision C.01,
 M. J. Frisch, G. W. Trucks, H. B. Schlegel, G. E. Scuseria, 
 M. A. Robb, J. R. Cheeseman, G. Scalmani, V. Barone, 
 G. A. Petersson, H. Nakatsuji, X. Li, M. Caricato, A. V. Marenich, 
 J. Bloino, B. G. Janesko, R. Gomperts, B. Mennucci, H. P. Hratchian, 
 J. V. Ortiz, A. F. Izmaylov, J. L. Sonnenberg, D. Williams-Young, 
 F. Ding, F. Lipparini, F. Egidi, J. Goings, B. Peng, A. Petrone, 
 T. Henderson, D. Ranasinghe, V. G. Zakrzewski, J. Gao, N. Rega, 
 G. Zheng, W. Liang, M. Hada, M. Ehara, K. Toyota, R. Fukuda, 
 J. Hasegawa, M. Ishida, T. Nakajima, Y. Honda, O. Kitao, H. Nakai, 
 T. Vreven, K. Throssell, J. A. Montgomery, Jr., J. E. Peralta, 
 F. Ogliaro, M. J. Bearpark, J. J. Heyd, E. N. Brothers, K. N. Kudin, 
 V. N. Staroverov, T. A. Keith, R. Kobayashi, J. Normand, 
 K. Raghavachari, A. P. Rendell, J. C. Burant, S. S. Iyengar, 
 J. Tomasi, M. Cossi, J. M. Millam, M. Klene, C. Adamo, R. Cammi, 
 J. W. Ochterski, R. L. Martin, K. Morokuma, O. Farkas, 
 J. B. Foresman, and D. J. Fox, Gaussian, Inc., Wallingford CT, 2019.
 
 ******************************************
 Gaussian 16:  ES64L-G16RevC.01  3-Jul-2019
                28-Mar-2022 
 ******************************************
 %chk=molecule
 Default route: CacheSize=180224 MaxDisk=256GB
 ----------------------------------------------------------------------
 #P CCSD(MaxCyc=200,SaveAmplitudes,ReadAmplitudes)/GEN sp pop=AllOrbita
 ls iop(3/33=1,3/36=-1)
 ----------------------------------------------------------------------
 1/4=180224,38=1,172=1/1;
 2/4=180224,12=2,17=6,18=5,40=1/2;
 3/4=180224,5=7,11=9,25=1,30=1,33=1,36=-1/1,2,3;
 4/4=180224/1;
 5/4=180224,5=2,38=5/2;
 8/4=180224,6=4,9=120000,10=1,24=1/1,4;
 9/4=180224,5=7,6=200,77=1/13;
 6/4=180224,7=2,8=2,9=2,10=2,96=-1/1;
 99/4=180224,5=1,9=1/99;
 Leave Link    1 at Mon Mar 28 14:04:58 2022, MaxMem=           0 cpu:               2.4 elap:               0.1
 (Enter /nopt/nrel/apps/gaussian/g16C_1/g16/l101.exe)
 ----
 test
 ----
 Symbolic Z-matrix:
 Charge =  0 Multiplicity = 3
 H                     0.        0.        0. 
 Li                    0.        0.        1.8 
 
 ITRead=  0  0
 MicOpt= -1 -1
 NAtoms=      2 NQM=        2 NQMF=       0 NMMI=      0 NMMIF=      0
                NMic=       0 NMicF=      0.
                    Isotopes and Nuclear Properties:
 (Nuclear quadrupole moments (NQMom) in fm**2, nuclear magnetic moments (NMagM)
  in nuclear magnetons)

  Atom         1           2
 IAtWgt=           1           7
 AtmWgt=   1.0078250   7.0160045
 NucSpn=           1           3
 AtZEff=  -0.0000000  -0.0000000
 NQMom=    0.0000000  -4.0100000
 NMagM=    2.7928460   3.2564240
 AtZNuc=   1.0000000   3.0000000
 Leave Link  101 at Mon Mar 28 14:04:58 2022, MaxMem=  9663676416 cpu:               2.6 elap:               0.1
 (Enter /nopt/nrel/apps/gaussian/g16C_1/g16/l202.exe)
                          Input orientation:                          
 ---------------------------------------------------------------------
 Center     Atomic      Atomic             Coordinates (Angstroms)
 Number     Number       Type             X           Y           Z
 ---------------------------------------------------------------------
      1          1           0        0.000000    0.000000    0.000000
      2          3           0        0.000000    0.000000    1.800000
 ---------------------------------------------------------------------
 Stoichiometry    HLi(3)
 Framework group  C*V[C*(HLi)]
 Deg. of freedom     1
 Full point group                 C*V     NOp   4
 Largest Abelian subgroup         C2V     NOp   4
 Largest concise Abelian subgroup C1      NOp   1
                         Standard orientation:                         
 ---------------------------------------------------------------------
 Center     Atomic      Atomic             Coordinates (Angstroms)
 Number     Number       Type             X           Y           Z
 ---------------------------------------------------------------------
      1          1           0        0.000000    0.000000   -1.350000
      2          3           0        0.000000    0.000000    0.450000
 ---------------------------------------------------------------------
 Rotational constants (GHZ):           0.0000000         177.0022883         177.0022883
 Leave Link  202 at Mon Mar 28 14:04:58 2022, MaxMem=  9663676416 cpu:               0.5 elap:               0.0
 (Enter /nopt/nrel/apps/gaussian/g16C_1/g16/l301.exe)
 General basis read from cards:  (5D, 7F)
                         Coordinates in L301:                         
 ---------------------------------------------------------------------
 Center     Atomic      Atomic             Coordinates (Angstroms)
 Number     Number       Type             X           Y           Z
 ---------------------------------------------------------------------
      1          1           0        0.000000    0.000000   -1.350000
      2          3           0        0.000000    0.000000    0.450000
 ---------------------------------------------------------------------
 Centers:       1
 STO-3G
 ****
 Centers:       2
 3-21G
 ****
 FixB: optimizing general contractions.
 Ernie: Thresh=  0.10000D-02 Tol=  0.10000D-05 Strict=F.
 IA=     1 ShT= 0 ShC= 0 NL=   1 NS=   0.
 IA=     1 L=0 SC=0 ISt=    0 NBk=    0 NP=    0 IndPr=    0.
 IA=     2 ShT= 0 ShC= 0 NL=   1 NS=   0.
 IA=     2 L=0 SC=0 ISt=    0 NBk=    0 NP=    0 IndPr=    0.
 IA=     2 ShT= 1 ShC= 0 NL=   2 NS=   1.
 IA=     2 L=1 SC=0 ISt=    0 NBk=    0 NP=    0 IndPr=    0.
 LdAtmC:  AtmChg=     1.000000     3.000000
 AtZEff=     -1.0000000     -1.3500000
 NEqShl: 
              1            2            3            4
     1            1            1            1            1
     2            2            2            2            2
     3            3            3            3            3
     4            4            4            4            4
 NEqBas: 
              1            2            3            4
     1            1            1            1            1
     2            2            2            2            2
     3            3            3            3            3
     4            4           -4           -4            4
     5            5           -5            5           -5
     6            6            6            6            6
     7            7            7            7            7
     8            8           -8           -8            8
     9            9           -9            9           -9
    10           10           10           10           10
 There are     6 symmetry adapted cartesian basis functions of A1  symmetry.
   1         1   1   1   1
   2         2   2   2   2
   3         3   3   3   3
   4         6   6   6   6
   5         7   7   7   7
   6        10  10  10  10
 There are     0 symmetry adapted cartesian basis functions of A2  symmetry.
 There are     2 symmetry adapted cartesian basis functions of B1  symmetry.
   7         4   4   4   4
   8         8   8   8   8
 There are     2 symmetry adapted cartesian basis functions of B2  symmetry.
   9         5   5   5   5
  10         9   9   9   9
 Order= 1 2 4 3
 Reordered character table:
              1            2            3            4            5
     1            1            1            1            1            1
     2            2            1            1           -1           -1
     3            4            1           -1           -1            1
     4            3            1           -1            1           -1
 NEqShl: 
              1            2            3            4
     1            1            1            1            1
     2            2            2            2            2
     3            3            3            3            3
     4            4            4            4            4
 NEqBas: 
              1            2            3            4
     1            1            1            1            1
     2            2            2            2            2
     3            3            3            3            3
     4            4           -4           -4            4
     5            5           -5            5           -5
     6            6            6            6            6
     7            7            7            7            7
     8            8           -8           -8            8
     9            9           -9            9           -9
    10           10           10           10           10
 There are     6 symmetry adapted basis functions of A1  symmetry.
   1         1   1   1   1
   2         2   2   2   2
   3         3   3   3   3
   4         6   6   6   6
   5         7   7   7   7
   6        10  10  10  10
 There are     0 symmetry adapted basis functions of A2  symmetry.
 There are     2 symmetry adapted basis functions of B1  symmetry.
   7         4   4   4   4
   8         8   8   8   8
 There are     2 symmetry adapted basis functions of B2  symmetry.
   9         5   5   5   5
  10         9   9   9   9
 Order= 1 2 4 3
 Reordered character table:
              1            2            3            4            5
     1            1            1            1            1            1
     2            2            1            1           -1           -1
     3            4            1           -1           -1            1
     4            3            1           -1            1           -1
    10 basis functions,    18 primitive gaussians,    10 cartesian basis functions
     3 alpha electrons        1 beta electrons
       nuclear repulsion energy         0.8819620182 Hartrees.
 IS=     1 IAt=     1 ISR=     1 T=0 IP=      1 IndIP=      1 IndIPD=      0 C=  2.769344D-01  0.000000D+00                             NZ=T
 IS=     1 IAt=     1 ISR=     1 T=0 IP=      2 IndIP=      2 IndIPD=      1 C=  2.678389D-01  0.000000D+00                             NZ=T
 IS=     1 IAt=     1 ISR=     1 T=0 IP=      3 IndIP=      3 IndIPD=      2 C=  8.347367D-02  0.000000D+00                             NZ=T
 IS=     2 IAt=     2 ISR=     1 T=0 IP=      1 IndIP=      4 IndIPD=      0 C=  7.424571D-01  0.000000D+00                             NZ=T
 IS=     2 IAt=     2 ISR=     1 T=0 IP=      2 IndIP=      5 IndIPD=      1 C=  9.736824D-01  0.000000D+00                             NZ=T
 IS=     2 IAt=     2 ISR=     1 T=0 IP=      3 IndIP=      6 IndIPD=      2 C=  5.265692D-01  0.000000D+00                             NZ=T
 IS=     3 IAt=     2 ISR=     2 T=1 IP=      1 IndIP=      7 IndIPD=      0 C= -1.181663D-01  1.066435D-01                             NZ=T
 IS=     3 IAt=     2 ISR=     2 T=1 IP=      2 IndIP=      8 IndIPD=      1 C=  1.473557D-01  7.547122D-02                             NZ=T
 IS=     4 IAt=     2 ISR=     3 T=1 IP=      1 IndIP=      9 IndIPD=      0 C=  4.951993D-02  1.673876D-02                             NZ=T
 IExCor=    0 DFT=F Ex=HF Corr=None ExCW=0 ScaHFX=  1.000000
 ScaDFX=  1.000000  1.000000  1.000000  1.000000 ScalE2=  1.000000  1.000000
 IRadAn=      5 IRanWt=     -1 IRanGd=            0 ICorTp=0 IEmpDi=  4
 NAtoms=    2 NActive=    2 NUniq=    2 SFac= 1.00D+00 NAtFMM=   60 NAOKFM=F Big=F
 Integral buffers will be    131072 words long.
 Raffenetti 2 integral format.
 Two-electron integral symmetry is turned on.
 Leave Link  301 at Mon Mar 28 14:04:58 2022, MaxMem=  9663676416 cpu:               2.0 elap:               0.1
 (Enter /nopt/nrel/apps/gaussian/g16C_1/g16/l302.exe)
 NPDir=0 NMtPBC=     1 NCelOv=     1 NCel=       1 NClECP=     1 NCelD=      1
         NCelK=      1 NCelE2=     1 NClLst=     1 CellRange=     0.0.
 One-electron integrals computed using PRISM.
 One-electron integral symmetry used in STVInt
 Entering OneElI...
 Calculate overlap and kinetic energy integrals
    NBasis =  10  MinDer = 0  MaxDer = 0
 Requested accuracy = 0.1000D-12
 Symmetry will be used
 PrmmSu-InSpLW:  IPartL=    0 NPrtUS=   36 NPrtUL=    1 DoSpLW=F IThBeg=    0 IThEnd=   35 NThAct=   36.
 PrSmSu:  IncTry=   512 NBBP=             10 NTPThr=   100 NPartT=   36 Incr=           1 LDynOK=F GPUOK=F.
 PrsmSu:  NPrtUS=  36 ThrOK=T IAlg=1 LenDen=           0 ISkipM=0 DoSpLW=F IThBeg=    0 IThEnd=   35.
 Prism:   IPart=     0 DynPar=F LinDyn=F Incr=           1.
 PRISM was handed   268434300 working-precision words and    10 shell-pairs
 PRISM was handed   268434300 working-precision words and    10 shell-pairs
 PRISM was handed   268434300 working-precision words and    10 shell-pairs
 PRISM was handed   268434300 working-precision words and    10 shell-pairs
 PRISM was handed   268434300 working-precision words and    10 shell-pairs
 PRISM was handed   268434300 working-precision words and    10 shell-pairs
 PRISM was handed   268434300 working-precision words and    10 shell-pairs
 PRISM was handed   268434300 working-precision words and    10 shell-pairs
 PRISM was handed   268434300 working-precision words and    10 shell-pairs
 PRISM was handed   268434300 working-precision words and    10 shell-pairs
 IPart= 20 NShTot=           0 NBatch=           0 AvBLen=         0.0
 IPart= 22 NShTot=           0 NBatch=           0 AvBLen=         0.0
 IPart= 12 NShTot=           0 NBatch=           0 AvBLen=         0.0
 IPart= 10 NShTot=           0 NBatch=           0 AvBLen=         0.0
 IPart= 32 NShTot=           0 NBatch=           0 AvBLen=         0.0
 IPart=  9 NShTot=           0 NBatch=           0 AvBLen=         0.0
 IPart= 16 NShTot=           0 NBatch=           0 AvBLen=         0.0
 IPart=  4 NShTot=           0 NBatch=           0 AvBLen=         0.0
 IPart= 35 NShTot=           0 NBatch=           0 AvBLen=         0.0
 PRISM was handed   268434300 working-precision words and    10 shell-pairs
 PRISM was handed   268434300 working-precision words and    10 shell-pairs
 PRISM was handed   268434300 working-precision words and    10 shell-pairs
 IPart=  5 NShTot=           0 NBatch=           0 AvBLen=         0.0
 IPart= 33 NShTot=           0 NBatch=           0 AvBLen=         0.0
 IPart= 29 NShTot=           0 NBatch=           0 AvBLen=         0.0
 PRISM was handed   268434300 working-precision words and    10 shell-pairs
 PRISM was handed   268434300 working-precision words and    10 shell-pairs
 PRISM was handed   268434300 working-precision words and    10 shell-pairs
 PRISM was handed   268434300 working-precision words and    10 shell-pairs
 PRISM was handed   268434300 working-precision words and    10 shell-pairs
 IPart= 30 NShTot=           0 NBatch=           0 AvBLen=         0.0
 PRISM was handed   268434300 working-precision words and    10 shell-pairs
 IPart= 17 NShTot=           0 NBatch=           0 AvBLen=         0.0
 IPart= 31 NShTot=           0 NBatch=           0 AvBLen=         0.0
 IPart= 28 NShTot=           0 NBatch=           0 AvBLen=         0.0
 IPart= 27 NShTot=           0 NBatch=           0 AvBLen=         0.0
 IPart=  0 NShTot=           6 NBatch=           6 AvBLen=         1.0
 IPart= 24 NShTot=           0 NBatch=           0 AvBLen=         0.0
 PRISM was handed   268434300 working-precision words and    10 shell-pairs
 PRISM was handed   268434300 working-precision words and    10 shell-pairs
 PRISM was handed   268434300 working-precision words and    10 shell-pairs
 PRISM was handed   268434300 working-precision words and    10 shell-pairs
 PRISM was handed   268434300 working-precision words and    10 shell-pairs
 PRISM was handed   268434300 working-precision words and    10 shell-pairs
 PRISM was handed   268434300 working-precision words and    10 shell-pairs
 PRISM was handed   268434300 working-precision words and    10 shell-pairs
 PRISM was handed   268434300 working-precision words and    10 shell-pairs
 PRISM was handed   268434300 working-precision words and    10 shell-pairs
 PRISM was handed   268434300 working-precision words and    10 shell-pairs
 IPart=  6 NShTot=           0 NBatch=           0 AvBLen=         0.0
 IPart= 11 NShTot=           0 NBatch=           0 AvBLen=         0.0
 IPart= 14 NShTot=           0 NBatch=           0 AvBLen=         0.0
 IPart= 25 NShTot=           0 NBatch=           0 AvBLen=         0.0
 IPart=  1 NShTot=           3 NBatch=           3 AvBLen=         1.0
 IPart= 21 NShTot=           0 NBatch=           0 AvBLen=         0.0
 IPart= 18 NShTot=           0 NBatch=           0 AvBLen=         0.0
 IPart= 26 NShTot=           0 NBatch=           0 AvBLen=         0.0
 PRISM was handed   268434300 working-precision words and    10 shell-pairs
 PRISM was handed   268434300 working-precision words and    10 shell-pairs
 PRISM was handed   268434300 working-precision words and    10 shell-pairs
 IPart= 34 NShTot=           0 NBatch=           0 AvBLen=         0.0
 IPart=  7 NShTot=           0 NBatch=           0 AvBLen=         0.0
 IPart=  2 NShTot=           1 NBatch=           1 AvBLen=         1.0
 PRISM was handed   268434300 working-precision words and    10 shell-pairs
 PRISM was handed   268434300 working-precision words and    10 shell-pairs
 PRISM was handed   268434300 working-precision words and    10 shell-pairs
 IPart= 23 NShTot=           0 NBatch=           0 AvBLen=         0.0
 IPart= 13 NShTot=           0 NBatch=           0 AvBLen=         0.0
 IPart=  8 NShTot=           0 NBatch=           0 AvBLen=         0.0
 IPart= 19 NShTot=           0 NBatch=           0 AvBLen=         0.0
 IPart=  3 NShTot=           0 NBatch=           0 AvBLen=         0.0
 IPart= 15 NShTot=           0 NBatch=           0 AvBLen=         0.0
 PrSmSu:  NxtVal=             37.
 *** Overlap *** 
                1             2             3             4             5 
      1  0.100000D+01
      2  0.397075D-01  0.100000D+01
      3  0.345812D+00  0.177215D+00  0.100000D+01
      4  0.000000D+00  0.000000D+00  0.000000D+00  0.100000D+01
      5  0.000000D+00  0.000000D+00  0.000000D+00  0.000000D+00  0.100000D+01
      6 -0.486283D+00  0.000000D+00  0.000000D+00  0.000000D+00  0.000000D+00
      7  0.308521D+00  0.140674D+00  0.782781D+00  0.000000D+00  0.000000D+00
      8  0.000000D+00  0.000000D+00  0.000000D+00  0.588593D+00  0.000000D+00
      9  0.000000D+00  0.000000D+00  0.000000D+00  0.000000D+00  0.588593D+00
     10 -0.316603D+00  0.000000D+00  0.000000D+00  0.000000D+00  0.000000D+00
                6             7             8             9            10 
      6  0.100000D+01
      7  0.000000D+00  0.100000D+01
      8  0.000000D+00  0.000000D+00  0.100000D+01
      9  0.000000D+00  0.000000D+00  0.000000D+00  0.100000D+01
     10  0.588593D+00  0.000000D+00  0.000000D+00  0.000000D+00  0.100000D+01
 *** Kinetic Energy *** 
                1             2             3             4             5 
      1  0.760032D+00
      2 -0.117848D-01  0.365490D+01
      3  0.398398D-01 -0.135538D+00  0.159492D+00
      4  0.000000D+00  0.000000D+00  0.000000D+00  0.307817D+00
      5  0.000000D+00  0.000000D+00  0.000000D+00  0.000000D+00  0.307817D+00
      6 -0.110880D+00  0.000000D+00  0.000000D+00  0.000000D+00  0.000000D+00
      7  0.189417D-01  0.117904D-01  0.513380D-01  0.000000D+00  0.000000D+00
      8  0.000000D+00  0.000000D+00  0.000000D+00  0.661980D-01  0.000000D+00
      9  0.000000D+00  0.000000D+00  0.000000D+00  0.000000D+00  0.661980D-01
     10 -0.356774D-01  0.000000D+00  0.000000D+00  0.000000D+00  0.000000D+00
                6             7             8             9            10 
      6  0.307817D+00
      7  0.000000D+00  0.428467D-01
      8  0.000000D+00  0.000000D+00  0.714113D-01
      9  0.000000D+00  0.000000D+00  0.000000D+00  0.714113D-01
     10  0.661980D-01  0.000000D+00  0.000000D+00  0.000000D+00  0.714113D-01
 Entering OneElI...
 Calculate potential energy integrals
    NBasis =  10  MinDer = 0  MaxDer = 0
 Requested accuracy = 0.1000D-12
 Symmetry will be used
 PrmmSu-InSpLW:  IPartL=    0 NPrtUS=   36 NPrtUL=    1 DoSpLW=F IThBeg=    0 IThEnd=   35 NThAct=   36.
 PrSmSu:  IncTry=   512 NBBP=             20 NTPThr=   100 NPartT=   36 Incr=           1 LDynOK=F GPUOK=F.
 PrsmSu:  NPrtUS=  36 ThrOK=T IAlg=1 LenDen=           0 ISkipM=0 DoSpLW=F IThBeg=    0 IThEnd=   35.
 PRISM was handed   268434350 working-precision words and    10 shell-pairs
 PRISM was handed   268434350 working-precision words and    10 shell-pairs
 PRISM was handed   268434350 working-precision words and    10 shell-pairs
 PRISM was handed   268434350 working-precision words and    10 shell-pairs
 PRISM was handed   268434350 working-precision words and    10 shell-pairs
 PRISM was handed   268434350 working-precision words and    10 shell-pairs
 PRISM was handed   268434350 working-precision words and    10 shell-pairs
 PRISM was handed   268434350 working-precision words and    10 shell-pairs
 PRISM was handed   268434350 working-precision words and    10 shell-pairs
 PRISM was handed   268434350 working-precision words and    10 shell-pairs
 PRISM was handed   268434350 working-precision words and    10 shell-pairs
 PRISM was handed   268434350 working-precision words and    10 shell-pairs
 PRISM was handed   268434350 working-precision words and    10 shell-pairs
 PRISM was handed   268434350 working-precision words and    10 shell-pairs
 PRISM was handed   268434350 working-precision words and    10 shell-pairs
 PRISM was handed   268434350 working-precision words and    10 shell-pairs
 Prism:   IPart=     0 DynPar=F LinDyn=F Incr=           1.
 PRISM was handed   268434350 working-precision words and    10 shell-pairs
 PRISM was handed   268434350 working-precision words and    10 shell-pairs
 PRISM was handed   268434350 working-precision words and    10 shell-pairs
 PRISM was handed   268434350 working-precision words and    10 shell-pairs
 PRISM was handed   268434350 working-precision words and    10 shell-pairs
 PRISM was handed   268434350 working-precision words and    10 shell-pairs
 PRISM was handed   268434350 working-precision words and    10 shell-pairs
 PRISM was handed   268434350 working-precision words and    10 shell-pairs
 PRISM was handed   268434350 working-precision words and    10 shell-pairs
 PRISM was handed   268434350 working-precision words and    10 shell-pairs
 PRISM was handed   268434350 working-precision words and    10 shell-pairs
 PRISM was handed   268434350 working-precision words and    10 shell-pairs
 PRISM was handed   268434350 working-precision words and    10 shell-pairs
 PRISM was handed   268434350 working-precision words and    10 shell-pairs
 PRISM was handed   268434350 working-precision words and    10 shell-pairs
 PRISM was handed   268434350 working-precision words and    10 shell-pairs
 PRISM was handed   268434350 working-precision words and    10 shell-pairs
 PRISM was handed   268434350 working-precision words and    10 shell-pairs
 PRISM was handed   268434350 working-precision words and    10 shell-pairs
 PRISM was handed   268434350 working-precision words and    10 shell-pairs
 IPart=  2 NShTot=           0 NBatch=           0 AvBLen=         0.0
 IPart=  1 NShTot=           6 NBatch=           3 AvBLen=         2.0
 IPart=  0 NShTot=          14 NBatch=           7 AvBLen=         2.0
 IPart= 32 NShTot=           0 NBatch=           0 AvBLen=         0.0
 IPart= 16 NShTot=           0 NBatch=           0 AvBLen=         0.0
 IPart= 14 NShTot=           0 NBatch=           0 AvBLen=         0.0
 IPart= 33 NShTot=           0 NBatch=           0 AvBLen=         0.0
 IPart= 27 NShTot=           0 NBatch=           0 AvBLen=         0.0
 IPart= 15 NShTot=           0 NBatch=           0 AvBLen=         0.0
 IPart=  4 NShTot=           0 NBatch=           0 AvBLen=         0.0
 IPart= 25 NShTot=           0 NBatch=           0 AvBLen=         0.0
 IPart=  9 NShTot=           0 NBatch=           0 AvBLen=         0.0
 IPart=  8 NShTot=           0 NBatch=           0 AvBLen=         0.0
 IPart= 31 NShTot=           0 NBatch=           0 AvBLen=         0.0
 IPart=  6 NShTot=           0 NBatch=           0 AvBLen=         0.0
 IPart= 18 NShTot=           0 NBatch=           0 AvBLen=         0.0
 IPart= 34 NShTot=           0 NBatch=           0 AvBLen=         0.0
 IPart= 26 NShTot=           0 NBatch=           0 AvBLen=         0.0
 IPart= 17 NShTot=           0 NBatch=           0 AvBLen=         0.0
 IPart= 30 NShTot=           0 NBatch=           0 AvBLen=         0.0
 IPart=  5 NShTot=           0 NBatch=           0 AvBLen=         0.0
 IPart= 21 NShTot=           0 NBatch=           0 AvBLen=         0.0
 IPart= 20 NShTot=           0 NBatch=           0 AvBLen=         0.0
 IPart= 28 NShTot=           0 NBatch=           0 AvBLen=         0.0
 IPart= 19 NShTot=           0 NBatch=           0 AvBLen=         0.0
 IPart= 11 NShTot=           0 NBatch=           0 AvBLen=         0.0
 IPart= 12 NShTot=           0 NBatch=           0 AvBLen=         0.0
 IPart= 29 NShTot=           0 NBatch=           0 AvBLen=         0.0
 IPart= 13 NShTot=           0 NBatch=           0 AvBLen=         0.0
 IPart=  3 NShTot=           0 NBatch=           0 AvBLen=         0.0
 IPart= 24 NShTot=           0 NBatch=           0 AvBLen=         0.0
 IPart= 10 NShTot=           0 NBatch=           0 AvBLen=         0.0
 IPart=  7 NShTot=           0 NBatch=           0 AvBLen=         0.0
 IPart= 23 NShTot=           0 NBatch=           0 AvBLen=         0.0
 IPart= 35 NShTot=           0 NBatch=           0 AvBLen=         0.0
 IPart= 22 NShTot=           0 NBatch=           0 AvBLen=         0.0
 PrSmSu:  NxtVal=             37.
 ***** Potential Energy ***** 
                1             2             3             4             5 
      1  0.210767D+01
      2  0.176313D+00  0.837556D+01
      3  0.619363D+00  0.681792D+00  0.150582D+01
      4  0.000000D+00  0.000000D+00  0.000000D+00  0.140359D+01
      5  0.000000D+00  0.000000D+00  0.000000D+00  0.000000D+00  0.140359D+01
      6 -0.864588D+00 -0.102388D-01 -0.116689D+00  0.000000D+00  0.000000D+00
      7  0.500242D+00  0.655555D+00  0.106695D+01  0.000000D+00  0.000000D+00
      8  0.000000D+00  0.000000D+00  0.000000D+00  0.623585D+00  0.000000D+00
      9  0.000000D+00  0.000000D+00  0.000000D+00  0.000000D+00  0.623585D+00
     10 -0.477502D+00 -0.157775D-02 -0.567937D-01  0.000000D+00  0.000000D+00
                6             7             8             9            10 
      6  0.149849D+01
      7 -0.941835D-01  0.102953D+01
      8  0.000000D+00  0.000000D+00  0.698429D+00
      9  0.000000D+00  0.000000D+00  0.000000D+00  0.698429D+00
     10  0.675281D+00 -0.705916D-01  0.000000D+00  0.000000D+00  0.743359D+00
 ****** Core Hamiltonian ****** 
                1             2             3             4             5 
      1 -0.134763D+01
      2 -0.188098D+00 -0.472066D+01
      3 -0.579523D+00 -0.817329D+00 -0.134633D+01
      4  0.000000D+00  0.000000D+00  0.000000D+00 -0.109577D+01
      5  0.000000D+00  0.000000D+00  0.000000D+00  0.000000D+00 -0.109577D+01
      6  0.753708D+00  0.102388D-01  0.116689D+00  0.000000D+00  0.000000D+00
      7 -0.481300D+00 -0.643764D+00 -0.101562D+01  0.000000D+00  0.000000D+00
      8  0.000000D+00  0.000000D+00  0.000000D+00 -0.557387D+00  0.000000D+00
      9  0.000000D+00  0.000000D+00  0.000000D+00  0.000000D+00 -0.557387D+00
     10  0.441824D+00  0.157775D-02  0.567937D-01  0.000000D+00  0.000000D+00
                6             7             8             9            10 
      6 -0.119067D+01
      7  0.941835D-01 -0.986679D+00
      8  0.000000D+00  0.000000D+00 -0.627018D+00
      9  0.000000D+00  0.000000D+00  0.000000D+00 -0.627018D+00
     10 -0.609083D+00  0.705916D-01  0.000000D+00  0.000000D+00 -0.671948D+00
 SVDSVc IOpt=   1 NormSV=T IR=1
 SVDSVc V= 2.18D+00 1.72D+00 9.51D-01 5.82D-01 3.52D-01 2.14D-01
 SVDSVc IOpt=   1 NormSV=T IR=3
 SVDSVc V= 1.59D+00 4.11D-01
 SVDSVc IOpt=   1 NormSV=T IR=4
 SVDSVc V= 1.59D+00 4.11D-01
 TstOVc:  Largest diagonal error= 8.88D-16 IB=1 I=    2.
 TstOVc:  Largest same sym error= 5.27D-16 IB=1 I=    4 J=    3.
 TstOVc:  Largest diff sym error= 0.00D+00 IB=0 JB=0 I=    0 J=    0.
 Orthogonalized basis functions: 
                 1             2             3             4             5 
      1   0.348673D+00 -0.131694D+00 -0.122044D+00  0.927023D+00  0.723757D+00
      2   0.100101D+00  0.141130D+00  0.991778D+00  0.110632D+00  0.327044D-01
      3   0.331697D+00  0.336815D+00 -0.119836D+00 -0.214377D+00 -0.644572D-01
      4   0.000000D+00  0.000000D+00  0.000000D+00  0.000000D+00  0.000000D+00
      5   0.000000D+00  0.000000D+00  0.000000D+00  0.000000D+00  0.000000D+00
      6  -0.253510D+00  0.406475D+00 -0.575863D-01 -0.906445D-01  0.126633D+01
      7   0.323208D+00  0.336651D+00 -0.163047D+00 -0.320165D+00 -0.273772D+00
      8   0.000000D+00  0.000000D+00  0.000000D+00  0.000000D+00  0.000000D+00
      9   0.000000D+00  0.000000D+00  0.000000D+00  0.000000D+00  0.000000D+00
     10  -0.220053D+00  0.389418D+00 -0.959943D-01  0.830224D+00 -0.796462D+00
                 6             7             8             9            10 
      1  -0.171867D+00  0.000000D+00  0.000000D+00  0.000000D+00  0.000000D+00
      2  -0.797080D-01  0.000000D+00  0.000000D+00  0.000000D+00  0.000000D+00
      3   0.156279D+01  0.000000D+00  0.000000D+00  0.000000D+00  0.000000D+00
      4   0.000000D+00  0.561020D+00  0.110243D+01  0.000000D+00  0.000000D+00
      5   0.000000D+00  0.000000D+00  0.000000D+00  0.561020D+00  0.110243D+01
      6  -0.124118D+00  0.000000D+00  0.000000D+00  0.000000D+00  0.000000D+00
      7  -0.147494D+01  0.000000D+00  0.000000D+00  0.000000D+00  0.000000D+00
      8   0.000000D+00  0.561020D+00 -0.110243D+01  0.000000D+00  0.000000D+00
      9   0.000000D+00  0.000000D+00  0.000000D+00  0.561020D+00 -0.110243D+01
     10   0.237216D-01  0.000000D+00  0.000000D+00  0.000000D+00  0.000000D+00
 NBasis=    10 RedAO= T EigKep=  2.14D-01  NBF=     6     0     2     2
 NBsUse=    10 1.00D-06 EigRej= -1.00D+00 NBFU=     6     0     2     2
 Leave Link  302 at Mon Mar 28 14:04:59 2022, MaxMem=  9663676416 cpu:               4.5 elap:               0.2
 (Enter /nopt/nrel/apps/gaussian/g16C_1/g16/l303.exe)
 DipDrv will not compute anything.
 Fermi contact integrals: 
                 1             2 
      1   0.628247D+00  0.120285D-01
      2   0.134088D-05  0.224271D+01
      3   0.449104D-01  0.291894D-01
      4   0.000000D+00  0.000000D+00
      5   0.000000D+00  0.000000D+00
      6  -0.793380D-01  0.000000D+00
      7   0.355833D-01  0.495199D-01
      8   0.000000D+00  0.000000D+00
      9   0.000000D+00  0.000000D+00
     10  -0.409130D-01  0.000000D+00
 Leave Link  303 at Mon Mar 28 14:04:59 2022, MaxMem=  9663676416 cpu:               1.0 elap:               0.1
 (Enter /nopt/nrel/apps/gaussian/g16C_1/g16/l401.exe)
 ExpMin= 2.86D-02 ExpMax= 3.68D+01 ExpMxC= 3.68D+01 IAcc=3 IRadAn=         5 AccDes= 0.00D+00
 Harris functional with IExCor=  205 and IRadAn=       5 diagonalized for initial guess.
 HarFok:  IExCor=  205 AccDes= 0.00D+00 IRadAn=         5 IDoV= 1 UseB2=F ITyADJ=14
 ICtDFT=  3500011 ScaDFX=  1.000000  1.000000  1.000000  1.000000
 FoFCou: FMM=F IPFlag=           0 FMFlag=      100000 FMFlg1=           0
         NFxFlg=           0 DoJE=T BraDBF=F KetDBF=T FulRan=T
         wScrn=  0.000000 ICntrl=       500 IOpCl=  0 I1Cent=   200000004 NGrid=           0
         NMat0=    1 NMatS0=      1 NMatT0=    0 NMatD0=    1 NMtDS0=    0 NMtDT0=    0
 Petite list used in FoFCou.
 Harris En= -7.77048625787971    
 JPrj=0 DoOrth=F DoCkMO=F.
 Initial guess orbital symmetries:
 Alpha Orbitals:
       Occupied  (SG) (SG) (SG)
       Virtual   (PI) (PI) (SG) (PI) (PI) (SG) (SG)
 Beta  Orbitals:
       Occupied  (SG)
       Virtual   (SG) (SG) (PI) (PI) (SG) (PI) (PI) (SG) (SG)
 The electronic state of the initial guess is 3-SG.
 Initial guess <Sx>= 0.0000 <Sy>= 0.0000 <Sz>= 1.0000 <S**2>= 2.0000 S= 1.0000
 Leave Link  401 at Mon Mar 28 14:04:59 2022, MaxMem=  9663676416 cpu:               3.7 elap:               0.1
 (Enter /nopt/nrel/apps/gaussian/g16C_1/g16/l502.exe)
 Keep R1 and R2 ints in memory in symmetry-blocked form, NReq=7206252.
 FoFCou: FMM=F IPFlag=           0 FMFlag=           0 FMFlg1=           0
         NFxFlg=           0 DoJE=F BraDBF=F KetDBF=F FulRan=T
         wScrn=  0.000000 ICntrl=       600 IOpCl=  0 I1Cent=           0 NGrid=           0
         NMat0=    1 NMatS0=     55 NMatT0=    0 NMatD0=    1 NMtDS0=    0 NMtDT0=    0
 Petite list used in FoFCou.
 UHF open shell SCF:
 Using DIIS extrapolation, IDIIS=  1040.
 NGot=  9663676416 LenX=  9663672766 LenY=  9663671884
 Requested convergence on RMS density matrix=1.00D-08 within 128 cycles.
 Requested convergence on MAX density matrix=1.00D-06.
 Requested convergence on             energy=1.00D-06.
 No special actions if energy rises.

 Cycle   1  Pass 1  IDiag  1:
 E= -7.82703418051239    
 DIIS: error= 3.44D-02 at cycle   1 NSaved=   1.
 NSaved= 1 IEnMin= 1 EnMin= -7.82703418051239     IErMin= 1 ErrMin= 3.44D-02
 ErrMax= 3.44D-02  0.00D+00 EMaxC= 1.00D-01 BMatC= 2.38D-02 BMatP= 2.38D-02
 IDIUse=3 WtCom= 6.56D-01 WtEn= 3.44D-01
 Coeff-Com:  0.100D+01
 Coeff-En:   0.100D+01
 Coeff:      0.100D+01
 Gap=     0.206 Goal=   None    Shift=    0.000
 Gap=     2.402 Goal=   None    Shift=    0.000
 GapD=    0.206 DampG=1.000 DampE=0.500 DampFc=0.5000 IDamp=-1.
 Damping current iteration by 5.00D-01
 RMSDP=1.37D-02 MaxDP=1.59D-01              OVMax= 1.91D-02

 Cycle   2  Pass 1  IDiag  1:
 E= -7.83352637227745     Delta-E=       -0.006492191765 Rises=F Damp=T
 DIIS: error= 2.28D-02 at cycle   2 NSaved=   2.
 NSaved= 2 IEnMin= 2 EnMin= -7.83352637227745     IErMin= 2 ErrMin= 2.28D-02
 ErrMax= 2.28D-02  0.00D+00 EMaxC= 1.00D-01 BMatC= 9.78D-03 BMatP= 2.38D-02
 IDIUse=3 WtCom= 7.72D-01 WtEn= 2.28D-01
 Coeff-Com: -0.170D+01 0.270D+01
 Coeff-En:   0.000D+00 0.100D+01
 Coeff:     -0.131D+01 0.231D+01
 Gap=     0.196 Goal=   None    Shift=    0.000
 Gap=     2.404 Goal=   None    Shift=    0.000
 RMSDP=1.24D-02 MaxDP=1.46D-01 DE=-6.49D-03 OVMax= 3.38D-03

 Cycle   3  Pass 1  IDiag  1:
 E= -7.84355717559409     Delta-E=       -0.010030803317 Rises=F Damp=F
 DIIS: error= 2.58D-03 at cycle   3 NSaved=   3.
 NSaved= 3 IEnMin= 3 EnMin= -7.84355717559409     IErMin= 3 ErrMin= 2.58D-03
 ErrMax= 2.58D-03  0.00D+00 EMaxC= 1.00D-01 BMatC= 1.29D-04 BMatP= 9.78D-03
 IDIUse=3 WtCom= 9.74D-01 WtEn= 2.58D-02
 Coeff-Com:  0.654D+00-0.116D+01 0.151D+01
 Coeff-En:   0.000D+00 0.000D+00 0.100D+01
 Coeff:      0.637D+00-0.113D+01 0.150D+01
 Gap=     0.197 Goal=   None    Shift=    0.000
 Gap=     2.408 Goal=   None    Shift=    0.000
 RMSDP=2.00D-03 MaxDP=2.25D-02 DE=-1.00D-02 OVMax= 2.03D-04

 Cycle   4  Pass 1  IDiag  1:
 E= -7.84367776996328     Delta-E=       -0.000120594369 Rises=F Damp=F
 DIIS: error= 1.07D-04 at cycle   4 NSaved=   4.
 NSaved= 4 IEnMin= 4 EnMin= -7.84367776996328     IErMin= 4 ErrMin= 1.07D-04
 ErrMax= 1.07D-04  0.00D+00 EMaxC= 1.00D-01 BMatC= 4.30D-07 BMatP= 1.29D-04
 IDIUse=3 WtCom= 9.99D-01 WtEn= 1.07D-03
 Coeff-Com: -0.236D+00 0.422D+00-0.584D+00 0.140D+01
 Coeff-En:   0.000D+00 0.000D+00 0.000D+00 0.100D+01
 Coeff:     -0.236D+00 0.422D+00-0.584D+00 0.140D+01
 Gap=     0.197 Goal=   None    Shift=    0.000
 Gap=     2.408 Goal=   None    Shift=    0.000
 RMSDP=2.22D-04 MaxDP=1.36D-03 DE=-1.21D-04 OVMax= 4.78D-05

 Cycle   5  Pass 1  IDiag  1:
 E= -7.84367869837954     Delta-E=       -0.000000928416 Rises=F Damp=F
 DIIS: error= 3.39D-05 at cycle   5 NSaved=   5.
 NSaved= 5 IEnMin= 5 EnMin= -7.84367869837954     IErMin= 5 ErrMin= 3.39D-05
 ErrMax= 3.39D-05  0.00D+00 EMaxC= 1.00D-01 BMatC= 2.88D-08 BMatP= 4.30D-07
 IDIUse=1 WtCom= 1.00D+00 WtEn= 0.00D+00
 Coeff-Com:  0.732D-01-0.131D+00 0.186D+00-0.631D+00 0.150D+01
 Coeff:      0.732D-01-0.131D+00 0.186D+00-0.631D+00 0.150D+01
 Gap=     0.197 Goal=   None    Shift=    0.000
 Gap=     2.408 Goal=   None    Shift=    0.000
 RMSDP=8.33D-05 MaxDP=5.47D-04 DE=-9.28D-07 OVMax= 5.78D-06

 Cycle   6  Pass 1  IDiag  1:
 E= -7.84367878894489     Delta-E=       -0.000000090565 Rises=F Damp=F
 DIIS: error= 6.86D-06 at cycle   6 NSaved=   6.
 NSaved= 6 IEnMin= 6 EnMin= -7.84367878894489     IErMin= 6 ErrMin= 6.86D-06
 ErrMax= 6.86D-06  0.00D+00 EMaxC= 1.00D-01 BMatC= 9.09D-10 BMatP= 2.88D-08
 IDIUse=1 WtCom= 1.00D+00 WtEn= 0.00D+00
 Coeff-Com: -0.137D-01 0.246D-01-0.357D-01 0.135D+00-0.486D+00 0.138D+01
 Coeff:     -0.137D-01 0.246D-01-0.357D-01 0.135D+00-0.486D+00 0.138D+01
 Gap=     0.197 Goal=   None    Shift=    0.000
 Gap=     2.408 Goal=   None    Shift=    0.000
 RMSDP=1.64D-05 MaxDP=1.09D-04 DE=-9.06D-08 OVMax= 6.32D-07

 Cycle   7  Pass 1  IDiag  1:
 E= -7.84367879176577     Delta-E=       -0.000000002821 Rises=F Damp=F
 DIIS: error= 6.39D-07 at cycle   7 NSaved=   7.
 NSaved= 7 IEnMin= 7 EnMin= -7.84367879176577     IErMin= 7 ErrMin= 6.39D-07
 ErrMax= 6.39D-07  0.00D+00 EMaxC= 1.00D-01 BMatC= 1.31D-11 BMatP= 9.09D-10
 IDIUse=1 WtCom= 1.00D+00 WtEn= 0.00D+00
 Coeff-Com:  0.166D-03-0.318D-03 0.675D-03-0.507D-02 0.533D-01-0.284D+00
 Coeff-Com:  0.124D+01
 Coeff:      0.166D-03-0.318D-03 0.675D-03-0.507D-02 0.533D-01-0.284D+00
 Coeff:      0.124D+01
 Gap=     0.197 Goal=   None    Shift=    0.000
 Gap=     2.408 Goal=   None    Shift=    0.000
 RMSDP=1.39D-06 MaxDP=7.33D-06 DE=-2.82D-09 OVMax= 2.43D-07

 Cycle   8  Pass 1  IDiag  1:
 E= -7.84367879179056     Delta-E=       -0.000000000025 Rises=F Damp=F
 DIIS: error= 2.03D-07 at cycle   8 NSaved=   8.
 NSaved= 8 IEnMin= 8 EnMin= -7.84367879179056     IErMin= 8 ErrMin= 2.03D-07
 ErrMax= 2.03D-07  0.00D+00 EMaxC= 1.00D-01 BMatC= 6.24D-13 BMatP= 1.31D-11
 IDIUse=1 WtCom= 1.00D+00 WtEn= 0.00D+00
 Coeff-Com:  0.525D-04-0.804D-04-0.282D-04 0.189D-02-0.306D-01 0.176D+00
 Coeff-Com: -0.852D+00 0.170D+01
 Coeff:      0.525D-04-0.804D-04-0.282D-04 0.189D-02-0.306D-01 0.176D+00
 Coeff:     -0.852D+00 0.170D+01
 Gap=     0.197 Goal=   None    Shift=    0.000
 Gap=     2.408 Goal=   None    Shift=    0.000
 RMSDP=5.43D-07 MaxDP=5.15D-06 DE=-2.48D-11 OVMax= 1.53D-08

 Cycle   9  Pass 1  IDiag  1:
 E= -7.84367879179260     Delta-E=       -0.000000000002 Rises=F Damp=F
 DIIS: error= 2.25D-08 at cycle   9 NSaved=   9.
 NSaved= 9 IEnMin= 9 EnMin= -7.84367879179260     IErMin= 9 ErrMin= 2.25D-08
 ErrMax= 2.25D-08  0.00D+00 EMaxC= 1.00D-01 BMatC= 1.08D-14 BMatP= 6.24D-13
 IDIUse=1 WtCom= 1.00D+00 WtEn= 0.00D+00
 Coeff-Com:  0.388D-04-0.722D-04 0.129D-03-0.735D-03 0.691D-02-0.360D-01
 Coeff-Com:  0.167D+00-0.420D+00 0.128D+01
 Coeff:      0.388D-04-0.722D-04 0.129D-03-0.735D-03 0.691D-02-0.360D-01
 Coeff:      0.167D+00-0.420D+00 0.128D+01
 Gap=     0.197 Goal=   None    Shift=    0.000
 Gap=     2.408 Goal=   None    Shift=    0.000
 RMSDP=7.04D-08 MaxDP=7.40D-07 DE=-2.04D-12 OVMax= 7.29D-09

 Cycle  10  Pass 1  IDiag  1:
 E= -7.84367879179262     Delta-E=       -0.000000000000 Rises=F Damp=F
 DIIS: error= 4.82D-09 at cycle  10 NSaved=  10.
 NSaved=10 IEnMin=10 EnMin= -7.84367879179262     IErMin=10 ErrMin= 4.82D-09
 ErrMax= 4.82D-09  0.00D+00 EMaxC= 1.00D-01 BMatC= 5.78D-16 BMatP= 1.08D-14
 IDIUse=1 WtCom= 1.00D+00 WtEn= 0.00D+00
 Coeff-Com:  0.547D-05-0.869D-05 0.121D-05 0.125D-03-0.242D-02 0.142D-01
 Coeff-Com: -0.701D-01 0.196D+00-0.747D+00 0.161D+01
 Coeff:      0.547D-05-0.869D-05 0.121D-05 0.125D-03-0.242D-02 0.142D-01
 Coeff:     -0.701D-01 0.196D+00-0.747D+00 0.161D+01
 Gap=     0.197 Goal=   None    Shift=    0.000
 Gap=     2.408 Goal=   None    Shift=    0.000
 RMSDP=1.04D-08 MaxDP=9.98D-08 DE=-2.84D-14 OVMax= 1.37D-09

 Cycle  11  Pass 1  IDiag  1:
 E= -7.84367879179263     Delta-E=       -0.000000000000 Rises=F Damp=F
 DIIS: error= 4.60D-10 at cycle  11 NSaved=  11.
 NSaved=11 IEnMin=11 EnMin= -7.84367879179263     IErMin=11 ErrMin= 4.60D-10
 ErrMax= 4.60D-10  0.00D+00 EMaxC= 1.00D-01 BMatC= 6.09D-18 BMatP= 5.78D-16
 IDIUse=1 WtCom= 1.00D+00 WtEn= 0.00D+00
 Coeff-Com: -0.284D-06 0.354D-06 0.104D-05-0.206D-04 0.352D-03-0.203D-02
 Coeff-Com:  0.993D-02-0.293D-01 0.121D+00-0.346D+00 0.125D+01
 Coeff:     -0.284D-06 0.354D-06 0.104D-05-0.206D-04 0.352D-03-0.203D-02
 Coeff:      0.993D-02-0.293D-01 0.121D+00-0.346D+00 0.125D+01
 Gap=     0.197 Goal=   None    Shift=    0.000
 Gap=     2.408 Goal=   None    Shift=    0.000
 RMSDP=1.13D-09 MaxDP=1.09D-08 DE=-7.11D-15 OVMax= 9.68D-11

 SCF Done:  E(UHF) =  -7.84367879179     A.U. after   11 cycles
            NFock= 11  Conv=0.11D-08     -V/T= 1.9829
 <Sx>= 0.0000 <Sy>= 0.0000 <Sz>= 1.0000 <S**2>= 2.0000 S= 1.0000
 <L.S>= 0.000000000000E+00
 KE= 7.979744751738D+00 PE=-1.974476266659D+01 EE= 3.039377104856D+00
 Annihilation of the first spin contaminant:
 S**2 before annihilation     2.0000,   after     2.0000
 Leave Link  502 at Mon Mar 28 14:04:59 2022, MaxMem=  9663676416 cpu:               4.8 elap:               0.2
 (Enter /nopt/nrel/apps/gaussian/g16C_1/g16/l801.exe)
 Windowed orbitals will be sorted by symmetry type.
 ExpMin= 2.86D-02 ExpMax= 3.68D+01 ExpMxC= 3.68D+01 IAcc=3 IRadAn=         5 AccDes= 0.00D+00
 HarFok:  IExCor=  205 AccDes= 0.00D+00 IRadAn=         5 IDoV=-2 UseB2=F ITyADJ=14
 ICtDFT= 12500011 ScaDFX=  1.000000  1.000000  1.000000  1.000000
 Largest valence mixing into a core orbital is  4.73D-04
 Largest core mixing into a valence orbital is  1.96D-04
 Range of M.O.s used for correlation:     2    10
 NBasis=    10 NAE=     3 NBE=     1 NFC=     1 NFV=     0
 NROrb=      9 NOA=     2 NOB=     0 NVA=     7 NVB=     9
 Leave Link  801 at Mon Mar 28 14:04:59 2022, MaxMem=  9663676416 cpu:               2.4 elap:               0.1
 (Enter /nopt/nrel/apps/gaussian/g16C_1/g16/l804.exe)
 Open-shell transformation, MDV=  9663676416 ITran=4 ISComp=2.
 Unit  1 TFree=          7989 TCopy=        218228.
 Semi-Direct transformation.
 ModeAB=           2 MOrb=             2 LenV=    9663556261
 LASXX=          158 LTotXX=         158 LenRXX=         158
 LTotAB=         269 MaxLAS=         990 LenRXY=         990
 NonZer=        1206 LenScr=      785920 LnRSAI=           0
 LnScr1=           0 LExtra=      219218 Total=      1006286
 MaxDsk= 34359738368 SrtSym=           F ITran=            4
 DoSDTr:  NPSUse= 36
 JobTyp=1 Pass  1:  I=   1 to   2.
 (rs|ai) integrals will be sorted in core.
 Complete sort for first half transformation.
 First half transformation complete.
 Complete sort for second half transformation.
 Second half transformation complete.
 Spin components of T(2) and E(2):
     alpha-alpha T2 =       0.6531348238D-04 E2=     -0.7649453468D-04
     alpha-beta  T2 =       0.0000000000D+00 E2=      0.0000000000D+00
     beta-beta   T2 =       0.0000000000D+00 E2=      0.0000000000D+00
 ANorm=    0.1000032656D+01
 E2 =    -0.7649453468D-04 EUMP2 =    -0.78437552863273D+01
 Leave Link  804 at Mon Mar 28 14:04:59 2022, MaxMem=  9663676416 cpu:               2.0 elap:               0.1
 (Enter /nopt/nrel/apps/gaussian/g16C_1/g16/l913.exe)
 CIDS:  MDV=  9663676416.
 Frozen-core window:  NFC=   1 NFV=   0.
 IFCWin=0 IBDFC=1 NFBD=     0     0 NFCmp=     0     0 NFFFC=     0     0
 Using original routines for 1st iteration.
 Using DD4UQ or CC4UQ for 2nd and later iterations.
 Keep R2 and R3 ints in memory in symmetry-blocked form, NReq=7208646.
 FoFCou: FMM=F IPFlag=           0 FMFlag=           0 FMFlg1=           0
         NFxFlg=           0 DoJE=F BraDBF=F KetDBF=F FulRan=T
         wScrn=  0.000000 ICntrl=       600 IOpCl=  0 I1Cent=           0 NGrid=           0
         NMat0=    1 NMatS0=     55 NMatT0=    0 NMatD0=    1 NMtDS0=    0 NMtDT0=    0
 Petite list used in FoFCou.
 CIDS: In Core Option IDoMem=           1.
 Coupled Cluster theory with single and double substitutions
 ===========================================================
 Iterations= 200 Convergence= 0.100D-06
 Produce multiple copies of IABC intergrals
 Iteration Nr.   1
 **********************
 DD1Dir will call FoFMem   1 times, MxPair=         2
 NAB=     0 NAA=     1 NBB=     0.
 MP4(R+Q)=  0.49961244D-08
 Maximum subspace dimension=  5
 A-vector RMS=  7.9223092D-04 Max=  2.4768042D-03 conv= 1.00D-05.
 RLE energy=       -0.0001239856
 E3=       -0.29305022D-04        EUMP3=      -0.78437845913D+01
 E4(DQ)=   -0.11249378D-04        UMP4(DQ)=   -0.78437958407D+01
 E4(SDQ)=  -0.11383152D-04        UMP4(SDQ)=  -0.78437959745D+01
 VARIATIONAL ENERGIES WITH THE FIRST-ORDER WAVEFUNCTION:
 DE(Corr)= -0.10579478E-03 E(Corr)=     -7.8437845866    
 NORM(A)=   0.10000859D+01
 Iteration Nr.   2
 **********************
 DD1Dir will call FoFMem   1 times, MxPair=         2
 NAB=     0 NAA=     1 NBB=     0.
 A-vector RMS=  8.4304315D-05 Max=  1.2843692D-04 conv= 1.00D-05.
 RLE energy=       -0.0001245723
 DE(Corr)= -0.12424230E-03 E(CORR)=     -7.8438030341     Delta=-1.84D-05
 NORM(A)=   0.10000869D+01
 Iteration Nr.   3
 **********************
 DD1Dir will call FoFMem   1 times, MxPair=         2
 NAB=     0 NAA=     1 NBB=     0.
 A-vector RMS=  1.9841522D-05 Max=  4.8755454D-05 conv= 1.00D-05.
 RLE energy=       -0.0001245932
 DE(Corr)= -0.12457430E-03 E(CORR)=     -7.8438033661     Delta=-3.32D-07
 NORM(A)=   0.10000870D+01
 Iteration Nr.   4
 **********************
 DD1Dir will call FoFMem   1 times, MxPair=         2
 NAB=     0 NAA=     1 NBB=     0.
 A-vector RMS=  4.2944825D-06 Max=  1.2124747D-05 conv= 1.00D-05.
 RLE energy=       -0.0001245910
 DE(Corr)= -0.12459229E-03 E(CORR)=     -7.8438033841     Delta=-1.80D-08
 NORM(A)=   0.10000870D+01
 Iteration Nr.   5
 **********************
 DD1Dir will call FoFMem   1 times, MxPair=         2
 NAB=     0 NAA=     1 NBB=     0.
 A-vector RMS=  3.5904281D-07 Max=  7.0388764D-07 conv= 1.00D-05.
 RLE energy=       -0.0001245928
 DE(Corr)= -0.12459173E-03 E(CORR)=     -7.8438033835     Delta= 5.58D-10
 NORM(A)=   0.10000870D+01
 CI/CC converged in    5 iterations to DelEn= 5.58D-10 Conv= 1.00D-07 ErrA1= 3.59D-07 Conv= 1.00D-05
 Wavefunction amplitudes converged. E(Corr)=     -7.8438033835    
 Largest amplitude= 1.05D-02
 Discarding MO integrals.
 Leave Link  913 at Mon Mar 28 14:04:59 2022, MaxMem=  9663676416 cpu:               2.9 elap:               0.1
 (Enter /nopt/nrel/apps/gaussian/g16C_1/g16/l601.exe)
 Copying SCF densities to generalized density rwf, IOpCl= 1 IROHF=0.

 **********************************************************************

            Population analysis using the SCF Density.

 **********************************************************************

 Orbital symmetries:
 Alpha Orbitals:
       Occupied  (SG) (SG) (SG)
       Virtual   (PI) (PI) (SG) (SG) (PI) (PI) (SG)
 Beta  Orbitals:
       Occupied  (SG)
       Virtual   (SG) (PI) (PI) (SG) (SG) (PI) (PI) (SG) (SG)
 The electronic state is 3-SG.
 Alpha  occ. eigenvalues --   -2.46315  -0.60437  -0.17139
 Alpha virt. eigenvalues --    0.02558   0.02558   0.07258   0.18068   0.19483
 Alpha virt. eigenvalues --    0.19483   0.30379
  Beta  occ. eigenvalues --   -2.44737
  Beta virt. eigenvalues --   -0.03952   0.05573   0.05573   0.07097   0.13335
  Beta virt. eigenvalues --    0.22481   0.22481   0.24993   0.47282
          Condensed to atoms (all electrons):
               1          2
     1  H    0.741344   0.097910
     2  Li   0.097910   3.062836
          Atomic-Atomic Spin Densities.
               1          2
     1  H    0.741272   0.098608
     2  Li   0.098608   1.061511
 Mulliken charges and spin densities:
               1          2
     1  H    0.160746   0.839880
     2  Li  -0.160746   1.160120
 Sum of Mulliken charges =  -0.00000   2.00000
 Mulliken charges and spin densities with hydrogens summed into heavy atoms:
               1          2
     2  Li  -0.000000   2.000000
 N-N= 8.819620182000D-01 E-N=-1.974476266569D+01  KE= 7.979744751738D+00
 Symmetry A1   KE= 7.979744751738D+00
 Symmetry A2   KE= 0.000000000000D+00
 Symmetry B1   KE= 0.000000000000D+00
 Symmetry B2   KE= 0.000000000000D+00
 Symmetry A1   SP= 2.000000000000D+00
 Symmetry A2   SP= 0.000000000000D+00
 Symmetry B1   SP= 0.000000000000D+00
 Symmetry B2   SP= 0.000000000000D+00

 Atomic contributions to Alpha molecular orbitals:
 Alpha occ 1 OE=-2.463 is Li2-s=1.0001
 Alpha occ 2 OE=-0.604 is H1-s=0.8310
 Alpha occ 3 OE=-0.171 is Li2-s=0.7652 Li2-p=0.2261
 Alpha vir 4 OE=0.026 is Li2-p=1.0000
 Alpha vir 5 OE=0.026 is Li2-p=1.0000
 Alpha vir 6 OE=0.073 is Li2-p=0.7629 Li2-s=0.2168
 Alpha vir 7 OE=0.181 is Li2-s=0.8111 Li2-p=0.1865
 Alpha vir 8 OE=0.195 is Li2-p=1.0000
 Alpha vir 9 OE=0.195 is Li2-p=1.0000
 Alpha vir 10 OE=0.304 is Li2-p=0.7276 H1-s=0.1377 Li2-s=0.1348

 Atomic contributions to Beta  molecular orbitals:
 Beta  occ 1 OE=-2.447 is Li2-s=1.0003
 Beta  vir 2 OE=-0.040 is Li2-s=0.5018 Li2-p=0.2800 H1-s=0.2182
 Beta  vir 3 OE=0.056 is Li2-p=1.0000
 Beta  vir 4 OE=0.056 is Li2-p=1.0000
 Beta  vir 5 OE=0.071 is Li2-p=0.5916 Li2-s=0.3927
 Beta  vir 6 OE=0.133 is Li2-p=0.4673 Li2-s=0.3659 H1-s=0.1668
 Beta  vir 7 OE=0.225 is Li2-p=1.0000
 Beta  vir 8 OE=0.225 is Li2-p=1.0000
 Beta  vir 9 OE=0.250 is Li2-s=0.6796 Li2-p=0.3007
 Beta  vir 10 OE=0.473 is H1-s=0.5800 Li2-p=0.3604
 
 Leave Link  601 at Mon Mar 28 14:04:59 2022, MaxMem=  9663676416 cpu:               1.6 elap:               0.1
 (Enter /nopt/nrel/apps/gaussian/g16C_1/g16/l9999.exe)

 Test job not archived.
 1\1\GINC-R102U34\SP\UCCSD-FC\Gen\H1Li1(3)\USER\28-Mar-2022\0\\#P C
 CSD(MaxCyc=200,SaveAmplitudes,ReadAmplitudes)/GEN sp pop=AllOrbitals i
 op(3/33=1,3/36=-1)\\test\\0,3\H,0,0.,0.,0.\Li,0,0.,0.,1.8\\Version=ES6
 4L-G16RevC.01\State=3-SG\HF=-7.8436788\MP2=-7.8437553\MP3=-7.8437846\M
 P4D=-7.8437958\MP4DQ=-7.8437958\MP4SDQ=-7.843796\CCSD=-7.8438034\S2=2.
 000003\S2-1=0.\S2A=2.\RMSD=1.130e-09\PG=C*V [C*(H1Li1)]\\@


 "THE TIME HAS COME", THE WALRUS SAID,
 "TO TALK OF MANY THINGS,
 OF SHOES AND SHIPS AND SEALING WAX,
 OF CABBAGES AND KINGS,
 AND WHY THE SEA IS BOILING HOT,
 AND WHETHER PIGS HAVE WINGS."
 Job cpu time:       0 days  0 hours  0 minutes 32.0 seconds.
 Elapsed time:       0 days  0 hours  0 minutes  1.3 seconds.
 File lengths (MBytes):  RWF=     13 Int=      0 D2E=      0 Chk=      1 Scr=      1
 Normal termination of Gaussian 16 at Mon Mar 28 14:04:59 2022.
