 Entering Gaussian System, Link 0=g16
 Initial command:
 /nopt/nrel/apps/gaussian/g16C_1/g16/l1.exe "/lustre/eaglefs/scratch/user/qc/nah-dissc/nah-3-ccsd-1.3-augccq/Gau-8079.inp" -scrdir="/lustre/eaglefs/scratch/user/qc/nah-dissc/nah-3-ccsd-1.3-augccq/"
 Default is to use a total of  36 processors:
                               36 via shared-memory
                                1 via Linda
 Entering Link 1 = /nopt/nrel/apps/gaussian/g16C_1/g16/l1.exe PID=      8080.
  
 Copyright (c) 1988-2019, Gaussian, Inc.  All Rights Reserved.
  
 This is part of the Gaussian(R) 16 program.  It is based on
 the Gaussian(R) 09 system (copyright 2009, Gaussian, Inc.),
 the Gaussian(R) 03 system (copyright 2003, Gaussian, Inc.),
 the Gaussian(R) 98 system (copyright 1998, Gaussian, Inc.),
 the Gaussian(R) 94 system (copyright 1995, Gaussian, Inc.),
 the Gaussian 92(TM) system (copyright 1992, Gaussian, Inc.),
 the Gaussian 90(TM) system (copyright 1990, Gaussian, Inc.),
 the Gaussian 88(TM) system (copyright 1988, Gaussian, Inc.),
 the Gaussian 86(TM) system (copyright 1986, Carnegie Mellon
 University), and the Gaussian 82(TM) system (copyright 1983,
 Carnegie Mellon University). Gaussian is a federally registered
 trademark of Gaussian, Inc.
  
 This software contains proprietary and confidential information,
 including trade secrets, belonging to Gaussian, Inc.
  
 This software is provided under written license and may be
 used, copied, transmitted, or stored only in accord with that
 written license.
  
 The following legend is applicable only to US Government
 contracts under FAR:
  
                    RESTRICTED RIGHTS LEGEND
  
 Use, reproduction and disclosure by the US Government is
 subject to restrictions as set forth in subparagraphs (a)
 and (c) of the Commercial Computer Software - Restricted
 Rights clause in FAR 52.227-19.
  
 Gaussian, Inc.
 340 Quinnipiac St., Bldg. 40, Wallingford CT 06492
  
  
 ---------------------------------------------------------------
 Warning -- This program may not be used in any manner that
 competes with the business of Gaussian, Inc. or will provide
 assistance to any competitor of Gaussian, Inc.  The licensee
 of this program is prohibited from giving any competitor of
 Gaussian, Inc. access to this program.  By using this program,
 the user acknowledges that Gaussian, Inc. is engaged in the
 business of creating and licensing software in the field of
 computational chemistry and represents and warrants to the
 licensee that it is not a competitor of Gaussian, Inc. and that
 it will not use this program in any manner prohibited above.
 ---------------------------------------------------------------
  

 Cite this work as:
 Gaussian 16, Revision C.01,
 M. J. Frisch, G. W. Trucks, H. B. Schlegel, G. E. Scuseria, 
 M. A. Robb, J. R. Cheeseman, G. Scalmani, V. Barone, 
 G. A. Petersson, H. Nakatsuji, X. Li, M. Caricato, A. V. Marenich, 
 J. Bloino, B. G. Janesko, R. Gomperts, B. Mennucci, H. P. Hratchian, 
 J. V. Ortiz, A. F. Izmaylov, J. L. Sonnenberg, D. Williams-Young, 
 F. Ding, F. Lipparini, F. Egidi, J. Goings, B. Peng, A. Petrone, 
 T. Henderson, D. Ranasinghe, V. G. Zakrzewski, J. Gao, N. Rega, 
 G. Zheng, W. Liang, M. Hada, M. Ehara, K. Toyota, R. Fukuda, 
 J. Hasegawa, M. Ishida, T. Nakajima, Y. Honda, O. Kitao, H. Nakai, 
 T. Vreven, K. Throssell, J. A. Montgomery, Jr., J. E. Peralta, 
 F. Ogliaro, M. J. Bearpark, J. J. Heyd, E. N. Brothers, K. N. Kudin, 
 V. N. Staroverov, T. A. Keith, R. Kobayashi, J. Normand, 
 K. Raghavachari, A. P. Rendell, J. C. Burant, S. S. Iyengar, 
 J. Tomasi, M. Cossi, J. M. Millam, M. Klene, C. Adamo, R. Cammi, 
 J. W. Ochterski, R. L. Martin, K. Morokuma, O. Farkas, 
 J. B. Foresman, and D. J. Fox, Gaussian, Inc., Wallingford CT, 2019.
 
 ******************************************
 Gaussian 16:  ES64L-G16RevC.01  3-Jul-2019
                28-Mar-2022 
 ******************************************
 %chk=molecule
 Default route: CacheSize=180224 MaxDisk=256GB
 ----------------------------------------------------------------------
 #P CCSD(MaxCyc=200,SaveAmplitudes,ReadAmplitudes)/GEN sp pop=AllOrbita
 ls iop(3/33=1,3/36=-1)
 ----------------------------------------------------------------------
 1/4=180224,38=1,172=1/1;
 2/4=180224,12=2,17=6,18=5,40=1/2;
 3/4=180224,5=7,11=9,25=1,30=1,33=1,36=-1/1,2,3;
 4/4=180224/1;
 5/4=180224,5=2,38=5/2;
 8/4=180224,6=4,9=120000,10=1,24=1/1,4;
 9/4=180224,5=7,6=200,77=1/13;
 6/4=180224,7=2,8=2,9=2,10=2,96=-1/1;
 99/4=180224,5=1,9=1/99;
 Leave Link    1 at Mon Mar 28 14:27:18 2022, MaxMem=           0 cpu:               2.3 elap:               0.1
 (Enter /nopt/nrel/apps/gaussian/g16C_1/g16/l101.exe)
 ----
 test
 ----
 Symbolic Z-matrix:
 Charge =  0 Multiplicity = 3
 H                     0.        0.        0. 
 Na                    0.        0.        1.3 
 
 ITRead=  0  0
 MicOpt= -1 -1
 NAtoms=      2 NQM=        2 NQMF=       0 NMMI=      0 NMMIF=      0
                NMic=       0 NMicF=      0.
                    Isotopes and Nuclear Properties:
 (Nuclear quadrupole moments (NQMom) in fm**2, nuclear magnetic moments (NMagM)
  in nuclear magnetons)

  Atom         1           2
 IAtWgt=           1          23
 AtmWgt=   1.0078250  22.9897697
 NucSpn=           1           3
 AtZEff=  -0.0000000  -0.0000000
 NQMom=    0.0000000  10.4000000
 NMagM=    2.7928460   2.2175200
 AtZNuc=   1.0000000  11.0000000
 Leave Link  101 at Mon Mar 28 14:27:18 2022, MaxMem=  9663676416 cpu:               3.2 elap:               0.1
 (Enter /nopt/nrel/apps/gaussian/g16C_1/g16/l202.exe)
                          Input orientation:                          
 ---------------------------------------------------------------------
 Center     Atomic      Atomic             Coordinates (Angstroms)
 Number     Number       Type             X           Y           Z
 ---------------------------------------------------------------------
      1          1           0        0.000000    0.000000    0.000000
      2         11           0        0.000000    0.000000    1.300000
 ---------------------------------------------------------------------
 Stoichiometry    HNa(3)
 Framework group  C*V[C*(HNa)]
 Deg. of freedom     1
 Full point group                 C*V     NOp   4
 Largest Abelian subgroup         C2V     NOp   4
 Largest concise Abelian subgroup C1      NOp   1
                         Standard orientation:                         
 ---------------------------------------------------------------------
 Center     Atomic      Atomic             Coordinates (Angstroms)
 Number     Number       Type             X           Y           Z
 ---------------------------------------------------------------------
      1          1           0        0.000000    0.000000   -1.191667
      2         11           0        0.000000    0.000000    0.108333
 ---------------------------------------------------------------------
 Rotational constants (GHZ):           0.0000000         309.7265578         309.7265578
 Leave Link  202 at Mon Mar 28 14:27:18 2022, MaxMem=  9663676416 cpu:               0.9 elap:               0.0
 (Enter /nopt/nrel/apps/gaussian/g16C_1/g16/l301.exe)
 General basis read from cards:  (5D, 7F)
                         Coordinates in L301:                         
 ---------------------------------------------------------------------
 Center     Atomic      Atomic             Coordinates (Angstroms)
 Number     Number       Type             X           Y           Z
 ---------------------------------------------------------------------
      1          1           0        0.000000    0.000000   -1.191667
      2         11           0        0.000000    0.000000    0.108333
 ---------------------------------------------------------------------
 Centers:       1
 STO-3G
 ****
 Centers:       2
 aug-cc-pVQZ
 ****
 FixB: optimizing general contractions.
 Ernie: Thresh=  0.10000D-02 Tol=  0.10000D-05 Strict=F.
 IA=     1 ShT= 0 ShC= 0 NL=   1 NS=   0.
 IA=     1 L=0 SC=0 ISt=    0 NBk=    0 NP=    0 IndPr=    0.
 IA=     2 ShT= 0 ShC= 0 NL=   7 NS=   4.
 IA=     2 L=0 SC=0 ISt=    1 NBk=    3 NP=   16 IndPr=    0.
 DoElim1:  L=0 select primitive    5 from    2 using    1 C= 3.00D-03
 DoElim1:  L=0 select primitive    5 from    3 using    1 C= 3.00D-03
 DoElim1:  L=0 select primitive    9 from    3 using    2 C=-4.69D-03
 DoElim2:  L=0 select primitive   16 from    2 using    3 C=-1.13D-01
 DoElim2:  L=0 select primitive   16 from    1 using    3 C=-1.13D-01
 DoElim2:  L=0 select primitive   15 from    1 using    2 C= 4.22D-01
 Delete L=0 primitive    9 from    3 C=  4.69D-20.
 Delete L=0 primitive    7 from    3 C=  2.07D-07.
 Delete L=0 primitive    6 from    3 C=  8.50D-07.
 Delete L=0 primitive    5 from    3 C=  3.87D-21.
 Delete L=0 primitive    4 from    3 C=  5.56D-08.
 Delete L=0 primitive    3 from    3 C=  2.42D-09.
 Delete L=0 primitive    2 from    3 C=  1.98D-09.
 Delete L=0 primitive    1 from    3 C=  1.19D-10.
 Delete L=0 primitive   16 from    2 C=  1.15D-17.
 Delete L=0 primitive    5 from    2 C=  3.40D-20.
 Delete L=0 primitive    4 from    2 C=  5.60D-07.
 Delete L=0 primitive    3 from    2 C=  1.40D-07.
 Delete L=0 primitive    2 from    2 C=  3.25D-08.
 Delete L=0 primitive    1 from    2 C=  3.89D-09.
 Delete L=0 primitive   16 from    1 C=  4.30D-20.
 Delete L=0 primitive   15 from    1 C=  1.88D-20.
 IA=     2 L=0 SC=0 ISt=    0 NBk=    0 NP=    0 IndPr=   32.
 IA=     2 ShT= 1 ShC= 1 NL=   6 NS=   4.
 IA=     2 L=1 SC=1 ISt=    1 NBk=    2 NP=    9 IndPr=    0.
 DoElim1:  L=1 select primitive    2 from    2 using    1 C= 7.42D-03
 DoElim2:  L=1 select primitive    9 from    1 using    2 C= 5.03D-02
 Delete L=1 primitive    2 from    2 C=  1.85D-20.
 Delete L=1 primitive    1 from    2 C=  3.48D-07.
 Delete L=1 primitive    9 from    1 C=  2.51D-19.
 IA=     2 L=1 SC=1 ISt=    0 NBk=    0 NP=    0 IndPr=   15.
 IA=     2 ShT= 2 ShC= 2 NL=   4 NS=   4.
 IA=     2 L=2 SC=2 ISt=    0 NBk=    0 NP=    0 IndPr=    0.
 IA=     2 ShT= 3 ShC= 3 NL=   3 NS=   3.
 IA=     2 L=3 SC=3 ISt=    0 NBk=    0 NP=    0 IndPr=    0.
 IA=     2 ShT= 4 ShC= 4 NL=   2 NS=   2.
 IA=     2 L=4 SC=4 ISt=    0 NBk=    0 NP=    0 IndPr=    0.
 Ernie:  19 primitive shells out of 86 were deleted.
 LdAtmC:  AtmChg=     1.000000    11.000000
 AtZEff=     -1.0000000    -10.0400000
 NEqShl: 
              1            2            3            4
     1            1            1            1            1
     2            2            2            2            2
     3            3            3            3            3
     4            4            4            4            4
     5            5            5            5            5
     6            6            6            6            6
     7            7            7            7            7
     8            8            8            8            8
     9            9            9            9            9
    10           10           10           10           10
    11           11           11           11           11
    12           12           12           12           12
    13           13           13           13           13
    14           14           14           14           14
    15           15           15           15           15
    16           16           16           16           16
    17           17           17           17           17
    18           18           18           18           18
    19           19           19           19           19
    20           20           20           20           20
    21           21           21           21           21
    22           22           22           22           22
    23           23           23           23           23
 NEqBas: 
              1            2            3            4
     1            1            1            1            1
     2            2            2            2            2
     3            3            3            3            3
     4            4            4            4            4
     5            5            5            5            5
     6            6            6            6            6
     7            7            7            7            7
     8            8            8            8            8
     9            9           -9           -9            9
    10           10          -10           10          -10
    11           11           11           11           11
    12           12          -12          -12           12
    13           13          -13           13          -13
    14           14           14           14           14
    15           15          -15          -15           15
    16           16          -16           16          -16
    17           17           17           17           17
    18           18          -18          -18           18
    19           19          -19           19          -19
    20           20           20           20           20
    21           21          -21          -21           21
    22           22          -22           22          -22
    23           23           23           23           23
    24           24          -24          -24           24
    25           25          -25           25          -25
    26           26           26           26           26
    27           27           27           27           27
    28           28           28           28           28
    29           29           29           29           29
    30           30           30          -30          -30
    31           31          -31          -31           31
    32           32          -32           32          -32
    33           33           33           33           33
    34           34           34           34           34
    35           35           35           35           35
    36           36           36          -36          -36
    37           37          -37          -37           37
    38           38          -38           38          -38
    39           39           39           39           39
    40           40           40           40           40
    41           41           41           41           41
    42           42           42          -42          -42
    43           43          -43          -43           43
    44           44          -44           44          -44
    45           45           45           45           45
    46           46           46           46           46
    47           47           47           47           47
    48           48           48          -48          -48
    49           49          -49          -49           49
    50           50          -50           50          -50
    51           51          -51          -51           51
    52           52          -52           52          -52
    53           53           53           53           53
    54           54          -54          -54           54
    55           55          -55           55          -55
    56           56           56           56           56
    57           57          -57          -57           57
    58           58          -58           58          -58
    59           59           59           59           59
    60           60           60          -60          -60
    61           61          -61          -61           61
    62           62          -62           62          -62
    63           63           63           63           63
    64           64          -64          -64           64
    65           65          -65           65          -65
    66           66           66           66           66
    67           67          -67          -67           67
    68           68          -68           68          -68
    69           69           69           69           69
    70           70           70          -70          -70
    71           71          -71          -71           71
    72           72          -72           72          -72
    73           73           73           73           73
    74           74          -74          -74           74
    75           75          -75           75          -75
    76           76           76           76           76
    77           77          -77          -77           77
    78           78          -78           78          -78
    79           79           79           79           79
    80           80           80          -80          -80
    81           81           81           81           81
    82           82          -82           82          -82
    83           83           83           83           83
    84           84          -84           84          -84
    85           85           85           85           85
    86           86          -86          -86           86
    87           87           87          -87          -87
    88           88          -88          -88           88
    89           89           89          -89          -89
    90           90           90           90           90
    91           91          -91           91          -91
    92           92           92           92           92
    93           93          -93          -93           93
    94           94           94          -94          -94
    95           95           95           95           95
    96           96           96           96           96
    97           97          -97           97          -97
    98           98           98           98           98
    99           99          -99           99          -99
   100          100          100          100          100
   101          101         -101         -101          101
   102          102          102         -102         -102
   103          103         -103         -103          103
   104          104          104         -104         -104
   105          105          105          105          105
   106          106         -106          106         -106
   107          107          107          107          107
   108          108         -108         -108          108
   109          109          109         -109         -109
   110          110          110          110          110
 There are    47 symmetry adapted cartesian basis functions of A1  symmetry.
   1         1   1   1   1
   2         2   2   2   2
   3         3   3   3   3
   4         4   4   4   4
   5         5   5   5   5
   6         6   6   6   6
   7         7   7   7   7
   8         8   8   8   8
   9        11  11  11  11
  10        14  14  14  14
  11        17  17  17  17
  12        20  20  20  20
  13        23  23  23  23
  14        26  26  26  26
  15        27  27  27  27
  16        28  28  28  28
  17        29  29  29  29
  18        33  33  33  33
  19        34  34  34  34
  20        35  35  35  35
  21        39  39  39  39
  22        40  40  40  40
  23        41  41  41  41
  24        45  45  45  45
  25        46  46  46  46
  26        47  47  47  47
  27        53  53  53  53
  28        56  56  56  56
  29        59  59  59  59
  30        63  63  63  63
  31        66  66  66  66
  32        69  69  69  69
  33        73  73  73  73
  34        76  76  76  76
  35        79  79  79  79
  36        81  81  81  81
  37        83  83  83  83
  38        85  85  85  85
  39        90  90  90  90
  40        92  92  92  92
  41        95  95  95  95
  42        96  96  96  96
  43        98  98  98  98
  44       100 100 100 100
  45       105 105 105 105
  46       107 107 107 107
  47       110 110 110 110
 There are    13 symmetry adapted cartesian basis functions of A2  symmetry.
  48        30  30  30  30
  49        36  36  36  36
  50        42  42  42  42
  51        48  48  48  48
  52        60  60  60  60
  53        70  70  70  70
  54        80  80  80  80
  55        87  87  87  87
  56        89  89  89  89
  57        94  94  94  94
  58       102 102 102 102
  59       104 104 104 104
  60       109 109 109 109
 There are    25 symmetry adapted cartesian basis functions of B1  symmetry.
  61         9   9   9   9
  62        12  12  12  12
  63        15  15  15  15
  64        18  18  18  18
  65        21  21  21  21
  66        24  24  24  24
  67        31  31  31  31
  68        37  37  37  37
  69        43  43  43  43
  70        49  49  49  49
  71        51  51  51  51
  72        54  54  54  54
  73        57  57  57  57
  74        61  61  61  61
  75        64  64  64  64
  76        67  67  67  67
  77        71  71  71  71
  78        74  74  74  74
  79        77  77  77  77
  80        86  86  86  86
  81        88  88  88  88
  82        93  93  93  93
  83       101 101 101 101
  84       103 103 103 103
  85       108 108 108 108
 There are    25 symmetry adapted cartesian basis functions of B2  symmetry.
  86        10  10  10  10
  87        13  13  13  13
  88        16  16  16  16
  89        19  19  19  19
  90        22  22  22  22
  91        25  25  25  25
  92        32  32  32  32
  93        38  38  38  38
  94        44  44  44  44
  95        50  50  50  50
  96        52  52  52  52
  97        55  55  55  55
  98        58  58  58  58
  99        62  62  62  62
 100        65  65  65  65
 101        68  68  68  68
 102        72  72  72  72
 103        75  75  75  75
 104        78  78  78  78
 105        82  82  82  82
 106        84  84  84  84
 107        91  91  91  91
 108        97  97  97  97
 109        99  99  99  99
 110       106 106 106 106
 Order= 1 2 4 3
 Reordered character table:
              1            2            3            4            5
     1            1            1            1            1            1
     2            2            1            1           -1           -1
     3            4            1           -1           -1            1
     4            3            1           -1            1           -1
 NEqShl: 
              1            2            3            4
     1            1            1            1            1
     2            2            2            2            2
     3            3            3            3            3
     4            4            4            4            4
     5            5            5            5            5
     6            6            6            6            6
     7            7            7            7            7
     8            8            8            8            8
     9            9            9            9            9
    10           10           10           10           10
    11           11           11           11           11
    12           12           12           12           12
    13           13           13           13           13
    14           14           14           14           14
    15           15           15           15           15
    16           16           16           16           16
    17           17           17           17           17
    18           18           18           18           18
    19           19           19           19           19
    20           20           20           20           20
    21           21           21           21           21
    22           22           22           22           22
    23           23           23           23           23
 NEqBas: 
              1            2            3            4
     1            1            1            1            1
     2            2            2            2            2
     3            3            3            3            3
     4            4            4            4            4
     5            5            5            5            5
     6            6            6            6            6
     7            7            7            7            7
     8            8            8            8            8
     9            9           -9           -9            9
    10           10          -10           10          -10
    11           11           11           11           11
    12           12          -12          -12           12
    13           13          -13           13          -13
    14           14           14           14           14
    15           15          -15          -15           15
    16           16          -16           16          -16
    17           17           17           17           17
    18           18          -18          -18           18
    19           19          -19           19          -19
    20           20           20           20           20
    21           21          -21          -21           21
    22           22          -22           22          -22
    23           23           23           23           23
    24           24          -24          -24           24
    25           25          -25           25          -25
    26           26           26           26           26
    27           27           27           27           27
    28           28          -28          -28           28
    29           29          -29           29          -29
    30           30           30           30           30
    31           31           31          -31          -31
    32           32           32           32           32
    33           33          -33          -33           33
    34           34          -34           34          -34
    35           35           35           35           35
    36           36           36          -36          -36
    37           37           37           37           37
    38           38          -38          -38           38
    39           39          -39           39          -39
    40           40           40           40           40
    41           41           41          -41          -41
    42           42           42           42           42
    43           43          -43          -43           43
    44           44          -44           44          -44
    45           45           45           45           45
    46           46           46          -46          -46
    47           47           47           47           47
    48           48          -48          -48           48
    49           49          -49           49          -49
    50           50           50           50           50
    51           51           51          -51          -51
    52           52          -52          -52           52
    53           53          -53           53          -53
    54           54           54           54           54
    55           55          -55          -55           55
    56           56          -56           56          -56
    57           57           57           57           57
    58           58           58          -58          -58
    59           59          -59          -59           59
    60           60          -60           60          -60
    61           61           61           61           61
    62           62          -62          -62           62
    63           63          -63           63          -63
    64           64           64           64           64
    65           65           65          -65          -65
    66           66          -66          -66           66
    67           67          -67           67          -67
    68           68           68           68           68
    69           69          -69          -69           69
    70           70          -70           70          -70
    71           71           71           71           71
    72           72           72          -72          -72
    73           73          -73          -73           73
    74           74          -74           74          -74
    75           75           75           75           75
    76           76           76          -76          -76
    77           77           77           77           77
    78           78          -78          -78           78
    79           79          -79           79          -79
    80           80           80           80           80
    81           81           81          -81          -81
    82           82          -82          -82           82
    83           83          -83           83          -83
    84           84           84           84           84
    85           85           85          -85          -85
 There are    34 symmetry adapted basis functions of A1  symmetry.
   1         1   1   1   1
   2         2   2   2   2
   3         3   3   3   3
   4         4   4   4   4
   5         5   5   5   5
   6         6   6   6   6
   7         7   7   7   7
   8         8   8   8   8
   9        11  11  11  11
  10        14  14  14  14
  11        17  17  17  17
  12        20  20  20  20
  13        23  23  23  23
  14        26  26  26  26
  15        27  27  27  27
  16        30  30  30  30
  17        32  32  32  32
  18        35  35  35  35
  19        37  37  37  37
  20        40  40  40  40
  21        42  42  42  42
  22        45  45  45  45
  23        47  47  47  47
  24        50  50  50  50
  25        54  54  54  54
  26        57  57  57  57
  27        61  61  61  61
  28        64  64  64  64
  29        68  68  68  68
  30        71  71  71  71
  31        75  75  75  75
  32        77  77  77  77
  33        80  80  80  80
  34        84  84  84  84
 There are    11 symmetry adapted basis functions of A2  symmetry.
  35        31  31  31  31
  36        36  36  36  36
  37        41  41  41  41
  38        46  46  46  46
  39        51  51  51  51
  40        58  58  58  58
  41        65  65  65  65
  42        72  72  72  72
  43        76  76  76  76
  44        81  81  81  81
  45        85  85  85  85
 There are    20 symmetry adapted basis functions of B1  symmetry.
  46         9   9   9   9
  47        12  12  12  12
  48        15  15  15  15
  49        18  18  18  18
  50        21  21  21  21
  51        24  24  24  24
  52        28  28  28  28
  53        33  33  33  33
  54        38  38  38  38
  55        43  43  43  43
  56        48  48  48  48
  57        52  52  52  52
  58        55  55  55  55
  59        59  59  59  59
  60        62  62  62  62
  61        66  66  66  66
  62        69  69  69  69
  63        73  73  73  73
  64        78  78  78  78
  65        82  82  82  82
 There are    20 symmetry adapted basis functions of B2  symmetry.
  66        10  10  10  10
  67        13  13  13  13
  68        16  16  16  16
  69        19  19  19  19
  70        22  22  22  22
  71        25  25  25  25
  72        29  29  29  29
  73        34  34  34  34
  74        39  39  39  39
  75        44  44  44  44
  76        49  49  49  49
  77        53  53  53  53
  78        56  56  56  56
  79        60  60  60  60
  80        63  63  63  63
  81        67  67  67  67
  82        70  70  70  70
  83        74  74  74  74
  84        79  79  79  79
  85        83  83  83  83
 Order= 1 2 4 3
 Reordered character table:
              1            2            3            4            5
     1            1            1            1            1            1
     2            2            1            1           -1           -1
     3            4            1           -1           -1            1
     4            3            1           -1            1           -1
    85 basis functions,   180 primitive gaussians,   110 cartesian basis functions
     7 alpha electrons        5 beta electrons
       nuclear repulsion energy         4.4776533232 Hartrees.
 IS=     1 IAt=     1 ISR=     1 T=0 IP=      1 IndIP=      1 IndIPD=      0 C=  2.769344D-01  0.000000D+00                             NZ=T
 IS=     1 IAt=     1 ISR=     1 T=0 IP=      2 IndIP=      2 IndIPD=      1 C=  2.678389D-01  0.000000D+00                             NZ=T
 IS=     1 IAt=     1 ISR=     1 T=0 IP=      3 IndIP=      3 IndIPD=      2 C=  8.347367D-02  0.000000D+00                             NZ=T
 IS=     2 IAt=     2 ISR=     1 T=0 IP=      1 IndIP=      4 IndIPD=      0 C=  1.256831D-01  0.000000D+00                             NZ=T
 IS=     2 IAt=     2 ISR=     1 T=0 IP=      2 IndIP=      5 IndIPD=      1 C=  2.351795D-01  0.000000D+00                             NZ=T
 IS=     2 IAt=     2 ISR=     1 T=0 IP=      3 IndIP=      6 IndIPD=      2 C=  4.075540D-01  0.000000D+00                             NZ=T
 IS=     2 IAt=     2 ISR=     1 T=0 IP=      4 IndIP=      7 IndIPD=      3 C=  6.679379D-01  0.000000D+00                             NZ=T
 IS=     2 IAt=     2 ISR=     1 T=0 IP=      5 IndIP=      8 IndIPD=      4 C=  1.047217D+00  0.000000D+00                             NZ=T
 IS=     2 IAt=     2 ISR=     1 T=0 IP=      6 IndIP=      9 IndIPD=      5 C=  1.576197D+00  0.000000D+00                             NZ=T
 IS=     2 IAt=     2 ISR=     1 T=0 IP=      7 IndIP=     10 IndIPD=      6 C=  2.263485D+00  0.000000D+00                             NZ=T
 IS=     2 IAt=     2 ISR=     1 T=0 IP=      8 IndIP=     11 IndIPD=      7 C=  3.032206D+00  0.000000D+00                             NZ=T
 IS=     2 IAt=     2 ISR=     1 T=0 IP=      9 IndIP=     12 IndIPD=      8 C=  3.616992D+00  0.000000D+00                             NZ=T
 IS=     2 IAt=     2 ISR=     1 T=0 IP=     10 IndIP=     13 IndIPD=      9 C=  3.537052D+00  0.000000D+00                             NZ=T
 IS=     2 IAt=     2 ISR=     1 T=0 IP=     11 IndIP=     14 IndIPD=     10 C=  2.397550D+00  0.000000D+00                             NZ=T
 IS=     2 IAt=     2 ISR=     1 T=0 IP=     12 IndIP=     15 IndIPD=     11 C=  8.137568D-01  0.000000D+00                             NZ=T
 IS=     2 IAt=     2 ISR=     1 T=0 IP=     13 IndIP=     16 IndIPD=     12 C=  6.816649D-02  0.000000D+00                             NZ=T
 IS=     2 IAt=     2 ISR=     1 T=0 IP=     14 IndIP=     17 IndIPD=     13 C= -2.462845D-03  0.000000D+00                             NZ=T
 IS=     3 IAt=     2 ISR=     2 T=0 IP=      1 IndIP=     18 IndIPD=      0 C= -2.098857D-03  0.000000D+00                             NZ=T
 IS=     3 IAt=     2 ISR=     2 T=0 IP=      2 IndIP=     19 IndIPD=      1 C= -1.257311D-02  0.000000D+00                             NZ=T
 IS=     3 IAt=     2 ISR=     2 T=0 IP=      3 IndIP=     20 IndIPD=      2 C= -4.291931D-02  0.000000D+00                             NZ=T
 IS=     3 IAt=     2 ISR=     2 T=0 IP=      4 IndIP=     21 IndIPD=      3 C= -1.256699D-01  0.000000D+00                             NZ=T
 IS=     3 IAt=     2 ISR=     2 T=0 IP=      5 IndIP=     22 IndIPD=      4 C= -2.825687D-01  0.000000D+00                             NZ=T
 IS=     3 IAt=     2 ISR=     2 T=0 IP=      6 IndIP=     23 IndIPD=      5 C= -4.812878D-01  0.000000D+00                             NZ=T
 IS=     3 IAt=     2 ISR=     2 T=0 IP=      7 IndIP=     24 IndIPD=      6 C= -3.483254D-01  0.000000D+00                             NZ=T
 IS=     3 IAt=     2 ISR=     2 T=0 IP=      8 IndIP=     25 IndIPD=      7 C=  2.719827D-01  0.000000D+00                             NZ=T
 IS=     3 IAt=     2 ISR=     2 T=0 IP=      9 IndIP=     26 IndIPD=      8 C=  5.754561D-01  0.000000D+00                             NZ=T
 IS=     3 IAt=     2 ISR=     2 T=0 IP=     10 IndIP=     27 IndIPD=      9 C=  3.325876D-01  0.000000D+00                             NZ=T
 IS=     4 IAt=     2 ISR=     3 T=0 IP=      1 IndIP=     28 IndIPD=      0 C= -2.688625D-03  0.000000D+00                             NZ=T
 IS=     4 IAt=     2 ISR=     3 T=0 IP=      2 IndIP=     29 IndIPD=      1 C= -6.044506D-03  0.000000D+00                             NZ=T
 IS=     4 IAt=     2 ISR=     3 T=0 IP=      3 IndIP=     30 IndIPD=      2 C=  5.457853D-03  0.000000D+00                             NZ=T
 IS=     4 IAt=     2 ISR=     3 T=0 IP=      4 IndIP=     31 IndIPD=      3 C=  1.784245D-03  0.000000D+00                             NZ=T
 IS=     4 IAt=     2 ISR=     3 T=0 IP=      5 IndIP=     32 IndIPD=      4 C= -7.122151D-03  0.000000D+00                             NZ=T
 IS=     4 IAt=     2 ISR=     3 T=0 IP=      6 IndIP=     33 IndIPD=      5 C= -7.663139D-02  0.000000D+00                             NZ=T
 IS=     4 IAt=     2 ISR=     3 T=0 IP=      7 IndIP=     34 IndIPD=      6 C= -1.556109D-01  0.000000D+00                             NZ=T
 IS=     4 IAt=     2 ISR=     3 T=0 IP=      8 IndIP=     35 IndIPD=      7 C= -2.608980D-01  0.000000D+00                             NZ=T
 IS=     5 IAt=     2 ISR=     4 T=0 IP=      1 IndIP=     36 IndIPD=      0 C=  9.691874D-02  0.000000D+00                             NZ=T
 IS=     6 IAt=     2 ISR=     5 T=0 IP=      1 IndIP=     37 IndIPD=      0 C=  5.504375D-02  0.000000D+00                             NZ=T
 IS=     7 IAt=     2 ISR=     6 T=0 IP=      1 IndIP=     38 IndIPD=      0 C=  3.224288D-02  0.000000D+00                             NZ=T
 IS=     8 IAt=     2 ISR=     7 T=0 IP=      1 IndIP=     39 IndIPD=      0 C=  1.515501D-02  0.000000D+00                             NZ=T
 IS=     9 IAt=     2 ISR=     8 T=1 IP=      1 IndIP=     40 IndIPD=      0 C=  0.000000D+00  2.415190D+00                             NZ=T
 IS=     9 IAt=     2 ISR=     8 T=1 IP=      2 IndIP=     41 IndIPD=      1 C=  0.000000D+00  3.261766D+00                             NZ=T
 IS=     9 IAt=     2 ISR=     8 T=1 IP=      3 IndIP=     42 IndIPD=      2 C=  0.000000D+00  3.785291D+00                             NZ=T
 IS=     9 IAt=     2 ISR=     8 T=1 IP=      4 IndIP=     43 IndIPD=      3 C=  0.000000D+00  3.625299D+00                             NZ=T
 IS=     9 IAt=     2 ISR=     8 T=1 IP=      5 IndIP=     44 IndIPD=      4 C=  0.000000D+00  2.558649D+00                             NZ=T
 IS=     9 IAt=     2 ISR=     8 T=1 IP=      6 IndIP=     45 IndIPD=      5 C=  0.000000D+00  1.216865D+00                             NZ=T
 IS=     9 IAt=     2 ISR=     8 T=1 IP=      7 IndIP=     46 IndIPD=      6 C=  0.000000D+00  3.472050D-01                             NZ=T
 IS=     9 IAt=     2 ISR=     8 T=1 IP=      8 IndIP=     47 IndIPD=      7 C=  0.000000D+00  3.753507D-02                             NZ=T
 IS=    10 IAt=     2 ISR=     9 T=1 IP=      1 IndIP=     48 IndIPD=      0 C=  0.000000D+00 -5.305643D-02                             NZ=T
 IS=    10 IAt=     2 ISR=     9 T=1 IP=      2 IndIP=     49 IndIPD=      1 C=  0.000000D+00 -3.032342D-01                             NZ=T
 IS=    10 IAt=     2 ISR=     9 T=1 IP=      3 IndIP=     50 IndIPD=      2 C=  0.000000D+00 -3.201619D-01                             NZ=T
 IS=    10 IAt=     2 ISR=     9 T=1 IP=      4 IndIP=     51 IndIPD=      3 C=  0.000000D+00 -2.475230D-01                             NZ=T
 IS=    10 IAt=     2 ISR=     9 T=1 IP=      5 IndIP=     52 IndIPD=      4 C=  0.000000D+00 -2.183908D-01                             NZ=T
 IS=    10 IAt=     2 ISR=     9 T=1 IP=      6 IndIP=     53 IndIPD=      5 C=  0.000000D+00 -4.814895D-01                             NZ=T
 IS=    10 IAt=     2 ISR=     9 T=1 IP=      7 IndIP=     54 IndIPD=      6 C=  0.000000D+00  5.559948D-01                             NZ=T
 IS=    11 IAt=     2 ISR=    10 T=1 IP=      1 IndIP=     55 IndIPD=      0 C=  0.000000D+00  5.619756D-02                             NZ=T
 IS=    12 IAt=     2 ISR=    11 T=1 IP=      1 IndIP=     56 IndIPD=      0 C=  0.000000D+00  1.873598D-02                             NZ=T
 IS=    13 IAt=     2 ISR=    12 T=1 IP=      1 IndIP=     57 IndIPD=      0 C=  0.000000D+00  6.510746D-03                             NZ=T
 IS=    14 IAt=     2 ISR=    13 T=1 IP=      1 IndIP=     58 IndIPD=      0 C=  0.000000D+00  2.326397D-03                             NZ=T
 IS=    15 IAt=     2 ISR=    14 T=2 IP=      1 IndIP=     59 IndIPD=      1 C=  0.000000D+00  0.000000D+00  6.217031D-02  0.000000D+00 NZ=T
 IS=    16 IAt=     2 ISR=    15 T=2 IP=      1 IndIP=     60 IndIPD=      2 C=  0.000000D+00  0.000000D+00  2.270846D-02  0.000000D+00 NZ=T
 IS=    17 IAt=     2 ISR=    16 T=2 IP=      1 IndIP=     61 IndIPD=      3 C=  0.000000D+00  0.000000D+00  8.309696D-03  0.000000D+00 NZ=T
 IS=    18 IAt=     2 ISR=    17 T=2 IP=      1 IndIP=     62 IndIPD=      4 C=  0.000000D+00  0.000000D+00  1.741731D-03  0.000000D+00 NZ=T
 IS=    19 IAt=     2 ISR=    18 T=3 IP=      1 IndIP=     63 IndIPD=      5 C=  0.000000D+00  0.000000D+00  0.000000D+00  3.558789D-02 NZ=T
 IS=    20 IAt=     2 ISR=    19 T=3 IP=      1 IndIP=     64 IndIPD=      6 C=  0.000000D+00  0.000000D+00  0.000000D+00  8.964249D-03 NZ=T
 IS=    21 IAt=     2 ISR=    20 T=3 IP=      1 IndIP=     65 IndIPD=      7 C=  0.000000D+00  0.000000D+00  0.000000D+00  1.524099D-03 NZ=T
 IS=    22 IAt=     2 ISR=    21 T=4 IP=      1 IndIP=     66 IndIPD=      8 C=  0.000000D+00  0.000000D+00  0.000000D+00  8.821178D-03 NZ=T
 IS=    23 IAt=     2 ISR=    22 T=4 IP=      1 IndIP=     67 IndIPD=      9 C=  0.000000D+00  0.000000D+00  0.000000D+00  1.352433D-03 NZ=T
 IExCor=    0 DFT=F Ex=HF Corr=None ExCW=0 ScaHFX=  1.000000
 ScaDFX=  1.000000  1.000000  1.000000  1.000000 ScalE2=  1.000000  1.000000
 IRadAn=      5 IRanWt=     -1 IRanGd=            0 ICorTp=0 IEmpDi=  4
 NAtoms=    2 NActive=    2 NUniq=    2 SFac= 1.00D+00 NAtFMM=   60 NAOKFM=F Big=F
 Integral buffers will be    131072 words long.
 Raffenetti 2 integral format.
 Two-electron integral symmetry is turned on.
 Leave Link  301 at Mon Mar 28 14:27:18 2022, MaxMem=  9663676416 cpu:               2.4 elap:               0.1
 (Enter /nopt/nrel/apps/gaussian/g16C_1/g16/l302.exe)
 NPDir=0 NMtPBC=     1 NCelOv=     1 NCel=       1 NClECP=     1 NCelD=      1
         NCelK=      1 NCelE2=     1 NClLst=     1 CellRange=     0.0.
 One-electron integrals computed using PRISM.
 One-electron integral symmetry used in STVInt
 Entering OneElI...
 Calculate overlap and kinetic energy integrals
    NBasis =  85  MinDer = 0  MaxDer = 0
 Requested accuracy = 0.1000D-12
 Symmetry will be used
 PrmmSu-InSpLW:  IPartL=    0 NPrtUS=   36 NPrtUL=    1 DoSpLW=F IThBeg=    0 IThEnd=   35 NThAct=   36.
 PrSmSu:  IncTry=   512 NBBP=            276 NTPThr=   100 NPartT=   36 Incr=           1 LDynOK=F GPUOK=F.
 PrsmSu:  NPrtUS=  36 ThrOK=T IAlg=1 LenDen=           0 ISkipM=0 DoSpLW=F IThBeg=    0 IThEnd=   35.
 Prism:   IPart=     0 DynPar=F LinDyn=F Incr=           1.
 PRISM was handed   268400882 working-precision words and   276 shell-pairs
 PRISM was handed   268400882 working-precision words and   276 shell-pairs
 PRISM was handed   268400882 working-precision words and   276 shell-pairs
 PRISM was handed   268400882 working-precision words and   276 shell-pairs
 PRISM was handed   268400882 working-precision words and   276 shell-pairs
 PRISM was handed   268400882 working-precision words and   276 shell-pairs
 PRISM was handed   268400882 working-precision words and   276 shell-pairs
 PRISM was handed   268400882 working-precision words and   276 shell-pairs
 PRISM was handed   268400882 working-precision words and   276 shell-pairs
 PRISM was handed   268400882 working-precision words and   276 shell-pairs
 PRISM was handed   268400882 working-precision words and   276 shell-pairs
 PRISM was handed   268400882 working-precision words and   276 shell-pairs
 PRISM was handed   268400882 working-precision words and   276 shell-pairs
 PRISM was handed   268400882 working-precision words and   276 shell-pairs
 PRISM was handed   268400882 working-precision words and   276 shell-pairs
 PRISM was handed   268400882 working-precision words and   276 shell-pairs
 PRISM was handed   268400882 working-precision words and   276 shell-pairs
 PRISM was handed   268400882 working-precision words and   276 shell-pairs
 PRISM was handed   268400882 working-precision words and   276 shell-pairs
 PRISM was handed   268400882 working-precision words and   276 shell-pairs
 IPart= 20 NShTot=           0 NBatch=           0 AvBLen=         0.0
 IPart= 24 NShTot=           0 NBatch=           0 AvBLen=         0.0
 IPart= 32 NShTot=           0 NBatch=           0 AvBLen=         0.0
 IPart= 34 NShTot=           0 NBatch=           0 AvBLen=         0.0
 IPart= 22 NShTot=           0 NBatch=           0 AvBLen=         0.0
 IPart= 16 NShTot=           0 NBatch=           0 AvBLen=         0.0
 IPart= 29 NShTot=           0 NBatch=           0 AvBLen=         0.0
 IPart= 25 NShTot=           0 NBatch=           0 AvBLen=         0.0
 PRISM was handed   268400882 working-precision words and   276 shell-pairs
 PRISM was handed   268400882 working-precision words and   276 shell-pairs
 PRISM was handed   268400882 working-precision words and   276 shell-pairs
 IPart= 15 NShTot=           3 NBatch=           3 AvBLen=         1.0
 IPart= 12 NShTot=           3 NBatch=           3 AvBLen=         1.0
 IPart=  8 NShTot=           9 NBatch=           9 AvBLen=         1.0
 IPart=  9 NShTot=           9 NBatch=           9 AvBLen=         1.0
 IPart=  7 NShTot=          13 NBatch=          13 AvBLen=         1.0
 IPart= 31 NShTot=           0 NBatch=           0 AvBLen=         0.0
 IPart=  3 NShTot=          31 NBatch=          31 AvBLen=         1.0
 IPart=  0 NShTot=          65 NBatch=          65 AvBLen=         1.0
 IPart=  1 NShTot=          44 NBatch=          44 AvBLen=         1.0
 IPart= 13 NShTot=           3 NBatch=           3 AvBLen=         1.0
 PRISM was handed   268400882 working-precision words and   276 shell-pairs
 PRISM was handed   268400882 working-precision words and   276 shell-pairs
 PRISM was handed   268400882 working-precision words and   276 shell-pairs
 PRISM was handed   268400882 working-precision words and   276 shell-pairs
 IPart=  4 NShTot=          15 NBatch=          15 AvBLen=         1.0
 IPart=  5 NShTot=          15 NBatch=          15 AvBLen=         1.0
 PRISM was handed   268400882 working-precision words and   276 shell-pairs
 PRISM was handed   268400882 working-precision words and   276 shell-pairs
 PRISM was handed   268400882 working-precision words and   276 shell-pairs
 PRISM was handed   268400882 working-precision words and   276 shell-pairs
 PRISM was handed   268400882 working-precision words and   276 shell-pairs
 PRISM was handed   268400882 working-precision words and   276 shell-pairs
 PRISM was handed   268400882 working-precision words and   276 shell-pairs
 PRISM was handed   268400882 working-precision words and   276 shell-pairs
 PRISM was handed   268400882 working-precision words and   276 shell-pairs
 IPart= 27 NShTot=           0 NBatch=           0 AvBLen=         0.0
 IPart= 26 NShTot=           0 NBatch=           0 AvBLen=         0.0
 IPart= 33 NShTot=           0 NBatch=           0 AvBLen=         0.0
 IPart= 17 NShTot=           0 NBatch=           0 AvBLen=         0.0
 IPart= 14 NShTot=           3 NBatch=           3 AvBLen=         1.0
 IPart= 11 NShTot=           6 NBatch=           6 AvBLen=         1.0
 IPart= 21 NShTot=           0 NBatch=           0 AvBLen=         0.0
 IPart= 35 NShTot=           0 NBatch=           0 AvBLen=         0.0
 IPart=  2 NShTot=          38 NBatch=          38 AvBLen=         1.0
 IPart= 10 NShTot=           6 NBatch=           6 AvBLen=         1.0
 IPart= 23 NShTot=           0 NBatch=           0 AvBLen=         0.0
 IPart=  6 NShTot=          13 NBatch=          13 AvBLen=         1.0
 IPart= 30 NShTot=           0 NBatch=           0 AvBLen=         0.0
 IPart= 18 NShTot=           0 NBatch=           0 AvBLen=         0.0
 IPart= 19 NShTot=           0 NBatch=           0 AvBLen=         0.0
 IPart= 28 NShTot=           0 NBatch=           0 AvBLen=         0.0
 PrSmSu:  NxtVal=             37.
 *** Overlap *** 
                1             2             3             4             5 
      1  0.100000D+01
      2  0.156026D-01  0.100000D+01
      3  0.138547D+00  0.240207D+00  0.100000D+01
      4 -0.281818D+00 -0.194205D+00 -0.872342D+00  0.100000D+01
      5  0.472701D+00  0.407775D-01  0.304811D+00 -0.546160D+00  0.100000D+01
      6  0.377690D+00  0.232550D-01  0.181508D+00 -0.346695D+00  0.900999D+00
      7  0.264859D+00  0.136477D-01  0.108695D+00 -0.214284D+00  0.689351D+00
      8  0.140380D+00  0.642215D-02  0.517925D-01 -0.104189D+00  0.391745D+00
      9  0.000000D+00  0.000000D+00  0.000000D+00  0.000000D+00  0.000000D+00
     10  0.000000D+00  0.000000D+00  0.000000D+00  0.000000D+00  0.000000D+00
     11 -0.175529D+00  0.000000D+00  0.000000D+00  0.000000D+00  0.000000D+00
     12  0.000000D+00  0.000000D+00  0.000000D+00  0.000000D+00  0.000000D+00
     13  0.000000D+00  0.000000D+00  0.000000D+00  0.000000D+00  0.000000D+00
     14 -0.565569D+00  0.000000D+00  0.000000D+00  0.000000D+00  0.000000D+00
     15  0.000000D+00  0.000000D+00  0.000000D+00  0.000000D+00  0.000000D+00
     16  0.000000D+00  0.000000D+00  0.000000D+00  0.000000D+00  0.000000D+00
     17 -0.498687D+00  0.000000D+00  0.000000D+00  0.000000D+00  0.000000D+00
     18  0.000000D+00  0.000000D+00  0.000000D+00  0.000000D+00  0.000000D+00
     19  0.000000D+00  0.000000D+00  0.000000D+00  0.000000D+00  0.000000D+00
     20 -0.284054D+00  0.000000D+00  0.000000D+00  0.000000D+00  0.000000D+00
     21  0.000000D+00  0.000000D+00  0.000000D+00  0.000000D+00  0.000000D+00
     22  0.000000D+00  0.000000D+00  0.000000D+00  0.000000D+00  0.000000D+00
     23 -0.128055D+00  0.000000D+00  0.000000D+00  0.000000D+00  0.000000D+00
     24  0.000000D+00  0.000000D+00  0.000000D+00  0.000000D+00  0.000000D+00
     25  0.000000D+00  0.000000D+00  0.000000D+00  0.000000D+00  0.000000D+00
     26 -0.515981D-01  0.000000D+00  0.000000D+00  0.000000D+00  0.000000D+00
     27  0.441903D+00  0.000000D+00  0.000000D+00  0.000000D+00  0.000000D+00
     28  0.000000D+00  0.000000D+00  0.000000D+00  0.000000D+00  0.000000D+00
     29  0.000000D+00  0.000000D+00  0.000000D+00  0.000000D+00  0.000000D+00
     30  0.000000D+00  0.000000D+00  0.000000D+00  0.000000D+00  0.000000D+00
     31  0.000000D+00  0.000000D+00  0.000000D+00  0.000000D+00  0.000000D+00
     32  0.337668D+00  0.000000D+00  0.000000D+00  0.000000D+00  0.000000D+00
     33  0.000000D+00  0.000000D+00  0.000000D+00  0.000000D+00  0.000000D+00
     34  0.000000D+00  0.000000D+00  0.000000D+00  0.000000D+00  0.000000D+00
     35  0.000000D+00  0.000000D+00  0.000000D+00  0.000000D+00  0.000000D+00
     36  0.000000D+00  0.000000D+00  0.000000D+00  0.000000D+00  0.000000D+00
     37  0.207671D+00  0.000000D+00  0.000000D+00  0.000000D+00  0.000000D+00
     38  0.000000D+00  0.000000D+00  0.000000D+00  0.000000D+00  0.000000D+00
     39  0.000000D+00  0.000000D+00  0.000000D+00  0.000000D+00  0.000000D+00
     40  0.000000D+00  0.000000D+00  0.000000D+00  0.000000D+00  0.000000D+00
     41  0.000000D+00  0.000000D+00  0.000000D+00  0.000000D+00  0.000000D+00
     42  0.703607D-01  0.000000D+00  0.000000D+00  0.000000D+00  0.000000D+00
     43  0.000000D+00  0.000000D+00  0.000000D+00  0.000000D+00  0.000000D+00
     44  0.000000D+00  0.000000D+00  0.000000D+00  0.000000D+00  0.000000D+00
     45  0.000000D+00  0.000000D+00  0.000000D+00  0.000000D+00  0.000000D+00
     46  0.000000D+00  0.000000D+00  0.000000D+00  0.000000D+00  0.000000D+00
     47 -0.300106D+00  0.000000D+00  0.000000D+00  0.000000D+00  0.000000D+00
     48  0.000000D+00  0.000000D+00  0.000000D+00  0.000000D+00  0.000000D+00
     49  0.000000D+00  0.000000D+00  0.000000D+00  0.000000D+00  0.000000D+00
     50  0.000000D+00  0.000000D+00  0.000000D+00  0.000000D+00  0.000000D+00
     51  0.000000D+00  0.000000D+00  0.000000D+00  0.000000D+00  0.000000D+00
     52  0.000000D+00  0.000000D+00  0.000000D+00  0.000000D+00  0.000000D+00
     53  0.000000D+00  0.000000D+00  0.000000D+00  0.000000D+00  0.000000D+00
     54 -0.203453D+00  0.000000D+00  0.000000D+00  0.000000D+00  0.000000D+00
     55  0.000000D+00  0.000000D+00  0.000000D+00  0.000000D+00  0.000000D+00
     56  0.000000D+00  0.000000D+00  0.000000D+00  0.000000D+00  0.000000D+00
     57  0.000000D+00  0.000000D+00  0.000000D+00  0.000000D+00  0.000000D+00
     58  0.000000D+00  0.000000D+00  0.000000D+00  0.000000D+00  0.000000D+00
     59  0.000000D+00  0.000000D+00  0.000000D+00  0.000000D+00  0.000000D+00
     60  0.000000D+00  0.000000D+00  0.000000D+00  0.000000D+00  0.000000D+00
     61 -0.817488D-01  0.000000D+00  0.000000D+00  0.000000D+00  0.000000D+00
     62  0.000000D+00  0.000000D+00  0.000000D+00  0.000000D+00  0.000000D+00
     63  0.000000D+00  0.000000D+00  0.000000D+00  0.000000D+00  0.000000D+00
     64  0.000000D+00  0.000000D+00  0.000000D+00  0.000000D+00  0.000000D+00
     65  0.000000D+00  0.000000D+00  0.000000D+00  0.000000D+00  0.000000D+00
     66  0.000000D+00  0.000000D+00  0.000000D+00  0.000000D+00  0.000000D+00
     67  0.000000D+00  0.000000D+00  0.000000D+00  0.000000D+00  0.000000D+00
     68  0.161813D+00  0.000000D+00  0.000000D+00  0.000000D+00  0.000000D+00
     69  0.000000D+00  0.000000D+00  0.000000D+00  0.000000D+00  0.000000D+00
     70  0.000000D+00  0.000000D+00  0.000000D+00  0.000000D+00  0.000000D+00
     71  0.000000D+00  0.000000D+00  0.000000D+00  0.000000D+00  0.000000D+00
     72  0.000000D+00  0.000000D+00  0.000000D+00  0.000000D+00  0.000000D+00
     73  0.000000D+00  0.000000D+00  0.000000D+00  0.000000D+00  0.000000D+00
     74  0.000000D+00  0.000000D+00  0.000000D+00  0.000000D+00  0.000000D+00
     75  0.000000D+00  0.000000D+00  0.000000D+00  0.000000D+00  0.000000D+00
     76  0.000000D+00  0.000000D+00  0.000000D+00  0.000000D+00  0.000000D+00
     77  0.757655D-01  0.000000D+00  0.000000D+00  0.000000D+00  0.000000D+00
     78  0.000000D+00  0.000000D+00  0.000000D+00  0.000000D+00  0.000000D+00
     79  0.000000D+00  0.000000D+00  0.000000D+00  0.000000D+00  0.000000D+00
     80  0.000000D+00  0.000000D+00  0.000000D+00  0.000000D+00  0.000000D+00
     81  0.000000D+00  0.000000D+00  0.000000D+00  0.000000D+00  0.000000D+00
     82  0.000000D+00  0.000000D+00  0.000000D+00  0.000000D+00  0.000000D+00
     83  0.000000D+00  0.000000D+00  0.000000D+00  0.000000D+00  0.000000D+00
     84  0.000000D+00  0.000000D+00  0.000000D+00  0.000000D+00  0.000000D+00
     85  0.000000D+00  0.000000D+00  0.000000D+00  0.000000D+00  0.000000D+00
                6             7             8             9            10 
      6  0.100000D+01
      7  0.910835D+00  0.100000D+01
      8  0.608218D+00  0.833207D+00  0.100000D+01
      9  0.000000D+00  0.000000D+00  0.000000D+00  0.100000D+01
     10  0.000000D+00  0.000000D+00  0.000000D+00  0.000000D+00  0.100000D+01
     11  0.000000D+00  0.000000D+00  0.000000D+00  0.000000D+00  0.000000D+00
     12  0.000000D+00  0.000000D+00  0.000000D+00  0.411842D-01  0.000000D+00
     13  0.000000D+00  0.000000D+00  0.000000D+00  0.000000D+00  0.411842D-01
     14  0.000000D+00  0.000000D+00  0.000000D+00  0.000000D+00  0.000000D+00
     15  0.000000D+00  0.000000D+00  0.000000D+00  0.191808D+00  0.000000D+00
     16  0.000000D+00  0.000000D+00  0.000000D+00  0.000000D+00  0.191808D+00
     17  0.000000D+00  0.000000D+00  0.000000D+00  0.000000D+00  0.000000D+00
     18  0.000000D+00  0.000000D+00  0.000000D+00  0.766846D-01  0.000000D+00
     19  0.000000D+00  0.000000D+00  0.000000D+00  0.000000D+00  0.766846D-01
     20  0.000000D+00  0.000000D+00  0.000000D+00  0.000000D+00  0.000000D+00
     21  0.000000D+00  0.000000D+00  0.000000D+00  0.289446D-01  0.000000D+00
     22  0.000000D+00  0.000000D+00  0.000000D+00  0.000000D+00  0.289446D-01
     23  0.000000D+00  0.000000D+00  0.000000D+00  0.000000D+00  0.000000D+00
     24  0.000000D+00  0.000000D+00  0.000000D+00  0.107297D-01  0.000000D+00
     25  0.000000D+00  0.000000D+00  0.000000D+00  0.000000D+00  0.107297D-01
     26  0.000000D+00  0.000000D+00  0.000000D+00  0.000000D+00  0.000000D+00
     27  0.000000D+00  0.000000D+00  0.000000D+00  0.000000D+00  0.000000D+00
     28  0.000000D+00  0.000000D+00  0.000000D+00  0.000000D+00  0.000000D+00
     29  0.000000D+00  0.000000D+00  0.000000D+00  0.000000D+00  0.000000D+00
     30  0.000000D+00  0.000000D+00  0.000000D+00  0.000000D+00  0.000000D+00
     31  0.000000D+00  0.000000D+00  0.000000D+00  0.000000D+00  0.000000D+00
     32  0.000000D+00  0.000000D+00  0.000000D+00  0.000000D+00  0.000000D+00
     33  0.000000D+00  0.000000D+00  0.000000D+00  0.000000D+00  0.000000D+00
     34  0.000000D+00  0.000000D+00  0.000000D+00  0.000000D+00  0.000000D+00
     35  0.000000D+00  0.000000D+00  0.000000D+00  0.000000D+00  0.000000D+00
     36  0.000000D+00  0.000000D+00  0.000000D+00  0.000000D+00  0.000000D+00
     37  0.000000D+00  0.000000D+00  0.000000D+00  0.000000D+00  0.000000D+00
     38  0.000000D+00  0.000000D+00  0.000000D+00  0.000000D+00  0.000000D+00
     39  0.000000D+00  0.000000D+00  0.000000D+00  0.000000D+00  0.000000D+00
     40  0.000000D+00  0.000000D+00  0.000000D+00  0.000000D+00  0.000000D+00
     41  0.000000D+00  0.000000D+00  0.000000D+00  0.000000D+00  0.000000D+00
     42  0.000000D+00  0.000000D+00  0.000000D+00  0.000000D+00  0.000000D+00
     43  0.000000D+00  0.000000D+00  0.000000D+00  0.000000D+00  0.000000D+00
     44  0.000000D+00  0.000000D+00  0.000000D+00  0.000000D+00  0.000000D+00
     45  0.000000D+00  0.000000D+00  0.000000D+00  0.000000D+00  0.000000D+00
     46  0.000000D+00  0.000000D+00  0.000000D+00  0.000000D+00  0.000000D+00
     47  0.000000D+00  0.000000D+00  0.000000D+00  0.000000D+00  0.000000D+00
     48  0.000000D+00  0.000000D+00  0.000000D+00  0.000000D+00  0.000000D+00
     49  0.000000D+00  0.000000D+00  0.000000D+00  0.000000D+00  0.000000D+00
     50  0.000000D+00  0.000000D+00  0.000000D+00  0.000000D+00  0.000000D+00
     51  0.000000D+00  0.000000D+00  0.000000D+00  0.000000D+00  0.000000D+00
     52  0.000000D+00  0.000000D+00  0.000000D+00  0.000000D+00  0.000000D+00
     53  0.000000D+00  0.000000D+00  0.000000D+00  0.000000D+00  0.000000D+00
     54  0.000000D+00  0.000000D+00  0.000000D+00  0.000000D+00  0.000000D+00
     55  0.000000D+00  0.000000D+00  0.000000D+00  0.000000D+00  0.000000D+00
     56  0.000000D+00  0.000000D+00  0.000000D+00  0.000000D+00  0.000000D+00
     57  0.000000D+00  0.000000D+00  0.000000D+00  0.000000D+00  0.000000D+00
     58  0.000000D+00  0.000000D+00  0.000000D+00  0.000000D+00  0.000000D+00
     59  0.000000D+00  0.000000D+00  0.000000D+00  0.000000D+00  0.000000D+00
     60  0.000000D+00  0.000000D+00  0.000000D+00  0.000000D+00  0.000000D+00
     61  0.000000D+00  0.000000D+00  0.000000D+00  0.000000D+00  0.000000D+00
     62  0.000000D+00  0.000000D+00  0.000000D+00  0.000000D+00  0.000000D+00
     63  0.000000D+00  0.000000D+00  0.000000D+00  0.000000D+00  0.000000D+00
     64  0.000000D+00  0.000000D+00  0.000000D+00  0.000000D+00  0.000000D+00
     65  0.000000D+00  0.000000D+00  0.000000D+00  0.000000D+00  0.000000D+00
     66  0.000000D+00  0.000000D+00  0.000000D+00  0.000000D+00  0.000000D+00
     67  0.000000D+00  0.000000D+00  0.000000D+00  0.000000D+00  0.000000D+00
     68  0.000000D+00  0.000000D+00  0.000000D+00  0.000000D+00  0.000000D+00
     69  0.000000D+00  0.000000D+00  0.000000D+00  0.000000D+00  0.000000D+00
     70  0.000000D+00  0.000000D+00  0.000000D+00  0.000000D+00  0.000000D+00
     71  0.000000D+00  0.000000D+00  0.000000D+00  0.000000D+00  0.000000D+00
     72  0.000000D+00  0.000000D+00  0.000000D+00  0.000000D+00  0.000000D+00
     73  0.000000D+00  0.000000D+00  0.000000D+00  0.000000D+00  0.000000D+00
     74  0.000000D+00  0.000000D+00  0.000000D+00  0.000000D+00  0.000000D+00
     75  0.000000D+00  0.000000D+00  0.000000D+00  0.000000D+00  0.000000D+00
     76  0.000000D+00  0.000000D+00  0.000000D+00  0.000000D+00  0.000000D+00
     77  0.000000D+00  0.000000D+00  0.000000D+00  0.000000D+00  0.000000D+00
     78  0.000000D+00  0.000000D+00  0.000000D+00  0.000000D+00  0.000000D+00
     79  0.000000D+00  0.000000D+00  0.000000D+00  0.000000D+00  0.000000D+00
     80  0.000000D+00  0.000000D+00  0.000000D+00  0.000000D+00  0.000000D+00
     81  0.000000D+00  0.000000D+00  0.000000D+00  0.000000D+00  0.000000D+00
     82  0.000000D+00  0.000000D+00  0.000000D+00  0.000000D+00  0.000000D+00
     83  0.000000D+00  0.000000D+00  0.000000D+00  0.000000D+00  0.000000D+00
     84  0.000000D+00  0.000000D+00  0.000000D+00  0.000000D+00  0.000000D+00
     85  0.000000D+00  0.000000D+00  0.000000D+00  0.000000D+00  0.000000D+00
               11            12            13            14            15 
     11  0.100000D+01
     12  0.000000D+00  0.100000D+01
     13  0.000000D+00  0.000000D+00  0.100000D+01
     14  0.411842D-01  0.000000D+00  0.000000D+00  0.100000D+01
     15  0.000000D+00  0.800005D+00  0.000000D+00  0.000000D+00  0.100000D+01
     16  0.000000D+00  0.000000D+00  0.800005D+00  0.000000D+00  0.000000D+00
     17  0.191808D+00  0.000000D+00  0.000000D+00  0.800005D+00  0.000000D+00
     18  0.000000D+00  0.435538D+00  0.000000D+00  0.000000D+00  0.791423D+00
     19  0.000000D+00  0.000000D+00  0.435538D+00  0.000000D+00  0.000000D+00
     20  0.766846D-01  0.000000D+00  0.000000D+00  0.435538D+00  0.000000D+00
     21  0.000000D+00  0.188576D+00  0.000000D+00  0.000000D+00  0.434867D+00
     22  0.000000D+00  0.000000D+00  0.188576D+00  0.000000D+00  0.000000D+00
     23  0.289446D-01  0.000000D+00  0.000000D+00  0.188576D+00  0.000000D+00
     24  0.000000D+00  0.742563D-01  0.000000D+00  0.000000D+00  0.193966D+00
     25  0.000000D+00  0.000000D+00  0.742563D-01  0.000000D+00  0.000000D+00
     26  0.107297D-01  0.000000D+00  0.000000D+00  0.742563D-01  0.000000D+00
     27  0.000000D+00  0.000000D+00  0.000000D+00  0.000000D+00  0.000000D+00
     28  0.000000D+00  0.000000D+00  0.000000D+00  0.000000D+00  0.000000D+00
     29  0.000000D+00  0.000000D+00  0.000000D+00  0.000000D+00  0.000000D+00
     30  0.000000D+00  0.000000D+00  0.000000D+00  0.000000D+00  0.000000D+00
     31  0.000000D+00  0.000000D+00  0.000000D+00  0.000000D+00  0.000000D+00
     32  0.000000D+00  0.000000D+00  0.000000D+00  0.000000D+00  0.000000D+00
     33  0.000000D+00  0.000000D+00  0.000000D+00  0.000000D+00  0.000000D+00
     34  0.000000D+00  0.000000D+00  0.000000D+00  0.000000D+00  0.000000D+00
     35  0.000000D+00  0.000000D+00  0.000000D+00  0.000000D+00  0.000000D+00
     36  0.000000D+00  0.000000D+00  0.000000D+00  0.000000D+00  0.000000D+00
     37  0.000000D+00  0.000000D+00  0.000000D+00  0.000000D+00  0.000000D+00
     38  0.000000D+00  0.000000D+00  0.000000D+00  0.000000D+00  0.000000D+00
     39  0.000000D+00  0.000000D+00  0.000000D+00  0.000000D+00  0.000000D+00
     40  0.000000D+00  0.000000D+00  0.000000D+00  0.000000D+00  0.000000D+00
     41  0.000000D+00  0.000000D+00  0.000000D+00  0.000000D+00  0.000000D+00
     42  0.000000D+00  0.000000D+00  0.000000D+00  0.000000D+00  0.000000D+00
     43  0.000000D+00  0.000000D+00  0.000000D+00  0.000000D+00  0.000000D+00
     44  0.000000D+00  0.000000D+00  0.000000D+00  0.000000D+00  0.000000D+00
     45  0.000000D+00  0.000000D+00  0.000000D+00  0.000000D+00  0.000000D+00
     46  0.000000D+00  0.000000D+00  0.000000D+00  0.000000D+00  0.000000D+00
     47  0.000000D+00  0.000000D+00  0.000000D+00  0.000000D+00  0.000000D+00
     48  0.000000D+00  0.000000D+00  0.000000D+00  0.000000D+00  0.000000D+00
     49  0.000000D+00  0.000000D+00  0.000000D+00  0.000000D+00  0.000000D+00
     50  0.000000D+00  0.000000D+00  0.000000D+00  0.000000D+00  0.000000D+00
     51  0.000000D+00  0.000000D+00  0.000000D+00  0.000000D+00  0.000000D+00
     52  0.000000D+00  0.000000D+00  0.000000D+00  0.000000D+00  0.000000D+00
     53  0.000000D+00  0.000000D+00  0.000000D+00  0.000000D+00  0.000000D+00
     54  0.000000D+00  0.000000D+00  0.000000D+00  0.000000D+00  0.000000D+00
     55  0.000000D+00  0.000000D+00  0.000000D+00  0.000000D+00  0.000000D+00
     56  0.000000D+00  0.000000D+00  0.000000D+00  0.000000D+00  0.000000D+00
     57  0.000000D+00  0.000000D+00  0.000000D+00  0.000000D+00  0.000000D+00
     58  0.000000D+00  0.000000D+00  0.000000D+00  0.000000D+00  0.000000D+00
     59  0.000000D+00  0.000000D+00  0.000000D+00  0.000000D+00  0.000000D+00
     60  0.000000D+00  0.000000D+00  0.000000D+00  0.000000D+00  0.000000D+00
     61  0.000000D+00  0.000000D+00  0.000000D+00  0.000000D+00  0.000000D+00
     62  0.000000D+00  0.000000D+00  0.000000D+00  0.000000D+00  0.000000D+00
     63  0.000000D+00  0.000000D+00  0.000000D+00  0.000000D+00  0.000000D+00
     64  0.000000D+00  0.000000D+00  0.000000D+00  0.000000D+00  0.000000D+00
     65  0.000000D+00  0.000000D+00  0.000000D+00  0.000000D+00  0.000000D+00
     66  0.000000D+00  0.000000D+00  0.000000D+00  0.000000D+00  0.000000D+00
     67  0.000000D+00  0.000000D+00  0.000000D+00  0.000000D+00  0.000000D+00
     68  0.000000D+00  0.000000D+00  0.000000D+00  0.000000D+00  0.000000D+00
     69  0.000000D+00  0.000000D+00  0.000000D+00  0.000000D+00  0.000000D+00
     70  0.000000D+00  0.000000D+00  0.000000D+00  0.000000D+00  0.000000D+00
     71  0.000000D+00  0.000000D+00  0.000000D+00  0.000000D+00  0.000000D+00
     72  0.000000D+00  0.000000D+00  0.000000D+00  0.000000D+00  0.000000D+00
     73  0.000000D+00  0.000000D+00  0.000000D+00  0.000000D+00  0.000000D+00
     74  0.000000D+00  0.000000D+00  0.000000D+00  0.000000D+00  0.000000D+00
     75  0.000000D+00  0.000000D+00  0.000000D+00  0.000000D+00  0.000000D+00
     76  0.000000D+00  0.000000D+00  0.000000D+00  0.000000D+00  0.000000D+00
     77  0.000000D+00  0.000000D+00  0.000000D+00  0.000000D+00  0.000000D+00
     78  0.000000D+00  0.000000D+00  0.000000D+00  0.000000D+00  0.000000D+00
     79  0.000000D+00  0.000000D+00  0.000000D+00  0.000000D+00  0.000000D+00
     80  0.000000D+00  0.000000D+00  0.000000D+00  0.000000D+00  0.000000D+00
     81  0.000000D+00  0.000000D+00  0.000000D+00  0.000000D+00  0.000000D+00
     82  0.000000D+00  0.000000D+00  0.000000D+00  0.000000D+00  0.000000D+00
     83  0.000000D+00  0.000000D+00  0.000000D+00  0.000000D+00  0.000000D+00
     84  0.000000D+00  0.000000D+00  0.000000D+00  0.000000D+00  0.000000D+00
     85  0.000000D+00  0.000000D+00  0.000000D+00  0.000000D+00  0.000000D+00
               16            17            18            19            20 
     16  0.100000D+01
     17  0.000000D+00  0.100000D+01
     18  0.000000D+00  0.000000D+00  0.100000D+01
     19  0.791423D+00  0.000000D+00  0.000000D+00  0.100000D+01
     20  0.000000D+00  0.791423D+00  0.000000D+00  0.000000D+00  0.100000D+01
     21  0.000000D+00  0.000000D+00  0.804857D+00  0.000000D+00  0.000000D+00
     22  0.434867D+00  0.000000D+00  0.000000D+00  0.804857D+00  0.000000D+00
     23  0.000000D+00  0.434867D+00  0.000000D+00  0.000000D+00  0.804857D+00
     24  0.000000D+00  0.000000D+00  0.456170D+00  0.000000D+00  0.000000D+00
     25  0.193966D+00  0.000000D+00  0.000000D+00  0.456170D+00  0.000000D+00
     26  0.000000D+00  0.193966D+00  0.000000D+00  0.000000D+00  0.456170D+00
     27  0.000000D+00  0.000000D+00  0.000000D+00  0.000000D+00  0.000000D+00
     28  0.000000D+00  0.000000D+00  0.000000D+00  0.000000D+00  0.000000D+00
     29  0.000000D+00  0.000000D+00  0.000000D+00  0.000000D+00  0.000000D+00
     30  0.000000D+00  0.000000D+00  0.000000D+00  0.000000D+00  0.000000D+00
     31  0.000000D+00  0.000000D+00  0.000000D+00  0.000000D+00  0.000000D+00
     32  0.000000D+00  0.000000D+00  0.000000D+00  0.000000D+00  0.000000D+00
     33  0.000000D+00  0.000000D+00  0.000000D+00  0.000000D+00  0.000000D+00
     34  0.000000D+00  0.000000D+00  0.000000D+00  0.000000D+00  0.000000D+00
     35  0.000000D+00  0.000000D+00  0.000000D+00  0.000000D+00  0.000000D+00
     36  0.000000D+00  0.000000D+00  0.000000D+00  0.000000D+00  0.000000D+00
     37  0.000000D+00  0.000000D+00  0.000000D+00  0.000000D+00  0.000000D+00
     38  0.000000D+00  0.000000D+00  0.000000D+00  0.000000D+00  0.000000D+00
     39  0.000000D+00  0.000000D+00  0.000000D+00  0.000000D+00  0.000000D+00
     40  0.000000D+00  0.000000D+00  0.000000D+00  0.000000D+00  0.000000D+00
     41  0.000000D+00  0.000000D+00  0.000000D+00  0.000000D+00  0.000000D+00
     42  0.000000D+00  0.000000D+00  0.000000D+00  0.000000D+00  0.000000D+00
     43  0.000000D+00  0.000000D+00  0.000000D+00  0.000000D+00  0.000000D+00
     44  0.000000D+00  0.000000D+00  0.000000D+00  0.000000D+00  0.000000D+00
     45  0.000000D+00  0.000000D+00  0.000000D+00  0.000000D+00  0.000000D+00
     46  0.000000D+00  0.000000D+00  0.000000D+00  0.000000D+00  0.000000D+00
     47  0.000000D+00  0.000000D+00  0.000000D+00  0.000000D+00  0.000000D+00
     48  0.000000D+00  0.000000D+00  0.000000D+00  0.000000D+00  0.000000D+00
     49  0.000000D+00  0.000000D+00  0.000000D+00  0.000000D+00  0.000000D+00
     50  0.000000D+00  0.000000D+00  0.000000D+00  0.000000D+00  0.000000D+00
     51  0.000000D+00  0.000000D+00  0.000000D+00  0.000000D+00  0.000000D+00
     52  0.000000D+00  0.000000D+00  0.000000D+00  0.000000D+00  0.000000D+00
     53  0.000000D+00  0.000000D+00  0.000000D+00  0.000000D+00  0.000000D+00
     54  0.000000D+00  0.000000D+00  0.000000D+00  0.000000D+00  0.000000D+00
     55  0.000000D+00  0.000000D+00  0.000000D+00  0.000000D+00  0.000000D+00
     56  0.000000D+00  0.000000D+00  0.000000D+00  0.000000D+00  0.000000D+00
     57  0.000000D+00  0.000000D+00  0.000000D+00  0.000000D+00  0.000000D+00
     58  0.000000D+00  0.000000D+00  0.000000D+00  0.000000D+00  0.000000D+00
     59  0.000000D+00  0.000000D+00  0.000000D+00  0.000000D+00  0.000000D+00
     60  0.000000D+00  0.000000D+00  0.000000D+00  0.000000D+00  0.000000D+00
     61  0.000000D+00  0.000000D+00  0.000000D+00  0.000000D+00  0.000000D+00
     62  0.000000D+00  0.000000D+00  0.000000D+00  0.000000D+00  0.000000D+00
     63  0.000000D+00  0.000000D+00  0.000000D+00  0.000000D+00  0.000000D+00
     64  0.000000D+00  0.000000D+00  0.000000D+00  0.000000D+00  0.000000D+00
     65  0.000000D+00  0.000000D+00  0.000000D+00  0.000000D+00  0.000000D+00
     66  0.000000D+00  0.000000D+00  0.000000D+00  0.000000D+00  0.000000D+00
     67  0.000000D+00  0.000000D+00  0.000000D+00  0.000000D+00  0.000000D+00
     68  0.000000D+00  0.000000D+00  0.000000D+00  0.000000D+00  0.000000D+00
     69  0.000000D+00  0.000000D+00  0.000000D+00  0.000000D+00  0.000000D+00
     70  0.000000D+00  0.000000D+00  0.000000D+00  0.000000D+00  0.000000D+00
     71  0.000000D+00  0.000000D+00  0.000000D+00  0.000000D+00  0.000000D+00
     72  0.000000D+00  0.000000D+00  0.000000D+00  0.000000D+00  0.000000D+00
     73  0.000000D+00  0.000000D+00  0.000000D+00  0.000000D+00  0.000000D+00
     74  0.000000D+00  0.000000D+00  0.000000D+00  0.000000D+00  0.000000D+00
     75  0.000000D+00  0.000000D+00  0.000000D+00  0.000000D+00  0.000000D+00
     76  0.000000D+00  0.000000D+00  0.000000D+00  0.000000D+00  0.000000D+00
     77  0.000000D+00  0.000000D+00  0.000000D+00  0.000000D+00  0.000000D+00
     78  0.000000D+00  0.000000D+00  0.000000D+00  0.000000D+00  0.000000D+00
     79  0.000000D+00  0.000000D+00  0.000000D+00  0.000000D+00  0.000000D+00
     80  0.000000D+00  0.000000D+00  0.000000D+00  0.000000D+00  0.000000D+00
     81  0.000000D+00  0.000000D+00  0.000000D+00  0.000000D+00  0.000000D+00
     82  0.000000D+00  0.000000D+00  0.000000D+00  0.000000D+00  0.000000D+00
     83  0.000000D+00  0.000000D+00  0.000000D+00  0.000000D+00  0.000000D+00
     84  0.000000D+00  0.000000D+00  0.000000D+00  0.000000D+00  0.000000D+00
     85  0.000000D+00  0.000000D+00  0.000000D+00  0.000000D+00  0.000000D+00
               21            22            23            24            25 
     21  0.100000D+01
     22  0.000000D+00  0.100000D+01
     23  0.000000D+00  0.000000D+00  0.100000D+01
     24  0.813754D+00  0.000000D+00  0.000000D+00  0.100000D+01
     25  0.000000D+00  0.813754D+00  0.000000D+00  0.000000D+00  0.100000D+01
     26  0.000000D+00  0.000000D+00  0.813754D+00  0.000000D+00  0.000000D+00
     27  0.000000D+00  0.000000D+00  0.000000D+00  0.000000D+00  0.000000D+00
     28  0.000000D+00  0.000000D+00  0.000000D+00  0.000000D+00  0.000000D+00
     29  0.000000D+00  0.000000D+00  0.000000D+00  0.000000D+00  0.000000D+00
     30  0.000000D+00  0.000000D+00  0.000000D+00  0.000000D+00  0.000000D+00
     31  0.000000D+00  0.000000D+00  0.000000D+00  0.000000D+00  0.000000D+00
     32  0.000000D+00  0.000000D+00  0.000000D+00  0.000000D+00  0.000000D+00
     33  0.000000D+00  0.000000D+00  0.000000D+00  0.000000D+00  0.000000D+00
     34  0.000000D+00  0.000000D+00  0.000000D+00  0.000000D+00  0.000000D+00
     35  0.000000D+00  0.000000D+00  0.000000D+00  0.000000D+00  0.000000D+00
     36  0.000000D+00  0.000000D+00  0.000000D+00  0.000000D+00  0.000000D+00
     37  0.000000D+00  0.000000D+00  0.000000D+00  0.000000D+00  0.000000D+00
     38  0.000000D+00  0.000000D+00  0.000000D+00  0.000000D+00  0.000000D+00
     39  0.000000D+00  0.000000D+00  0.000000D+00  0.000000D+00  0.000000D+00
     40  0.000000D+00  0.000000D+00  0.000000D+00  0.000000D+00  0.000000D+00
     41  0.000000D+00  0.000000D+00  0.000000D+00  0.000000D+00  0.000000D+00
     42  0.000000D+00  0.000000D+00  0.000000D+00  0.000000D+00  0.000000D+00
     43  0.000000D+00  0.000000D+00  0.000000D+00  0.000000D+00  0.000000D+00
     44  0.000000D+00  0.000000D+00  0.000000D+00  0.000000D+00  0.000000D+00
     45  0.000000D+00  0.000000D+00  0.000000D+00  0.000000D+00  0.000000D+00
     46  0.000000D+00  0.000000D+00  0.000000D+00  0.000000D+00  0.000000D+00
     47  0.000000D+00  0.000000D+00  0.000000D+00  0.000000D+00  0.000000D+00
     48  0.000000D+00  0.000000D+00  0.000000D+00  0.000000D+00  0.000000D+00
     49  0.000000D+00  0.000000D+00  0.000000D+00  0.000000D+00  0.000000D+00
     50  0.000000D+00  0.000000D+00  0.000000D+00  0.000000D+00  0.000000D+00
     51  0.000000D+00  0.000000D+00  0.000000D+00  0.000000D+00  0.000000D+00
     52  0.000000D+00  0.000000D+00  0.000000D+00  0.000000D+00  0.000000D+00
     53  0.000000D+00  0.000000D+00  0.000000D+00  0.000000D+00  0.000000D+00
     54  0.000000D+00  0.000000D+00  0.000000D+00  0.000000D+00  0.000000D+00
     55  0.000000D+00  0.000000D+00  0.000000D+00  0.000000D+00  0.000000D+00
     56  0.000000D+00  0.000000D+00  0.000000D+00  0.000000D+00  0.000000D+00
     57  0.000000D+00  0.000000D+00  0.000000D+00  0.000000D+00  0.000000D+00
     58  0.000000D+00  0.000000D+00  0.000000D+00  0.000000D+00  0.000000D+00
     59  0.000000D+00  0.000000D+00  0.000000D+00  0.000000D+00  0.000000D+00
     60  0.000000D+00  0.000000D+00  0.000000D+00  0.000000D+00  0.000000D+00
     61  0.000000D+00  0.000000D+00  0.000000D+00  0.000000D+00  0.000000D+00
     62  0.000000D+00  0.000000D+00  0.000000D+00  0.000000D+00  0.000000D+00
     63  0.000000D+00  0.000000D+00  0.000000D+00  0.000000D+00  0.000000D+00
     64  0.000000D+00  0.000000D+00  0.000000D+00  0.000000D+00  0.000000D+00
     65  0.000000D+00  0.000000D+00  0.000000D+00  0.000000D+00  0.000000D+00
     66  0.000000D+00  0.000000D+00  0.000000D+00  0.000000D+00  0.000000D+00
     67  0.000000D+00  0.000000D+00  0.000000D+00  0.000000D+00  0.000000D+00
     68  0.000000D+00  0.000000D+00  0.000000D+00  0.000000D+00  0.000000D+00
     69  0.000000D+00  0.000000D+00  0.000000D+00  0.000000D+00  0.000000D+00
     70  0.000000D+00  0.000000D+00  0.000000D+00  0.000000D+00  0.000000D+00
     71  0.000000D+00  0.000000D+00  0.000000D+00  0.000000D+00  0.000000D+00
     72  0.000000D+00  0.000000D+00  0.000000D+00  0.000000D+00  0.000000D+00
     73  0.000000D+00  0.000000D+00  0.000000D+00  0.000000D+00  0.000000D+00
     74  0.000000D+00  0.000000D+00  0.000000D+00  0.000000D+00  0.000000D+00
     75  0.000000D+00  0.000000D+00  0.000000D+00  0.000000D+00  0.000000D+00
     76  0.000000D+00  0.000000D+00  0.000000D+00  0.000000D+00  0.000000D+00
     77  0.000000D+00  0.000000D+00  0.000000D+00  0.000000D+00  0.000000D+00
     78  0.000000D+00  0.000000D+00  0.000000D+00  0.000000D+00  0.000000D+00
     79  0.000000D+00  0.000000D+00  0.000000D+00  0.000000D+00  0.000000D+00
     80  0.000000D+00  0.000000D+00  0.000000D+00  0.000000D+00  0.000000D+00
     81  0.000000D+00  0.000000D+00  0.000000D+00  0.000000D+00  0.000000D+00
     82  0.000000D+00  0.000000D+00  0.000000D+00  0.000000D+00  0.000000D+00
     83  0.000000D+00  0.000000D+00  0.000000D+00  0.000000D+00  0.000000D+00
     84  0.000000D+00  0.000000D+00  0.000000D+00  0.000000D+00  0.000000D+00
     85  0.000000D+00  0.000000D+00  0.000000D+00  0.000000D+00  0.000000D+00
               26            27            28            29            30 
     26  0.100000D+01
     27  0.000000D+00  0.100000D+01
     28  0.000000D+00  0.000000D+00  0.100000D+01
     29  0.000000D+00  0.000000D+00  0.000000D+00  0.100000D+01
     30  0.000000D+00  0.000000D+00  0.000000D+00  0.000000D+00  0.100000D+01
     31  0.000000D+00  0.000000D+00  0.000000D+00  0.000000D+00  0.000000D+00
     32  0.000000D+00  0.866799D+00  0.000000D+00  0.000000D+00  0.000000D+00
     33  0.000000D+00  0.000000D+00  0.866799D+00  0.000000D+00  0.000000D+00
     34  0.000000D+00  0.000000D+00  0.000000D+00  0.866799D+00  0.000000D+00
     35  0.000000D+00  0.000000D+00  0.000000D+00  0.000000D+00  0.866799D+00
     36  0.000000D+00  0.000000D+00  0.000000D+00  0.000000D+00  0.000000D+00
     37  0.000000D+00  0.577387D+00  0.000000D+00  0.000000D+00  0.000000D+00
     38  0.000000D+00  0.000000D+00  0.577387D+00  0.000000D+00  0.000000D+00
     39  0.000000D+00  0.000000D+00  0.000000D+00  0.577387D+00  0.000000D+00
     40  0.000000D+00  0.000000D+00  0.000000D+00  0.000000D+00  0.577387D+00
     41  0.000000D+00  0.000000D+00  0.000000D+00  0.000000D+00  0.000000D+00
     42  0.000000D+00  0.206866D+00  0.000000D+00  0.000000D+00  0.000000D+00
     43  0.000000D+00  0.000000D+00  0.206866D+00  0.000000D+00  0.000000D+00
     44  0.000000D+00  0.000000D+00  0.000000D+00  0.206866D+00  0.000000D+00
     45  0.000000D+00  0.000000D+00  0.000000D+00  0.000000D+00  0.206866D+00
     46  0.000000D+00  0.000000D+00  0.000000D+00  0.000000D+00  0.000000D+00
     47  0.000000D+00  0.000000D+00  0.000000D+00  0.000000D+00  0.000000D+00
     48  0.000000D+00  0.000000D+00  0.000000D+00  0.000000D+00  0.000000D+00
     49  0.000000D+00  0.000000D+00  0.000000D+00  0.000000D+00  0.000000D+00
     50  0.000000D+00  0.000000D+00  0.000000D+00  0.000000D+00  0.000000D+00
     51  0.000000D+00  0.000000D+00  0.000000D+00  0.000000D+00  0.000000D+00
     52  0.000000D+00  0.000000D+00  0.000000D+00  0.000000D+00  0.000000D+00
     53  0.000000D+00  0.000000D+00  0.000000D+00  0.000000D+00  0.000000D+00
     54  0.000000D+00  0.000000D+00  0.000000D+00  0.000000D+00  0.000000D+00
     55  0.000000D+00  0.000000D+00  0.000000D+00  0.000000D+00  0.000000D+00
     56  0.000000D+00  0.000000D+00  0.000000D+00  0.000000D+00  0.000000D+00
     57  0.000000D+00  0.000000D+00  0.000000D+00  0.000000D+00  0.000000D+00
     58  0.000000D+00  0.000000D+00  0.000000D+00  0.000000D+00  0.000000D+00
     59  0.000000D+00  0.000000D+00  0.000000D+00  0.000000D+00  0.000000D+00
     60  0.000000D+00  0.000000D+00  0.000000D+00  0.000000D+00  0.000000D+00
     61  0.000000D+00  0.000000D+00  0.000000D+00  0.000000D+00  0.000000D+00
     62  0.000000D+00  0.000000D+00  0.000000D+00  0.000000D+00  0.000000D+00
     63  0.000000D+00  0.000000D+00  0.000000D+00  0.000000D+00  0.000000D+00
     64  0.000000D+00  0.000000D+00  0.000000D+00  0.000000D+00  0.000000D+00
     65  0.000000D+00  0.000000D+00  0.000000D+00  0.000000D+00  0.000000D+00
     66  0.000000D+00  0.000000D+00  0.000000D+00  0.000000D+00  0.000000D+00
     67  0.000000D+00  0.000000D+00  0.000000D+00  0.000000D+00  0.000000D+00
[...]
 Windowed orbitals will be sorted by symmetry type.
 ExpMin= 5.89D-03 ExpMax= 1.22D+06 ExpMxC= 5.43D+02 IAcc=3 IRadAn=         5 AccDes= 0.00D+00
 HarFok:  IExCor=  205 AccDes= 0.00D+00 IRadAn=         5 IDoV=-2 UseB2=F ITyADJ=14
 ICtDFT= 12500011 ScaDFX=  1.000000  1.000000  1.000000  1.000000
 Largest valence mixing into a core orbital is  3.73D-03
 Largest core mixing into a valence orbital is  2.99D-03
 Range of M.O.s used for correlation:     6    85
 NBasis=    85 NAE=     7 NBE=     5 NFC=     5 NFV=     0
 NROrb=     80 NOA=     2 NOB=     0 NVA=    78 NVB=    80
 Leave Link  801 at Mon Mar 28 14:27:20 2022, MaxMem=  9663676416 cpu:               1.8 elap:               0.1
 (Enter /nopt/nrel/apps/gaussian/g16C_1/g16/l804.exe)
 Open-shell transformation, MDV=  9663676416 ITran=4 ISComp=2.
 Unit  1 TFree=        447098 TCopy=        345943.
 Semi-Direct transformation.
 ModeAB=           2 MOrb=             2 LenV=    9663197591
 LASXX=       126892 LTotXX=      126892 LenRXX=      126892
 LTotAB=      133554 MaxLAS=      976800 LenRXY=      976800
 NonZer=     1044480 LenScr=     2350080 LnRSAI=           0
 LnScr1=           0 LExtra=      350198 Total=      3803970
 MaxDsk= 34359738368 SrtSym=           F ITran=            4
 DoSDTr:  NPSUse= 36
 JobTyp=1 Pass  1:  I=   1 to   2.
 (rs|ai) integrals will be sorted in core.
 Complete sort for first half transformation.
 First half transformation complete.
 Complete sort for second half transformation.
 Second half transformation complete.
 Spin components of T(2) and E(2):
     alpha-alpha T2 =       0.4158263037D-03 E2=     -0.5729713848D-03
     alpha-beta  T2 =       0.0000000000D+00 E2=      0.0000000000D+00
     beta-beta   T2 =       0.0000000000D+00 E2=      0.0000000000D+00
 ANorm=    0.1000207892D+01
 E2 =    -0.5729713848D-03 EUMP2 =    -0.16224065012229D+03
 Leave Link  804 at Mon Mar 28 14:27:20 2022, MaxMem=  9663676416 cpu:              26.3 elap:               0.8
 (Enter /nopt/nrel/apps/gaussian/g16C_1/g16/l913.exe)
 CIDS:  MDV=  9663676416.
 Frozen-core window:  NFC=   5 NFV=   0.
 IFCWin=0 IBDFC=1 NFBD=     0     0 NFCmp=     0     0 NFFFC=     0     0
 Using original routines for 1st iteration.
 Using DD4UQ or CC4UQ for 2nd and later iterations.
 Keep R2 and R3 ints in memory in symmetry-blocked form, NReq=47444600.
 FoFCou: FMM=F IPFlag=           0 FMFlag=           0 FMFlg1=           0
         NFxFlg=           0 DoJE=F BraDBF=F KetDBF=F FulRan=T
         wScrn=  0.000000 ICntrl=       600 IOpCl=  0 I1Cent=           0 NGrid=           0
         NMat0=    1 NMatS0=   3655 NMatT0=    0 NMatD0=    1 NMtDS0=    0 NMtDT0=    0
 Petite list used in FoFCou.
 CIDS: In Core Option IDoMem=           1.
 Coupled Cluster theory with single and double substitutions
 ===========================================================
 Iterations= 200 Convergence= 0.100D-06
 Produce multiple copies of IABC intergrals
 Iteration Nr.   1
 **********************
 DD1Dir will call FoFMem   1 times, MxPair=         2
 NAB=     0 NAA=     1 NBB=     0.
 MP4(R+Q)=  0.23825657D-06
 Maximum subspace dimension=  5
 A-vector RMS=  3.1089766D-04 Max=  1.6406808D-03 conv= 1.00D-05.
 RLE energy=       -0.0009010861
 E3=       -0.20887175D-03        EUMP3=      -0.16224085899D+03
 E4(DQ)=   -0.82433415D-04        UMP4(DQ)=   -0.16224094143D+03
 E4(SDQ)=  -0.84179261D-04        UMP4(SDQ)=  -0.16224094317D+03
 VARIATIONAL ENERGIES WITH THE FIRST-ORDER WAVEFUNCTION:
 DE(Corr)= -0.78160886E-03 E(Corr)=     -162.24085876    
 NORM(A)=   0.10005470D+01
 Iteration Nr.   2
 **********************
 DD1Dir will call FoFMem   1 times, MxPair=         2
 NAB=     0 NAA=     1 NBB=     0.
 A-vector RMS=  1.5012480D-04 Max=  7.8202843D-04 conv= 1.00D-05.
 RLE energy=       -0.0009312390
 DE(Corr)= -0.91386300E-03 E(CORR)=     -162.24099101     Delta=-1.32D-04
 NORM(A)=   0.10006115D+01
 Iteration Nr.   3
 **********************
 DD1Dir will call FoFMem   1 times, MxPair=         2
 NAB=     0 NAA=     1 NBB=     0.
 A-vector RMS=  5.1735358D-05 Max=  3.4562088D-04 conv= 1.00D-05.
 RLE energy=       -0.0009325761
 DE(Corr)= -0.93132151E-03 E(CORR)=     -162.24100847     Delta=-1.75D-05
 NORM(A)=   0.10006208D+01
 Iteration Nr.   4
 **********************
 DD1Dir will call FoFMem   1 times, MxPair=         2
 NAB=     0 NAA=     1 NBB=     0.
 A-vector RMS=  1.4849628D-05 Max=  1.0978404D-04 conv= 1.00D-05.
 RLE energy=       -0.0009325507
 DE(Corr)= -0.93253290E-03 E(CORR)=     -162.24100968     Delta=-1.21D-06
 NORM(A)=   0.10006225D+01
 Iteration Nr.   5
 **********************
 DD1Dir will call FoFMem   1 times, MxPair=         2
 NAB=     0 NAA=     1 NBB=     0.
 A-vector RMS=  3.1241065D-06 Max=  2.2820393D-05 conv= 1.00D-05.
 RLE energy=       -0.0009326081
 DE(Corr)= -0.93257329E-03 E(CORR)=     -162.24100972     Delta=-4.04D-08
 NORM(A)=   0.10006228D+01
 Iteration Nr.   6
 **********************
 DD1Dir will call FoFMem   1 times, MxPair=         2
 NAB=     0 NAA=     1 NBB=     0.
 A-vector RMS=  9.1275672D-07 Max=  6.8596301D-06 conv= 1.00D-05.
 RLE energy=       -0.0009325932
 DE(Corr)= -0.93259924E-03 E(CORR)=     -162.24100975     Delta=-2.59D-08
 NORM(A)=   0.10006228D+01
 CI/CC converged in    6 iterations to DelEn=-2.59D-08 Conv= 1.00D-07 ErrA1= 9.13D-07 Conv= 1.00D-05
 Wavefunction amplitudes converged. E(Corr)=     -162.24100975    
 Largest amplitude= 6.86D-03
 Discarding MO integrals.
 Leave Link  913 at Mon Mar 28 14:27:21 2022, MaxMem=  9663676416 cpu:              31.8 elap:               1.0
 (Enter /nopt/nrel/apps/gaussian/g16C_1/g16/l601.exe)
 Copying SCF densities to generalized density rwf, IOpCl= 1 IROHF=0.

 **********************************************************************

            Population analysis using the SCF Density.

 **********************************************************************

 Orbital symmetries:
 Alpha Orbitals:
       Occupied  (SG) (SG) (SG) (PI) (PI) (SG) (SG)
       Virtual   (SG) (PI) (PI) (SG) (PI) (PI) (SG) (SG) (PI) (PI)
                 (DLTA) (DLTA) (SG) (PI) (PI) (SG) (PI) (PI) (DLTA)
                 (DLTA) (SG) (PHI) (PHI) (DLTA) (DLTA) (PI) (PI)
                 (SG) (PI) (PI) (SG) (SG) (PI) (PI) (DLTA) (DLTA)
                 (SG) (PI) (PI) (DLTA) (DLTA) (?A) (?A) (PHI) (PHI)
                 (SG) (PI) (PI) (PHI) (PHI) (DLTA) (DLTA) (SG)
                 (PI) (PI) (DLTA) (DLTA) (SG) (PI) (PI) (SG) (PI)
                 (PI) (DLTA) (DLTA) (PHI) (PHI) (?A) (?A) (SG)
                 (PI) (PI) (PHI) (PHI) (DLTA) (DLTA) (SG) (SG)
 Beta  Orbitals:
       Occupied  (SG) (SG) (SG) (PI) (PI)
       Virtual   (SG) (SG) (PI) (PI) (SG) (PI) (PI) (SG) (SG) (DLTA)
                 (DLTA) (PI) (PI) (SG) (PI) (PI) (SG) (SG) (DLTA)
                 (DLTA) (PI) (PI) (PHI) (PHI) (SG) (DLTA) (DLTA)
                 (PI) (PI) (SG) (PI) (PI) (SG) (SG) (PI) (PI) (DLTA)
                 (DLTA) (SG) (PHI) (PHI) (?A) (?A) (DLTA) (DLTA)
                 (PI) (PI) (PHI) (PHI) (SG) (DLTA) (DLTA) (PI)
                 (PI) (SG) (PI) (PI) (DLTA) (DLTA) (SG) (PI) (PI)
                 (SG) (PI) (PI) (DLTA) (DLTA) (PHI) (PHI) (?A)
                 (?A) (SG) (PHI) (PHI) (PI) (PI) (DLTA) (DLTA)
                 (SG) (SG)
 The electronic state is 3-SG.
 Alpha  occ. eigenvalues --  -40.51562  -2.85267  -1.59478  -1.56267  -1.56267
 Alpha  occ. eigenvalues --   -0.61720  -0.16066
 Alpha virt. eigenvalues --    0.00519   0.00732   0.00732   0.01724   0.02461
 Alpha virt. eigenvalues --    0.02461   0.03554   0.05556   0.05565   0.05565
 Alpha virt. eigenvalues --    0.05575   0.05575   0.07404   0.08116   0.08116
 Alpha virt. eigenvalues --    0.11912   0.15317   0.15317   0.15975   0.15975
 Alpha virt. eigenvalues --    0.16378   0.17886   0.17886   0.18139   0.18139
 Alpha virt. eigenvalues --    0.18264   0.18264   0.18311   0.23832   0.23832
 Alpha virt. eigenvalues --    0.24715   0.32743   0.36513   0.36513   0.38153
 Alpha virt. eigenvalues --    0.38153   0.41728   0.41973   0.41973   0.42103
 Alpha virt. eigenvalues --    0.42103   0.42148   0.42148   0.42149   0.42149
 Alpha virt. eigenvalues --    0.47852   0.48627   0.48627   0.49014   0.49014
 Alpha virt. eigenvalues --    0.49050   0.49050   0.56798   0.74773   0.74773
 Alpha virt. eigenvalues --    0.78488   0.78488   0.86362   0.90217   0.90217
 Alpha virt. eigenvalues --    0.98429   1.02196   1.02196   1.06351   1.06351
 Alpha virt. eigenvalues --    1.08006   1.08006   1.08768   1.08768   1.11006
 Alpha virt. eigenvalues --    1.11576   1.11576   1.11650   1.11650   1.11816
 Alpha virt. eigenvalues --    1.11816   1.80735   2.34238
  Beta  occ. eigenvalues --  -40.50950  -2.83683  -1.56447  -1.55780  -1.55780
  Beta virt. eigenvalues --   -0.03530   0.00847   0.01130   0.01130   0.01531
  Beta virt. eigenvalues --    0.03690   0.03690   0.04187   0.05488   0.05830
  Beta virt. eigenvalues --    0.05830   0.06154   0.06154   0.06394   0.09957
  Beta virt. eigenvalues --    0.09957   0.10701   0.15866   0.16707   0.16707
  Beta virt. eigenvalues --    0.16780   0.16780   0.18290   0.18290   0.18819
  Beta virt. eigenvalues --    0.18945   0.18945   0.19305   0.19305   0.19827
  Beta virt. eigenvalues --    0.26006   0.26006   0.27931   0.36775   0.39309
  Beta virt. eigenvalues --    0.39309   0.39367   0.39367   0.42517   0.42633
  Beta virt. eigenvalues --    0.42633   0.42638   0.42638   0.42672   0.42672
  Beta virt. eigenvalues --    0.42694   0.42694   0.49974   0.49974   0.50057
  Beta virt. eigenvalues --    0.50363   0.50363   0.50489   0.50489   0.64592
  Beta virt. eigenvalues --    0.77498   0.77498   0.79454   0.79454   0.88418
  Beta virt. eigenvalues --    0.91536   0.91536   1.01901   1.05764   1.05764
  Beta virt. eigenvalues --    1.07962   1.07962   1.08797   1.08797   1.09492
  Beta virt. eigenvalues --    1.09492   1.12450   1.12602   1.12602   1.12970
  Beta virt. eigenvalues --    1.12970   1.12973   1.12973   1.84916   2.43254
          Condensed to atoms (all electrons):
               1          2
     1  H    0.557314   0.171935
     2  Na   0.171935  11.098816
          Atomic-Atomic Spin Densities.
               1          2
     1  H    0.552899   0.154109
     2  Na   0.154109   1.138883
 Mulliken charges and spin densities:
               1          2
     1  H    0.270751   0.707008
     2  Na  -0.270751   1.292992
 Sum of Mulliken charges =  -0.00000   2.00000
 Mulliken charges and spin densities with hydrogens summed into heavy atoms:
               1          2
     2  Na  -0.000000   2.000000
 N-N= 4.477653323169D+00 E-N=-3.992071131869D+02  KE= 1.626643206435D+02
 Symmetry A1   KE= 1.390911101409D+02
 Symmetry A2   KE= 1.184885193236D-50
 Symmetry B1   KE= 1.178660525130D+01
 Symmetry B2   KE= 1.178660525130D+01
 Symmetry A1   SP= 2.000000000000D+00
 Symmetry A2   SP= 1.986210166979D-50
 Symmetry B1   SP= 7.057060801638D-15
 Symmetry B2   SP= 3.639138551283D-15

 Atomic contributions to Alpha molecular orbitals:
 Alpha occ 1 OE=-40.516 is Na2-s=1.0000
 Alpha occ 2 OE=-2.853 is Na2-s=0.9959
 Alpha occ 3 OE=-1.595 is Na2-p=0.9791
 Alpha occ 4 OE=-1.563 is Na2-p=1.0000
 Alpha occ 5 OE=-1.563 is Na2-p=1.0000
 Alpha occ 6 OE=-0.617 is H1-s=0.6892 Na2-p=0.1230 Na2-s=0.1023
 Alpha occ 7 OE=-0.161 is Na2-s=0.7549 Na2-p=0.2194
 Alpha vir 8 OE=0.005 is Na2-p=0.4996 Na2-s=0.4965
 Alpha vir 9 OE=0.007 is Na2-p=0.9908
 Alpha vir 10 OE=0.007 is Na2-p=0.9908
 Alpha vir 11 OE=0.017 is Na2-p=0.5352 Na2-s=0.4629
 Alpha vir 12 OE=0.025 is Na2-p=0.9898
 Alpha vir 13 OE=0.025 is Na2-p=0.9898
 Alpha vir 14 OE=0.036 is Na2-p=0.7021 Na2-s=0.2760
 Alpha vir 15 OE=0.056 is Na2-d=0.9596
 Alpha vir 16 OE=0.056 is Na2-d=0.9703
 Alpha vir 17 OE=0.056 is Na2-d=0.9703
 Alpha vir 18 OE=0.056 is Na2-d=0.9976
 Alpha vir 19 OE=0.056 is Na2-d=0.9976
 Alpha vir 20 OE=0.074 is Na2-s=0.6679 Na2-p=0.3168
 Alpha vir 21 OE=0.081 is Na2-p=0.9777
 Alpha vir 22 OE=0.081 is Na2-p=0.9777
 Alpha vir 23 OE=0.119 is Na2-p=0.6504 Na2-s=0.1933 Na2-d=0.1294
 Alpha vir 24 OE=0.153 is Na2-d=0.8459 Na2-f=0.1375
 Alpha vir 25 OE=0.153 is Na2-d=0.8459 Na2-f=0.1375
 Alpha vir 26 OE=0.160 is Na2-d=0.8977 Na2-f=0.1021
 Alpha vir 27 OE=0.160 is Na2-d=0.8977 Na2-f=0.1021
 Alpha vir 28 OE=0.164 is Na2-d=0.6489 Na2-f=0.1570 Na2-p=0.1114
 Alpha vir 29 OE=0.179 is Na2-f=0.9988
 Alpha vir 30 OE=0.179 is Na2-f=0.9988
 Alpha vir 31 OE=0.181 is Na2-f=0.8938 Na2-d=0.1042
 Alpha vir 32 OE=0.181 is Na2-f=0.8938 Na2-d=0.1042
 Alpha vir 33 OE=0.183 is Na2-f=0.8561 Na2-d=0.1406
 Alpha vir 34 OE=0.183 is Na2-f=0.8561 Na2-d=0.1406
 Alpha vir 35 OE=0.183 is Na2-f=0.8170 Na2-d=0.1747
 Alpha vir 36 OE=0.238 is Na2-p=0.9659
 Alpha vir 37 OE=0.238 is Na2-p=0.9659
 Alpha vir 38 OE=0.247 is Na2-s=0.7607 Na2-p=0.2206
 Alpha vir 39 OE=0.327 is Na2-d=0.4741 Na2-p=0.3909
 Alpha vir 40 OE=0.365 is Na2-d=0.9003
 Alpha vir 41 OE=0.365 is Na2-d=0.9003
 Alpha vir 42 OE=0.382 is Na2-d=0.9830
 Alpha vir 43 OE=0.382 is Na2-d=0.9830
 Alpha vir 44 OE=0.417 is Na2-g=0.9073
 Alpha vir 45 OE=0.420 is Na2-g=0.9479
 Alpha vir 46 OE=0.420 is Na2-g=0.9479
 Alpha vir 47 OE=0.421 is Na2-g=0.9756
 Alpha vir 48 OE=0.421 is Na2-g=0.9756
 Alpha vir 49 OE=0.421 is Na2-g=1.0000
 Alpha vir 50 OE=0.421 is Na2-g=1.0000
 Alpha vir 51 OE=0.421 is Na2-g=0.9879
 Alpha vir 52 OE=0.421 is Na2-g=0.9879
 Alpha vir 53 OE=0.479 is Na2-f=0.7048 Na2-d=0.1962
 Alpha vir 54 OE=0.486 is Na2-f=0.9101
 Alpha vir 55 OE=0.486 is Na2-f=0.9101
 Alpha vir 56 OE=0.490 is Na2-f=0.9888
 Alpha vir 57 OE=0.490 is Na2-f=0.9888
 Alpha vir 58 OE=0.491 is Na2-f=0.9647
 Alpha vir 59 OE=0.491 is Na2-f=0.9647
 Alpha vir 60 OE=0.568 is Na2-d=0.4761 Na2-p=0.2349 Na2-f=0.1842
 Alpha vir 61 OE=0.748 is Na2-d=0.9133
 Alpha vir 62 OE=0.748 is Na2-d=0.9133
 Alpha vir 63 OE=0.785 is Na2-d=0.9947
 Alpha vir 64 OE=0.785 is Na2-d=0.9947
 Alpha vir 65 OE=0.864 is Na2-p=0.5364 Na2-d=0.4469
 Alpha vir 66 OE=0.902 is Na2-p=0.9479
 Alpha vir 67 OE=0.902 is Na2-p=0.9479
 Alpha vir 68 OE=0.984 is Na2-g=0.4446 Na2-f=0.3513 Na2-p=0.1082
 Alpha vir 69 OE=1.022 is Na2-g=0.5874 Na2-f=0.3737
 Alpha vir 70 OE=1.022 is Na2-g=0.5874 Na2-f=0.3737
 Alpha vir 71 OE=1.064 is Na2-g=0.7336 Na2-f=0.2635
 Alpha vir 72 OE=1.064 is Na2-g=0.7336 Na2-f=0.2635
 Alpha vir 73 OE=1.080 is Na2-g=0.8398 Na2-f=0.1602
 Alpha vir 74 OE=1.080 is Na2-g=0.8398 Na2-f=0.1602
 Alpha vir 75 OE=1.088 is Na2-g=1.0000
 Alpha vir 76 OE=1.088 is Na2-g=1.0000
 Alpha vir 77 OE=1.110 is Na2-g=0.5107 Na2-f=0.4593
 Alpha vir 78 OE=1.116 is Na2-f=0.5958 Na2-g=0.3981
 Alpha vir 79 OE=1.116 is Na2-f=0.5958 Na2-g=0.3981
 Alpha vir 80 OE=1.117 is Na2-f=0.8401 Na2-g=0.1599
 Alpha vir 81 OE=1.117 is Na2-f=0.8401 Na2-g=0.1599
 Alpha vir 82 OE=1.118 is Na2-f=0.7324 Na2-g=0.2650
 Alpha vir 83 OE=1.118 is Na2-f=0.7324 Na2-g=0.2650
 Alpha vir 84 OE=1.807 is Na2-s=0.6949 Na2-p=0.1006
 Alpha vir 85 OE=2.342 is Na2-s=0.3663 Na2-p=0.2083 Na2-d=0.1352 H1-s=0.1350 Na2-f=0.1265

 Atomic contributions to Beta  molecular orbitals:
 Beta  occ 1 OE=-40.510 is Na2-s=1.0000
 Beta  occ 2 OE=-2.837 is Na2-s=0.9975
 Beta  occ 3 OE=-1.564 is Na2-p=0.9906
 Beta  occ 4 OE=-1.558 is Na2-p=1.0000
 Beta  occ 5 OE=-1.558 is Na2-p=1.0000
 Beta  vir 6 OE=-0.035 is Na2-s=0.5946 Na2-p=0.1993 H1-s=0.1835
 Beta  vir 7 OE=0.008 is Na2-s=0.5566 Na2-p=0.4268
 Beta  vir 8 OE=0.011 is Na2-p=0.9898
 Beta  vir 9 OE=0.011 is Na2-p=0.9898
 Beta  vir 10 OE=0.015 is Na2-p=0.5654 Na2-s=0.4213
 Beta  vir 11 OE=0.037 is Na2-p=0.8892 Na2-d=0.1103
 Beta  vir 12 OE=0.037 is Na2-p=0.8892 Na2-d=0.1103
 Beta  vir 13 OE=0.042 is Na2-p=0.7183 Na2-d=0.1753 Na2-s=0.1055
 Beta  vir 14 OE=0.055 is Na2-s=0.6559 Na2-p=0.1810
 Beta  vir 15 OE=0.058 is Na2-d=0.9965
 Beta  vir 16 OE=0.058 is Na2-d=0.9965
 Beta  vir 17 OE=0.062 is Na2-d=0.8770 Na2-p=0.1183
 Beta  vir 18 OE=0.062 is Na2-d=0.8770 Na2-p=0.1183
 Beta  vir 19 OE=0.064 is Na2-d=0.7293 Na2-p=0.1440 Na2-s=0.1184
 Beta  vir 20 OE=0.100 is Na2-p=0.9532
 Beta  vir 21 OE=0.100 is Na2-p=0.9532
 Beta  vir 22 OE=0.107 is Na2-p=0.5476 Na2-s=0.3810
 Beta  vir 23 OE=0.159 is Na2-d=0.4156 Na2-p=0.2625 Na2-f=0.1970
 Beta  vir 24 OE=0.167 is Na2-d=0.7416 Na2-f=0.2578
 Beta  vir 25 OE=0.167 is Na2-d=0.7416 Na2-f=0.2578
 Beta  vir 26 OE=0.168 is Na2-d=0.6139 Na2-f=0.3483
 Beta  vir 27 OE=0.168 is Na2-d=0.6139 Na2-f=0.3483
 Beta  vir 28 OE=0.183 is Na2-f=0.9982
 Beta  vir 29 OE=0.183 is Na2-f=0.9982
 Beta  vir 30 OE=0.188 is Na2-f=0.5962 Na2-p=0.1759 Na2-s=0.1559
 Beta  vir 31 OE=0.189 is Na2-f=0.7369 Na2-d=0.2608
 Beta  vir 32 OE=0.189 is Na2-f=0.7369 Na2-d=0.2608
 Beta  vir 33 OE=0.193 is Na2-f=0.6442 Na2-d=0.3407
 Beta  vir 34 OE=0.193 is Na2-f=0.6442 Na2-d=0.3407
 Beta  vir 35 OE=0.198 is Na2-d=0.5056 Na2-f=0.2025 Na2-s=0.1352 Na2-p=0.1274
 Beta  vir 36 OE=0.260 is Na2-p=0.9705
 Beta  vir 37 OE=0.260 is Na2-p=0.9705
 Beta  vir 38 OE=0.279 is Na2-s=0.6764 Na2-p=0.2944
 Beta  vir 39 OE=0.368 is Na2-d=0.6143 Na2-p=0.2320
 Beta  vir 40 OE=0.393 is Na2-d=0.9191
 Beta  vir 41 OE=0.393 is Na2-d=0.9191
 Beta  vir 42 OE=0.394 is Na2-d=0.9723
 Beta  vir 43 OE=0.394 is Na2-d=0.9723
 Beta  vir 44 OE=0.425 is Na2-g=0.9224
 Beta  vir 45 OE=0.426 is Na2-g=0.9816
 Beta  vir 46 OE=0.426 is Na2-g=0.9816
 Beta  vir 47 OE=0.426 is Na2-g=1.0000
 Beta  vir 48 OE=0.426 is Na2-g=1.0000
 Beta  vir 49 OE=0.427 is Na2-g=0.9703
 Beta  vir 50 OE=0.427 is Na2-g=0.9703
 Beta  vir 51 OE=0.427 is Na2-g=0.9610
 Beta  vir 52 OE=0.427 is Na2-g=0.9610
 Beta  vir 53 OE=0.500 is Na2-f=0.9829
 Beta  vir 54 OE=0.500 is Na2-f=0.9829
 Beta  vir 55 OE=0.501 is Na2-f=0.8193 Na2-d=0.1176
 Beta  vir 56 OE=0.504 is Na2-f=0.9517
 Beta  vir 57 OE=0.504 is Na2-f=0.9517
 Beta  vir 58 OE=0.505 is Na2-f=0.9284
 Beta  vir 59 OE=0.505 is Na2-f=0.9284
 Beta  vir 60 OE=0.646 is Na2-d=0.5531 Na2-p=0.1978 H1-s=0.1129
 Beta  vir 61 OE=0.775 is Na2-d=0.9382
 Beta  vir 62 OE=0.775 is Na2-d=0.9382
 Beta  vir 63 OE=0.795 is Na2-d=0.9948
 Beta  vir 64 OE=0.795 is Na2-d=0.9948
 Beta  vir 65 OE=0.884 is Na2-p=0.6032 Na2-d=0.3633
 Beta  vir 66 OE=0.915 is Na2-p=0.9565
 Beta  vir 67 OE=0.915 is Na2-p=0.9565
 Beta  vir 68 OE=1.019 is Na2-g=0.4753 Na2-f=0.3831
 Beta  vir 69 OE=1.058 is Na2-g=0.6458 Na2-f=0.3405
 Beta  vir 70 OE=1.058 is Na2-g=0.6458 Na2-f=0.3405
 Beta  vir 71 OE=1.080 is Na2-g=0.7457 Na2-f=0.2521
 Beta  vir 72 OE=1.080 is Na2-g=0.7457 Na2-f=0.2521
 Beta  vir 73 OE=1.088 is Na2-g=0.8166 Na2-f=0.1834
 Beta  vir 74 OE=1.088 is Na2-g=0.8166 Na2-f=0.1834
 Beta  vir 75 OE=1.095 is Na2-g=1.0000
 Beta  vir 76 OE=1.095 is Na2-g=1.0000
 Beta  vir 77 OE=1.125 is Na2-g=0.4987 Na2-f=0.4761
 Beta  vir 78 OE=1.126 is Na2-f=0.8172 Na2-g=0.1828
 Beta  vir 79 OE=1.126 is Na2-f=0.8172 Na2-g=0.1828
 Beta  vir 80 OE=1.130 is Na2-f=0.6443 Na2-g=0.3498
 Beta  vir 81 OE=1.130 is Na2-f=0.6443 Na2-g=0.3498
 Beta  vir 82 OE=1.130 is Na2-f=0.7436 Na2-g=0.2532
 Beta  vir 83 OE=1.130 is Na2-f=0.7436 Na2-g=0.2532
 Beta  vir 84 OE=1.849 is Na2-s=0.7477 H1-s=0.1067
 Beta  vir 85 OE=2.433 is Na2-s=0.2973 H1-s=0.2952 Na2-p=0.1848 Na2-d=0.1088
 
 Leave Link  601 at Mon Mar 28 14:27:21 2022, MaxMem=  9663676416 cpu:               2.2 elap:               0.1
 (Enter /nopt/nrel/apps/gaussian/g16C_1/g16/l9999.exe)

 Test job not archived.
 1\1\GINC-R102U34\SP\UCCSD-FC\Gen\H1Na1(3)\USER\28-Mar-2022\0\\#P C
 CSD(MaxCyc=200,SaveAmplitudes,ReadAmplitudes)/GEN sp pop=AllOrbitals i
 op(3/33=1,3/36=-1)\\test\\0,3\H,0,0.,0.,0.\Na,0,0.,0.,1.3\\Version=ES6
 4L-G16RevC.01\State=3-SG\HF=-162.2400772\MP2=-162.2406501\MP3=-162.240
 859\MP4D=-162.2409417\MP4DQ=-162.2409414\MP4SDQ=-162.2409432\CCSD=-162
 .2410098\S2=2.000137\S2-1=0.\S2A=2.\RMSD=1.324e-09\PG=C*V [C*(H1Na1)]\
 \@


 One man practicing sportsmanship is far better than 50 preaching it.
 -- Knute K. Rockne
 Job cpu time:       0 days  0 hours  1 minutes 59.0 seconds.
 Elapsed time:       0 days  0 hours  0 minutes  3.7 seconds.
 File lengths (MBytes):  RWF=     34 Int=      0 D2E=      0 Chk=      2 Scr=      1
 Normal termination of Gaussian 16 at Mon Mar 28 14:27:22 2022.
