 Entering Gaussian System, Link 0=g16
 Initial command:
 /nopt/nrel/apps/gaussian/g16C_1/g16/l1.exe "/lustre/eaglefs/scratch/user/qc/kh-dissc/kh-3-ccsd-3.5-631g/Gau-9816.inp" -scrdir="/lustre/eaglefs/scratch/user/qc/kh-dissc/kh-3-ccsd-3.5-631g/"
 Default is to use a total of  36 processors:
                               36 via shared-memory
                                1 via Linda
 Entering Link 1 = /nopt/nrel/apps/gaussian/g16C_1/g16/l1.exe PID=      9817.
  
 Copyright (c) 1988-2019, Gaussian, Inc.  All Rights Reserved.
  
 This is part of the Gaussian(R) 16 program.  It is based on
 the Gaussian(R) 09 system (copyright 2009, Gaussian, Inc.),
 the Gaussian(R) 03 system (copyright 2003, Gaussian, Inc.),
 the Gaussian(R) 98 system (copyright 1998, Gaussian, Inc.),
 the Gaussian(R) 94 system (copyright 1995, Gaussian, Inc.),
 the Gaussian 92(TM) system (copyright 1992, Gaussian, Inc.),
 the Gaussian 90(TM) system (copyright 1990, Gaussian, Inc.),
 the Gaussian 88(TM) system (copyright 1988, Gaussian, Inc.),
 the Gaussian 86(TM) system (copyright 1986, Carnegie Mellon
 University), and the Gaussian 82(TM) system (copyright 1983,
 Carnegie Mellon University). Gaussian is a federally registered
 trademark of Gaussian, Inc.
  
 This software contains proprietary and confidential information,
 including trade secrets, belonging to Gaussian, Inc.
  
 This software is provided under written license and may be
 used, copied, transmitted, or stored only in accord with that
 written license.
  
 The following legend is applicable only to US Government
 contracts under FAR:
  
                    RESTRICTED RIGHTS LEGEND
  
 Use, reproduction and disclosure by the US Government is
 subject to restrictions as set forth in subparagraphs (a)
 and (c) of the Commercial Computer Software - Restricted
 Rights clause in FAR 52.227-19.
  
 Gaussian, Inc.
 340 Quinnipiac St., Bldg. 40, Wallingford CT 06492
  
  
 ---------------------------------------------------------------
 Warning -- This program may not be used in any manner that
 competes with the business of Gaussian, Inc. or will provide
 assistance to any competitor of Gaussian, Inc.  The licensee
 of this program is prohibited from giving any competitor of
 Gaussian, Inc. access to this program.  By using this program,
 the user acknowledges that Gaussian, Inc. is engaged in the
 business of creating and licensing software in the field of
 computational chemistry and represents and warrants to the
 licensee that it is not a competitor of Gaussian, Inc. and that
 it will not use this program in any manner prohibited above.
 ---------------------------------------------------------------
  

 Cite this work as:
 Gaussian 16, Revision C.01,
 M. J. Frisch, G. W. Trucks, H. B. Schlegel, G. E. Scuseria, 
 M. A. Robb, J. R. Cheeseman, G. Scalmani, V. Barone, 
 G. A. Petersson, H. Nakatsuji, X. Li, M. Caricato, A. V. Marenich, 
 J. Bloino, B. G. Janesko, R. Gomperts, B. Mennucci, H. P. Hratchian, 
 J. V. Ortiz, A. F. Izmaylov, J. L. Sonnenberg, D. Williams-Young, 
 F. Ding, F. Lipparini, F. Egidi, J. Goings, B. Peng, A. Petrone, 
 T. Henderson, D. Ranasinghe, V. G. Zakrzewski, J. Gao, N. Rega, 
 G. Zheng, W. Liang, M. Hada, M. Ehara, K. Toyota, R. Fukuda, 
 J. Hasegawa, M. Ishida, T. Nakajima, Y. Honda, O. Kitao, H. Nakai, 
 T. Vreven, K. Throssell, J. A. Montgomery, Jr., J. E. Peralta, 
 F. Ogliaro, M. J. Bearpark, J. J. Heyd, E. N. Brothers, K. N. Kudin, 
 V. N. Staroverov, T. A. Keith, R. Kobayashi, J. Normand, 
 K. Raghavachari, A. P. Rendell, J. C. Burant, S. S. Iyengar, 
 J. Tomasi, M. Cossi, J. M. Millam, M. Klene, C. Adamo, R. Cammi, 
 J. W. Ochterski, R. L. Martin, K. Morokuma, O. Farkas, 
 J. B. Foresman, and D. J. Fox, Gaussian, Inc., Wallingford CT, 2019.
 
 ******************************************
 Gaussian 16:  ES64L-G16RevC.01  3-Jul-2019
                28-Mar-2022 
 ******************************************
 %chk=molecule
 Default route: CacheSize=180224 MaxDisk=256GB
 ----------------------------------------------------------------------
 #P CCSD(MaxCyc=200,SaveAmplitudes,ReadAmplitudes)/GEN sp pop=AllOrbita
 ls iop(3/33=1,3/36=-1)
 ----------------------------------------------------------------------
 1/4=180224,38=1,172=1/1;
 2/4=180224,12=2,17=6,18=5,40=1/2;
 3/4=180224,5=7,11=9,25=1,30=1,33=1,36=-1/1,2,3;
 4/4=180224/1;
 5/4=180224,5=2,38=5/2;
 8/4=180224,6=4,9=120000,10=1,24=1/1,4;
 9/4=180224,5=7,6=200,77=1/13;
 6/4=180224,7=2,8=2,9=2,10=2,96=-1/1;
 99/4=180224,5=1,9=1/99;
 Leave Link    1 at Mon Mar 28 14:40:03 2022, MaxMem=           0 cpu:               2.2 elap:               0.1
 (Enter /nopt/nrel/apps/gaussian/g16C_1/g16/l101.exe)
 ----
 test
 ----
 Symbolic Z-matrix:
 Charge =  0 Multiplicity = 3
 H                     0.        0.        0. 
 K                     0.        0.        3.5 
 
 ITRead=  0  0
 MicOpt= -1 -1
 NAtoms=      2 NQM=        2 NQMF=       0 NMMI=      0 NMMIF=      0
                NMic=       0 NMicF=      0.
                    Isotopes and Nuclear Properties:
 (Nuclear quadrupole moments (NQMom) in fm**2, nuclear magnetic moments (NMagM)
  in nuclear magnetons)

  Atom         1           2
 IAtWgt=           1          39
 AtmWgt=   1.0078250  38.9637079
 NucSpn=           1           3
 AtZEff=  -0.0000000  -0.0000000
 NQMom=    0.0000000   5.8500000
 NMagM=    2.7928460   0.3914660
 AtZNuc=   1.0000000  19.0000000
 Leave Link  101 at Mon Mar 28 14:40:03 2022, MaxMem=  9663676416 cpu:               2.9 elap:               0.1
 (Enter /nopt/nrel/apps/gaussian/g16C_1/g16/l202.exe)
                          Input orientation:                          
 ---------------------------------------------------------------------
 Center     Atomic      Atomic             Coordinates (Angstroms)
 Number     Number       Type             X           Y           Z
 ---------------------------------------------------------------------
      1          1           0        0.000000    0.000000    0.000000
      2         19           0        0.000000    0.000000    3.500000
 ---------------------------------------------------------------------
 Stoichiometry    HK(3)
 Framework group  C*V[C*(HK)]
 Deg. of freedom     1
 Full point group                 C*V     NOp   4
 Largest Abelian subgroup         C2V     NOp   4
 Largest concise Abelian subgroup C1      NOp   1
                         Standard orientation:                         
 ---------------------------------------------------------------------
 Center     Atomic      Atomic             Coordinates (Angstroms)
 Number     Number       Type             X           Y           Z
 ---------------------------------------------------------------------
      1          1           0        0.000000    0.000000   -3.325000
      2         19           0        0.000000    0.000000    0.175000
 ---------------------------------------------------------------------
 Rotational constants (GHZ):           0.0000000          41.9939274          41.9939274
 Leave Link  202 at Mon Mar 28 14:40:03 2022, MaxMem=  9663676416 cpu:               0.5 elap:               0.0
 (Enter /nopt/nrel/apps/gaussian/g16C_1/g16/l301.exe)
 General basis read from cards:  (5D, 7F)
                         Coordinates in L301:                         
 ---------------------------------------------------------------------
 Center     Atomic      Atomic             Coordinates (Angstroms)
 Number     Number       Type             X           Y           Z
 ---------------------------------------------------------------------
      1          1           0        0.000000    0.000000   -3.325000
      2         19           0        0.000000    0.000000    0.175000
 ---------------------------------------------------------------------
 Centers:       1
 STO-3G
 ****
 Centers:       2
 6-31G
 ****
 FixB: optimizing general contractions.
 Ernie: Thresh=  0.10000D-02 Tol=  0.10000D-05 Strict=F.
 IA=     1 ShT= 0 ShC= 0 NL=   1 NS=   0.
 IA=     1 L=0 SC=0 ISt=    0 NBk=    0 NP=    0 IndPr=    0.
 IA=     2 ShT= 0 ShC= 0 NL=   1 NS=   0.
 IA=     2 L=0 SC=0 ISt=    0 NBk=    0 NP=    0 IndPr=    0.
 IA=     2 ShT= 1 ShC= 0 NL=   4 NS=   1.
 IA=     2 L=1 SC=0 ISt=    1 NBk=    3 NP=   15 IndPr=    0.
 DoElim1:  L=1 select primitive    1 from    2 using    1 C=-2.50D-03
 DoElim1:  L=1 select primitive    1 from    3 using    1 C=-2.50D-03
 DoElim1:  L=1 select primitive    5 from    3 using    2 C= 1.28D-02
 DoElim2:  L=1 select primitive   15 from    2 using    3 C= 1.14D+00
 DoElim2:  L=1 select primitive   15 from    1 using    3 C= 1.14D+00
 DoElim2:  L=1 select primitive   10 from    1 using    2 C=-5.59D-01
 DoElim1:  L=1 select primitive    1 from    2 using    1 C= 4.09D-03
 DoElim1:  L=1 select primitive    1 from    3 using    1 C= 4.09D-03
 DoElim1:  L=1 select primitive    5 from    3 using    2 C=-1.22D-02
 DoElim2:  L=1 select primitive   15 from    2 using    3 C= 1.01D+00
 DoElim2:  L=1 select primitive   15 from    1 using    3 C= 1.01D+00
 DoElim2:  L=1 select primitive   10 from    1 using    2 C= 4.28D-01
 Delete L=1 primitive   14 from    3 C=  0.00D+00.
 Delete L=1 primitive   12 from    3 C=  0.00D+00.
 Delete L=1 primitive   10 from    3 C=  0.00D+00.
 Delete L=1 primitive    9 from    3 C=  0.00D+00.
 Delete L=1 primitive    8 from    3 C=  0.00D+00.
 Delete L=1 primitive    7 from    3 C=  0.00D+00.
 Delete L=1 primitive    6 from    3 C=  0.00D+00.
 Delete L=1 primitive    5 from    3 C=  0.00D+00.
 Delete L=1 primitive    4 from    3 C=  0.00D+00.
 Delete L=1 primitive    3 from    3 C=  0.00D+00.
 Delete L=1 primitive    2 from    3 C=  0.00D+00.
 Delete L=1 primitive    1 from    3 C=  0.00D+00.
 Delete L=1 primitive   15 from    2 C=  0.00D+00.
 Delete L=1 primitive   13 from    2 C=  0.00D+00.
 Delete L=1 primitive   11 from    2 C=  0.00D+00.
 Delete L=1 primitive    8 from    2 C=  0.00D+00.
 Delete L=1 primitive    6 from    2 C=  0.00D+00.
 Delete L=1 primitive    4 from    2 C=  0.00D+00.
 Delete L=1 primitive    3 from    2 C=  0.00D+00.
 Delete L=1 primitive    2 from    2 C=  0.00D+00.
 Delete L=1 primitive    1 from    2 C=  0.00D+00.
 Delete L=1 primitive   15 from    1 C=  0.00D+00.
 Delete L=1 primitive   14 from    1 C=  0.00D+00.
 Delete L=1 primitive   13 from    1 C=  0.00D+00.
 Delete L=1 primitive   12 from    1 C=  0.00D+00.
 Delete L=1 primitive   11 from    1 C=  0.00D+00.
 Delete L=1 primitive   10 from    1 C=  0.00D+00.
 Delete L=1 primitive    9 from    1 C=  0.00D+00.
 Delete L=1 primitive    7 from    1 C=  0.00D+00.
 Delete L=1 primitive    5 from    1 C=  0.00D+00.
 IA=     2 L=1 SC=0 ISt=    0 NBk=    0 NP=    0 IndPr=   15.
 LdAtmC:  AtmChg=     1.000000    19.000000
 AtZEff=     -1.0000000    -22.4200000
 NEqShl: 
              1            2            3            4
     1            1            1            1            1
     2            2            2            2            2
     3            3            3            3            3
     4            4            4            4            4
     5            5            5            5            5
     6            6            6            6            6
 NEqBas: 
              1            2            3            4
     1            1            1            1            1
     2            2            2            2            2
     3            3            3            3            3
     4            4           -4           -4            4
     5            5           -5            5           -5
     6            6            6            6            6
     7            7            7            7            7
     8            8           -8           -8            8
     9            9           -9            9           -9
    10           10           10           10           10
    11           11           11           11           11
    12           12          -12          -12           12
    13           13          -13           13          -13
    14           14           14           14           14
    15           15           15           15           15
    16           16          -16          -16           16
    17           17          -17           17          -17
    18           18           18           18           18
 There are    10 symmetry adapted cartesian basis functions of A1  symmetry.
   1         1   1   1   1
   2         2   2   2   2
   3         3   3   3   3
   4         6   6   6   6
   5         7   7   7   7
   6        10  10  10  10
   7        11  11  11  11
   8        14  14  14  14
   9        15  15  15  15
  10        18  18  18  18
 There are     0 symmetry adapted cartesian basis functions of A2  symmetry.
 There are     4 symmetry adapted cartesian basis functions of B1  symmetry.
  11         4   4   4   4
  12         8   8   8   8
  13        12  12  12  12
  14        16  16  16  16
 There are     4 symmetry adapted cartesian basis functions of B2  symmetry.
  15         5   5   5   5
  16         9   9   9   9
  17        13  13  13  13
  18        17  17  17  17
 Order= 1 2 4 3
 Reordered character table:
              1            2            3            4            5
     1            1            1            1            1            1
     2            2            1            1           -1           -1
     3            4            1           -1           -1            1
     4            3            1           -1            1           -1
 NEqShl: 
              1            2            3            4
     1            1            1            1            1
     2            2            2            2            2
     3            3            3            3            3
     4            4            4            4            4
     5            5            5            5            5
     6            6            6            6            6
 NEqBas: 
              1            2            3            4
     1            1            1            1            1
     2            2            2            2            2
     3            3            3            3            3
     4            4           -4           -4            4
     5            5           -5            5           -5
     6            6            6            6            6
     7            7            7            7            7
     8            8           -8           -8            8
     9            9           -9            9           -9
    10           10           10           10           10
    11           11           11           11           11
    12           12          -12          -12           12
    13           13          -13           13          -13
    14           14           14           14           14
    15           15           15           15           15
    16           16          -16          -16           16
    17           17          -17           17          -17
    18           18           18           18           18
 There are    10 symmetry adapted basis functions of A1  symmetry.
   1         1   1   1   1
   2         2   2   2   2
   3         3   3   3   3
   4         6   6   6   6
   5         7   7   7   7
   6        10  10  10  10
   7        11  11  11  11
   8        14  14  14  14
   9        15  15  15  15
  10        18  18  18  18
 There are     0 symmetry adapted basis functions of A2  symmetry.
 There are     4 symmetry adapted basis functions of B1  symmetry.
  11         4   4   4   4
  12         8   8   8   8
  13        12  12  12  12
  14        16  16  16  16
 There are     4 symmetry adapted basis functions of B2  symmetry.
  15         5   5   5   5
  16         9   9   9   9
  17        13  13  13  13
  18        17  17  17  17
 Order= 1 2 4 3
 Reordered character table:
              1            2            3            4            5
     1            1            1            1            1            1
     2            2            1            1           -1           -1
     3            4            1           -1           -1            1
     4            3            1           -1            1           -1
    18 basis functions,    73 primitive gaussians,    18 cartesian basis functions
    11 alpha electrons        9 beta electrons
       nuclear repulsion energy         2.8726762879 Hartrees.
 IS=     1 IAt=     1 ISR=     1 T=0 IP=      1 IndIP=      1 IndIPD=      0 C=  2.769344D-01  0.000000D+00                             NZ=T
 IS=     1 IAt=     1 ISR=     1 T=0 IP=      2 IndIP=      2 IndIPD=      1 C=  2.678389D-01  0.000000D+00                             NZ=T
 IS=     1 IAt=     1 ISR=     1 T=0 IP=      3 IndIP=      3 IndIPD=      2 C=  8.347367D-02  0.000000D+00                             NZ=T
 IS=     2 IAt=     2 ISR=     1 T=0 IP=      1 IndIP=      4 IndIPD=      0 C=  3.087425D+00  0.000000D+00                             NZ=T
 IS=     2 IAt=     2 ISR=     1 T=0 IP=      2 IndIP=      5 IndIPD=      1 C=  5.701433D+00  0.000000D+00                             NZ=T
 IS=     2 IAt=     2 ISR=     1 T=0 IP=      3 IndIP=      6 IndIPD=      2 C=  9.250015D+00  0.000000D+00                             NZ=T
 IS=     2 IAt=     2 ISR=     1 T=0 IP=      4 IndIP=      7 IndIPD=      3 C=  1.230326D+01  0.000000D+00                             NZ=T
 IS=     2 IAt=     2 ISR=     1 T=0 IP=      5 IndIP=      8 IndIPD=      4 C=  1.065796D+01  0.000000D+00                             NZ=T
 IS=     2 IAt=     2 ISR=     1 T=0 IP=      6 IndIP=      9 IndIPD=      5 C=  3.342971D+00  0.000000D+00                             NZ=T
 IS=     3 IAt=     2 ISR=     2 T=1 IP=      1 IndIP=     10 IndIPD=      0 C= -2.223866D-01  1.815760D+01                             NZ=T
 IS=     3 IAt=     2 ISR=     2 T=1 IP=      2 IndIP=     11 IndIPD=      1 C= -1.002089D+00  2.312008D+01                             NZ=T
 IS=     3 IAt=     2 ISR=     2 T=1 IP=      3 IndIP=     12 IndIPD=      2 C= -1.577145D+00  2.391470D+01                             NZ=T
 IS=     3 IAt=     2 ISR=     2 T=1 IP=      4 IndIP=     13 IndIPD=      3 C=  3.266752D-01  1.731669D+01                             NZ=T
 IS=     3 IAt=     2 ISR=     2 T=1 IP=      5 IndIP=     14 IndIPD=      4 C=  1.883992D+00  7.409963D+00                             NZ=T
 IS=     3 IAt=     2 ISR=     2 T=1 IP=      6 IndIP=     15 IndIPD=      5 C=  6.647292D-01  1.141461D+00                             NZ=T
 IS=     4 IAt=     2 ISR=     3 T=1 IP=      1 IndIP=     16 IndIPD=      0 C=  5.815266D-02 -3.826900D-01                             NZ=T
 IS=     4 IAt=     2 ISR=     3 T=1 IP=      2 IndIP=     17 IndIPD=      1 C=  4.293450D-01 -5.702211D-02                             NZ=T
 IS=     4 IAt=     2 ISR=     3 T=1 IP=      3 IndIP=     18 IndIPD=      2 C= -3.375882D-03  5.815028D-01                             NZ=T
 IS=     4 IAt=     2 ISR=     3 T=1 IP=      4 IndIP=     19 IndIPD=      3 C= -3.337346D-01  4.537484D-01                             NZ=T
 IS=     4 IAt=     2 ISR=     3 T=1 IP=      5 IndIP=     20 IndIPD=      4 C= -1.666638D-01  1.525572D-01                             NZ=T
 IS=     4 IAt=     2 ISR=     3 T=1 IP=      6 IndIP=     21 IndIPD=      5 C= -1.112643D-02  1.425313D-02                             NZ=T
 IS=     5 IAt=     2 ISR=     4 T=1 IP=      1 IndIP=     22 IndIPD=      0 C= -2.908072D-02  2.974856D-02                             NZ=T
 IS=     5 IAt=     2 ISR=     4 T=1 IP=      2 IndIP=     23 IndIPD=      1 C= -6.704811D-02 -9.373500D-03                             NZ=T
 IS=     5 IAt=     2 ISR=     4 T=1 IP=      3 IndIP=     24 IndIPD=      2 C=  7.095388D-02  2.474121D-02                             NZ=T
 IS=     6 IAt=     2 ISR=     5 T=1 IP=      1 IndIP=     25 IndIPD=      0 C=  3.284259D-02  8.442781D-03                             NZ=T
 IExCor=    0 DFT=F Ex=HF Corr=None ExCW=0 ScaHFX=  1.000000
 ScaDFX=  1.000000  1.000000  1.000000  1.000000 ScalE2=  1.000000  1.000000
 IRadAn=      5 IRanWt=     -1 IRanGd=            0 ICorTp=0 IEmpDi=  4
 NAtoms=    2 NActive=    2 NUniq=    2 SFac= 1.00D+00 NAtFMM=   60 NAOKFM=F Big=F
 Integral buffers will be    131072 words long.
 Raffenetti 2 integral format.
 Two-electron integral symmetry is turned on.
 Leave Link  301 at Mon Mar 28 14:40:03 2022, MaxMem=  9663676416 cpu:               2.1 elap:               0.1
 (Enter /nopt/nrel/apps/gaussian/g16C_1/g16/l302.exe)
 NPDir=0 NMtPBC=     1 NCelOv=     1 NCel=       1 NClECP=     1 NCelD=      1
         NCelK=      1 NCelE2=     1 NClLst=     1 CellRange=     0.0.
 One-electron integrals computed using PRISM.
 One-electron integral symmetry used in STVInt
 Entering OneElI...
 Calculate overlap and kinetic energy integrals
    NBasis =  18  MinDer = 0  MaxDer = 0
 Requested accuracy = 0.1000D-12
 Symmetry will be used
 PrmmSu-InSpLW:  IPartL=    0 NPrtUS=   36 NPrtUL=    1 DoSpLW=F IThBeg=    0 IThEnd=   35 NThAct=   36.
 PrSmSu:  IncTry=   512 NBBP=             21 NTPThr=   100 NPartT=   36 Incr=           1 LDynOK=F GPUOK=F.
 PrsmSu:  NPrtUS=  36 ThrOK=T IAlg=1 LenDen=           0 ISkipM=0 DoSpLW=F IThBeg=    0 IThEnd=   35.
 Prism:   IPart=     0 DynPar=F LinDyn=F Incr=           1.
 PRISM was handed   268430880 working-precision words and    21 shell-pairs
 PRISM was handed   268430880 working-precision words and    21 shell-pairs
 PRISM was handed   268430880 working-precision words and    21 shell-pairs
 PRISM was handed   268430880 working-precision words and    21 shell-pairs
 PRISM was handed   268430880 working-precision words and    21 shell-pairs
 PRISM was handed   268430880 working-precision words and    21 shell-pairs
 PRISM was handed   268430880 working-precision words and    21 shell-pairs
 PRISM was handed   268430880 working-precision words and    21 shell-pairs
 PRISM was handed   268430880 working-precision words and    21 shell-pairs
 PRISM was handed   268430880 working-precision words and    21 shell-pairs
 PRISM was handed   268430880 working-precision words and    21 shell-pairs
 PRISM was handed   268430880 working-precision words and    21 shell-pairs
 PRISM was handed   268430880 working-precision words and    21 shell-pairs
 IPart= 20 NShTot=           0 NBatch=           0 AvBLen=         0.0
 IPart=  4 NShTot=           0 NBatch=           0 AvBLen=         0.0
 IPart= 28 NShTot=           0 NBatch=           0 AvBLen=         0.0
 IPart= 16 NShTot=           0 NBatch=           0 AvBLen=         0.0
 IPart= 34 NShTot=           0 NBatch=           0 AvBLen=         0.0
 IPart= 32 NShTot=           0 NBatch=           0 AvBLen=         0.0
 IPart=  8 NShTot=           0 NBatch=           0 AvBLen=         0.0
 IPart= 12 NShTot=           0 NBatch=           0 AvBLen=         0.0
 IPart= 21 NShTot=           0 NBatch=           0 AvBLen=         0.0
 IPart=  9 NShTot=           0 NBatch=           0 AvBLen=         0.0
 IPart= 29 NShTot=           0 NBatch=           0 AvBLen=         0.0
 PRISM was handed   268430880 working-precision words and    21 shell-pairs
 IPart=  2 NShTot=           1 NBatch=           1 AvBLen=         1.0
 PRISM was handed   268430880 working-precision words and    21 shell-pairs
 PRISM was handed   268430880 working-precision words and    21 shell-pairs
 PRISM was handed   268430880 working-precision words and    21 shell-pairs
 PRISM was handed   268430880 working-precision words and    21 shell-pairs
 PRISM was handed   268430880 working-precision words and    21 shell-pairs
 IPart=  6 NShTot=           0 NBatch=           0 AvBLen=         0.0
 PRISM was handed   268430880 working-precision words and    21 shell-pairs
 PRISM was handed   268430880 working-precision words and    21 shell-pairs
 PRISM was handed   268430880 working-precision words and    21 shell-pairs
 PRISM was handed   268430880 working-precision words and    21 shell-pairs
 IPart= 14 NShTot=           0 NBatch=           0 AvBLen=         0.0
 IPart=  5 NShTot=           0 NBatch=           0 AvBLen=         0.0
 IPart=  3 NShTot=           0 NBatch=           0 AvBLen=         0.0
 IPart= 15 NShTot=           0 NBatch=           0 AvBLen=         0.0
 IPart= 27 NShTot=           0 NBatch=           0 AvBLen=         0.0
 IPart= 35 NShTot=           0 NBatch=           0 AvBLen=         0.0
 IPart= 24 NShTot=           0 NBatch=           0 AvBLen=         0.0
 IPart= 30 NShTot=           0 NBatch=           0 AvBLen=         0.0
 IPart= 31 NShTot=           0 NBatch=           0 AvBLen=         0.0
 PRISM was handed   268430880 working-precision words and    21 shell-pairs
 PRISM was handed   268430880 working-precision words and    21 shell-pairs
 PRISM was handed   268430880 working-precision words and    21 shell-pairs
 PRISM was handed   268430880 working-precision words and    21 shell-pairs
 PRISM was handed   268430880 working-precision words and    21 shell-pairs
 PRISM was handed   268430880 working-precision words and    21 shell-pairs
 PRISM was handed   268430880 working-precision words and    21 shell-pairs
 IPart= 10 NShTot=           0 NBatch=           0 AvBLen=         0.0
 IPart= 17 NShTot=           0 NBatch=           0 AvBLen=         0.0
 IPart= 19 NShTot=           0 NBatch=           0 AvBLen=         0.0
 PRISM was handed   268430880 working-precision words and    21 shell-pairs
 PRISM was handed   268430880 working-precision words and    21 shell-pairs
 IPart= 18 NShTot=           0 NBatch=           0 AvBLen=         0.0
 IPart= 11 NShTot=           0 NBatch=           0 AvBLen=         0.0
 IPart= 33 NShTot=           0 NBatch=           0 AvBLen=         0.0
 PRISM was handed   268430880 working-precision words and    21 shell-pairs
 PRISM was handed   268430880 working-precision words and    21 shell-pairs
 IPart=  1 NShTot=           4 NBatch=           4 AvBLen=         1.0
 IPart=  0 NShTot=          16 NBatch=          16 AvBLen=         1.0
 PRISM was handed   268430880 working-precision words and    21 shell-pairs
 PRISM was handed   268430880 working-precision words and    21 shell-pairs
 IPart= 22 NShTot=           0 NBatch=           0 AvBLen=         0.0
 IPart= 13 NShTot=           0 NBatch=           0 AvBLen=         0.0
 IPart= 25 NShTot=           0 NBatch=           0 AvBLen=         0.0
 IPart= 23 NShTot=           0 NBatch=           0 AvBLen=         0.0
 IPart=  7 NShTot=           0 NBatch=           0 AvBLen=         0.0
 IPart= 26 NShTot=           0 NBatch=           0 AvBLen=         0.0
 PrSmSu:  NxtVal=             37.
 *** Overlap *** 
                1             2             3             4             5 
      1  0.100000D+01
      2  0.920858D-05  0.100000D+01
      3  0.921546D-04  0.267715D+00  0.100000D+01
      4  0.000000D+00  0.000000D+00  0.000000D+00  0.100000D+01
      5  0.000000D+00  0.000000D+00  0.000000D+00  0.000000D+00  0.100000D+01
      6 -0.642554D-04  0.000000D+00  0.000000D+00  0.000000D+00  0.000000D+00
      7 -0.287906D-02 -0.141866D-01 -0.343708D+00  0.000000D+00  0.000000D+00
      8  0.000000D+00  0.000000D+00  0.000000D+00  0.295021D+00  0.000000D+00
      9  0.000000D+00  0.000000D+00  0.000000D+00  0.000000D+00  0.295021D+00
     10 -0.879529D-02  0.000000D+00  0.000000D+00  0.000000D+00  0.000000D+00
     11  0.129345D+00 -0.420963D-02 -0.188996D-01  0.000000D+00  0.000000D+00
     12  0.000000D+00  0.000000D+00  0.000000D+00  0.163990D-01  0.000000D+00
     13  0.000000D+00  0.000000D+00  0.000000D+00  0.000000D+00  0.163990D-01
     14 -0.258487D+00  0.000000D+00  0.000000D+00  0.000000D+00  0.000000D+00
     15  0.150151D+00  0.572576D-02  0.448310D-01  0.000000D+00  0.000000D+00
     16  0.000000D+00  0.000000D+00  0.000000D+00  0.380126D-02  0.000000D+00
     17  0.000000D+00  0.000000D+00  0.000000D+00  0.000000D+00  0.380126D-02
     18 -0.238186D+00  0.000000D+00  0.000000D+00  0.000000D+00  0.000000D+00
                6             7             8             9            10 
      6  0.100000D+01
      7  0.000000D+00  0.100000D+01
      8  0.000000D+00  0.000000D+00  0.100000D+01
      9  0.000000D+00  0.000000D+00  0.000000D+00  0.100000D+01
     10  0.295021D+00  0.000000D+00  0.000000D+00  0.000000D+00  0.100000D+01
     11  0.000000D+00 -0.172500D+00  0.000000D+00  0.000000D+00  0.000000D+00
     12  0.000000D+00  0.000000D+00  0.234662D+00  0.000000D+00  0.000000D+00
     13  0.000000D+00  0.000000D+00  0.000000D+00  0.234662D+00  0.000000D+00
     14  0.163990D-01  0.000000D+00  0.000000D+00  0.000000D+00  0.234662D+00
     15  0.000000D+00 -0.243058D+00  0.000000D+00  0.000000D+00  0.000000D+00
     16  0.000000D+00  0.000000D+00  0.967693D-01  0.000000D+00  0.000000D+00
     17  0.000000D+00  0.000000D+00  0.000000D+00  0.967693D-01  0.000000D+00
     18  0.380126D-02  0.000000D+00  0.000000D+00  0.000000D+00  0.967693D-01
               11            12            13            14            15 
     11  0.100000D+01
     12  0.000000D+00  0.100000D+01
     13  0.000000D+00  0.000000D+00  0.100000D+01
     14  0.000000D+00  0.000000D+00  0.000000D+00  0.100000D+01
     15  0.894230D+00  0.000000D+00  0.000000D+00  0.000000D+00  0.100000D+01
     16  0.000000D+00  0.807003D+00  0.000000D+00  0.000000D+00  0.000000D+00
     17  0.000000D+00  0.000000D+00  0.807003D+00  0.000000D+00  0.000000D+00
     18  0.000000D+00  0.000000D+00  0.000000D+00  0.807003D+00  0.000000D+00
               16            17            18 
     16  0.100000D+01
     17  0.000000D+00  0.100000D+01
     18  0.000000D+00  0.000000D+00  0.100000D+01
 *** Kinetic Energy *** 
                1             2             3             4             5 
      1  0.760032D+00
      2 -0.181610D-04  0.173384D+03
      3 -0.165059D-03 -0.928634D+01  0.818361D+01
      4  0.000000D+00  0.000000D+00  0.000000D+00  0.275843D+02
      5  0.000000D+00  0.000000D+00  0.000000D+00  0.000000D+00  0.275843D+02
      6  0.950582D-04  0.000000D+00  0.000000D+00  0.000000D+00  0.000000D+00
      7  0.203898D-02  0.803816D+00  0.546853D+00  0.000000D+00  0.000000D+00
      8  0.000000D+00  0.000000D+00  0.000000D+00  0.918943D+00  0.000000D+00
      9  0.000000D+00  0.000000D+00  0.000000D+00  0.000000D+00  0.918943D+00
     10  0.371928D-02  0.000000D+00  0.000000D+00  0.000000D+00  0.000000D+00
     11  0.149051D-02 -0.171808D-01 -0.100476D+00  0.000000D+00  0.000000D+00
     12  0.000000D+00  0.000000D+00  0.000000D+00  0.261790D-01  0.000000D+00
     13  0.000000D+00  0.000000D+00  0.000000D+00  0.000000D+00  0.261790D-01
     14 -0.181282D-01  0.000000D+00  0.000000D+00  0.000000D+00  0.000000D+00
     15  0.381863D-02  0.283688D-03  0.221202D-02  0.000000D+00  0.000000D+00
     16  0.000000D+00  0.000000D+00  0.000000D+00  0.312691D-03  0.000000D+00
     17  0.000000D+00  0.000000D+00  0.000000D+00  0.000000D+00  0.312691D-03
     18 -0.134094D-01  0.000000D+00  0.000000D+00  0.000000D+00  0.000000D+00
                6             7             8             9            10 
      6  0.275843D+02
      7  0.000000D+00  0.837208D+00
      8  0.000000D+00  0.000000D+00  0.154401D+01
      9  0.000000D+00  0.000000D+00  0.000000D+00  0.154401D+01
     10  0.918943D+00  0.000000D+00  0.000000D+00  0.000000D+00  0.154401D+01
     11  0.000000D+00  0.104916D+00  0.000000D+00  0.000000D+00  0.000000D+00
     12  0.000000D+00  0.000000D+00  0.663770D-01  0.000000D+00  0.000000D+00
     13  0.000000D+00  0.000000D+00  0.000000D+00  0.663770D-01  0.000000D+00
     14  0.261790D-01  0.000000D+00  0.000000D+00  0.000000D+00  0.663770D-01
     15  0.000000D+00 -0.115010D-01  0.000000D+00  0.000000D+00  0.000000D+00
     16  0.000000D+00  0.000000D+00  0.753429D-02  0.000000D+00  0.000000D+00
     17  0.000000D+00  0.000000D+00  0.000000D+00  0.753429D-02  0.000000D+00
     18  0.312691D-03  0.000000D+00  0.000000D+00  0.000000D+00  0.753429D-02
               11            12            13            14            15 
     11  0.774479D-01
     12  0.000000D+00  0.962091D-01
     13  0.000000D+00  0.000000D+00  0.962091D-01
     14  0.000000D+00  0.000000D+00  0.000000D+00  0.962091D-01
     15  0.298062D-01  0.000000D+00  0.000000D+00  0.000000D+00  0.247815D-01
     16  0.000000D+00  0.466086D-01  0.000000D+00  0.000000D+00  0.000000D+00
     17  0.000000D+00  0.000000D+00  0.466086D-01  0.000000D+00  0.000000D+00
     18  0.000000D+00  0.000000D+00  0.000000D+00  0.466086D-01  0.000000D+00
               16            17            18 
     16  0.413025D-01
     17  0.000000D+00  0.413025D-01
     18  0.000000D+00  0.000000D+00  0.413025D-01
 Entering OneElI...
 Calculate potential energy integrals
    NBasis =  18  MinDer = 0  MaxDer = 0
 Requested accuracy = 0.1000D-12
 Symmetry will be used
 PrmmSu-InSpLW:  IPartL=    0 NPrtUS=   36 NPrtUL=    1 DoSpLW=F IThBeg=    0 IThEnd=   35 NThAct=   36.
 PrSmSu:  IncTry=   512 NBBP=             42 NTPThr=   100 NPartT=   36 Incr=           1 LDynOK=F GPUOK=F.
 PrsmSu:  NPrtUS=  36 ThrOK=T IAlg=1 LenDen=           0 ISkipM=0 DoSpLW=F IThBeg=    0 IThEnd=   35.
 Prism:   IPart=     0 DynPar=F LinDyn=F Incr=           1.
 PRISM was handed   268431060 working-precision words and    21 shell-pairs
 PRISM was handed   268431060 working-precision words and    21 shell-pairs
 PRISM was handed   268431060 working-precision words and    21 shell-pairs
 PRISM was handed   268431060 working-precision words and    21 shell-pairs
 PRISM was handed   268431060 working-precision words and    21 shell-pairs
 PRISM was handed   268431060 working-precision words and    21 shell-pairs
 PRISM was handed   268431060 working-precision words and    21 shell-pairs
 PRISM was handed   268431060 working-precision words and    21 shell-pairs
 PRISM was handed   268431060 working-precision words and    21 shell-pairs
 PRISM was handed   268431060 working-precision words and    21 shell-pairs
 PRISM was handed   268431060 working-precision words and    21 shell-pairs
 PRISM was handed   268431060 working-precision words and    21 shell-pairs
 PRISM was handed   268431060 working-precision words and    21 shell-pairs
 PRISM was handed   268431060 working-precision words and    21 shell-pairs
 PRISM was handed   268431060 working-precision words and    21 shell-pairs
 PRISM was handed   268431060 working-precision words and    21 shell-pairs
 PRISM was handed   268431060 working-precision words and    21 shell-pairs
 PRISM was handed   268431060 working-precision words and    21 shell-pairs
 PRISM was handed   268431060 working-precision words and    21 shell-pairs
 PRISM was handed   268431060 working-precision words and    21 shell-pairs
 PRISM was handed   268431060 working-precision words and    21 shell-pairs
 PRISM was handed   268431060 working-precision words and    21 shell-pairs
 PRISM was handed   268431060 working-precision words and    21 shell-pairs
 PRISM was handed   268431060 working-precision words and    21 shell-pairs
 PRISM was handed   268431060 working-precision words and    21 shell-pairs
 PRISM was handed   268431060 working-precision words and    21 shell-pairs
 PRISM was handed   268431060 working-precision words and    21 shell-pairs
 PRISM was handed   268431060 working-precision words and    21 shell-pairs
 PRISM was handed   268431060 working-precision words and    21 shell-pairs
 PRISM was handed   268431060 working-precision words and    21 shell-pairs
 PRISM was handed   268431060 working-precision words and    21 shell-pairs
 PRISM was handed   268431060 working-precision words and    21 shell-pairs
 PRISM was handed   268431060 working-precision words and    21 shell-pairs
 PRISM was handed   268431060 working-precision words and    21 shell-pairs
 PRISM was handed   268431060 working-precision words and    21 shell-pairs
 PRISM was handed   268431060 working-precision words and    21 shell-pairs
 IPart=  2 NShTot=           2 NBatch=           1 AvBLen=         2.0
 IPart=  0 NShTot=          32 NBatch=          16 AvBLen=         2.0
 IPart=  1 NShTot=           8 NBatch=           4 AvBLen=         2.0
 IPart=  3 NShTot=           0 NBatch=           0 AvBLen=         0.0
 IPart=  4 NShTot=           0 NBatch=           0 AvBLen=         0.0
 IPart= 18 NShTot=           0 NBatch=           0 AvBLen=         0.0
 IPart= 29 NShTot=           0 NBatch=           0 AvBLen=         0.0
 IPart= 34 NShTot=           0 NBatch=           0 AvBLen=         0.0
 IPart= 23 NShTot=           0 NBatch=           0 AvBLen=         0.0
 IPart=  9 NShTot=           0 NBatch=           0 AvBLen=         0.0
 IPart= 10 NShTot=           0 NBatch=           0 AvBLen=         0.0
 IPart= 35 NShTot=           0 NBatch=           0 AvBLen=         0.0
 IPart=  6 NShTot=           0 NBatch=           0 AvBLen=         0.0
 IPart= 22 NShTot=           0 NBatch=           0 AvBLen=         0.0
 IPart= 21 NShTot=           0 NBatch=           0 AvBLen=         0.0
 IPart= 14 NShTot=           0 NBatch=           0 AvBLen=         0.0
 IPart=  5 NShTot=           0 NBatch=           0 AvBLen=         0.0
 IPart=  7 NShTot=           0 NBatch=           0 AvBLen=         0.0
 IPart= 26 NShTot=           0 NBatch=           0 AvBLen=         0.0
 IPart= 17 NShTot=           0 NBatch=           0 AvBLen=         0.0
 IPart= 20 NShTot=           0 NBatch=           0 AvBLen=         0.0
 IPart= 32 NShTot=           0 NBatch=           0 AvBLen=         0.0
 IPart= 24 NShTot=           0 NBatch=           0 AvBLen=         0.0
 IPart= 30 NShTot=           0 NBatch=           0 AvBLen=         0.0
 IPart= 31 NShTot=           0 NBatch=           0 AvBLen=         0.0
 IPart= 16 NShTot=           0 NBatch=           0 AvBLen=         0.0
 IPart= 11 NShTot=           0 NBatch=           0 AvBLen=         0.0
 IPart= 33 NShTot=           0 NBatch=           0 AvBLen=         0.0
 IPart= 13 NShTot=           0 NBatch=           0 AvBLen=         0.0
 IPart= 28 NShTot=           0 NBatch=           0 AvBLen=         0.0
 IPart= 19 NShTot=           0 NBatch=           0 AvBLen=         0.0
 IPart= 12 NShTot=           0 NBatch=           0 AvBLen=         0.0
 IPart=  8 NShTot=           0 NBatch=           0 AvBLen=         0.0
 IPart= 25 NShTot=           0 NBatch=           0 AvBLen=         0.0
 IPart= 27 NShTot=           0 NBatch=           0 AvBLen=         0.0
 IPart= 15 NShTot=           0 NBatch=           0 AvBLen=         0.0
 PrSmSu:  NxtVal=             37.
 ***** Potential Energy ***** 
                1             2             3             4             5 
      1  0.409929D+01
      2  0.163114D-02  0.353933D+03
      3  0.359653D-02  0.380088D+02  0.610916D+02
      4  0.000000D+00  0.000000D+00  0.000000D+00  0.705517D+02
      5  0.000000D+00  0.000000D+00  0.000000D+00  0.000000D+00  0.705517D+02
      6 -0.197264D-02 -0.733923D-03 -0.475414D-02  0.000000D+00  0.000000D+00
      7 -0.232925D-01 -0.179403D+01 -0.126189D+02  0.000000D+00  0.000000D+00
      8  0.000000D+00  0.000000D+00  0.000000D+00  0.109881D+02  0.000000D+00
      9  0.000000D+00  0.000000D+00  0.000000D+00  0.000000D+00  0.109881D+02
     10 -0.546101D-01 -0.363045D-04 -0.249043D-02  0.000000D+00  0.000000D+00
     11  0.512071D+00 -0.768178D+00 -0.103565D+01  0.000000D+00  0.000000D+00
     12  0.000000D+00  0.000000D+00  0.000000D+00  0.573276D+00  0.000000D+00
     13  0.000000D+00  0.000000D+00  0.000000D+00  0.000000D+00  0.573276D+00
     14 -0.987477D+00 -0.182880D-05 -0.146904D-03  0.000000D+00  0.000000D+00
     15  0.560330D+00  0.102439D+01  0.192163D+01  0.000000D+00  0.000000D+00
     16  0.000000D+00  0.000000D+00  0.000000D+00  0.124608D+00  0.000000D+00
     17  0.000000D+00  0.000000D+00  0.000000D+00  0.000000D+00  0.124608D+00
     18 -0.852896D+00  0.000000D+00 -0.356601D-04  0.000000D+00  0.000000D+00
                6             7             8             9            10 
      6  0.705520D+02
      7  0.273520D-02  0.183324D+02
      8  0.000000D+00  0.000000D+00  0.166205D+02
      9  0.000000D+00  0.000000D+00  0.000000D+00  0.166205D+02
     10  0.109884D+02  0.169239D-01  0.000000D+00  0.000000D+00  0.166252D+02
     11  0.888717D-04 -0.132841D+01  0.000000D+00  0.000000D+00 -0.941475D-02
     12  0.000000D+00  0.000000D+00  0.236560D+01  0.000000D+00  0.000000D+00
     13  0.000000D+00  0.000000D+00  0.000000D+00  0.236560D+01  0.000000D+00
     14  0.573295D+00  0.466535D-02  0.000000D+00  0.000000D+00  0.236915D+01
     15 -0.338022D-03 -0.328734D+01  0.000000D+00  0.000000D+00 -0.859790D-02
     16  0.000000D+00  0.000000D+00  0.869899D+00  0.000000D+00  0.000000D+00
     17  0.000000D+00  0.000000D+00  0.000000D+00  0.869899D+00  0.000000D+00
     18  0.124613D+00  0.195687D-02  0.000000D+00  0.000000D+00  0.871630D+00
               11            12            13            14            15 
     11  0.480592D+01
     12  0.000000D+00  0.406268D+01
     13  0.000000D+00  0.000000D+00  0.406268D+01
     14 -0.582741D-01  0.000000D+00  0.000000D+00  0.411439D+01
     15  0.396517D+01  0.000000D+00  0.000000D+00 -0.584137D-01  0.403483D+01
     16  0.000000D+00  0.279456D+01  0.000000D+00  0.000000D+00  0.000000D+00
     17  0.000000D+00  0.000000D+00  0.279456D+01  0.000000D+00  0.000000D+00
     18 -0.422421D-01  0.000000D+00  0.000000D+00  0.283738D+01 -0.525756D-01
               16            17            18 
     16  0.270487D+01
     17  0.000000D+00  0.270487D+01
     18  0.000000D+00  0.000000D+00  0.274930D+01
 ****** Core Hamiltonian ****** 
                1             2             3             4             5 
      1 -0.333926D+01
      2 -0.164930D-02 -0.180548D+03
      3 -0.376159D-02 -0.472951D+02 -0.529080D+02
      4  0.000000D+00  0.000000D+00  0.000000D+00 -0.429675D+02
      5  0.000000D+00  0.000000D+00  0.000000D+00  0.000000D+00 -0.429675D+02
      6  0.206770D-02  0.733923D-03  0.475414D-02  0.000000D+00  0.000000D+00
      7  0.253314D-01  0.259785D+01  0.131658D+02  0.000000D+00  0.000000D+00
      8  0.000000D+00  0.000000D+00  0.000000D+00 -0.100691D+02  0.000000D+00
      9  0.000000D+00  0.000000D+00  0.000000D+00  0.000000D+00 -0.100691D+02
     10  0.583294D-01  0.363045D-04  0.249043D-02  0.000000D+00  0.000000D+00
     11 -0.510580D+00  0.750997D+00  0.935176D+00  0.000000D+00  0.000000D+00
     12  0.000000D+00  0.000000D+00  0.000000D+00 -0.547097D+00  0.000000D+00
     13  0.000000D+00  0.000000D+00  0.000000D+00  0.000000D+00 -0.547097D+00
     14  0.969349D+00  0.182880D-05  0.146904D-03  0.000000D+00  0.000000D+00
     15 -0.556511D+00 -0.102411D+01 -0.191941D+01  0.000000D+00  0.000000D+00
     16  0.000000D+00  0.000000D+00  0.000000D+00 -0.124295D+00  0.000000D+00
     17  0.000000D+00  0.000000D+00  0.000000D+00  0.000000D+00 -0.124295D+00
     18  0.839487D+00  0.000000D+00  0.356601D-04  0.000000D+00  0.000000D+00
                6             7             8             9            10 
      6 -0.429678D+02
      7 -0.273520D-02 -0.174952D+02
      8  0.000000D+00  0.000000D+00 -0.150765D+02
      9  0.000000D+00  0.000000D+00  0.000000D+00 -0.150765D+02
     10 -0.100694D+02 -0.169239D-01  0.000000D+00  0.000000D+00 -0.150812D+02
     11 -0.888717D-04  0.143333D+01  0.000000D+00  0.000000D+00  0.941475D-02
     12  0.000000D+00  0.000000D+00 -0.229923D+01  0.000000D+00  0.000000D+00
     13  0.000000D+00  0.000000D+00  0.000000D+00 -0.229923D+01  0.000000D+00
     14 -0.547116D+00 -0.466535D-02  0.000000D+00  0.000000D+00 -0.230277D+01
     15  0.338022D-03  0.327583D+01  0.000000D+00  0.000000D+00  0.859790D-02
     16  0.000000D+00  0.000000D+00 -0.862364D+00  0.000000D+00  0.000000D+00
     17  0.000000D+00  0.000000D+00  0.000000D+00 -0.862364D+00  0.000000D+00
     18 -0.124300D+00 -0.195687D-02  0.000000D+00  0.000000D+00 -0.864095D+00
               11            12            13            14            15 
     11 -0.472847D+01
     12  0.000000D+00 -0.396647D+01
     13  0.000000D+00  0.000000D+00 -0.396647D+01
     14  0.582741D-01  0.000000D+00  0.000000D+00 -0.401818D+01
     15 -0.393536D+01  0.000000D+00  0.000000D+00  0.584137D-01 -0.401005D+01
     16  0.000000D+00 -0.274795D+01  0.000000D+00  0.000000D+00  0.000000D+00
     17  0.000000D+00  0.000000D+00 -0.274795D+01  0.000000D+00  0.000000D+00
     18  0.422421D-01  0.000000D+00  0.000000D+00 -0.279077D+01  0.525756D-01
               16            17            18 
     16 -0.266357D+01
     17  0.000000D+00 -0.266357D+01
     18  0.000000D+00  0.000000D+00 -0.270800D+01
 SVDSVc IOpt=   1 NormSV=T IR=1
 SVDSVc V= 2.07D+00 1.95D+00 1.40D+00 1.27D+00 9.61D-01 8.39D-01 6.81D-01 5.51D-01 1.79D-01 1.02D-01
 SVDSVc IOpt=   1 NormSV=T IR=3
 SVDSVc V= 1.88D+00 1.25D+00 6.91D-01 1.80D-01
 SVDSVc IOpt=   1 NormSV=T IR=4
 SVDSVc V= 1.88D+00 1.25D+00 6.91D-01 1.80D-01
 TstOVc:  Largest diagonal error= 3.11D-15 IB=1 I=    6.
 TstOVc:  Largest same sym error= 7.11D-16 IB=1 I=   10 J=    8.
 TstOVc:  Largest diff sym error= 0.00D+00 IB=0 JB=0 I=    0 J=    0.
 Orthogonalized basis functions: 
                 1             2             3             4             5 
      1   0.215315D+00 -0.114634D+00 -0.711386D-01  0.156627D+00  0.235500D+00
      2   0.191539D-01  0.219161D-01  0.411714D+00  0.417563D-01  0.769275D+00
      3   0.659078D-01  0.681380D-01  0.592255D+00  0.413564D-01 -0.801666D-01
      4   0.000000D+00  0.000000D+00  0.000000D+00  0.000000D+00  0.000000D+00
      5   0.000000D+00  0.000000D+00  0.000000D+00  0.000000D+00  0.000000D+00
      6  -0.297808D-01  0.549226D-01 -0.345714D-01  0.632446D+00 -0.696452D-01
      7  -0.162502D+00 -0.149227D+00 -0.371781D+00 -0.154435D-02  0.593792D+00
      8   0.000000D+00  0.000000D+00  0.000000D+00  0.000000D+00  0.000000D+00
      9   0.000000D+00  0.000000D+00  0.000000D+00  0.000000D+00  0.000000D+00
     10  -0.903742D-01  0.150727D+00 -0.449072D-01  0.574486D+00  0.464887D-02
     11   0.356886D+00  0.280845D+00 -0.177499D+00 -0.389696D-01  0.117584D+00
     12   0.000000D+00  0.000000D+00  0.000000D+00  0.000000D+00  0.000000D+00
     13   0.000000D+00  0.000000D+00  0.000000D+00  0.000000D+00  0.000000D+00
     14  -0.263033D+00  0.384111D+00 -0.262948D-01 -0.765009D-01  0.657907D-01
     15   0.367223D+00  0.287733D+00 -0.125970D+00 -0.334332D-01  0.772913D-01
     16   0.000000D+00  0.000000D+00  0.000000D+00  0.000000D+00  0.000000D+00
     17   0.000000D+00  0.000000D+00  0.000000D+00  0.000000D+00  0.000000D+00
     18  -0.253879D+00  0.370564D+00 -0.219929D-01 -0.154860D+00  0.723226D-01
                 6             7             8             9            10 
      1   0.933045D+00 -0.270214D+00 -0.963163D-01  0.647639D-01 -0.633057D-01
      2  -0.212052D+00  0.368648D-01 -0.524681D+00  0.424718D-03  0.915479D-02
      3   0.120983D+00 -0.444230D-01  0.922065D+00 -0.176206D-02 -0.105361D+00
      4   0.000000D+00  0.000000D+00  0.000000D+00  0.000000D+00  0.000000D+00
      5   0.000000D+00  0.000000D+00  0.000000D+00  0.000000D+00  0.000000D+00
      6  -0.295086D+00 -0.771280D+00 -0.126282D-01  0.910464D-01 -0.128823D-02
      7  -0.115374D+00 -0.114913D-01  0.804200D+00 -0.249469D-02  0.143815D+00
      8   0.000000D+00  0.000000D+00  0.000000D+00  0.000000D+00  0.000000D+00
      9   0.000000D+00  0.000000D+00  0.000000D+00  0.000000D+00  0.000000D+00
     10   0.145927D+00  0.840408D+00  0.204040D-01 -0.326690D+00  0.503189D-02
     11  -0.170283D+00  0.359369D-01  0.131651D+00 -0.151908D-01 -0.219090D+01
     12   0.000000D+00  0.000000D+00  0.000000D+00  0.000000D+00  0.000000D+00
     13   0.000000D+00  0.000000D+00  0.000000D+00  0.000000D+00  0.000000D+00
     14   0.215615D+00 -0.620647D-01 -0.151965D-01  0.169393D+01 -0.204477D-01
     15  -0.125093D+00  0.232936D-01  0.119982D+00  0.405740D-02  0.223563D+01
     16   0.000000D+00  0.000000D+00  0.000000D+00  0.000000D+00  0.000000D+00
     17   0.000000D+00  0.000000D+00  0.000000D+00  0.000000D+00  0.000000D+00
     18   0.219539D+00 -0.290741D+00 -0.280723D-01 -0.160878D+01  0.104731D-02
                11            12            13            14            15 
      1   0.000000D+00  0.000000D+00  0.000000D+00  0.000000D+00  0.000000D+00
      2   0.000000D+00  0.000000D+00  0.000000D+00  0.000000D+00  0.000000D+00
      3   0.000000D+00  0.000000D+00  0.000000D+00  0.000000D+00  0.000000D+00
      4   0.827827D-01  0.650522D+00 -0.813669D+00  0.900001D-01  0.000000D+00
      5   0.000000D+00  0.000000D+00  0.000000D+00  0.000000D+00  0.827827D-01
      6   0.000000D+00  0.000000D+00  0.000000D+00  0.000000D+00  0.000000D+00
      7   0.000000D+00  0.000000D+00  0.000000D+00  0.000000D+00  0.000000D+00
      8   0.213287D+00  0.558240D+00  0.856396D+00 -0.322873D+00  0.000000D+00
      9   0.000000D+00  0.000000D+00  0.000000D+00  0.000000D+00  0.213287D+00
     10   0.000000D+00  0.000000D+00  0.000000D+00  0.000000D+00  0.000000D+00
     11   0.000000D+00  0.000000D+00  0.000000D+00  0.000000D+00  0.000000D+00
     12   0.498483D+00 -0.137035D+00 -0.114594D-01  0.168244D+01  0.000000D+00
     13   0.000000D+00  0.000000D+00  0.000000D+00  0.000000D+00  0.498483D+00
     14   0.000000D+00  0.000000D+00  0.000000D+00  0.000000D+00  0.000000D+00
     15   0.000000D+00  0.000000D+00  0.000000D+00  0.000000D+00  0.000000D+00
     16   0.480441D+00 -0.217733D+00 -0.228099D+00 -0.161779D+01  0.000000D+00
     17   0.000000D+00  0.000000D+00  0.000000D+00  0.000000D+00  0.480441D+00
     18   0.000000D+00  0.000000D+00  0.000000D+00  0.000000D+00  0.000000D+00
                16            17            18 
      1   0.000000D+00  0.000000D+00  0.000000D+00
      2   0.000000D+00  0.000000D+00  0.000000D+00
      3   0.000000D+00  0.000000D+00  0.000000D+00
      4   0.000000D+00  0.000000D+00  0.000000D+00
      5   0.650522D+00 -0.813669D+00  0.900001D-01
      6   0.000000D+00  0.000000D+00  0.000000D+00
      7   0.000000D+00  0.000000D+00  0.000000D+00
      8   0.000000D+00  0.000000D+00  0.000000D+00
      9   0.558240D+00  0.856396D+00 -0.322873D+00
     10   0.000000D+00  0.000000D+00  0.000000D+00
     11   0.000000D+00  0.000000D+00  0.000000D+00
     12   0.000000D+00  0.000000D+00  0.000000D+00
     13  -0.137035D+00 -0.114594D-01  0.168244D+01
     14   0.000000D+00  0.000000D+00  0.000000D+00
     15   0.000000D+00  0.000000D+00  0.000000D+00
     16   0.000000D+00  0.000000D+00  0.000000D+00
     17  -0.217733D+00 -0.228099D+00 -0.161779D+01
     18   0.000000D+00  0.000000D+00  0.000000D+00
 NBasis=    18 RedAO= T EigKep=  1.02D-01  NBF=    10     0     4     4
 NBsUse=    18 1.00D-06 EigRej= -1.00D+00 NBFU=    10     0     4     4
 Leave Link  302 at Mon Mar 28 14:40:03 2022, MaxMem=  9663676416 cpu:               3.4 elap:               0.1
 (Enter /nopt/nrel/apps/gaussian/g16C_1/g16/l303.exe)
 DipDrv will not compute anything.
 Fermi contact integrals: 
                 1             2 
      1   0.628247D+00  0.517081D-04
      2   0.000000D+00  0.443431D+02
      3   0.000000D+00  0.737756D-01
      4   0.000000D+00  0.000000D+00
      5   0.000000D+00  0.000000D+00
      6   0.000000D+00  0.000000D+00
      7  -0.184889D-04 -0.274029D-01
      8   0.000000D+00  0.000000D+00
      9   0.000000D+00  0.000000D+00
     10  -0.156562D-03  0.000000D+00
     11   0.130656D-01 -0.251750D-01
     12   0.000000D+00  0.000000D+00
     13   0.000000D+00  0.000000D+00
     14  -0.301363D-01  0.000000D+00
     15   0.159428D-01  0.328426D-01
     16   0.000000D+00  0.000000D+00
     17   0.000000D+00  0.000000D+00
     18  -0.271068D-01  0.000000D+00
 Leave Link  303 at Mon Mar 28 14:40:03 2022, MaxMem=  9663676416 cpu:               0.7 elap:               0.0
 (Enter /nopt/nrel/apps/gaussian/g16C_1/g16/l401.exe)
 ExpMin= 1.65D-02 ExpMax= 3.16D+04 ExpMxC= 4.74D+03 IAcc=3 IRadAn=         5 AccDes= 0.00D+00
 Harris functional with IExCor=  205 and IRadAn=       5 diagonalized for initial guess.
 HarFok:  IExCor=  205 AccDes= 0.00D+00 IRadAn=         5 IDoV= 1 UseB2=F ITyADJ=14
 ICtDFT=  3500011 ScaDFX=  1.000000  1.000000  1.000000  1.000000
 FoFCou: FMM=F IPFlag=           0 FMFlag=      100000 FMFlg1=           0
         NFxFlg=           0 DoJE=T BraDBF=F KetDBF=T FulRan=T
         wScrn=  0.000000 ICntrl=       500 IOpCl=  0 I1Cent=   200000004 NGrid=           0
         NMat0=    1 NMatS0=      1 NMatT0=    0 NMatD0=    1 NMtDS0=    0 NMtDT0=    0
 Petite list used in FoFCou.
 Harris En= -598.883398163181    
 JPrj=0 DoOrth=F DoCkMO=F.
 Initial guess orbital symmetries:
 Alpha Orbitals:
       Occupied  (SG) (SG) (SG) (PI) (PI) (SG) (SG) (PI) (PI) (SG)
                 (SG)
       Virtual   (PI) (PI) (SG) (SG) (SG) (PI) (PI)
 Beta  Orbitals:
       Occupied  (SG) (SG) (SG) (PI) (PI) (SG) (SG) (PI) (PI)
       Virtual   (SG) (SG) (PI) (PI) (SG) (SG) (SG) (PI) (PI)
 The electronic state of the initial guess is 3-SG.
 Initial guess <Sx>= 0.0000 <Sy>= 0.0000 <Sz>= 1.0000 <S**2>= 2.0000 S= 1.0000
 Leave Link  401 at Mon Mar 28 14:40:03 2022, MaxMem=  9663676416 cpu:               4.1 elap:               0.1
 (Enter /nopt/nrel/apps/gaussian/g16C_1/g16/l502.exe)
 Keep R1 and R2 ints in memory in symmetry-blocked form, NReq=7243289.
 FoFCou: FMM=F IPFlag=           0 FMFlag=           0 FMFlg1=           0
         NFxFlg=           0 DoJE=F BraDBF=F KetDBF=F FulRan=T
         wScrn=  0.000000 ICntrl=       600 IOpCl=  0 I1Cent=           0 NGrid=           0
         NMat0=    1 NMatS0=    171 NMatT0=    0 NMatD0=    1 NMtDS0=    0 NMtDT0=    0
 Petite list used in FoFCou.
 UHF open shell SCF:
 Using DIIS extrapolation, IDIIS=  1040.
 NGot=  9663676416 LenX=  9663664010 LenY=  9663663128
 Requested convergence on RMS density matrix=1.00D-08 within 128 cycles.
 Requested convergence on MAX density matrix=1.00D-06.
 Requested convergence on             energy=1.00D-06.
 No special actions if energy rises.

 Cycle   1  Pass 1  IDiag  1:
 E= -599.564406618227    
 DIIS: error= 2.56D-02 at cycle   1 NSaved=   1.
 NSaved= 1 IEnMin= 1 EnMin= -599.564406618227     IErMin= 1 ErrMin= 2.56D-02
 ErrMax= 2.56D-02  0.00D+00 EMaxC= 1.00D-01 BMatC= 2.94D-02 BMatP= 2.94D-02
 IDIUse=3 WtCom= 7.44D-01 WtEn= 2.56D-01
 Coeff-Com:  0.100D+01
 Coeff-En:   0.100D+01
 Coeff:      0.100D+01
 Gap=     0.175 Goal=   None    Shift=    0.000
 Gap=     1.010 Goal=   None    Shift=    0.000
 GapD=    0.175 DampG=1.000 DampE=0.500 DampFc=0.5000 IDamp=-1.
 Damping current iteration by 5.00D-01
 RMSDP=1.28D-02 MaxDP=1.65D-01              OVMax= 0.00D+00

 Cycle   2  Pass 1  IDiag  1:
 E= -599.573084209829     Delta-E=       -0.008677591602 Rises=F Damp=T
 DIIS: error= 1.69D-02 at cycle   2 NSaved=   2.
 NSaved= 2 IEnMin= 2 EnMin= -599.573084209829     IErMin= 2 ErrMin= 1.69D-02
 ErrMax= 1.69D-02  0.00D+00 EMaxC= 1.00D-01 BMatC= 1.02D-02 BMatP= 2.94D-02
 IDIUse=3 WtCom= 8.31D-01 WtEn= 1.69D-01
 Coeff-Com: -0.134D+01 0.234D+01
 Coeff-En:   0.000D+00 0.100D+01
 Coeff:     -0.112D+01 0.212D+01
 Gap=     0.158 Goal=   None    Shift=    0.000
 Gap=     0.949 Goal=   None    Shift=    0.000
 RMSDP=1.16D-02 MaxDP=1.76D-01 DE=-8.68D-03 OVMax= 0.00D+00

 Cycle   3  Pass 1  IDiag  1:
 E= -599.585821603981     Delta-E=       -0.012737394153 Rises=F Damp=F
 DIIS: error= 2.23D-03 at cycle   3 NSaved=   3.
 NSaved= 3 IEnMin= 3 EnMin= -599.585821603981     IErMin= 3 ErrMin= 2.23D-03
 ErrMax= 2.23D-03  0.00D+00 EMaxC= 1.00D-01 BMatC= 1.16D-04 BMatP= 1.02D-02
 IDIUse=3 WtCom= 9.78D-01 WtEn= 2.23D-02
 Coeff-Com:  0.415D+00-0.810D+00 0.140D+01
 Coeff-En:   0.000D+00 0.000D+00 0.100D+01
 Coeff:      0.405D+00-0.792D+00 0.139D+01
 Gap=     0.158 Goal=   None    Shift=    0.000
 Gap=     0.951 Goal=   None    Shift=    0.000
 RMSDP=3.23D-03 MaxDP=6.03D-02 DE=-1.27D-02 OVMax= 0.00D+00

 Cycle   4  Pass 1  IDiag  1:
 E= -599.586026933439     Delta-E=       -0.000205329458 Rises=F Damp=F
 DIIS: error= 3.70D-04 at cycle   4 NSaved=   4.
 NSaved= 4 IEnMin= 4 EnMin= -599.586026933439     IErMin= 4 ErrMin= 3.70D-04
 ErrMax= 3.70D-04  0.00D+00 EMaxC= 1.00D-01 BMatC= 2.47D-06 BMatP= 1.16D-04
 IDIUse=3 WtCom= 9.96D-01 WtEn= 3.70D-03
 Coeff-Com: -0.236D+00 0.463D+00-0.845D+00 0.162D+01
 Coeff-En:   0.000D+00 0.000D+00 0.000D+00 0.100D+01
 Coeff:     -0.235D+00 0.461D+00-0.842D+00 0.162D+01
 Gap=     0.157 Goal=   None    Shift=    0.000
 Gap=     0.952 Goal=   None    Shift=    0.000
 RMSDP=1.19D-03 MaxDP=2.32D-02 DE=-2.05D-04 OVMax= 0.00D+00

 Cycle   5  Pass 1  IDiag  1:
 E= -599.586038527935     Delta-E=       -0.000011594496 Rises=F Damp=F
 DIIS: error= 8.80D-05 at cycle   5 NSaved=   5.
 NSaved= 5 IEnMin= 5 EnMin= -599.586038527935     IErMin= 5 ErrMin= 8.80D-05
 ErrMax= 8.80D-05  0.00D+00 EMaxC= 1.00D-01 BMatC= 1.93D-07 BMatP= 2.47D-06
 IDIUse=1 WtCom= 1.00D+00 WtEn= 0.00D+00
 Coeff-Com:  0.567D-01-0.112D+00 0.215D+00-0.677D+00 0.152D+01
 Coeff:      0.567D-01-0.112D+00 0.215D+00-0.677D+00 0.152D+01
 Gap=     0.157 Goal=   None    Shift=    0.000
 Gap=     0.953 Goal=   None    Shift=    0.000
 RMSDP=3.65D-04 MaxDP=7.10D-03 DE=-1.16D-05 OVMax= 0.00D+00

 Cycle   6  Pass 1  IDiag  1:
 E= -599.586039425423     Delta-E=       -0.000000897488 Rises=F Damp=F
 DIIS: error= 1.72D-05 at cycle   6 NSaved=   6.
 NSaved= 6 IEnMin= 6 EnMin= -599.586039425423     IErMin= 6 ErrMin= 1.72D-05
 ErrMax= 1.72D-05  0.00D+00 EMaxC= 1.00D-01 BMatC= 6.31D-09 BMatP= 1.93D-07
 IDIUse=1 WtCom= 1.00D+00 WtEn= 0.00D+00
 Coeff-Com: -0.345D-01 0.679D-01-0.129D+00 0.384D+00-0.858D+00 0.157D+01
 Coeff:     -0.345D-01 0.679D-01-0.129D+00 0.384D+00-0.858D+00 0.157D+01
 Gap=     0.157 Goal=   None    Shift=    0.000
 Gap=     0.953 Goal=   None    Shift=    0.000
 RMSDP=1.98D-05 MaxDP=1.74D-04 DE=-8.97D-07 OVMax= 0.00D+00

 Cycle   7  Pass 1  IDiag  1:
 E= -599.586039458273     Delta-E=       -0.000000032850 Rises=F Damp=F
 DIIS: error= 6.17D-06 at cycle   7 NSaved=   7.
 NSaved= 7 IEnMin= 7 EnMin= -599.586039458273     IErMin= 7 ErrMin= 6.17D-06
 ErrMax= 6.17D-06  0.00D+00 EMaxC= 1.00D-01 BMatC= 7.54D-10 BMatP= 6.31D-09
 IDIUse=1 WtCom= 1.00D+00 WtEn= 0.00D+00
 Coeff-Com:  0.313D-02-0.618D-02 0.118D-01-0.444D-01 0.119D+00-0.720D+00
 Coeff-Com:  0.164D+01
 Coeff:      0.313D-02-0.618D-02 0.118D-01-0.444D-01 0.119D+00-0.720D+00
 Coeff:      0.164D+01
 Gap=     0.157 Goal=   None    Shift=    0.000
 Gap=     0.953 Goal=   None    Shift=    0.000
 RMSDP=9.87D-06 MaxDP=8.28D-05 DE=-3.29D-08 OVMax= 0.00D+00

 Cycle   8  Pass 1  IDiag  1:
 E= -599.586039462712     Delta-E=       -0.000000004438 Rises=F Damp=F
 DIIS: error= 5.47D-07 at cycle   8 NSaved=   8.
 NSaved= 8 IEnMin= 8 EnMin= -599.586039462712     IErMin= 8 ErrMin= 5.47D-07
 ErrMax= 5.47D-07  0.00D+00 EMaxC= 1.00D-01 BMatC= 7.20D-12 BMatP= 7.54D-10
 IDIUse=1 WtCom= 1.00D+00 WtEn= 0.00D+00
 Coeff-Com: -0.659D-03 0.130D-02-0.246D-02 0.938D-02-0.242D-01 0.196D+00
 Coeff-Com: -0.465D+00 0.129D+01
 Coeff:     -0.659D-03 0.130D-02-0.246D-02 0.938D-02-0.242D-01 0.196D+00
 Coeff:     -0.465D+00 0.129D+01
 Gap=     0.157 Goal=   None    Shift=    0.000
 Gap=     0.953 Goal=   None    Shift=    0.000
 RMSDP=1.20D-06 MaxDP=1.65D-05 DE=-4.44D-09 OVMax= 0.00D+00

 Cycle   9  Pass 1  IDiag  1:
 E= -599.586039462729     Delta-E=       -0.000000000018 Rises=F Damp=F
 DIIS: error= 1.53D-07 at cycle   9 NSaved=   9.
 NSaved= 9 IEnMin= 9 EnMin= -599.586039462729     IErMin= 9 ErrMin= 1.53D-07
 ErrMax= 1.53D-07  0.00D+00 EMaxC= 1.00D-01 BMatC= 4.57D-13 BMatP= 7.20D-12
 IDIUse=1 WtCom= 1.00D+00 WtEn= 0.00D+00
 Coeff-Com:  0.852D-04-0.169D-03 0.310D-03-0.172D-02 0.498D-02-0.698D-01
 Coeff-Com:  0.167D+00-0.615D+00 0.151D+01
 Coeff:      0.852D-04-0.169D-03 0.310D-03-0.172D-02 0.498D-02-0.698D-01
 Coeff:      0.167D+00-0.615D+00 0.151D+01
 Gap=     0.157 Goal=   None    Shift=    0.000
 Gap=     0.953 Goal=   None    Shift=    0.000
 RMSDP=3.27D-07 MaxDP=3.90D-06 DE=-1.78D-11 OVMax= 0.00D+00

 Cycle  10  Pass 1  IDiag  1:
 E= -599.586039462731     Delta-E=       -0.000000000002 Rises=F Damp=F
 DIIS: error= 2.62D-08 at cycle  10 NSaved=  10.
 NSaved=10 IEnMin=10 EnMin= -599.586039462731     IErMin=10 ErrMin= 2.62D-08
 ErrMax= 2.62D-08  0.00D+00 EMaxC= 1.00D-01 BMatC= 1.44D-14 BMatP= 4.57D-13
 IDIUse=1 WtCom= 1.00D+00 WtEn= 0.00D+00
 Coeff-Com: -0.113D-04 0.226D-04-0.397D-04 0.307D-03-0.936D-03 0.169D-01
 Coeff-Com: -0.376D-01 0.163D+00-0.561D+00 0.142D+01
 Coeff:     -0.113D-04 0.226D-04-0.397D-04 0.307D-03-0.936D-03 0.169D-01
 Coeff:     -0.376D-01 0.163D+00-0.561D+00 0.142D+01
 Gap=     0.157 Goal=   None    Shift=    0.000
 Gap=     0.953 Goal=   None    Shift=    0.000
 RMSDP=6.70D-08 MaxDP=7.98D-07 DE=-2.05D-12 OVMax= 0.00D+00

 Cycle  11  Pass 1  IDiag  1:
 E= -599.586039462732     Delta-E=       -0.000000000000 Rises=F Damp=F
 DIIS: error= 1.03D-09 at cycle  11 NSaved=  11.
 NSaved=11 IEnMin=11 EnMin= -599.586039462732     IErMin=11 ErrMin= 1.03D-09
 ErrMax= 1.03D-09  0.00D+00 EMaxC= 1.00D-01 BMatC= 3.53D-17 BMatP= 1.44D-14
 IDIUse=1 WtCom= 1.00D+00 WtEn= 0.00D+00
 Coeff-Com:  0.109D-05-0.218D-05 0.376D-05-0.329D-04 0.103D-03-0.193D-02
 Coeff-Com:  0.407D-02-0.186D-01 0.650D-01-0.183D+00 0.113D+01
 Coeff:      0.109D-05-0.218D-05 0.376D-05-0.329D-04 0.103D-03-0.193D-02
 Coeff:      0.407D-02-0.186D-01 0.650D-01-0.183D+00 0.113D+01
 Gap=     0.157 Goal=   None    Shift=    0.000
 Gap=     0.953 Goal=   None    Shift=    0.000
 RMSDP=2.25D-09 MaxDP=2.48D-08 DE=-3.41D-13 OVMax= 0.00D+00

 SCF Done:  E(UHF) =  -599.586039463     A.U. after   11 cycles
            NFock= 11  Conv=0.23D-08     -V/T= 1.9996
 <Sx>= 0.0000 <Sy>= 0.0000 <Sz>= 1.0000 <S**2>= 2.0001 S= 1.0000
 <L.S>= 0.000000000000E+00
 KE= 5.998030639660D+02 PE=-1.429754546784D+03 EE= 2.274927670671D+02
 Annihilation of the first spin contaminant:
 S**2 before annihilation     2.0001,   after     2.0000
 Leave Link  502 at Mon Mar 28 14:40:03 2022, MaxMem=  9663676416 cpu:               4.4 elap:               0.2
 (Enter /nopt/nrel/apps/gaussian/g16C_1/g16/l801.exe)
 Windowed orbitals will be sorted by symmetry type.
 ExpMin= 1.65D-02 ExpMax= 3.16D+04 ExpMxC= 4.74D+03 IAcc=3 IRadAn=         5 AccDes= 0.00D+00
 HarFok:  IExCor=  205 AccDes= 0.00D+00 IRadAn=         5 IDoV=-2 UseB2=F ITyADJ=14
 ICtDFT= 12500011 ScaDFX=  1.000000  1.000000  1.000000  1.000000
 Largest valence mixing into a core orbital is  4.31D-04
 Largest core mixing into a valence orbital is  1.09D-04
 Range of M.O.s used for correlation:    10    18
 NBasis=    18 NAE=    11 NBE=     9 NFC=     9 NFV=     0
 NROrb=      9 NOA=     2 NOB=     0 NVA=     7 NVB=     9
 Leave Link  801 at Mon Mar 28 14:40:04 2022, MaxMem=  9663676416 cpu:               2.7 elap:               0.1
 (Enter /nopt/nrel/apps/gaussian/g16C_1/g16/l804.exe)
 Open-shell transformation, MDV=  9663676416 ITran=4 ISComp=2.
 Unit  1 TFree=         22650 TCopy=          3972.
 Semi-Direct transformation.
 ModeAB=           2 MOrb=             2 LenV=    9663549592
 LASXX=          158 LTotXX=         158 LenRXX=         158
 LTotAB=         269 MaxLAS=        3078 LenRXY=        3078
 NonZer=        3510 LenScr=      785920 LnRSAI=           0
 LnScr1=           0 LExtra=      223108 Total=      1012264
 MaxDsk= 34359738368 SrtSym=           F ITran=            4
 DoSDTr:  NPSUse= 36
 JobTyp=1 Pass  1:  I=   1 to   2.
 (rs|ai) integrals will be sorted in core.
 Complete sort for first half transformation.
 First half transformation complete.
 Complete sort for second half transformation.
 Second half transformation complete.
 Spin components of T(2) and E(2):
     alpha-alpha T2 =       0.1317001034D-04 E2=     -0.1042354510D-04
     alpha-beta  T2 =       0.0000000000D+00 E2=      0.0000000000D+00
     beta-beta   T2 =       0.0000000000D+00 E2=      0.0000000000D+00
 ANorm=    0.1000006585D+01
 E2 =    -0.1042354510D-04 EUMP2 =    -0.59958604988628D+03
 Leave Link  804 at Mon Mar 28 14:40:04 2022, MaxMem=  9663676416 cpu:               1.9 elap:               0.1
 (Enter /nopt/nrel/apps/gaussian/g16C_1/g16/l913.exe)
 CIDS:  MDV=  9663676416.
 Frozen-core window:  NFC=   9 NFV=   0.
 IFCWin=0 IBDFC=1 NFBD=     0     0 NFCmp=     0     0 NFFFC=     0     0
 Using original routines for 1st iteration.
 Using DD4UQ or CC4UQ for 2nd and later iterations.
 Keep R2 and R3 ints in memory in symmetry-blocked form, NReq=7245707.
 FoFCou: FMM=F IPFlag=           0 FMFlag=           0 FMFlg1=           0
         NFxFlg=           0 DoJE=F BraDBF=F KetDBF=F FulRan=T
         wScrn=  0.000000 ICntrl=       600 IOpCl=  0 I1Cent=           0 NGrid=           0
         NMat0=    1 NMatS0=    171 NMatT0=    0 NMatD0=    1 NMtDS0=    0 NMtDT0=    0
 Petite list used in FoFCou.
 CIDS: In Core Option IDoMem=           1.
 Coupled Cluster theory with single and double substitutions
 ===========================================================
 Iterations= 200 Convergence= 0.100D-06
 Produce multiple copies of IABC intergrals
 Iteration Nr.   1
 **********************
 DD1Dir will call FoFMem   1 times, MxPair=         2
 NAB=     0 NAA=     1 NBB=     0.
 MP4(R+Q)=  0.13727820D-09
 Maximum subspace dimension=  5
 A-vector RMS=  3.7050171D-04 Max=  1.0097552D-03 conv= 1.00D-05.
 RLE energy=       -0.0000163173
 E3=       -0.37650233D-05        EUMP3=      -0.59958605365D+03
 E4(DQ)=   -0.13767310D-05        UMP4(DQ)=   -0.59958605503D+03
 E4(SDQ)=  -0.14227051D-05        UMP4(SDQ)=  -0.59958605507D+03
 VARIATIONAL ENERGIES WITH THE FIRST-ORDER WAVEFUNCTION:
 DE(Corr)= -0.14188478E-04 E(Corr)=     -599.58605365    
 NORM(A)=   0.10000163D+01
 Iteration Nr.   2
 **********************
 DD1Dir will call FoFMem   1 times, MxPair=         2
 NAB=     0 NAA=     1 NBB=     0.
 A-vector RMS=  5.8426808D-05 Max=  8.6870017D-05 conv= 1.00D-05.
 RLE energy=       -0.0000165243
 DE(Corr)= -0.16415587E-04 E(CORR)=     -599.58605588     Delta=-2.23D-06
 NORM(A)=   0.10000169D+01
 Iteration Nr.   3
 **********************
 DD1Dir will call FoFMem   1 times, MxPair=         2
 NAB=     0 NAA=     1 NBB=     0.
 A-vector RMS=  1.5150239D-05 Max=  2.9433273D-05 conv= 1.00D-05.
 RLE energy=       -0.0000165320
 DE(Corr)= -0.16524332E-04 E(CORR)=     -599.58605599     Delta=-1.09D-07
 NORM(A)=   0.10000169D+01
 Iteration Nr.   4
 **********************
 DD1Dir will call FoFMem   1 times, MxPair=         2
 NAB=     0 NAA=     1 NBB=     0.
 A-vector RMS=  2.5043382D-06 Max=  5.2193731D-06 conv= 1.00D-05.
 RLE energy=       -0.0000165322
 DE(Corr)= -0.16532028E-04 E(CORR)=     -599.58605599     Delta=-7.70D-09
 NORM(A)=   0.10000169D+01
 CI/CC converged in    4 iterations to DelEn=-7.70D-09 Conv= 1.00D-07 ErrA1= 2.50D-06 Conv= 1.00D-05
 Wavefunction amplitudes converged. E(Corr)=     -599.58605599    
 Largest amplitude= 4.33D-03
 Discarding MO integrals.
 Leave Link  913 at Mon Mar 28 14:40:04 2022, MaxMem=  9663676416 cpu:               4.3 elap:               0.2
 (Enter /nopt/nrel/apps/gaussian/g16C_1/g16/l601.exe)
 Copying SCF densities to generalized density rwf, IOpCl= 1 IROHF=0.

 **********************************************************************

            Population analysis using the SCF Density.

 **********************************************************************

 Orbital symmetries:
 Alpha Orbitals:
       Occupied  (SG) (SG) (SG) (PI) (PI) (SG) (SG) (PI) (PI) (SG)
                 (SG)
       Virtual   (PI) (PI) (SG) (SG) (PI) (PI) (SG)
 Beta  Orbitals:
       Occupied  (SG) (SG) (PI) (PI) (SG) (SG) (PI) (PI) (SG)
       Virtual   (SG) (PI) (PI) (SG) (SG) (SG) (PI) (PI) (SG)
 The electronic state is 3-SG.
 Alpha  occ. eigenvalues -- -133.51561 -14.48861 -11.51754 -11.51751 -11.51751
 Alpha  occ. eigenvalues --   -1.74997  -0.95433  -0.95417  -0.95417  -0.50284
 Alpha  occ. eigenvalues --   -0.14096
 Alpha virt. eigenvalues --    0.01585   0.01585   0.04268   0.07266   0.10240
 Alpha virt. eigenvalues --    0.10240   0.10993
  Beta  occ. eigenvalues -- -133.51465 -14.48686 -11.51695 -11.51695 -11.51688
  Beta  occ. eigenvalues --   -1.74489  -0.95194  -0.95194  -0.95168
  Beta virt. eigenvalues --    0.00097   0.03336   0.03336   0.03540   0.09655
  Beta virt. eigenvalues --    0.12636   0.12701   0.12701   0.32020
          Condensed to atoms (all electrons):
               1          2
     1  H    0.920478   0.028113
     2  K    0.028113  19.023296
          Atomic-Atomic Spin Densities.
               1          2
     1  H    0.920477   0.028103
     2  K    0.028103   1.023318
 Mulliken charges and spin densities:
               1          2
     1  H    0.051409   0.948580
     2  K   -0.051409   1.051420
 Sum of Mulliken charges =   0.00000   2.00000
 Mulliken charges and spin densities with hydrogens summed into heavy atoms:
               1          2
     2  K    0.000000   2.000000
 N-N= 2.872676287851D+00 E-N=-1.429754546772D+03  KE= 5.998030639660D+02
 Symmetry A1   KE= 4.745771592348D+02
 Symmetry A2   KE= 0.000000000000D+00
 Symmetry B1   KE= 6.261295236561D+01
 Symmetry B2   KE= 6.261295236561D+01
 Symmetry A1   SP= 2.000000000000D+00
 Symmetry A2   SP= 0.000000000000D+00
 Symmetry B1   SP= 1.921673896521D-15
 Symmetry B2   SP=-7.149973667467D-16

 Atomic contributions to Alpha molecular orbitals:
 Alpha occ 1 OE=-133.516 is K2-s=1.0000
 Alpha occ 2 OE=-14.489 is K2-s=1.0000
 Alpha occ 3 OE=-11.518 is K2-p=1.0000
 Alpha occ 4 OE=-11.518 is K2-p=1.0000
 Alpha occ 5 OE=-11.518 is K2-p=1.0000
 Alpha occ 6 OE=-1.750 is K2-s=0.9999
 Alpha occ 7 OE=-0.954 is K2-p=0.9999
 Alpha occ 8 OE=-0.954 is K2-p=1.0000
 Alpha occ 9 OE=-0.954 is K2-p=1.0000
 Alpha occ 10 OE=-0.503 is H1-s=0.9402
 Alpha occ 11 OE=-0.141 is K2-s=0.9381
 Alpha vir 12 OE=0.016 is K2-p=1.0000
 Alpha vir 13 OE=0.016 is K2-p=1.0000
 Alpha vir 14 OE=0.043 is K2-p=0.9289
 Alpha vir 15 OE=0.073 is K2-s=0.9564
 Alpha vir 16 OE=0.102 is K2-p=1.0000
 Alpha vir 17 OE=0.102 is K2-p=1.0000
 Alpha vir 18 OE=0.110 is K2-p=0.9346

 Atomic contributions to Beta  molecular orbitals:
 Beta  occ 1 OE=-133.515 is K2-s=1.0000
 Beta  occ 2 OE=-14.487 is K2-s=1.0000
 Beta  occ 3 OE=-11.517 is K2-p=1.0000
 Beta  occ 4 OE=-11.517 is K2-p=1.0000
 Beta  occ 5 OE=-11.517 is K2-p=1.0000
 Beta  occ 6 OE=-1.745 is K2-s=0.9999
 Beta  occ 7 OE=-0.952 is K2-p=1.0000
 Beta  occ 8 OE=-0.952 is K2-p=1.0000
 Beta  occ 9 OE=-0.952 is K2-p=0.9999
 Beta  vir 10 OE=0.001 is K2-s=0.7240 K2-p=0.2307
 Beta  vir 11 OE=0.033 is K2-p=1.0000
 Beta  vir 12 OE=0.033 is K2-p=1.0000
 Beta  vir 13 OE=0.035 is K2-p=0.7400 K2-s=0.2492
 Beta  vir 14 OE=0.097 is K2-s=0.8172 K2-p=0.1724
 Beta  vir 15 OE=0.126 is K2-p=0.7671 K2-s=0.1980
 Beta  vir 16 OE=0.127 is K2-p=1.0000
 Beta  vir 17 OE=0.127 is K2-p=1.0000
 Beta  vir 18 OE=0.320 is H1-s=0.8986
 
 Leave Link  601 at Mon Mar 28 14:40:04 2022, MaxMem=  9663676416 cpu:               1.8 elap:               0.1
 (Enter /nopt/nrel/apps/gaussian/g16C_1/g16/l9999.exe)

 Test job not archived.
 1\1\GINC-R102U34\SP\UCCSD-FC\Gen\H1K1(3)\USER\28-Mar-2022\0\\#P CC
 SD(MaxCyc=200,SaveAmplitudes,ReadAmplitudes)/GEN sp pop=AllOrbitals io
 p(3/33=1,3/36=-1)\\test\\0,3\H,0,0.,0.,0.\K,0,0.,0.,3.5\\Version=ES64L
 -G16RevC.01\State=3-SG\HF=-599.5860395\MP2=-599.5860499\MP3=-599.58605
 37\MP4D=-599.586055\MP4DQ=-599.586055\MP4SDQ=-599.5860551\CCSD=-599.58
 6056\S2=2.000138\S2-1=0.\S2A=2.\RMSD=2.252e-09\PG=C*V [C*(H1K1)]\\@


 QUANTUM MECHANICS IS BOHRING -- M.S. GORDON
 Job cpu time:       0 days  0 hours  0 minutes 32.3 seconds.
 Elapsed time:       0 days  0 hours  0 minutes  1.3 seconds.
 File lengths (MBytes):  RWF=     13 Int=      0 D2E=      0 Chk=      1 Scr=      1
 Normal termination of Gaussian 16 at Mon Mar 28 14:40:04 2022.
