 Entering Gaussian System, Link 0=g16
 Initial command:
 /nopt/nrel/apps/gaussian/g16C_1/g16/l1.exe "/lustre/eaglefs/scratch/user/qc/nah-dissc/nah-1-ccsd-3.4-sto3g/Gau-29124.inp" -scrdir="/lustre/eaglefs/scratch/user/qc/nah-dissc/nah-1-ccsd-3.4-sto3g/"
 Default is to use a total of  36 processors:
                               36 via shared-memory
                                1 via Linda
 Entering Link 1 = /nopt/nrel/apps/gaussian/g16C_1/g16/l1.exe PID=     29125.
  
 Copyright (c) 1988-2019, Gaussian, Inc.  All Rights Reserved.
  
 This is part of the Gaussian(R) 16 program.  It is based on
 the Gaussian(R) 09 system (copyright 2009, Gaussian, Inc.),
 the Gaussian(R) 03 system (copyright 2003, Gaussian, Inc.),
 the Gaussian(R) 98 system (copyright 1998, Gaussian, Inc.),
 the Gaussian(R) 94 system (copyright 1995, Gaussian, Inc.),
 the Gaussian 92(TM) system (copyright 1992, Gaussian, Inc.),
 the Gaussian 90(TM) system (copyright 1990, Gaussian, Inc.),
 the Gaussian 88(TM) system (copyright 1988, Gaussian, Inc.),
 the Gaussian 86(TM) system (copyright 1986, Carnegie Mellon
 University), and the Gaussian 82(TM) system (copyright 1983,
 Carnegie Mellon University). Gaussian is a federally registered
 trademark of Gaussian, Inc.
  
 This software contains proprietary and confidential information,
 including trade secrets, belonging to Gaussian, Inc.
  
 This software is provided under written license and may be
 used, copied, transmitted, or stored only in accord with that
 written license.
  
 The following legend is applicable only to US Government
 contracts under FAR:
  
                    RESTRICTED RIGHTS LEGEND
  
 Use, reproduction and disclosure by the US Government is
 subject to restrictions as set forth in subparagraphs (a)
 and (c) of the Commercial Computer Software - Restricted
 Rights clause in FAR 52.227-19.
  
 Gaussian, Inc.
 340 Quinnipiac St., Bldg. 40, Wallingford CT 06492
  
  
 ---------------------------------------------------------------
 Warning -- This program may not be used in any manner that
 competes with the business of Gaussian, Inc. or will provide
 assistance to any competitor of Gaussian, Inc.  The licensee
 of this program is prohibited from giving any competitor of
 Gaussian, Inc. access to this program.  By using this program,
 the user acknowledges that Gaussian, Inc. is engaged in the
 business of creating and licensing software in the field of
 computational chemistry and represents and warrants to the
 licensee that it is not a competitor of Gaussian, Inc. and that
 it will not use this program in any manner prohibited above.
 ---------------------------------------------------------------
  

 Cite this work as:
 Gaussian 16, Revision C.01,
 M. J. Frisch, G. W. Trucks, H. B. Schlegel, G. E. Scuseria, 
 M. A. Robb, J. R. Cheeseman, G. Scalmani, V. Barone, 
 G. A. Petersson, H. Nakatsuji, X. Li, M. Caricato, A. V. Marenich, 
 J. Bloino, B. G. Janesko, R. Gomperts, B. Mennucci, H. P. Hratchian, 
 J. V. Ortiz, A. F. Izmaylov, J. L. Sonnenberg, D. Williams-Young, 
 F. Ding, F. Lipparini, F. Egidi, J. Goings, B. Peng, A. Petrone, 
 T. Henderson, D. Ranasinghe, V. G. Zakrzewski, J. Gao, N. Rega, 
 G. Zheng, W. Liang, M. Hada, M. Ehara, K. Toyota, R. Fukuda, 
 J. Hasegawa, M. Ishida, T. Nakajima, Y. Honda, O. Kitao, H. Nakai, 
 T. Vreven, K. Throssell, J. A. Montgomery, Jr., J. E. Peralta, 
 F. Ogliaro, M. J. Bearpark, J. J. Heyd, E. N. Brothers, K. N. Kudin, 
 V. N. Staroverov, T. A. Keith, R. Kobayashi, J. Normand, 
 K. Raghavachari, A. P. Rendell, J. C. Burant, S. S. Iyengar, 
 J. Tomasi, M. Cossi, J. M. Millam, M. Klene, C. Adamo, R. Cammi, 
 J. W. Ochterski, R. L. Martin, K. Morokuma, O. Farkas, 
 J. B. Foresman, and D. J. Fox, Gaussian, Inc., Wallingford CT, 2019.
 
 ******************************************
 Gaussian 16:  ES64L-G16RevC.01  3-Jul-2019
                28-Mar-2022 
 ******************************************
 %chk=molecule
 Default route: CacheSize=180224 MaxDisk=256GB
 ----------------------------------------------------------------------
 #P CCSD(MaxCyc=200,SaveAmplitudes,ReadAmplitudes)/GEN sp pop=AllOrbita
 ls iop(3/33=1,3/36=-1)
 ----------------------------------------------------------------------
 1/4=180224,38=1,172=1/1;
 2/4=180224,12=2,17=6,18=5,40=1/2;
 3/4=180224,5=7,11=9,25=1,30=1,33=1,36=-1/1,2,3;
 4/4=180224/1;
 5/4=180224,5=2,38=5/2;
 8/4=180224,6=4,9=120000,10=1,24=1/1,4;
 9/4=180224,5=7,6=200,77=1/13;
 6/4=180224,7=2,8=2,9=2,10=2,96=-1/1;
 99/4=180224,5=1,9=1/99;
 Leave Link    1 at Mon Mar 28 14:18:58 2022, MaxMem=           0 cpu:               2.3 elap:               0.1
 (Enter /nopt/nrel/apps/gaussian/g16C_1/g16/l101.exe)
 ----
 test
 ----
 Symbolic Z-matrix:
 Charge =  0 Multiplicity = 1
 H                     0.        0.        0. 
 Na                    0.        0.        3.4 
 
 ITRead=  0  0
 MicOpt= -1 -1
 NAtoms=      2 NQM=        2 NQMF=       0 NMMI=      0 NMMIF=      0
                NMic=       0 NMicF=      0.
                    Isotopes and Nuclear Properties:
 (Nuclear quadrupole moments (NQMom) in fm**2, nuclear magnetic moments (NMagM)
  in nuclear magnetons)

  Atom         1           2
 IAtWgt=           1          23
 AtmWgt=   1.0078250  22.9897697
 NucSpn=           1           3
 AtZEff=  -0.0000000  -0.0000000
 NQMom=    0.0000000  10.4000000
 NMagM=    2.7928460   2.2175200
 AtZNuc=   1.0000000  11.0000000
 Leave Link  101 at Mon Mar 28 14:18:58 2022, MaxMem=  9663676416 cpu:               3.2 elap:               0.1
 (Enter /nopt/nrel/apps/gaussian/g16C_1/g16/l202.exe)
                          Input orientation:                          
 ---------------------------------------------------------------------
 Center     Atomic      Atomic             Coordinates (Angstroms)
 Number     Number       Type             X           Y           Z
 ---------------------------------------------------------------------
      1          1           0        0.000000    0.000000    0.000000
      2         11           0        0.000000    0.000000    3.400000
 ---------------------------------------------------------------------
 Stoichiometry    HNa
 Framework group  C*V[C*(HNa)]
 Deg. of freedom     1
 Full point group                 C*V     NOp   4
 Largest Abelian subgroup         C2V     NOp   4
 Largest concise Abelian subgroup C1      NOp   1
                         Standard orientation:                         
 ---------------------------------------------------------------------
 Center     Atomic      Atomic             Coordinates (Angstroms)
 Number     Number       Type             X           Y           Z
 ---------------------------------------------------------------------
      1          1           0        0.000000    0.000000   -3.116667
      2         11           0        0.000000    0.000000    0.283333
 ---------------------------------------------------------------------
 Rotational constants (GHZ):           0.0000000          45.2800937          45.2800937
 Leave Link  202 at Mon Mar 28 14:18:58 2022, MaxMem=  9663676416 cpu:               1.0 elap:               0.1
 (Enter /nopt/nrel/apps/gaussian/g16C_1/g16/l301.exe)
 General basis read from cards:  (5D, 7F)
                         Coordinates in L301:                         
 ---------------------------------------------------------------------
 Center     Atomic      Atomic             Coordinates (Angstroms)
 Number     Number       Type             X           Y           Z
 ---------------------------------------------------------------------
      1          1           0        0.000000    0.000000   -3.116667
      2         11           0        0.000000    0.000000    0.283333
 ---------------------------------------------------------------------
 Centers:       1
 STO-3G
 ****
 Centers:       2
 STO-3G
 ****
 FixB: optimizing general contractions.
 Ernie: Thresh=  0.10000D-02 Tol=  0.10000D-05 Strict=F.
 IA=     1 ShT= 0 ShC= 0 NL=   1 NS=   0.
 IA=     1 L=0 SC=0 ISt=    0 NBk=    0 NP=    0 IndPr=    0.
 IA=     2 ShT= 0 ShC= 0 NL=   1 NS=   0.
 IA=     2 L=0 SC=0 ISt=    0 NBk=    0 NP=    0 IndPr=    0.
 IA=     2 ShT= 1 ShC= 0 NL=   2 NS=   0.
 IA=     2 L=1 SC=0 ISt=    1 NBk=    2 NP=    6 IndPr=    0.
 DoElim1:  L=1 select primitive    1 from    2 using    1 C=-1.00D-01
 DoElim2:  L=1 select primitive    6 from    1 using    2 C= 9.00D-01
 DoElim1:  L=1 select primitive    1 from    2 using    1 C= 1.56D-01
 DoElim2:  L=1 select primitive    5 from    1 using    2 C= 5.95D-01
 Delete L=1 primitive    4 from    2 C=  0.00D+00.
 Delete L=1 primitive    2 from    2 C=  0.00D+00.
 Delete L=1 primitive    1 from    2 C=  0.00D+00.
 Delete L=1 primitive    6 from    1 C=  0.00D+00.
 Delete L=1 primitive    5 from    1 C=  0.00D+00.
 Delete L=1 primitive    3 from    1 C=  0.00D+00.
 IA=     2 L=1 SC=0 ISt=    0 NBk=    0 NP=    0 IndPr=    6.
 LdAtmC:  AtmChg=     1.000000    11.000000
 AtZEff=     -1.0000000    -10.0400000
 NEqShl: 
              1            2            3            4
     1            1            1            1            1
     2            2            2            2            2
     3            3            3            3            3
     4            4            4            4            4
 NEqBas: 
              1            2            3            4
     1            1            1            1            1
     2            2            2            2            2
     3            3            3            3            3
     4            4           -4           -4            4
     5            5           -5            5           -5
     6            6            6            6            6
     7            7            7            7            7
     8            8           -8           -8            8
     9            9           -9            9           -9
    10           10           10           10           10
 There are     6 symmetry adapted cartesian basis functions of A1  symmetry.
   1         1   1   1   1
   2         2   2   2   2
   3         3   3   3   3
   4         6   6   6   6
   5         7   7   7   7
   6        10  10  10  10
 There are     0 symmetry adapted cartesian basis functions of A2  symmetry.
 There are     2 symmetry adapted cartesian basis functions of B1  symmetry.
   7         4   4   4   4
   8         8   8   8   8
 There are     2 symmetry adapted cartesian basis functions of B2  symmetry.
   9         5   5   5   5
  10         9   9   9   9
 Order= 1 2 4 3
 Reordered character table:
              1            2            3            4            5
     1            1            1            1            1            1
     2            2            1            1           -1           -1
     3            4            1           -1           -1            1
     4            3            1           -1            1           -1
 NEqShl: 
              1            2            3            4
     1            1            1            1            1
     2            2            2            2            2
     3            3            3            3            3
     4            4            4            4            4
 NEqBas: 
              1            2            3            4
     1            1            1            1            1
     2            2            2            2            2
     3            3            3            3            3
     4            4           -4           -4            4
     5            5           -5            5           -5
     6            6            6            6            6
     7            7            7            7            7
     8            8           -8           -8            8
     9            9           -9            9           -9
    10           10           10           10           10
 There are     6 symmetry adapted basis functions of A1  symmetry.
   1         1   1   1   1
   2         2   2   2   2
   3         3   3   3   3
   4         6   6   6   6
   5         7   7   7   7
   6        10  10  10  10
 There are     0 symmetry adapted basis functions of A2  symmetry.
 There are     2 symmetry adapted basis functions of B1  symmetry.
   7         4   4   4   4
   8         8   8   8   8
 There are     2 symmetry adapted basis functions of B2  symmetry.
   9         5   5   5   5
  10         9   9   9   9
 Order= 1 2 4 3
 Reordered character table:
              1            2            3            4            5
     1            1            1            1            1            1
     2            2            1            1           -1           -1
     3            4            1           -1           -1            1
     4            3            1           -1            1           -1
    10 basis functions,    30 primitive gaussians,    10 cartesian basis functions
     6 alpha electrons        6 beta electrons
       nuclear repulsion energy         1.7120439177 Hartrees.
 IS=     1 IAt=     1 ISR=     1 T=0 IP=      1 IndIP=      1 IndIPD=      0 C=  2.769344D-01  0.000000D+00                             NZ=T
 IS=     1 IAt=     1 ISR=     1 T=0 IP=      2 IndIP=      2 IndIPD=      1 C=  2.678389D-01  0.000000D+00                             NZ=T
 IS=     1 IAt=     1 ISR=     1 T=0 IP=      3 IndIP=      3 IndIPD=      2 C=  8.347367D-02  0.000000D+00                             NZ=T
 IS=     2 IAt=     2 ISR=     1 T=0 IP=      1 IndIP=      4 IndIPD=      0 C=  6.931343D+00  0.000000D+00                             NZ=T
 IS=     2 IAt=     2 ISR=     1 T=0 IP=      2 IndIP=      5 IndIPD=      1 C=  6.703693D+00  0.000000D+00                             NZ=T
 IS=     2 IAt=     2 ISR=     1 T=0 IP=      3 IndIP=      6 IndIPD=      2 C=  2.089248D+00  0.000000D+00                             NZ=T
 IS=     3 IAt=     2 ISR=     2 T=1 IP=      1 IndIP=      7 IndIPD=      0 C= -4.605140D-01  4.984520D+00                             NZ=T
 IS=     3 IAt=     2 ISR=     2 T=1 IP=      2 IndIP=      8 IndIPD=      1 C=  6.159747D-01  3.134400D+00                             NZ=T
 IS=     3 IAt=     2 ISR=     2 T=1 IP=      3 IndIP=      9 IndIPD=      2 C=  4.648853D-01  4.965416D-01                             NZ=T
 IS=     4 IAt=     2 ISR=     3 T=1 IP=      1 IndIP=     10 IndIPD=      0 C= -2.098948D-01  2.460950D-02                             NZ=T
 IS=     4 IAt=     2 ISR=     3 T=1 IP=      2 IndIP=     11 IndIPD=      1 C=  8.276745D-02  2.805074D-01                             NZ=T
 IS=     4 IAt=     2 ISR=     3 T=1 IP=      3 IndIP=     12 IndIPD=      2 C=  1.634647D-01  6.740855D-02                             NZ=T
 IExCor=    0 DFT=F Ex=HF Corr=None ExCW=0 ScaHFX=  1.000000
 ScaDFX=  1.000000  1.000000  1.000000  1.000000 ScalE2=  1.000000  1.000000
 IRadAn=      5 IRanWt=     -1 IRanGd=            0 ICorTp=0 IEmpDi=  4
 NAtoms=    2 NActive=    2 NUniq=    2 SFac= 1.00D+00 NAtFMM=   60 NAOKFM=F Big=F
 Integral buffers will be    131072 words long.
 Raffenetti 1 integral format.
 Two-electron integral symmetry is turned on.
 Leave Link  301 at Mon Mar 28 14:18:59 2022, MaxMem=  9663676416 cpu:               2.0 elap:               0.1
 (Enter /nopt/nrel/apps/gaussian/g16C_1/g16/l302.exe)
 NPDir=0 NMtPBC=     1 NCelOv=     1 NCel=       1 NClECP=     1 NCelD=      1
         NCelK=      1 NCelE2=     1 NClLst=     1 CellRange=     0.0.
 One-electron integrals computed using PRISM.
 One-electron integral symmetry used in STVInt
 Entering OneElI...
 Calculate overlap and kinetic energy integrals
    NBasis =  10  MinDer = 0  MaxDer = 0
 Requested accuracy = 0.1000D-12
 Symmetry will be used
 PrmmSu-InSpLW:  IPartL=    0 NPrtUS=   36 NPrtUL=    1 DoSpLW=F IThBeg=    0 IThEnd=   35 NThAct=   36.
 PrSmSu:  IncTry=   512 NBBP=             10 NTPThr=   100 NPartT=   36 Incr=           1 LDynOK=F GPUOK=F.
 PrsmSu:  NPrtUS=  36 ThrOK=T IAlg=1 LenDen=           0 ISkipM=0 DoSpLW=F IThBeg=    0 IThEnd=   35.
 Prism:   IPart=     0 DynPar=F LinDyn=F Incr=           1.
 PRISM was handed   268433954 working-precision words and    10 shell-pairs
 PRISM was handed   268433954 working-precision words and    10 shell-pairs
 PRISM was handed   268433954 working-precision words and    10 shell-pairs
 PRISM was handed   268433954 working-precision words and    10 shell-pairs
 PRISM was handed   268433954 working-precision words and    10 shell-pairs
 PRISM was handed   268433954 working-precision words and    10 shell-pairs
 PRISM was handed   268433954 working-precision words and    10 shell-pairs
 PRISM was handed   268433954 working-precision words and    10 shell-pairs
 PRISM was handed   268433954 working-precision words and    10 shell-pairs
 PRISM was handed   268433954 working-precision words and    10 shell-pairs
 PRISM was handed   268433954 working-precision words and    10 shell-pairs
 IPart= 15 NShTot=           0 NBatch=           0 AvBLen=         0.0
 PRISM was handed   268433954 working-precision words and    10 shell-pairs
 IPart= 32 NShTot=           0 NBatch=           0 AvBLen=         0.0
 IPart= 29 NShTot=           0 NBatch=           0 AvBLen=         0.0
 IPart=  8 NShTot=           0 NBatch=           0 AvBLen=         0.0
 IPart= 33 NShTot=           0 NBatch=           0 AvBLen=         0.0
 IPart= 25 NShTot=           0 NBatch=           0 AvBLen=         0.0
 IPart= 20 NShTot=           0 NBatch=           0 AvBLen=         0.0
 IPart=  9 NShTot=           0 NBatch=           0 AvBLen=         0.0
 IPart= 10 NShTot=           0 NBatch=           0 AvBLen=         0.0
 IPart= 22 NShTot=           0 NBatch=           0 AvBLen=         0.0
 PRISM was handed   268433954 working-precision words and    10 shell-pairs
 IPart= 30 NShTot=           0 NBatch=           0 AvBLen=         0.0
 PRISM was handed   268433954 working-precision words and    10 shell-pairs
 PRISM was handed   268433954 working-precision words and    10 shell-pairs
 IPart=  3 NShTot=           0 NBatch=           0 AvBLen=         0.0
 PRISM was handed   268433954 working-precision words and    10 shell-pairs
 PRISM was handed   268433954 working-precision words and    10 shell-pairs
 IPart= 21 NShTot=           0 NBatch=           0 AvBLen=         0.0
 IPart=  1 NShTot=           3 NBatch=           3 AvBLen=         1.0
 IPart= 13 NShTot=           0 NBatch=           0 AvBLen=         0.0
 IPart= 11 NShTot=           0 NBatch=           0 AvBLen=         0.0
 PRISM was handed   268433954 working-precision words and    10 shell-pairs
 PRISM was handed   268433954 working-precision words and    10 shell-pairs
 PRISM was handed   268433954 working-precision words and    10 shell-pairs
 PRISM was handed   268433954 working-precision words and    10 shell-pairs
 IPart= 24 NShTot=           0 NBatch=           0 AvBLen=         0.0
 PRISM was handed   268433954 working-precision words and    10 shell-pairs
 IPart= 18 NShTot=           0 NBatch=           0 AvBLen=         0.0
 IPart= 27 NShTot=           0 NBatch=           0 AvBLen=         0.0
 PRISM was handed   268433954 working-precision words and    10 shell-pairs
 PRISM was handed   268433954 working-precision words and    10 shell-pairs
 PRISM was handed   268433954 working-precision words and    10 shell-pairs
 IPart= 31 NShTot=           0 NBatch=           0 AvBLen=         0.0
 PRISM was handed   268433954 working-precision words and    10 shell-pairs
 IPart=  5 NShTot=           0 NBatch=           0 AvBLen=         0.0
 IPart= 14 NShTot=           0 NBatch=           0 AvBLen=         0.0
 IPart= 34 NShTot=           0 NBatch=           0 AvBLen=         0.0
 IPart= 12 NShTot=           0 NBatch=           0 AvBLen=         0.0
 IPart=  0 NShTot=           5 NBatch=           5 AvBLen=         1.0
 PRISM was handed   268433954 working-precision words and    10 shell-pairs
 PRISM was handed   268433954 working-precision words and    10 shell-pairs
 IPart=  6 NShTot=           0 NBatch=           0 AvBLen=         0.0
 PRISM was handed   268433954 working-precision words and    10 shell-pairs
 PRISM was handed   268433954 working-precision words and    10 shell-pairs
 PRISM was handed   268433954 working-precision words and    10 shell-pairs
 PRISM was handed   268433954 working-precision words and    10 shell-pairs
 IPart= 17 NShTot=           0 NBatch=           0 AvBLen=         0.0
 PRISM was handed   268433954 working-precision words and    10 shell-pairs
 PRISM was handed   268433954 working-precision words and    10 shell-pairs
 PRISM was handed   268433954 working-precision words and    10 shell-pairs
 PRISM was handed   268433954 working-precision words and    10 shell-pairs
 IPart=  7 NShTot=           0 NBatch=           0 AvBLen=         0.0
 IPart=  4 NShTot=           0 NBatch=           0 AvBLen=         0.0
 IPart= 16 NShTot=           0 NBatch=           0 AvBLen=         0.0
 IPart= 26 NShTot=           0 NBatch=           0 AvBLen=         0.0
 IPart= 28 NShTot=           0 NBatch=           0 AvBLen=         0.0
 IPart= 23 NShTot=           0 NBatch=           0 AvBLen=         0.0
 IPart= 35 NShTot=           0 NBatch=           0 AvBLen=         0.0
 IPart= 19 NShTot=           0 NBatch=           0 AvBLen=         0.0
 IPart=  2 NShTot=           2 NBatch=           2 AvBLen=         1.0
 PrSmSu:  NxtVal=             37.
 *** Overlap *** 
                1             2             3             4             5 
      1  0.100000D+01
      2  0.330180D-04  0.100000D+01
      3  0.612318D-03  0.278512D+00  0.100000D+01
      4  0.000000D+00  0.000000D+00  0.000000D+00  0.100000D+01
      5  0.000000D+00  0.000000D+00  0.000000D+00  0.000000D+00  0.100000D+01
      6 -0.729968D-03  0.000000D+00  0.000000D+00  0.000000D+00  0.000000D+00
      7  0.156098D-01  0.222827D-01  0.449490D+00  0.000000D+00  0.000000D+00
      8  0.000000D+00  0.000000D+00  0.000000D+00  0.461768D+00  0.000000D+00
      9  0.000000D+00  0.000000D+00  0.000000D+00  0.000000D+00  0.461768D+00
     10 -0.257760D-01  0.000000D+00  0.000000D+00  0.000000D+00  0.000000D+00
                6             7             8             9            10 
      6  0.100000D+01
      7  0.000000D+00  0.100000D+01
      8  0.000000D+00  0.000000D+00  0.100000D+01
      9  0.000000D+00  0.000000D+00  0.000000D+00  0.100000D+01
     10  0.461768D+00  0.000000D+00  0.000000D+00  0.000000D+00  0.100000D+01
 *** Kinetic Energy *** 
                1             2             3             4             5 
      1  0.760032D+00
      2 -0.595799D-04  0.556441D+02
      3 -0.790656D-03 -0.216342D+00  0.193319D+01
      4  0.000000D+00  0.000000D+00  0.000000D+00  0.604917D+01
      5  0.000000D+00  0.000000D+00  0.000000D+00  0.000000D+00  0.604917D+01
      6  0.755948D-03  0.000000D+00  0.000000D+00  0.000000D+00  0.000000D+00
      7 -0.638033D-02 -0.231638D+00 -0.720563D-01  0.000000D+00  0.000000D+00
      8  0.000000D+00  0.000000D+00  0.000000D+00  0.652802D+00  0.000000D+00
      9  0.000000D+00  0.000000D+00  0.000000D+00  0.000000D+00  0.652802D+00
     10  0.803753D-02  0.000000D+00  0.000000D+00  0.000000D+00  0.000000D+00
                6             7             8             9            10 
      6  0.604917D+01
      7  0.000000D+00  0.304040D+00
      8  0.000000D+00  0.000000D+00  0.711196D+00
      9  0.000000D+00  0.000000D+00  0.000000D+00  0.711196D+00
     10  0.652802D+00  0.000000D+00  0.000000D+00  0.000000D+00  0.711196D+00
 Entering OneElI...
 Calculate potential energy integrals
    NBasis =  10  MinDer = 0  MaxDer = 0
 Requested accuracy = 0.1000D-12
 Symmetry will be used
 PrmmSu-InSpLW:  IPartL=    0 NPrtUS=   36 NPrtUL=    1 DoSpLW=F IThBeg=    0 IThEnd=   35 NThAct=   36.
 PrSmSu:  IncTry=   512 NBBP=             20 NTPThr=   100 NPartT=   36 Incr=           1 LDynOK=F GPUOK=F.
 PrsmSu:  NPrtUS=  36 ThrOK=T IAlg=1 LenDen=           0 ISkipM=0 DoSpLW=F IThBeg=    0 IThEnd=   35.
 Prism:   IPart=     0 DynPar=F LinDyn=F Incr=           1.
 PRISM was handed   268434005 working-precision words and    10 shell-pairs
 PRISM was handed   268434005 working-precision words and    10 shell-pairs
 PRISM was handed   268434005 working-precision words and    10 shell-pairs
 PRISM was handed   268434005 working-precision words and    10 shell-pairs
 PRISM was handed   268434005 working-precision words and    10 shell-pairs
 PRISM was handed   268434005 working-precision words and    10 shell-pairs
 PRISM was handed   268434005 working-precision words and    10 shell-pairs
 PRISM was handed   268434005 working-precision words and    10 shell-pairs
 PRISM was handed   268434005 working-precision words and    10 shell-pairs
 PRISM was handed   268434005 working-precision words and    10 shell-pairs
 PRISM was handed   268434005 working-precision words and    10 shell-pairs
 PRISM was handed   268434005 working-precision words and    10 shell-pairs
 PRISM was handed   268434005 working-precision words and    10 shell-pairs
 PRISM was handed   268434005 working-precision words and    10 shell-pairs
 PRISM was handed   268434005 working-precision words and    10 shell-pairs
 PRISM was handed   268434005 working-precision words and    10 shell-pairs
 PRISM was handed   268434005 working-precision words and    10 shell-pairs
 PRISM was handed   268434005 working-precision words and    10 shell-pairs
 PRISM was handed   268434005 working-precision words and    10 shell-pairs
 PRISM was handed   268434005 working-precision words and    10 shell-pairs
 PRISM was handed   268434005 working-precision words and    10 shell-pairs
 PRISM was handed   268434005 working-precision words and    10 shell-pairs
 PRISM was handed   268434005 working-precision words and    10 shell-pairs
 PRISM was handed   268434005 working-precision words and    10 shell-pairs
 PRISM was handed   268434005 working-precision words and    10 shell-pairs
 PRISM was handed   268434005 working-precision words and    10 shell-pairs
 PRISM was handed   268434005 working-precision words and    10 shell-pairs
 PRISM was handed   268434005 working-precision words and    10 shell-pairs
 PRISM was handed   268434005 working-precision words and    10 shell-pairs
 PRISM was handed   268434005 working-precision words and    10 shell-pairs
 PRISM was handed   268434005 working-precision words and    10 shell-pairs
 PRISM was handed   268434005 working-precision words and    10 shell-pairs
 PRISM was handed   268434005 working-precision words and    10 shell-pairs
 PRISM was handed   268434005 working-precision words and    10 shell-pairs
 PRISM was handed   268434005 working-precision words and    10 shell-pairs
 PRISM was handed   268434005 working-precision words and    10 shell-pairs
 IPart=  2 NShTot=           2 NBatch=           1 AvBLen=         2.0
 IPart=  1 NShTot=           6 NBatch=           3 AvBLen=         2.0
 IPart=  0 NShTot=          12 NBatch=           6 AvBLen=         2.0
 IPart= 14 NShTot=           0 NBatch=           0 AvBLen=         0.0
 IPart= 21 NShTot=           0 NBatch=           0 AvBLen=         0.0
 IPart=  7 NShTot=           0 NBatch=           0 AvBLen=         0.0
 IPart= 34 NShTot=           0 NBatch=           0 AvBLen=         0.0
 IPart= 20 NShTot=           0 NBatch=           0 AvBLen=         0.0
 IPart= 11 NShTot=           0 NBatch=           0 AvBLen=         0.0
 IPart= 23 NShTot=           0 NBatch=           0 AvBLen=         0.0
 IPart= 35 NShTot=           0 NBatch=           0 AvBLen=         0.0
 IPart= 22 NShTot=           0 NBatch=           0 AvBLen=         0.0
 IPart= 28 NShTot=           0 NBatch=           0 AvBLen=         0.0
 IPart= 15 NShTot=           0 NBatch=           0 AvBLen=         0.0
 IPart= 18 NShTot=           0 NBatch=           0 AvBLen=         0.0
 IPart= 10 NShTot=           0 NBatch=           0 AvBLen=         0.0
 IPart=  9 NShTot=           0 NBatch=           0 AvBLen=         0.0
 IPart=  3 NShTot=           0 NBatch=           0 AvBLen=         0.0
 IPart=  6 NShTot=           0 NBatch=           0 AvBLen=         0.0
 IPart= 32 NShTot=           0 NBatch=           0 AvBLen=         0.0
 IPart= 26 NShTot=           0 NBatch=           0 AvBLen=         0.0
 IPart=  8 NShTot=           0 NBatch=           0 AvBLen=         0.0
 IPart=  5 NShTot=           0 NBatch=           0 AvBLen=         0.0
 IPart= 17 NShTot=           0 NBatch=           0 AvBLen=         0.0
 IPart= 27 NShTot=           0 NBatch=           0 AvBLen=         0.0
 IPart= 31 NShTot=           0 NBatch=           0 AvBLen=         0.0
 IPart= 19 NShTot=           0 NBatch=           0 AvBLen=         0.0
 IPart= 16 NShTot=           0 NBatch=           0 AvBLen=         0.0
 IPart= 24 NShTot=           0 NBatch=           0 AvBLen=         0.0
 IPart= 12 NShTot=           0 NBatch=           0 AvBLen=         0.0
 IPart= 29 NShTot=           0 NBatch=           0 AvBLen=         0.0
 IPart=  4 NShTot=           0 NBatch=           0 AvBLen=         0.0
 IPart= 30 NShTot=           0 NBatch=           0 AvBLen=         0.0
 IPart= 33 NShTot=           0 NBatch=           0 AvBLen=         0.0
 IPart= 25 NShTot=           0 NBatch=           0 AvBLen=         0.0
 IPart= 13 NShTot=           0 NBatch=           0 AvBLen=         0.0
 PrSmSu:  NxtVal=             37.
 ***** Potential Energy ***** 
                1             2             3             4             5 
      1  0.293866D+01
      2  0.192322D-02  0.115606D+03
      3  0.644366D-02  0.162663D+02  0.194061D+02
      4  0.000000D+00  0.000000D+00  0.000000D+00  0.192515D+02
      5  0.000000D+00  0.000000D+00  0.000000D+00  0.000000D+00  0.192515D+02
      6 -0.631048D-02 -0.103587D-02 -0.100421D-01  0.000000D+00  0.000000D+00
      7  0.559371D-01  0.112728D+01  0.537542D+01  0.000000D+00  0.000000D+00
      8  0.000000D+00  0.000000D+00  0.000000D+00  0.552044D+01  0.000000D+00
      9  0.000000D+00  0.000000D+00  0.000000D+00  0.000000D+00  0.552044D+01
     10 -0.882252D-01 -0.101576D-03 -0.706137D-02  0.000000D+00  0.000000D+00
                6             7             8             9            10 
      6  0.192529D+02
      7 -0.730723D-02  0.657427D+01
      8  0.000000D+00  0.000000D+00  0.658133D+01
      9  0.000000D+00  0.000000D+00  0.000000D+00  0.658133D+01
     10  0.552200D+01 -0.279632D-01  0.000000D+00  0.000000D+00  0.659169D+01
 ****** Core Hamiltonian ****** 
                1             2             3             4             5 
      1 -0.217863D+01
      2 -0.198280D-02 -0.599616D+02
      3 -0.723432D-02 -0.164826D+02 -0.174729D+02
      4  0.000000D+00  0.000000D+00  0.000000D+00 -0.132023D+02
      5  0.000000D+00  0.000000D+00  0.000000D+00  0.000000D+00 -0.132023D+02
      6  0.706642D-02  0.103587D-02  0.100421D-01  0.000000D+00  0.000000D+00
      7 -0.623175D-01 -0.135892D+01 -0.544748D+01  0.000000D+00  0.000000D+00
      8  0.000000D+00  0.000000D+00  0.000000D+00 -0.486763D+01  0.000000D+00
      9  0.000000D+00  0.000000D+00  0.000000D+00  0.000000D+00 -0.486763D+01
     10  0.962627D-01  0.101576D-03  0.706137D-02  0.000000D+00  0.000000D+00
                6             7             8             9            10 
      6 -0.132037D+02
      7  0.730723D-02 -0.627023D+01
      8  0.000000D+00  0.000000D+00 -0.587014D+01
      9  0.000000D+00  0.000000D+00  0.000000D+00 -0.587014D+01
     10 -0.486920D+01  0.279632D-01  0.000000D+00  0.000000D+00 -0.588049D+01
 SVDSVc IOpt=   1 NormSV=T IR=1
 SVDSVc V= 1.54D+00 1.46D+00 1.00D+00 9.77D-01 5.38D-01 4.81D-01
 SVDSVc IOpt=   1 NormSV=T IR=3
 SVDSVc V= 1.46D+00 5.38D-01
 SVDSVc IOpt=   1 NormSV=T IR=4
 SVDSVc V= 1.46D+00 5.38D-01
 TstOVc:  Largest diagonal error= 1.33D-15 IB=1 I=    6.
 TstOVc:  Largest same sym error= 1.64D-15 IB=1 I=    3 J=    2.
 TstOVc:  Largest diff sym error= 0.00D+00 IB=0 JB=0 I=    0 J=    0.
 Orthogonalized basis functions: 
                 1             2             3             4             5 
      1   0.148005D-01 -0.334290D-01  0.938079D+00  0.341236D+00  0.521047D-01
      2   0.311507D+00  0.203274D-02 -0.287805D+00  0.809466D+00  0.357848D-02
      3   0.564284D+00  0.321240D-02 -0.171950D-01 -0.264897D-01 -0.628193D-02
      4   0.000000D+00  0.000000D+00  0.000000D+00  0.000000D+00  0.000000D+00
      5   0.000000D+00  0.000000D+00  0.000000D+00  0.000000D+00  0.000000D+00
      6  -0.235057D-02  0.583761D+00  0.523748D-01  0.190679D-01 -0.962967D+00
      7   0.483772D+00  0.209159D-02  0.176943D+00 -0.500676D+00  0.417472D-02
      8   0.000000D+00  0.000000D+00  0.000000D+00  0.000000D+00  0.000000D+00
      9   0.000000D+00  0.000000D+00  0.000000D+00  0.000000D+00  0.000000D+00
     10  -0.272093D-02  0.584667D+00  0.180422D-02 -0.405477D-03  0.964461D+00
                 6             7             8             9            10 
      1   0.252430D-01  0.000000D+00  0.000000D+00  0.000000D+00  0.000000D+00
      2  -0.514587D+00  0.000000D+00  0.000000D+00  0.000000D+00  0.000000D+00
      3   0.102876D+01  0.000000D+00  0.000000D+00  0.000000D+00  0.000000D+00
      4   0.000000D+00  0.584852D+00  0.963829D+00  0.000000D+00  0.000000D+00
      5   0.000000D+00  0.000000D+00  0.000000D+00  0.584852D+00  0.963829D+00
      6  -0.516767D-02  0.000000D+00  0.000000D+00  0.000000D+00  0.000000D+00
      7  -0.869383D+00  0.000000D+00  0.000000D+00  0.000000D+00  0.000000D+00
      8   0.000000D+00  0.584852D+00 -0.963829D+00  0.000000D+00  0.000000D+00
      9   0.000000D+00  0.000000D+00  0.000000D+00  0.584852D+00 -0.963829D+00
     10   0.584977D-02  0.000000D+00  0.000000D+00  0.000000D+00  0.000000D+00
 NBasis=    10 RedAO= T EigKep=  4.81D-01  NBF=     6     0     2     2
 NBsUse=    10 1.00D-06 EigRej= -1.00D+00 NBFU=     6     0     2     2
 Leave Link  302 at Mon Mar 28 14:18:59 2022, MaxMem=  9663676416 cpu:               3.8 elap:               0.1
 (Enter /nopt/nrel/apps/gaussian/g16C_1/g16/l303.exe)
 DipDrv will not compute anything.
 Fermi contact integrals: 
                 1             2 
      1   0.628247D+00  0.783888D-04
      2   0.000000D+00  0.157243D+02
      3   0.000000D+00  0.620346D+00
      4   0.000000D+00  0.000000D+00
      5   0.000000D+00  0.000000D+00
      6   0.000000D+00  0.000000D+00
      7   0.208186D-03  0.363373D-01
      8   0.000000D+00  0.000000D+00
      9   0.000000D+00  0.000000D+00
     10  -0.551659D-03  0.000000D+00
 Leave Link  303 at Mon Mar 28 14:18:59 2022, MaxMem=  9663676416 cpu:               1.1 elap:               0.1
 (Enter /nopt/nrel/apps/gaussian/g16C_1/g16/l401.exe)
 ExpMin= 1.61D-01 ExpMax= 2.51D+02 ExpMxC= 2.51D+02 IAcc=3 IRadAn=         5 AccDes= 0.00D+00
 Harris functional with IExCor=  205 and IRadAn=       5 diagonalized for initial guess.
 HarFok:  IExCor=  205 AccDes= 0.00D+00 IRadAn=         5 IDoV= 1 UseB2=F ITyADJ=14
 ICtDFT=  3500011 ScaDFX=  1.000000  1.000000  1.000000  1.000000
 FoFCou: FMM=F IPFlag=           0 FMFlag=      100000 FMFlg1=           0
         NFxFlg=           0 DoJE=T BraDBF=F KetDBF=T FulRan=T
         wScrn=  0.000000 ICntrl=       500 IOpCl=  0 I1Cent=   200000004 NGrid=           0
         NMat0=    1 NMatS0=      1 NMatT0=    0 NMatD0=    1 NMtDS0=    0 NMtDT0=    0
 Petite list used in FoFCou.
 Harris En= -160.201243394653    
 JPrj=0 DoOrth=F DoCkMO=F.
 Initial guess orbital symmetries:
       Occupied  (SG) (SG) (SG) (PI) (PI) (SG)
       Virtual   (SG) (PI) (PI) (SG)
 The electronic state of the initial guess is 1-SG.
 Leave Link  401 at Mon Mar 28 14:18:59 2022, MaxMem=  9663676416 cpu:               4.6 elap:               0.2
 (Enter /nopt/nrel/apps/gaussian/g16C_1/g16/l502.exe)
 Keep R1 ints in memory in symmetry-blocked form, NReq=7208727.
 FoFCou: FMM=F IPFlag=           0 FMFlag=           0 FMFlg1=           0
         NFxFlg=           0 DoJE=F BraDBF=F KetDBF=F FulRan=T
         wScrn=  0.000000 ICntrl=       600 IOpCl=  0 I1Cent=           0 NGrid=           0
         NMat0=    1 NMatS0=     55 NMatT0=    0 NMatD0=    1 NMtDS0=    0 NMtDT0=    0
 Petite list used in FoFCou.
 Closed shell SCF:
 Using DIIS extrapolation, IDIIS=  1040.
 NGot=  9663676416 LenX=  9663673310 LenY=  9663672428
 Requested convergence on RMS density matrix=1.00D-08 within 128 cycles.
 Requested convergence on MAX density matrix=1.00D-06.
 Requested convergence on             energy=1.00D-06.
 No special actions if energy rises.

 Cycle   1  Pass 1  IDiag  1:
 E= -160.034555327063    
 DIIS: error= 8.67D-02 at cycle   1 NSaved=   1.
 NSaved= 1 IEnMin= 1 EnMin= -160.034555327063     IErMin= 1 ErrMin= 8.67D-02
 ErrMax= 8.67D-02  0.00D+00 EMaxC= 1.00D-01 BMatC= 1.18D-01 BMatP= 1.18D-01
 IDIUse=3 WtCom= 1.33D-01 WtEn= 8.67D-01
 Coeff-Com:  0.100D+01
 Coeff-En:   0.100D+01
 Coeff:      0.100D+01
 Gap=     0.080 Goal=   None    Shift=    0.000
 GapD=    0.080 DampG=0.500 DampE=0.500 DampFc=0.2500 IDamp=-1.
 Damping current iteration by 2.50D-01
 RMSDP=3.95D-02 MaxDP=1.82D-01              OVMax= 0.00D+00

 Cycle   2  Pass 1  IDiag  1:
 E= -160.055909811687     Delta-E=       -0.021354484624 Rises=F Damp=T
 DIIS: error= 6.29D-02 at cycle   2 NSaved=   2.
 NSaved= 2 IEnMin= 2 EnMin= -160.055909811687     IErMin= 2 ErrMin= 6.29D-02
 ErrMax= 6.29D-02  0.00D+00 EMaxC= 1.00D-01 BMatC= 5.67D-02 BMatP= 1.18D-01
 IDIUse=3 WtCom= 3.71D-01 WtEn= 6.29D-01
 Coeff-Com: -0.224D+01 0.324D+01
 Coeff-En:   0.000D+00 0.100D+01
 Coeff:     -0.829D+00 0.183D+01
 Gap=     0.133 Goal=   None    Shift=    0.000
 RMSDP=3.30D-02 MaxDP=1.67D-01 DE=-2.14D-02 OVMax= 0.00D+00

 Cycle   3  Pass 1  IDiag  1:
 E= -160.113020318833     Delta-E=       -0.057110507146 Rises=F Damp=F
 DIIS: error= 9.69D-03 at cycle   3 NSaved=   3.
 NSaved= 3 IEnMin= 3 EnMin= -160.113020318833     IErMin= 3 ErrMin= 9.69D-03
 ErrMax= 9.69D-03  0.00D+00 EMaxC= 1.00D-01 BMatC= 1.27D-03 BMatP= 5.67D-02
 IDIUse=3 WtCom= 9.03D-01 WtEn= 9.69D-02
 Coeff-Com:  0.204D+01-0.272D+01 0.168D+01
 Coeff-En:   0.000D+00 0.000D+00 0.100D+01
 Coeff:      0.184D+01-0.245D+01 0.161D+01
 Gap=     0.194 Goal=   None    Shift=    0.000
 RMSDP=8.47D-03 MaxDP=4.30D-02 DE=-5.71D-02 OVMax= 0.00D+00

 Cycle   4  Pass 1  IDiag  1:
 E= -160.114813462901     Delta-E=       -0.001793144068 Rises=F Damp=F
 DIIS: error= 6.81D-04 at cycle   4 NSaved=   4.
 NSaved= 4 IEnMin= 4 EnMin= -160.114813462901     IErMin= 4 ErrMin= 6.81D-04
 ErrMax= 6.81D-04  0.00D+00 EMaxC= 1.00D-01 BMatC= 4.40D-06 BMatP= 1.27D-03
 IDIUse=3 WtCom= 9.93D-01 WtEn= 6.81D-03
 Coeff-Com:  0.199D+00-0.283D+00 0.483D-01 0.104D+01
 Coeff-En:   0.000D+00 0.000D+00 0.000D+00 0.100D+01
 Coeff:      0.198D+00-0.281D+00 0.480D-01 0.104D+01
 Gap=     0.205 Goal=   None    Shift=    0.000
 RMSDP=1.69D-03 MaxDP=8.59D-03 DE=-1.79D-03 OVMax= 0.00D+00

 Cycle   5  Pass 1  IDiag  1:
 E= -160.114841154718     Delta-E=       -0.000027691817 Rises=F Damp=F
 DIIS: error= 7.65D-05 at cycle   5 NSaved=   5.
 NSaved= 5 IEnMin= 5 EnMin= -160.114841154718     IErMin= 5 ErrMin= 7.65D-05
 ErrMax= 7.65D-05  0.00D+00 EMaxC= 1.00D-01 BMatC= 9.99D-08 BMatP= 4.40D-06
 IDIUse=1 WtCom= 1.00D+00 WtEn= 0.00D+00
 Coeff-Com: -0.639D-01 0.863D-01-0.493D-01-0.429D-01 0.107D+01
 Coeff:     -0.639D-01 0.863D-01-0.493D-01-0.429D-01 0.107D+01
 Gap=     0.207 Goal=   None    Shift=    0.000
 RMSDP=5.23D-05 MaxDP=1.73D-04 DE=-2.77D-05 OVMax= 0.00D+00

 Cycle   6  Pass 1  IDiag  1:
 E= -160.114841307120     Delta-E=       -0.000000152402 Rises=F Damp=F
 DIIS: error= 2.15D-05 at cycle   6 NSaved=   6.
 NSaved= 6 IEnMin= 6 EnMin= -160.114841307120     IErMin= 6 ErrMin= 2.15D-05
 ErrMax= 2.15D-05  0.00D+00 EMaxC= 1.00D-01 BMatC= 7.04D-09 BMatP= 9.99D-08
 IDIUse=1 WtCom= 1.00D+00 WtEn= 0.00D+00
 Coeff-Com: -0.634D-03 0.108D-02 0.347D-02 0.892D-03-0.555D-01 0.105D+01
 Coeff:     -0.634D-03 0.108D-02 0.347D-02 0.892D-03-0.555D-01 0.105D+01
 Gap=     0.207 Goal=   None    Shift=    0.000
 RMSDP=4.21D-05 MaxDP=2.07D-04 DE=-1.52D-07 OVMax= 0.00D+00

 Cycle   7  Pass 1  IDiag  1:
 E= -160.114841326906     Delta-E=       -0.000000019786 Rises=F Damp=F
 DIIS: error= 2.14D-06 at cycle   7 NSaved=   7.
 NSaved= 7 IEnMin= 7 EnMin= -160.114841326906     IErMin= 7 ErrMin= 2.14D-06
 ErrMax= 2.14D-06  0.00D+00 EMaxC= 1.00D-01 BMatC= 4.24D-11 BMatP= 7.04D-09
 IDIUse=1 WtCom= 1.00D+00 WtEn= 0.00D+00
 Coeff-Com:  0.130D-02-0.182D-02-0.535D-03-0.260D-02 0.228D-01-0.382D+00
 Coeff-Com:  0.136D+01
 Coeff:      0.130D-02-0.182D-02-0.535D-03-0.260D-02 0.228D-01-0.382D+00
 Coeff:      0.136D+01
 Gap=     0.207 Goal=   None    Shift=    0.000
 RMSDP=7.39D-06 MaxDP=3.75D-05 DE=-1.98D-08 OVMax= 0.00D+00

 Cycle   8  Pass 1  IDiag  1:
 E= -160.114841327309     Delta-E=       -0.000000000403 Rises=F Damp=F
 DIIS: error= 4.40D-07 at cycle   8 NSaved=   8.
 NSaved= 8 IEnMin= 8 EnMin= -160.114841327309     IErMin= 8 ErrMin= 4.40D-07
 ErrMax= 4.40D-07  0.00D+00 EMaxC= 1.00D-01 BMatC= 2.48D-12 BMatP= 4.24D-11
 IDIUse=1 WtCom= 1.00D+00 WtEn= 0.00D+00
 Coeff-Com:  0.275D-04-0.339D-04 0.168D-03 0.909D-03-0.845D-02 0.430D-01
 Coeff-Com: -0.891D-01 0.105D+01
 Coeff:      0.275D-04-0.339D-04 0.168D-03 0.909D-03-0.845D-02 0.430D-01
 Coeff:     -0.891D-01 0.105D+01
 Gap=     0.207 Goal=   None    Shift=    0.000
 RMSDP=1.26D-06 MaxDP=6.36D-06 DE=-4.03D-10 OVMax= 0.00D+00

 Cycle   9  Pass 1  IDiag  1:
 E= -160.114841327324     Delta-E=       -0.000000000014 Rises=F Damp=F
 DIIS: error= 6.26D-08 at cycle   9 NSaved=   9.
 NSaved= 9 IEnMin= 9 EnMin= -160.114841327324     IErMin= 9 ErrMin= 6.26D-08
 ErrMax= 6.26D-08  0.00D+00 EMaxC= 1.00D-01 BMatC= 3.50D-14 BMatP= 2.48D-12
 IDIUse=1 WtCom= 1.00D+00 WtEn= 0.00D+00
 Coeff-Com: -0.719D-05 0.981D-05-0.288D-04-0.285D-03 0.241D-02-0.668D-02
 Coeff-Com: -0.511D-02-0.328D+00 0.134D+01
 Coeff:     -0.719D-05 0.981D-05-0.288D-04-0.285D-03 0.241D-02-0.668D-02
 Coeff:     -0.511D-02-0.328D+00 0.134D+01
 Gap=     0.207 Goal=   None    Shift=    0.000
 RMSDP=2.05D-07 MaxDP=1.05D-06 DE=-1.42D-11 OVMax= 0.00D+00

 Cycle  10  Pass 1  IDiag  1:
 E= -160.114841327324     Delta-E=       -0.000000000000 Rises=F Damp=F
 DIIS: error= 8.49D-09 at cycle  10 NSaved=  10.
 NSaved=10 IEnMin=10 EnMin= -160.114841327324     IErMin=10 ErrMin= 8.49D-09
 ErrMax= 8.49D-09  0.00D+00 EMaxC= 1.00D-01 BMatC= 5.51D-16 BMatP= 3.50D-14
 IDIUse=1 WtCom= 1.00D+00 WtEn= 0.00D+00
 Coeff-Com:  0.556D-06-0.762D-06 0.168D-05 0.193D-04-0.144D-03 0.313D-03
 Coeff-Com:  0.168D-02 0.164D-01-0.387D-01 0.102D+01
 Coeff:      0.556D-06-0.762D-06 0.168D-05 0.193D-04-0.144D-03 0.313D-03
 Coeff:      0.168D-02 0.164D-01-0.387D-01 0.102D+01
 Gap=     0.207 Goal=   None    Shift=    0.000
 RMSDP=2.53D-08 MaxDP=1.30D-07 DE=-4.26D-13 OVMax= 0.00D+00

 Cycle  11  Pass 1  IDiag  1:
 E= -160.114841327324     Delta-E=       -0.000000000000 Rises=F Damp=F
 DIIS: error= 4.93D-10 at cycle  11 NSaved=  11.
 NSaved=11 IEnMin=11 EnMin= -160.114841327324     IErMin=11 ErrMin= 4.93D-10
 ErrMax= 4.93D-10  0.00D+00 EMaxC= 1.00D-01 BMatC= 1.96D-18 BMatP= 5.51D-16
 IDIUse=1 WtCom= 1.00D+00 WtEn= 0.00D+00
 Coeff-Com:  0.217D-07-0.286D-07 0.135D-06 0.725D-06-0.965D-05 0.430D-04
 Coeff-Com: -0.220D-03 0.178D-02-0.123D-01-0.111D+00 0.112D+01
 Coeff:      0.217D-07-0.286D-07 0.135D-06 0.725D-06-0.965D-05 0.430D-04
 Coeff:     -0.220D-03 0.178D-02-0.123D-01-0.111D+00 0.112D+01
 Gap=     0.207 Goal=   None    Shift=    0.000
 RMSDP=1.30D-09 MaxDP=6.64D-09 DE=-5.68D-14 OVMax= 0.00D+00

 SCF Done:  E(RHF) =  -160.114841327     A.U. after   11 cycles
            NFock= 11  Conv=0.13D-08     -V/T= 2.0197
 KE= 1.570205458773D+02 PE=-3.850492744978D+02 EE= 6.620184337554D+01
 Leave Link  502 at Mon Mar 28 14:18:59 2022, MaxMem=  9663676416 cpu:               3.4 elap:               0.1
 (Enter /nopt/nrel/apps/gaussian/g16C_1/g16/l801.exe)
 Windowed orbitals will be sorted by symmetry type.
 ExpMin= 1.61D-01 ExpMax= 2.51D+02 ExpMxC= 2.51D+02 IAcc=3 IRadAn=         5 AccDes= 0.00D+00
 HarFok:  IExCor=  205 AccDes= 0.00D+00 IRadAn=         5 IDoV=-2 UseB2=F ITyADJ=14
 ICtDFT= 12500011 ScaDFX=  1.000000  1.000000  1.000000  1.000000
 Largest valence mixing into a core orbital is  1.19D-03
 Largest core mixing into a valence orbital is  1.10D-04
 Range of M.O.s used for correlation:     6    10
 NBasis=    10 NAE=     6 NBE=     6 NFC=     5 NFV=     0
 NROrb=      5 NOA=     1 NOB=     1 NVA=     4 NVB=     4
 Leave Link  801 at Mon Mar 28 14:18:59 2022, MaxMem=  9663676416 cpu:               2.6 elap:               0.1
 (Enter /nopt/nrel/apps/gaussian/g16C_1/g16/l804.exe)
 Closed-shell transformation, MDV=  9663676416 ITran=4 ISComp=2.
 Unit  1 TFree=          4870 TCopy=          1211.
 Semi-Direct transformation.
 ModeAB=           2 MOrb=             1 LenV=    9663556817
 LASXX=           12 LTotXX=          12 LenRXX=          12
 LTotAB=          28 MaxLAS=         275 LenRXY=         275
 NonZer=         335 LenScr=      785920 LnRSAI=           0
 LnScr1=           0 LExtra=      218701 Total=      1004908
 MaxDsk= 34359738368 SrtSym=           F ITran=            4
 DoSDTr:  NPSUse= 36
 JobTyp=0 Pass  1:  I=   1 to   1.
 (rs|ai) integrals will be sorted in core.
 Complete sort for first half transformation.
 First half transformation complete.
 Complete sort for second half transformation.
 Second half transformation complete.
 Spin components of T(2) and E(2):
     alpha-alpha T2 =       0.0000000000D+00 E2=      0.0000000000D+00
     alpha-beta  T2 =       0.2350915584D-01 E2=     -0.1034836003D-01
     beta-beta   T2 =       0.0000000000D+00 E2=      0.0000000000D+00
 ANorm=    0.1011686293D+01
 E2 =    -0.1034836003D-01 EUMP2 =    -0.16012518968735D+03
 Leave Link  804 at Mon Mar 28 14:18:59 2022, MaxMem=  9663676416 cpu:               2.3 elap:               0.1
 (Enter /nopt/nrel/apps/gaussian/g16C_1/g16/l913.exe)
 CIDS:  MDV=  9663676416.
 Frozen-core window:  NFC=   5 NFV=   0.
 IFCWin=0 IBDFC=1 NFBD=     0     0 NFCmp=     0     0 NFFFC=     0     0
 Using DD3R+UMP44R for 1st iteration.
 Using DD4RQ for 2nd and later iterations.
 Keep R2 and R3 ints in memory in symmetry-blocked form, NReq=7211101.
 FoFCou: FMM=F IPFlag=           0 FMFlag=           0 FMFlg1=           0
         NFxFlg=           0 DoJE=F BraDBF=F KetDBF=F FulRan=T
         wScrn=  0.000000 ICntrl=       600 IOpCl=  0 I1Cent=           0 NGrid=           0
         NMat0=    1 NMatS0=     55 NMatT0=    0 NMatD0=    1 NMtDS0=    0 NMtDT0=    0
 Petite list used in FoFCou.
 CIDS: In Core Option IDoMem=           1.
 Coupled Cluster theory with single and double substitutions
 ===========================================================
 Iterations= 200 Convergence= 0.100D-06
 Produce multiple copies of IABC intergrals
 Iteration Nr.   1
 **********************
 DD1Dir will call FoFMem   1 times, MxPair=         2
 NAB=     1 NAA=     0 NBB=     0.
 MP4(R+Q)=  0.24328121D-03
 Maximum subspace dimension=  5
 A-vector RMS=  1.8048724D-01 Max=  1.4944158D-01 conv= 1.00D-05.
 RLE energy=       -0.0054772553
 E3=        0.74097670D-02        EUMP3=      -0.16011777992D+03
 E4(DQ)=   -0.60430940D-02        UMP4(DQ)=   -0.16012382301D+03
 E4(SDQ)=  -0.15390420D-01        UMP4(SDQ)=  -0.16013317034D+03
 VARIATIONAL ENERGIES WITH THE FIRST-ORDER WAVEFUNCTION:
 DE(Corr)= -0.12681155E-02 E(Corr)=     -160.11610944    
 NORM(A)=   0.10112513D+01
 Iteration Nr.   2
 **********************
 DD1Dir will call FoFMem   1 times, MxPair=         2
 NAB=     1 NAA=     0 NBB=     0.
 A-vector RMS=  5.3073444D-02 Max=  1.1112421D-01 conv= 1.00D-05.
 RLE energy=       -0.0089414859
 DE(Corr)= -0.12136212E-01 E(CORR)=     -160.12697754     Delta=-1.09D-02
 NORM(A)=   0.13319172D+01
 Iteration Nr.   3
 **********************
 DD1Dir will call FoFMem   1 times, MxPair=         2
 NAB=     1 NAA=     0 NBB=     0.
 A-vector RMS=  2.6270051D-01 Max=  2.7989493D-01 conv= 1.00D-05.
 RLE energy=       -0.0168290264
 DE(Corr)= -0.40710340E-01 E(CORR)=     -160.15555167     Delta=-2.86D-02
 NORM(A)=   0.14885894D+01
 Iteration Nr.   4
 **********************
 DD1Dir will call FoFMem   1 times, MxPair=         2
 NAB=     1 NAA=     0 NBB=     0.
 A-vector RMS=  2.2835719D-01 Max=  2.4009771D-01 conv= 1.00D-05.
 RLE energy=       -0.0260670776
 DE(Corr)= -0.43312131E-01 E(CORR)=     -160.15815346     Delta=-2.60D-03
 NORM(A)=   0.11978748D+01
 Iteration Nr.   5
 **********************
 DD1Dir will call FoFMem   1 times, MxPair=         2
 NAB=     1 NAA=     0 NBB=     0.
 A-vector RMS=  2.2499037D-01 Max=  2.1353937D-01 conv= 1.00D-05.
 RLE energy=       -0.0249242435
 DE(Corr)= -0.44738678E-02 E(CORR)=     -160.11931520     Delta= 3.88D-02
 NORM(A)=   0.13459246D+01
 Iteration Nr.   6
 **********************
 DD1Dir will call FoFMem   1 times, MxPair=         2
 NAB=     1 NAA=     0 NBB=     0.
 A-vector RMS=  4.9212361D-02 Max=  3.9506955D-02 conv= 1.00D-05.
 RLE energy=       -0.0252238602
 DE(Corr)= -0.20005600E-01 E(CORR)=     -160.13484693     Delta=-1.55D-02
 NORM(A)=   0.13985374D+01
 Iteration Nr.   7
 **********************
 DD1Dir will call FoFMem   1 times, MxPair=         2
 NAB=     1 NAA=     0 NBB=     0.
 A-vector RMS=  1.7422167D-02 Max=  1.5210750D-02 conv= 1.00D-05.
 RLE energy=       -0.0252109719
 DE(Corr)= -0.23346920E-01 E(CORR)=     -160.13818825     Delta=-3.34D-03
 NORM(A)=   0.14308639D+01
 Iteration Nr.   8
 **********************
 DD1Dir will call FoFMem   1 times, MxPair=         2
 NAB=     1 NAA=     0 NBB=     0.
 A-vector RMS=  4.8889708D-03 Max=  4.4202615D-03 conv= 1.00D-05.
 RLE energy=       -0.0250838868
 DE(Corr)= -0.25596920E-01 E(CORR)=     -160.14043825     Delta=-2.25D-03
 NORM(A)=   0.14133088D+01
 Iteration Nr.   9
 **********************
 DD1Dir will call FoFMem   1 times, MxPair=         2
 NAB=     1 NAA=     0 NBB=     0.
 A-vector RMS=  4.4786899D-03 Max=  4.6873363D-03 conv= 1.00D-05.
 RLE energy=       -0.0249907188
 DE(Corr)= -0.24581738E-01 E(CORR)=     -160.13942307     Delta= 1.02D-03
 NORM(A)=   0.14156858D+01
 Iteration Nr.  10
 **********************
 DD1Dir will call FoFMem   1 times, MxPair=         2
 NAB=     1 NAA=     0 NBB=     0.
 A-vector RMS=  4.9610988D-04 Max=  6.4837669D-04 conv= 1.00D-05.
 RLE energy=       -0.0249583510
 DE(Corr)= -0.24926730E-01 E(CORR)=     -160.13976806     Delta=-3.45D-04
 NORM(A)=   0.14154232D+01
 Iteration Nr.  11
 **********************
 DD1Dir will call FoFMem   1 times, MxPair=         2
 NAB=     1 NAA=     0 NBB=     0.
 A-vector RMS=  5.3787105D-05 Max=  4.3345077D-05 conv= 1.00D-05.
 RLE energy=       -0.0249579972
 DE(Corr)= -0.24964157E-01 E(CORR)=     -160.13980548     Delta=-3.74D-05
 NORM(A)=   0.14153832D+01
 Iteration Nr.  12
 **********************
 DD1Dir will call FoFMem   1 times, MxPair=         2
 NAB=     1 NAA=     0 NBB=     0.
 A-vector RMS=  4.1613629D-05 Max=  3.9139616D-05 conv= 1.00D-05.
 RLE energy=       -0.0249593339
 DE(Corr)= -0.24962563E-01 E(CORR)=     -160.13980389     Delta= 1.59D-06
 NORM(A)=   0.14153318D+01
 Iteration Nr.  13
 **********************
 DD1Dir will call FoFMem   1 times, MxPair=         2
 NAB=     1 NAA=     0 NBB=     0.
 A-vector RMS=  2.5156234D-05 Max=  2.3849869D-05 conv= 1.00D-05.
 RLE energy=       -0.0249589153
 DE(Corr)= -0.24956557E-01 E(CORR)=     -160.13979788     Delta= 6.01D-06
 NORM(A)=   0.14153468D+01
 Iteration Nr.  14
 **********************
 DD1Dir will call FoFMem   1 times, MxPair=         2
 NAB=     1 NAA=     0 NBB=     0.
 A-vector RMS=  5.0796957D-06 Max=  4.8333412D-06 conv= 1.00D-05.
 RLE energy=       -0.0249588117
 DE(Corr)= -0.24958358E-01 E(CORR)=     -160.13979969     Delta=-1.80D-06
 NORM(A)=   0.14153507D+01
 Iteration Nr.  15
 **********************
 DD1Dir will call FoFMem   1 times, MxPair=         2
 NAB=     1 NAA=     0 NBB=     0.
 A-vector RMS=  1.0686762D-07 Max=  1.0138559D-07 conv= 1.00D-05.
 RLE energy=       -0.0249588108
 DE(Corr)= -0.24958823E-01 E(CORR)=     -160.13980015     Delta=-4.65D-07
 NORM(A)=   0.14153507D+01
 Iteration Nr.  16
 **********************
 DD1Dir will call FoFMem   1 times, MxPair=         2
 NAB=     1 NAA=     0 NBB=     0.
 A-vector RMS=  1.4772259D-07 Max=  1.3864349D-07 conv= 1.00D-05.
 RLE energy=       -0.0249588138
 DE(Corr)= -0.24958827E-01 E(CORR)=     -160.13980015     Delta=-3.69D-09
 NORM(A)=   0.14153506D+01
 CI/CC converged in   16 iterations to DelEn=-3.69D-09 Conv= 1.00D-07 ErrA1= 1.48D-07 Conv= 1.00D-05
 Wavefunction amplitudes converged. E(Corr)=     -160.13980015    
 Dominant configurations:
 ***********************
 Spin Case        I    J    A    B          Value
    AA            6         7            0.533139D+00
   ABAB           6    6    7    7      -0.644745D+00
 Largest amplitude= 6.45D-01
 Discarding MO integrals.
 Leave Link  913 at Mon Mar 28 14:19:00 2022, MaxMem=  9663676416 cpu:              19.7 elap:               0.6
 (Enter /nopt/nrel/apps/gaussian/g16C_1/g16/l601.exe)
 Copying SCF densities to generalized density rwf, IOpCl= 0 IROHF=0.

 **********************************************************************

            Population analysis using the SCF Density.

 **********************************************************************

 Orbital symmetries:
       Occupied  (SG) (SG) (PI) (PI) (SG) (SG)
       Virtual   (SG) (PI) (PI) (SG)
 The electronic state is 1-SG.
 Alpha  occ. eigenvalues --  -40.35096  -2.89966  -1.55302  -1.55302  -1.55174
 Alpha  occ. eigenvalues --    0.09588
 Alpha virt. eigenvalues --    0.30246   0.61443   0.61443   0.62803
          Condensed to atoms (all electrons):
               1          2
     1  H    1.823913   0.011741
     2  Na   0.011741  10.152605
 Mulliken charges:
               1
     1  H   -0.835654
     2  Na   0.835654
 Sum of Mulliken charges =  -0.00000
 Mulliken charges with hydrogens summed into heavy atoms:
               1
     2  Na  -0.000000
 N-N= 1.712043917682D+00 E-N=-3.850492745164D+02  KE= 1.570205458773D+02
 Symmetry A1   KE= 1.362218147346D+02
 Symmetry A2   KE= 0.000000000000D+00
 Symmetry B1   KE= 1.039936557131D+01
 Symmetry B2   KE= 1.039936557131D+01

 Atomic contributions to Alpha molecular orbitals:
 Alpha occ 1 OE=-40.351 is Na2-s=1.0000
 Alpha occ 2 OE=-2.900 is Na2-s=0.9999
 Alpha occ 3 OE=-1.553 is Na2-p=1.0000
 Alpha occ 4 OE=-1.553 is Na2-p=1.0000
 Alpha occ 5 OE=-1.552 is Na2-p=0.9999
 Alpha occ 6 OE=0.096 is H1-s=0.9178
 Alpha vir 7 OE=0.302 is Na2-s=0.9162
 Alpha vir 8 OE=0.614 is Na2-p=1.0000
 Alpha vir 9 OE=0.614 is Na2-p=1.0000
 Alpha vir 10 OE=0.628 is Na2-p=0.9859
 
 Leave Link  601 at Mon Mar 28 14:19:00 2022, MaxMem=  9663676416 cpu:               2.5 elap:               0.1
 (Enter /nopt/nrel/apps/gaussian/g16C_1/g16/l9999.exe)

 Test job not archived.
 1\1\GINC-R102U34\SP\RCCSD-FC\Gen\H1Na1\USER\28-Mar-2022\0\\#P CCSD
 (MaxCyc=200,SaveAmplitudes,ReadAmplitudes)/GEN sp pop=AllOrbitals iop(
 3/33=1,3/36=-1)\\test\\0,1\H,0,0.,0.,0.\Na,0,0.,0.,3.4\\Version=ES64L-
 G16RevC.01\State=1-SG\HF=-160.1148413\MP2=-160.1251897\MP3=-160.117779
 9\MP4D=-160.1240663\MP4DQ=-160.123823\MP4SDQ=-160.1331703\CCSD=-160.13
 98002\RMSD=1.299e-09\PG=C*V [C*(H1Na1)]\\@


 IF IT'S NOT TRUE, IT'S WELL INVENTED -- DANTE
 Job cpu time:       0 days  0 hours  0 minutes 49.6 seconds.
 Elapsed time:       0 days  0 hours  0 minutes  1.8 seconds.
 File lengths (MBytes):  RWF=     13 Int=      0 D2E=      0 Chk=      1 Scr=      1
 Normal termination of Gaussian 16 at Mon Mar 28 14:19:00 2022.
