 Entering Gaussian System, Link 0=g16
 Initial command:
 /nopt/nrel/apps/gaussian/g16C_1/g16/l1.exe "/lustre/eaglefs/scratch/user/qc/nah-dissc/nah-1-ccsd-2.5-ccd/Gau-33072.inp" -scrdir="/lustre/eaglefs/scratch/user/qc/nah-dissc/nah-1-ccsd-2.5-ccd/"
 Default is to use a total of  36 processors:
                               36 via shared-memory
                                1 via Linda
 Entering Link 1 = /nopt/nrel/apps/gaussian/g16C_1/g16/l1.exe PID=     33073.
  
 Copyright (c) 1988-2019, Gaussian, Inc.  All Rights Reserved.
  
 This is part of the Gaussian(R) 16 program.  It is based on
 the Gaussian(R) 09 system (copyright 2009, Gaussian, Inc.),
 the Gaussian(R) 03 system (copyright 2003, Gaussian, Inc.),
 the Gaussian(R) 98 system (copyright 1998, Gaussian, Inc.),
 the Gaussian(R) 94 system (copyright 1995, Gaussian, Inc.),
 the Gaussian 92(TM) system (copyright 1992, Gaussian, Inc.),
 the Gaussian 90(TM) system (copyright 1990, Gaussian, Inc.),
 the Gaussian 88(TM) system (copyright 1988, Gaussian, Inc.),
 the Gaussian 86(TM) system (copyright 1986, Carnegie Mellon
 University), and the Gaussian 82(TM) system (copyright 1983,
 Carnegie Mellon University). Gaussian is a federally registered
 trademark of Gaussian, Inc.
  
 This software contains proprietary and confidential information,
 including trade secrets, belonging to Gaussian, Inc.
  
 This software is provided under written license and may be
 used, copied, transmitted, or stored only in accord with that
 written license.
  
 The following legend is applicable only to US Government
 contracts under FAR:
  
                    RESTRICTED RIGHTS LEGEND
  
 Use, reproduction and disclosure by the US Government is
 subject to restrictions as set forth in subparagraphs (a)
 and (c) of the Commercial Computer Software - Restricted
 Rights clause in FAR 52.227-19.
  
 Gaussian, Inc.
 340 Quinnipiac St., Bldg. 40, Wallingford CT 06492
  
  
 ---------------------------------------------------------------
 Warning -- This program may not be used in any manner that
 competes with the business of Gaussian, Inc. or will provide
 assistance to any competitor of Gaussian, Inc.  The licensee
 of this program is prohibited from giving any competitor of
 Gaussian, Inc. access to this program.  By using this program,
 the user acknowledges that Gaussian, Inc. is engaged in the
 business of creating and licensing software in the field of
 computational chemistry and represents and warrants to the
 licensee that it is not a competitor of Gaussian, Inc. and that
 it will not use this program in any manner prohibited above.
 ---------------------------------------------------------------
  

 Cite this work as:
 Gaussian 16, Revision C.01,
 M. J. Frisch, G. W. Trucks, H. B. Schlegel, G. E. Scuseria, 
 M. A. Robb, J. R. Cheeseman, G. Scalmani, V. Barone, 
 G. A. Petersson, H. Nakatsuji, X. Li, M. Caricato, A. V. Marenich, 
 J. Bloino, B. G. Janesko, R. Gomperts, B. Mennucci, H. P. Hratchian, 
 J. V. Ortiz, A. F. Izmaylov, J. L. Sonnenberg, D. Williams-Young, 
 F. Ding, F. Lipparini, F. Egidi, J. Goings, B. Peng, A. Petrone, 
 T. Henderson, D. Ranasinghe, V. G. Zakrzewski, J. Gao, N. Rega, 
 G. Zheng, W. Liang, M. Hada, M. Ehara, K. Toyota, R. Fukuda, 
 J. Hasegawa, M. Ishida, T. Nakajima, Y. Honda, O. Kitao, H. Nakai, 
 T. Vreven, K. Throssell, J. A. Montgomery, Jr., J. E. Peralta, 
 F. Ogliaro, M. J. Bearpark, J. J. Heyd, E. N. Brothers, K. N. Kudin, 
 V. N. Staroverov, T. A. Keith, R. Kobayashi, J. Normand, 
 K. Raghavachari, A. P. Rendell, J. C. Burant, S. S. Iyengar, 
 J. Tomasi, M. Cossi, J. M. Millam, M. Klene, C. Adamo, R. Cammi, 
 J. W. Ochterski, R. L. Martin, K. Morokuma, O. Farkas, 
 J. B. Foresman, and D. J. Fox, Gaussian, Inc., Wallingford CT, 2019.
 
 ******************************************
 Gaussian 16:  ES64L-G16RevC.01  3-Jul-2019
                28-Mar-2022 
 ******************************************
 %chk=molecule
 Default route: CacheSize=180224 MaxDisk=256GB
 ----------------------------------------------------------------------
 #P CCSD(MaxCyc=200,SaveAmplitudes,ReadAmplitudes)/GEN sp pop=AllOrbita
 ls iop(3/33=1,3/36=-1)
 ----------------------------------------------------------------------
 1/4=180224,38=1,172=1/1;
 2/4=180224,12=2,17=6,18=5,40=1/2;
 3/4=180224,5=7,11=9,25=1,30=1,33=1,36=-1/1,2,3;
 4/4=180224/1;
 5/4=180224,5=2,38=5/2;
 8/4=180224,6=4,9=120000,10=1,24=1/1,4;
 9/4=180224,5=7,6=200,77=1/13;
 6/4=180224,7=2,8=2,9=2,10=2,96=-1/1;
 99/4=180224,5=1,9=1/99;
 Leave Link    1 at Mon Mar 28 14:21:12 2022, MaxMem=           0 cpu:               2.0 elap:               0.1
 (Enter /nopt/nrel/apps/gaussian/g16C_1/g16/l101.exe)
 ----
 test
 ----
 Symbolic Z-matrix:
 Charge =  0 Multiplicity = 1
 H                     0.        0.        0. 
 Na                    0.        0.        2.5 
 
 ITRead=  0  0
 MicOpt= -1 -1
 NAtoms=      2 NQM=        2 NQMF=       0 NMMI=      0 NMMIF=      0
                NMic=       0 NMicF=      0.
                    Isotopes and Nuclear Properties:
 (Nuclear quadrupole moments (NQMom) in fm**2, nuclear magnetic moments (NMagM)
  in nuclear magnetons)

  Atom         1           2
 IAtWgt=           1          23
 AtmWgt=   1.0078250  22.9897697
 NucSpn=           1           3
 AtZEff=  -0.0000000  -0.0000000
 NQMom=    0.0000000  10.4000000
 NMagM=    2.7928460   2.2175200
 AtZNuc=   1.0000000  11.0000000
 Leave Link  101 at Mon Mar 28 14:21:12 2022, MaxMem=  9663676416 cpu:               3.0 elap:               0.1
 (Enter /nopt/nrel/apps/gaussian/g16C_1/g16/l202.exe)
                          Input orientation:                          
 ---------------------------------------------------------------------
 Center     Atomic      Atomic             Coordinates (Angstroms)
 Number     Number       Type             X           Y           Z
 ---------------------------------------------------------------------
      1          1           0        0.000000    0.000000    0.000000
      2         11           0        0.000000    0.000000    2.500000
 ---------------------------------------------------------------------
 Stoichiometry    HNa
 Framework group  C*V[C*(HNa)]
 Deg. of freedom     1
 Full point group                 C*V     NOp   4
 Largest Abelian subgroup         C2V     NOp   4
 Largest concise Abelian subgroup C1      NOp   1
                         Standard orientation:                         
 ---------------------------------------------------------------------
 Center     Atomic      Atomic             Coordinates (Angstroms)
 Number     Number       Type             X           Y           Z
 ---------------------------------------------------------------------
      1          1           0        0.000000    0.000000   -2.291667
      2         11           0        0.000000    0.000000    0.208333
 ---------------------------------------------------------------------
 Rotational constants (GHZ):           0.0000000          83.7500612          83.7500612
 Leave Link  202 at Mon Mar 28 14:21:12 2022, MaxMem=  9663676416 cpu:               1.2 elap:               0.1
 (Enter /nopt/nrel/apps/gaussian/g16C_1/g16/l301.exe)
 General basis read from cards:  (5D, 7F)
                         Coordinates in L301:                         
 ---------------------------------------------------------------------
 Center     Atomic      Atomic             Coordinates (Angstroms)
 Number     Number       Type             X           Y           Z
 ---------------------------------------------------------------------
      1          1           0        0.000000    0.000000   -2.291667
      2         11           0        0.000000    0.000000    0.208333
 ---------------------------------------------------------------------
 Centers:       1
 STO-3G
 ****
 Centers:       2
 cc-pVDZ
 ****
 FixB: optimizing general contractions.
 Ernie: Thresh=  0.10000D-02 Tol=  0.10000D-05 Strict=F.
 IA=     1 ShT= 0 ShC= 0 NL=   1 NS=   0.
 IA=     1 L=0 SC=0 ISt=    0 NBk=    0 NP=    0 IndPr=    0.
 IA=     2 ShT= 0 ShC= 0 NL=   4 NS=   1.
 IA=     2 L=0 SC=0 ISt=    1 NBk=    3 NP=   11 IndPr=    0.
 DoElim1:  L=0 select primitive    2 from    2 using    1 C= 3.55D-03
 DoElim1:  L=0 select primitive    2 from    3 using    1 C= 3.55D-03
 DoElim1:  L=0 select primitive    5 from    3 using    2 C=-6.14D-03
 DoElim2:  L=0 select primitive   11 from    2 using    3 C= 6.58D-01
 DoElim2:  L=0 select primitive   11 from    1 using    3 C= 6.58D-01
 DoElim2:  L=0 select primitive    9 from    1 using    2 C= 6.03D-01
 Delete L=0 primitive    5 from    3 C=  6.52D-20.
 Delete L=0 primitive    2 from    3 C=  2.06D-20.
 Delete L=0 primitive    1 from    3 C=  1.41D-07.
 Delete L=0 primitive   11 from    2 C=  1.18D-19.
 Delete L=0 primitive    2 from    2 C=  4.53D-20.
 Delete L=0 primitive    1 from    2 C=  7.82D-08.
 Delete L=0 primitive   11 from    1 C=  5.55D-21.
 Delete L=0 primitive    9 from    1 C=  4.94D-19.
 IA=     2 L=0 SC=0 ISt=    0 NBk=    0 NP=    0 IndPr=   25.
 IA=     2 ShT= 1 ShC= 1 NL=   3 NS=   1.
 IA=     2 L=1 SC=1 ISt=    1 NBk=    2 NP=    7 IndPr=    0.
 DoElim1:  L=1 select primitive    1 from    2 using    1 C= 5.80D-03
 DoElim2:  L=1 select primitive    7 from    1 using    2 C= 4.35D-01
 Delete L=1 primitive    1 from    2 C=  1.56D-20.
 Delete L=1 primitive    7 from    1 C=  1.56D-19.
 IA=     2 L=1 SC=1 ISt=    0 NBk=    0 NP=    0 IndPr=   12.
 IA=     2 ShT= 2 ShC= 2 NL=   1 NS=   1.
 IA=     2 L=2 SC=2 ISt=    0 NBk=    0 NP=    0 IndPr=    0.
 Ernie:  10 primitive shells out of 53 were deleted.
 LdAtmC:  AtmChg=     1.000000    11.000000
 AtZEff=     -1.0000000    -10.0400000
 NEqShl: 
              1            2            3            4
     1            1            1            1            1
     2            2            2            2            2
     3            3            3            3            3
     4            4            4            4            4
     5            5            5            5            5
     6            6            6            6            6
     7            7            7            7            7
     8            8            8            8            8
     9            9            9            9            9
 NEqBas: 
              1            2            3            4
     1            1            1            1            1
     2            2            2            2            2
     3            3            3            3            3
     4            4            4            4            4
     5            5            5            5            5
     6            6           -6           -6            6
     7            7           -7            7           -7
     8            8            8            8            8
     9            9           -9           -9            9
    10           10          -10           10          -10
    11           11           11           11           11
    12           12          -12          -12           12
    13           13          -13           13          -13
    14           14           14           14           14
    15           15           15           15           15
    16           16           16           16           16
    17           17           17           17           17
    18           18           18          -18          -18
    19           19          -19          -19           19
    20           20          -20           20          -20
 There are    11 symmetry adapted cartesian basis functions of A1  symmetry.
   1         1   1   1   1
   2         2   2   2   2
   3         3   3   3   3
   4         4   4   4   4
   5         5   5   5   5
   6         8   8   8   8
   7        11  11  11  11
   8        14  14  14  14
   9        15  15  15  15
  10        16  16  16  16
  11        17  17  17  17
 There are     1 symmetry adapted cartesian basis functions of A2  symmetry.
  12        18  18  18  18
 There are     4 symmetry adapted cartesian basis functions of B1  symmetry.
  13         6   6   6   6
  14         9   9   9   9
  15        12  12  12  12
  16        19  19  19  19
 There are     4 symmetry adapted cartesian basis functions of B2  symmetry.
  17         7   7   7   7
  18        10  10  10  10
  19        13  13  13  13
  20        20  20  20  20
 Order= 1 2 4 3
 Reordered character table:
              1            2            3            4            5
     1            1            1            1            1            1
     2            2            1            1           -1           -1
     3            4            1           -1           -1            1
     4            3            1           -1            1           -1
 NEqShl: 
              1            2            3            4
     1            1            1            1            1
     2            2            2            2            2
     3            3            3            3            3
     4            4            4            4            4
     5            5            5            5            5
     6            6            6            6            6
     7            7            7            7            7
     8            8            8            8            8
     9            9            9            9            9
 NEqBas: 
              1            2            3            4
     1            1            1            1            1
     2            2            2            2            2
     3            3            3            3            3
     4            4            4            4            4
     5            5            5            5            5
     6            6           -6           -6            6
     7            7           -7            7           -7
     8            8            8            8            8
     9            9           -9           -9            9
    10           10          -10           10          -10
    11           11           11           11           11
    12           12          -12          -12           12
    13           13          -13           13          -13
    14           14           14           14           14
    15           15           15           15           15
    16           16          -16          -16           16
    17           17          -17           17          -17
    18           18           18           18           18
    19           19           19          -19          -19
 There are    10 symmetry adapted basis functions of A1  symmetry.
   1         1   1   1   1
   2         2   2   2   2
   3         3   3   3   3
   4         4   4   4   4
   5         5   5   5   5
   6         8   8   8   8
   7        11  11  11  11
   8        14  14  14  14
   9        15  15  15  15
  10        18  18  18  18
 There are     1 symmetry adapted basis functions of A2  symmetry.
  11        19  19  19  19
 There are     4 symmetry adapted basis functions of B1  symmetry.
  12         6   6   6   6
  13         9   9   9   9
  14        12  12  12  12
  15        16  16  16  16
 There are     4 symmetry adapted basis functions of B2  symmetry.
  16         7   7   7   7
  17        10  10  10  10
  18        13  13  13  13
  19        17  17  17  17
 Order= 1 2 4 3
 Reordered character table:
              1            2            3            4            5
     1            1            1            1            1            1
     2            2            1            1           -1           -1
     3            4            1           -1           -1            1
     4            3            1           -1            1           -1
    19 basis functions,    74 primitive gaussians,    20 cartesian basis functions
     6 alpha electrons        6 beta electrons
       nuclear repulsion energy         2.3283797280 Hartrees.
 IS=     1 IAt=     1 ISR=     1 T=0 IP=      1 IndIP=      1 IndIPD=      0 C=  2.769344D-01  0.000000D+00                             NZ=T
 IS=     1 IAt=     1 ISR=     1 T=0 IP=      2 IndIP=      2 IndIPD=      1 C=  2.678389D-01  0.000000D+00                             NZ=T
 IS=     1 IAt=     1 ISR=     1 T=0 IP=      3 IndIP=      3 IndIPD=      2 C=  8.347367D-02  0.000000D+00                             NZ=T
 IS=     2 IAt=     2 ISR=     1 T=0 IP=      1 IndIP=      4 IndIPD=      0 C=  7.749657D-01  0.000000D+00                             NZ=T
 IS=     2 IAt=     2 ISR=     1 T=0 IP=      2 IndIP=      5 IndIPD=      1 C=  1.445329D+00  0.000000D+00                             NZ=T
 IS=     2 IAt=     2 ISR=     1 T=0 IP=      3 IndIP=      6 IndIPD=      2 C=  2.449022D+00  0.000000D+00                             NZ=T
 IS=     2 IAt=     2 ISR=     1 T=0 IP=      4 IndIP=      7 IndIPD=      3 C=  3.730568D+00  0.000000D+00                             NZ=T
 IS=     2 IAt=     2 ISR=     1 T=0 IP=      5 IndIP=      8 IndIPD=      4 C=  4.755208D+00  0.000000D+00                             NZ=T
 IS=     2 IAt=     2 ISR=     1 T=0 IP=      6 IndIP=      9 IndIPD=      5 C=  4.291841D+00  0.000000D+00                             NZ=T
 IS=     2 IAt=     2 ISR=     1 T=0 IP=      7 IndIP=     10 IndIPD=      6 C=  1.841498D+00  0.000000D+00                             NZ=T
 IS=     2 IAt=     2 ISR=     1 T=0 IP=      8 IndIP=     11 IndIPD=      7 C=  1.370586D-01  0.000000D+00                             NZ=T
 IS=     2 IAt=     2 ISR=     1 T=0 IP=      9 IndIP=     12 IndIPD=      8 C=  3.324917D-03  0.000000D+00                             NZ=T
 IS=     3 IAt=     2 ISR=     2 T=0 IP=      1 IndIP=     13 IndIPD=      0 C= -6.085686D-03  0.000000D+00                             NZ=T
 IS=     3 IAt=     2 ISR=     2 T=0 IP=      2 IndIP=     14 IndIPD=      1 C= -3.114138D-02  0.000000D+00                             NZ=T
 IS=     3 IAt=     2 ISR=     2 T=0 IP=      3 IndIP=     15 IndIPD=      2 C= -1.340760D-01  0.000000D+00                             NZ=T
 IS=     3 IAt=     2 ISR=     2 T=0 IP=      4 IndIP=     16 IndIPD=      3 C= -3.604805D-01  0.000000D+00                             NZ=T
 IS=     3 IAt=     2 ISR=     2 T=0 IP=      5 IndIP=     17 IndIPD=      4 C= -4.954545D-01  0.000000D+00                             NZ=T
 IS=     3 IAt=     2 ISR=     2 T=0 IP=      6 IndIP=     18 IndIPD=      5 C=  2.126614D-01  0.000000D+00                             NZ=T
 IS=     3 IAt=     2 ISR=     2 T=0 IP=      7 IndIP=     19 IndIPD=      6 C=  6.152727D-01  0.000000D+00                             NZ=T
 IS=     3 IAt=     2 ISR=     2 T=0 IP=      8 IndIP=     20 IndIPD=      7 C=  2.071440D-01  0.000000D+00                             NZ=T
 IS=     4 IAt=     2 ISR=     3 T=0 IP=      1 IndIP=     21 IndIPD=      0 C=  1.521098D-03  0.000000D+00                             NZ=T
 IS=     4 IAt=     2 ISR=     3 T=0 IP=      2 IndIP=     22 IndIPD=      1 C= -2.379509D-03  0.000000D+00                             NZ=T
 IS=     4 IAt=     2 ISR=     3 T=0 IP=      3 IndIP=     23 IndIPD=      2 C= -1.988937D-02  0.000000D+00                             NZ=T
 IS=     4 IAt=     2 ISR=     3 T=0 IP=      4 IndIP=     24 IndIPD=      3 C= -6.775799D-03  0.000000D+00                             NZ=T
 IS=     4 IAt=     2 ISR=     3 T=0 IP=      5 IndIP=     25 IndIPD=      4 C= -9.360493D-03  0.000000D+00                             NZ=T
 IS=     4 IAt=     2 ISR=     3 T=0 IP=      6 IndIP=     26 IndIPD=      5 C=  1.615288D-02  0.000000D+00                             NZ=T
 IS=     4 IAt=     2 ISR=     3 T=0 IP=      7 IndIP=     27 IndIPD=      6 C= -9.059148D-02  0.000000D+00                             NZ=T
 IS=     4 IAt=     2 ISR=     3 T=0 IP=      8 IndIP=     28 IndIPD=      7 C=  8.779692D-02  0.000000D+00                             NZ=T
 IS=     5 IAt=     2 ISR=     4 T=0 IP=      1 IndIP=     29 IndIPD=      0 C=  4.218867D-02  0.000000D+00                             NZ=T
 IS=     6 IAt=     2 ISR=     5 T=1 IP=      1 IndIP=     30 IndIPD=      0 C=  0.000000D+00  3.916140D+00                             NZ=T
 IS=     6 IAt=     2 ISR=     5 T=1 IP=      2 IndIP=     31 IndIPD=      1 C=  0.000000D+00  4.557958D+00                             NZ=T
 IS=     6 IAt=     2 ISR=     5 T=1 IP=      3 IndIP=     32 IndIPD=      2 C=  0.000000D+00  4.125852D+00                             NZ=T
 IS=     6 IAt=     2 ISR=     5 T=1 IP=      4 IndIP=     33 IndIPD=      3 C=  0.000000D+00  2.441280D+00                             NZ=T
 IS=     6 IAt=     2 ISR=     5 T=1 IP=      5 IndIP=     34 IndIPD=      4 C=  0.000000D+00  8.329269D-01                             NZ=T
 IS=     6 IAt=     2 ISR=     5 T=1 IP=      6 IndIP=     35 IndIPD=      5 C=  0.000000D+00  1.089733D-01                             NZ=T
 IS=     7 IAt=     2 ISR=     6 T=1 IP=      1 IndIP=     36 IndIPD=      0 C=  0.000000D+00  2.457740D-02                             NZ=T
 IS=     7 IAt=     2 ISR=     6 T=1 IP=      2 IndIP=     37 IndIPD=      1 C=  0.000000D+00 -2.625009D-02                             NZ=T
 IS=     7 IAt=     2 ISR=     6 T=1 IP=      3 IndIP=     38 IndIPD=      2 C=  0.000000D+00  1.134429D-02                             NZ=T
 IS=     7 IAt=     2 ISR=     6 T=1 IP=      4 IndIP=     39 IndIPD=      3 C=  0.000000D+00 -2.983152D-02                             NZ=T
 IS=     7 IAt=     2 ISR=     6 T=1 IP=      5 IndIP=     40 IndIPD=      4 C=  0.000000D+00  6.561456D-03                             NZ=T
 IS=     7 IAt=     2 ISR=     6 T=1 IP=      6 IndIP=     41 IndIPD=      5 C=  0.000000D+00  4.674178D-02                             NZ=T
 IS=     8 IAt=     2 ISR=     7 T=1 IP=      1 IndIP=     42 IndIPD=      0 C=  0.000000D+00  1.107711D-02                             NZ=T
 IS=     9 IAt=     2 ISR=     8 T=2 IP=      1 IndIP=     43 IndIPD=      1 C=  0.000000D+00  0.000000D+00  2.790017D-02  0.000000D+00 NZ=T
 IExCor=    0 DFT=F Ex=HF Corr=None ExCW=0 ScaHFX=  1.000000
 ScaDFX=  1.000000  1.000000  1.000000  1.000000 ScalE2=  1.000000  1.000000
 IRadAn=      5 IRanWt=     -1 IRanGd=            0 ICorTp=0 IEmpDi=  4
 NAtoms=    2 NActive=    2 NUniq=    2 SFac= 1.00D+00 NAtFMM=   60 NAOKFM=F Big=F
 Integral buffers will be    131072 words long.
 Raffenetti 1 integral format.
 Two-electron integral symmetry is turned on.
 Leave Link  301 at Mon Mar 28 14:21:12 2022, MaxMem=  9663676416 cpu:               1.8 elap:               0.1
 (Enter /nopt/nrel/apps/gaussian/g16C_1/g16/l302.exe)
 NPDir=0 NMtPBC=     1 NCelOv=     1 NCel=       1 NClECP=     1 NCelD=      1
         NCelK=      1 NCelE2=     1 NClLst=     1 CellRange=     0.0.
 One-electron integrals computed using PRISM.
 One-electron integral symmetry used in STVInt
 Entering OneElI...
 Calculate overlap and kinetic energy integrals
    NBasis =  19  MinDer = 0  MaxDer = 0
 Requested accuracy = 0.1000D-12
 Symmetry will be used
 PrmmSu-InSpLW:  IPartL=    0 NPrtUS=   36 NPrtUL=    1 DoSpLW=F IThBeg=    0 IThEnd=   35 NThAct=   36.
 PrSmSu:  IncTry=   512 NBBP=             45 NTPThr=   100 NPartT=   36 Incr=           1 LDynOK=F GPUOK=F.
 PrsmSu:  NPrtUS=  36 ThrOK=T IAlg=1 LenDen=           0 ISkipM=0 DoSpLW=F IThBeg=    0 IThEnd=   35.
 Prism:   IPart=     0 DynPar=F LinDyn=F Incr=           1.
 PRISM was handed   268425679 working-precision words and    45 shell-pairs
 PRISM was handed   268425679 working-precision words and    45 shell-pairs
 PRISM was handed   268425679 working-precision words and    45 shell-pairs
 PRISM was handed   268425679 working-precision words and    45 shell-pairs
 PRISM was handed   268425679 working-precision words and    45 shell-pairs
 PRISM was handed   268425679 working-precision words and    45 shell-pairs
 PRISM was handed   268425679 working-precision words and    45 shell-pairs
 PRISM was handed   268425679 working-precision words and    45 shell-pairs
 PRISM was handed   268425679 working-precision words and    45 shell-pairs
 PRISM was handed   268425679 working-precision words and    45 shell-pairs
 PRISM was handed   268425679 working-precision words and    45 shell-pairs
 PRISM was handed   268425679 working-precision words and    45 shell-pairs
 PRISM was handed   268425679 working-precision words and    45 shell-pairs
 IPart= 34 NShTot=           0 NBatch=           0 AvBLen=         0.0
 IPart=  8 NShTot=           0 NBatch=           0 AvBLen=         0.0
 IPart= 14 NShTot=           0 NBatch=           0 AvBLen=         0.0
 IPart= 30 NShTot=           0 NBatch=           0 AvBLen=         0.0
 IPart= 16 NShTot=           0 NBatch=           0 AvBLen=         0.0
 IPart= 29 NShTot=           0 NBatch=           0 AvBLen=         0.0
 IPart= 10 NShTot=           0 NBatch=           0 AvBLen=         0.0
 IPart= 19 NShTot=           0 NBatch=           0 AvBLen=         0.0
 PRISM was handed   268425679 working-precision words and    45 shell-pairs
 IPart= 31 NShTot=           0 NBatch=           0 AvBLen=         0.0
 IPart= 26 NShTot=           0 NBatch=           0 AvBLen=         0.0
 IPart= 33 NShTot=           0 NBatch=           0 AvBLen=         0.0
 PRISM was handed   268425679 working-precision words and    45 shell-pairs
 PRISM was handed   268425679 working-precision words and    45 shell-pairs
 IPart=  9 NShTot=           0 NBatch=           0 AvBLen=         0.0
 PRISM was handed   268425679 working-precision words and    45 shell-pairs
 PRISM was handed   268425679 working-precision words and    45 shell-pairs
 PRISM was handed   268425679 working-precision words and    45 shell-pairs
 PRISM was handed   268425679 working-precision words and    45 shell-pairs
 PRISM was handed   268425679 working-precision words and    45 shell-pairs
 IPart=  2 NShTot=           3 NBatch=           3 AvBLen=         1.0
 IPart= 35 NShTot=           0 NBatch=           0 AvBLen=         0.0
 IPart= 28 NShTot=           0 NBatch=           0 AvBLen=         0.0
 PRISM was handed   268425679 working-precision words and    45 shell-pairs
 PRISM was handed   268425679 working-precision words and    45 shell-pairs
 PRISM was handed   268425679 working-precision words and    45 shell-pairs
 IPart= 17 NShTot=           0 NBatch=           0 AvBLen=         0.0
 IPart=  7 NShTot=           0 NBatch=           0 AvBLen=         0.0
 IPart= 12 NShTot=           0 NBatch=           0 AvBLen=         0.0
 IPart= 24 NShTot=           0 NBatch=           0 AvBLen=         0.0
 PRISM was handed   268425679 working-precision words and    45 shell-pairs
 PRISM was handed   268425679 working-precision words and    45 shell-pairs
 IPart=  4 NShTot=           0 NBatch=           0 AvBLen=         0.0
 IPart=  3 NShTot=           1 NBatch=           1 AvBLen=         1.0
 IPart= 27 NShTot=           0 NBatch=           0 AvBLen=         0.0
 IPart= 15 NShTot=           0 NBatch=           0 AvBLen=         0.0
 PRISM was handed   268425679 working-precision words and    45 shell-pairs
 PRISM was handed   268425679 working-precision words and    45 shell-pairs
 PRISM was handed   268425679 working-precision words and    45 shell-pairs
 PRISM was handed   268425679 working-precision words and    45 shell-pairs
 PRISM was handed   268425679 working-precision words and    45 shell-pairs
 PRISM was handed   268425679 working-precision words and    45 shell-pairs
 PRISM was handed   268425679 working-precision words and    45 shell-pairs
 IPart= 20 NShTot=           0 NBatch=           0 AvBLen=         0.0
 IPart=  5 NShTot=           0 NBatch=           0 AvBLen=         0.0
 PRISM was handed   268425679 working-precision words and    45 shell-pairs
 IPart= 13 NShTot=           0 NBatch=           0 AvBLen=         0.0
 PRISM was handed   268425679 working-precision words and    45 shell-pairs
 PRISM was handed   268425679 working-precision words and    45 shell-pairs
 IPart=  0 NShTot=          28 NBatch=          28 AvBLen=         1.0
 IPart= 11 NShTot=           0 NBatch=           0 AvBLen=         0.0
 IPart= 32 NShTot=           0 NBatch=           0 AvBLen=         0.0
 IPart= 25 NShTot=           0 NBatch=           0 AvBLen=         0.0
 IPart= 21 NShTot=           0 NBatch=           0 AvBLen=         0.0
 IPart=  6 NShTot=           0 NBatch=           0 AvBLen=         0.0
 IPart= 22 NShTot=           0 NBatch=           0 AvBLen=         0.0
 IPart=  1 NShTot=          13 NBatch=          13 AvBLen=         1.0
 IPart= 23 NShTot=           0 NBatch=           0 AvBLen=         0.0
 IPart= 18 NShTot=           0 NBatch=           0 AvBLen=         0.0
 PrSmSu:  NxtVal=             37.
 *** Overlap *** 
                1             2             3             4             5 
      1  0.100000D+01
      2  0.100299D-02  0.100000D+01
      3  0.119373D-01  0.247971D+00  0.100000D+01
      4  0.224725D+00  0.318917D-02  0.166761D+00  0.100000D+01
      5  0.227943D+00  0.200816D-01  0.169469D+00  0.877618D+00  0.100000D+01
      6  0.000000D+00  0.000000D+00  0.000000D+00  0.000000D+00  0.000000D+00
      7  0.000000D+00  0.000000D+00  0.000000D+00  0.000000D+00  0.000000D+00
      8 -0.181415D-01  0.000000D+00  0.000000D+00  0.000000D+00  0.000000D+00
      9  0.000000D+00  0.000000D+00  0.000000D+00  0.000000D+00  0.000000D+00
     10  0.000000D+00  0.000000D+00  0.000000D+00  0.000000D+00  0.000000D+00
     11 -0.381898D+00  0.000000D+00  0.000000D+00  0.000000D+00  0.000000D+00
     12  0.000000D+00  0.000000D+00  0.000000D+00  0.000000D+00  0.000000D+00
     13  0.000000D+00  0.000000D+00  0.000000D+00  0.000000D+00  0.000000D+00
     14 -0.276569D+00  0.000000D+00  0.000000D+00  0.000000D+00  0.000000D+00
     15  0.403934D+00  0.000000D+00  0.000000D+00  0.000000D+00  0.000000D+00
     16  0.000000D+00  0.000000D+00  0.000000D+00  0.000000D+00  0.000000D+00
     17  0.000000D+00  0.000000D+00  0.000000D+00  0.000000D+00  0.000000D+00
     18  0.000000D+00  0.000000D+00  0.000000D+00  0.000000D+00  0.000000D+00
     19  0.000000D+00  0.000000D+00  0.000000D+00  0.000000D+00  0.000000D+00
                6             7             8             9            10 
      6  0.100000D+01
      7  0.000000D+00  0.100000D+01
      8  0.000000D+00  0.000000D+00  0.100000D+01
      9  0.154548D+00  0.000000D+00  0.000000D+00  0.100000D+01
     10  0.000000D+00  0.154548D+00  0.000000D+00  0.000000D+00  0.100000D+01
     11  0.000000D+00  0.000000D+00  0.154548D+00  0.000000D+00  0.000000D+00
     12  0.447959D-01  0.000000D+00  0.000000D+00  0.672325D+00  0.000000D+00
     13  0.000000D+00  0.447959D-01  0.000000D+00  0.000000D+00  0.672325D+00
     14  0.000000D+00  0.000000D+00  0.447959D-01  0.000000D+00  0.000000D+00
     15  0.000000D+00  0.000000D+00  0.000000D+00  0.000000D+00  0.000000D+00
     16  0.000000D+00  0.000000D+00  0.000000D+00  0.000000D+00  0.000000D+00
     17  0.000000D+00  0.000000D+00  0.000000D+00  0.000000D+00  0.000000D+00
     18  0.000000D+00  0.000000D+00  0.000000D+00  0.000000D+00  0.000000D+00
     19  0.000000D+00  0.000000D+00  0.000000D+00  0.000000D+00  0.000000D+00
               11            12            13            14            15 
     11  0.100000D+01
     12  0.000000D+00  0.100000D+01
     13  0.000000D+00  0.000000D+00  0.100000D+01
     14  0.672325D+00  0.000000D+00  0.000000D+00  0.100000D+01
     15  0.000000D+00  0.000000D+00  0.000000D+00  0.000000D+00  0.100000D+01
     16  0.000000D+00  0.000000D+00  0.000000D+00  0.000000D+00  0.000000D+00
     17  0.000000D+00  0.000000D+00  0.000000D+00  0.000000D+00  0.000000D+00
     18  0.000000D+00  0.000000D+00  0.000000D+00  0.000000D+00  0.000000D+00
     19  0.000000D+00  0.000000D+00  0.000000D+00  0.000000D+00  0.000000D+00
               16            17            18            19 
     16  0.100000D+01
     17  0.000000D+00  0.100000D+01
     18  0.000000D+00  0.000000D+00  0.100000D+01
     19  0.000000D+00  0.000000D+00  0.000000D+00  0.100000D+01
 *** Kinetic Energy *** 
                1             2             3             4             5 
      1  0.760032D+00
      2 -0.706991D-03  0.559245D+02
      3 -0.615023D-02 -0.270711D+01  0.198850D+01
      4  0.114003D-01 -0.186861D+00 -0.113978D+00  0.981361D-01
      5  0.986298D-02  0.138303D-02  0.114008D-01  0.423571D-01  0.346050D-01
      6  0.000000D+00  0.000000D+00  0.000000D+00  0.000000D+00  0.000000D+00
      7  0.000000D+00  0.000000D+00  0.000000D+00  0.000000D+00  0.000000D+00
      8  0.508218D-02  0.000000D+00  0.000000D+00  0.000000D+00  0.000000D+00
      9  0.000000D+00  0.000000D+00  0.000000D+00  0.000000D+00  0.000000D+00
     10  0.000000D+00  0.000000D+00  0.000000D+00  0.000000D+00  0.000000D+00
     11 -0.523448D-01  0.000000D+00  0.000000D+00  0.000000D+00  0.000000D+00
     12  0.000000D+00  0.000000D+00  0.000000D+00  0.000000D+00  0.000000D+00
     13  0.000000D+00  0.000000D+00  0.000000D+00  0.000000D+00  0.000000D+00
     14 -0.217160D-01  0.000000D+00  0.000000D+00  0.000000D+00  0.000000D+00
     15  0.107742D+00  0.000000D+00  0.000000D+00  0.000000D+00  0.000000D+00
     16  0.000000D+00  0.000000D+00  0.000000D+00  0.000000D+00  0.000000D+00
     17  0.000000D+00  0.000000D+00  0.000000D+00  0.000000D+00  0.000000D+00
     18  0.000000D+00  0.000000D+00  0.000000D+00  0.000000D+00  0.000000D+00
     19  0.000000D+00  0.000000D+00  0.000000D+00  0.000000D+00  0.000000D+00
                6             7             8             9            10 
      6  0.590429D+01
      7  0.000000D+00  0.590429D+01
      8  0.000000D+00  0.000000D+00  0.590429D+01
      9  0.132596D-01  0.000000D+00  0.000000D+00  0.163902D+00
     10  0.000000D+00  0.132596D-01  0.000000D+00  0.000000D+00  0.163902D+00
     11  0.000000D+00  0.000000D+00  0.132596D-01  0.000000D+00  0.000000D+00
     12  0.444443D-02  0.000000D+00  0.000000D+00  0.524934D-01  0.000000D+00
     13  0.000000D+00  0.444443D-02  0.000000D+00  0.000000D+00  0.524934D-01
     14  0.000000D+00  0.000000D+00  0.444443D-02  0.000000D+00  0.000000D+00
     15  0.000000D+00  0.000000D+00  0.000000D+00  0.000000D+00  0.000000D+00
     16  0.000000D+00  0.000000D+00  0.000000D+00  0.000000D+00  0.000000D+00
     17  0.000000D+00  0.000000D+00  0.000000D+00  0.000000D+00  0.000000D+00
     18  0.000000D+00  0.000000D+00  0.000000D+00  0.000000D+00  0.000000D+00
     19  0.000000D+00  0.000000D+00  0.000000D+00  0.000000D+00  0.000000D+00
               11            12            13            14            15 
     11  0.163902D+00
     12  0.000000D+00  0.513250D-01
     13  0.000000D+00  0.000000D+00  0.513250D-01
     14  0.524934D-01  0.000000D+00  0.000000D+00  0.513250D-01
     15  0.000000D+00  0.000000D+00  0.000000D+00  0.000000D+00  0.340550D+00
     16  0.000000D+00  0.000000D+00  0.000000D+00  0.000000D+00  0.000000D+00
     17  0.000000D+00  0.000000D+00  0.000000D+00  0.000000D+00  0.000000D+00
     18  0.000000D+00  0.000000D+00  0.000000D+00  0.000000D+00  0.000000D+00
     19  0.000000D+00  0.000000D+00  0.000000D+00  0.000000D+00  0.000000D+00
               16            17            18            19 
     16  0.340550D+00
     17  0.000000D+00  0.340550D+00
     18  0.000000D+00  0.000000D+00  0.340550D+00
     19  0.000000D+00  0.000000D+00  0.000000D+00  0.340550D+00
 Entering OneElI...
 Calculate potential energy integrals
    NBasis =  19  MinDer = 0  MaxDer = 0
 Requested accuracy = 0.1000D-12
 Symmetry will be used
 PrmmSu-InSpLW:  IPartL=    0 NPrtUS=   36 NPrtUL=    1 DoSpLW=F IThBeg=    0 IThEnd=   35 NThAct=   36.
 PrSmSu:  IncTry=   512 NBBP=             90 NTPThr=   100 NPartT=   36 Incr=           1 LDynOK=F GPUOK=F.
 PrsmSu:  NPrtUS=  36 ThrOK=T IAlg=1 LenDen=           0 ISkipM=0 DoSpLW=F IThBeg=    0 IThEnd=   35.
 Prism:   IPart=     0 DynPar=F LinDyn=F Incr=           1.
 PRISM was handed   268425912 working-precision words and    45 shell-pairs
 PRISM was handed   268425912 working-precision words and    45 shell-pairs
 PRISM was handed   268425912 working-precision words and    45 shell-pairs
 PRISM was handed   268425912 working-precision words and    45 shell-pairs
 PRISM was handed   268425912 working-precision words and    45 shell-pairs
 PRISM was handed   268425912 working-precision words and    45 shell-pairs
 PRISM was handed   268425912 working-precision words and    45 shell-pairs
 PRISM was handed   268425912 working-precision words and    45 shell-pairs
 PRISM was handed   268425912 working-precision words and    45 shell-pairs
 PRISM was handed   268425912 working-precision words and    45 shell-pairs
 PRISM was handed   268425912 working-precision words and    45 shell-pairs
 PRISM was handed   268425912 working-precision words and    45 shell-pairs
 PRISM was handed   268425912 working-precision words and    45 shell-pairs
 PRISM was handed   268425912 working-precision words and    45 shell-pairs
 PRISM was handed   268425912 working-precision words and    45 shell-pairs
 PRISM was handed   268425912 working-precision words and    45 shell-pairs
 PRISM was handed   268425912 working-precision words and    45 shell-pairs
 PRISM was handed   268425912 working-precision words and    45 shell-pairs
 PRISM was handed   268425912 working-precision words and    45 shell-pairs
 PRISM was handed   268425912 working-precision words and    45 shell-pairs
 PRISM was handed   268425912 working-precision words and    45 shell-pairs
 PRISM was handed   268425912 working-precision words and    45 shell-pairs
 PRISM was handed   268425912 working-precision words and    45 shell-pairs
 PRISM was handed   268425912 working-precision words and    45 shell-pairs
 PRISM was handed   268425912 working-precision words and    45 shell-pairs
 PRISM was handed   268425912 working-precision words and    45 shell-pairs
 PRISM was handed   268425912 working-precision words and    45 shell-pairs
 PRISM was handed   268425912 working-precision words and    45 shell-pairs
 PRISM was handed   268425912 working-precision words and    45 shell-pairs
 PRISM was handed   268425912 working-precision words and    45 shell-pairs
 PRISM was handed   268425912 working-precision words and    45 shell-pairs
 PRISM was handed   268425912 working-precision words and    45 shell-pairs
 PRISM was handed   268425912 working-precision words and    45 shell-pairs
 PRISM was handed   268425912 working-precision words and    45 shell-pairs
 PRISM was handed   268425912 working-precision words and    45 shell-pairs
 PRISM was handed   268425912 working-precision words and    45 shell-pairs
 IPart=  1 NShTot=          26 NBatch=          13 AvBLen=         2.0
 IPart=  2 NShTot=           6 NBatch=           3 AvBLen=         2.0
 IPart=  3 NShTot=           2 NBatch=           1 AvBLen=         2.0
 IPart= 29 NShTot=           0 NBatch=           0 AvBLen=         0.0
 IPart= 34 NShTot=           0 NBatch=           0 AvBLen=         0.0
 IPart=  0 NShTot=          56 NBatch=          28 AvBLen=         2.0
 IPart=  7 NShTot=           0 NBatch=           0 AvBLen=         0.0
 IPart= 22 NShTot=           0 NBatch=           0 AvBLen=         0.0
 IPart= 16 NShTot=           0 NBatch=           0 AvBLen=         0.0
 IPart= 27 NShTot=           0 NBatch=           0 AvBLen=         0.0
 IPart=  6 NShTot=           0 NBatch=           0 AvBLen=         0.0
 IPart= 24 NShTot=           0 NBatch=           0 AvBLen=         0.0
 IPart= 28 NShTot=           0 NBatch=           0 AvBLen=         0.0
 IPart=  9 NShTot=           0 NBatch=           0 AvBLen=         0.0
 IPart=  5 NShTot=           0 NBatch=           0 AvBLen=         0.0
 IPart= 20 NShTot=           0 NBatch=           0 AvBLen=         0.0
 IPart= 15 NShTot=           0 NBatch=           0 AvBLen=         0.0
 IPart= 19 NShTot=           0 NBatch=           0 AvBLen=         0.0
 IPart= 21 NShTot=           0 NBatch=           0 AvBLen=         0.0
 IPart= 17 NShTot=           0 NBatch=           0 AvBLen=         0.0
 IPart= 23 NShTot=           0 NBatch=           0 AvBLen=         0.0
 IPart= 31 NShTot=           0 NBatch=           0 AvBLen=         0.0
 IPart= 14 NShTot=           0 NBatch=           0 AvBLen=         0.0
 IPart= 18 NShTot=           0 NBatch=           0 AvBLen=         0.0
 IPart= 26 NShTot=           0 NBatch=           0 AvBLen=         0.0
 IPart=  8 NShTot=           0 NBatch=           0 AvBLen=         0.0
 IPart= 33 NShTot=           0 NBatch=           0 AvBLen=         0.0
 IPart= 32 NShTot=           0 NBatch=           0 AvBLen=         0.0
 IPart= 30 NShTot=           0 NBatch=           0 AvBLen=         0.0
 IPart= 25 NShTot=           0 NBatch=           0 AvBLen=         0.0
 IPart= 35 NShTot=           0 NBatch=           0 AvBLen=         0.0
 IPart= 12 NShTot=           0 NBatch=           0 AvBLen=         0.0
 IPart= 10 NShTot=           0 NBatch=           0 AvBLen=         0.0
 IPart= 11 NShTot=           0 NBatch=           0 AvBLen=         0.0
 IPart=  4 NShTot=           0 NBatch=           0 AvBLen=         0.0
 IPart= 13 NShTot=           0 NBatch=           0 AvBLen=         0.0
 PrSmSu:  NxtVal=             37.
 ***** Potential Energy ***** 
                1             2             3             4             5 
      1  0.355495D+01
      2  0.490903D-01  0.116514D+03
      3  0.126468D+00  0.107986D+02  0.180528D+02
      4  0.776038D+00 -0.127321D+00  0.153729D+01  0.373097D+01
      5  0.731343D+00  0.104906D+01  0.207688D+01  0.298230D+01  0.284582D+01
      6  0.000000D+00  0.000000D+00  0.000000D+00  0.000000D+00  0.000000D+00
      7  0.000000D+00  0.000000D+00  0.000000D+00  0.000000D+00  0.000000D+00
      8 -0.129263D+00 -0.241137D-02 -0.198911D-01 -0.977314D-02 -0.756487D-02
      9  0.000000D+00  0.000000D+00  0.000000D+00  0.000000D+00  0.000000D+00
     10  0.000000D+00  0.000000D+00  0.000000D+00  0.000000D+00  0.000000D+00
     11 -0.126309D+01 -0.835410D-04 -0.434070D-02 -0.839749D-01 -0.780844D-01
     12  0.000000D+00  0.000000D+00  0.000000D+00  0.000000D+00  0.000000D+00
     13  0.000000D+00  0.000000D+00  0.000000D+00  0.000000D+00  0.000000D+00
     14 -0.815438D+00 -0.252683D-04 -0.122004D-02 -0.491342D-01 -0.611491D-01
     15  0.135793D+01  0.147665D-04  0.947920D-03  0.520264D-01  0.483812D-01
     16  0.000000D+00  0.000000D+00  0.000000D+00  0.000000D+00  0.000000D+00
     17  0.000000D+00  0.000000D+00  0.000000D+00  0.000000D+00  0.000000D+00
     18  0.000000D+00  0.000000D+00  0.000000D+00  0.000000D+00  0.000000D+00
     19  0.000000D+00  0.000000D+00  0.000000D+00  0.000000D+00  0.000000D+00
                6             7             8             9            10 
      6  0.188951D+02
      7  0.000000D+00  0.188951D+02
      8  0.000000D+00  0.000000D+00  0.188998D+02
      9  0.121882D+01  0.000000D+00  0.000000D+00  0.316795D+01
     10  0.000000D+00  0.121882D+01  0.000000D+00  0.000000D+00  0.316795D+01
     11  0.000000D+00  0.000000D+00  0.122210D+01  0.000000D+00  0.000000D+00
     12  0.352065D+00  0.000000D+00  0.000000D+00  0.173809D+01  0.000000D+00
     13  0.000000D+00  0.352065D+00  0.000000D+00  0.000000D+00  0.173809D+01
     14  0.000000D+00  0.000000D+00  0.353102D+00  0.000000D+00  0.000000D+00
     15  0.000000D+00  0.000000D+00 -0.588414D-02  0.000000D+00  0.000000D+00
     16 -0.388289D-02  0.000000D+00  0.000000D+00 -0.495564D-01  0.000000D+00
     17  0.000000D+00 -0.388289D-02  0.000000D+00  0.000000D+00 -0.495564D-01
     18  0.000000D+00  0.000000D+00  0.000000D+00  0.000000D+00  0.000000D+00
     19  0.000000D+00  0.000000D+00  0.000000D+00  0.000000D+00  0.000000D+00
               11            12            13            14            15 
     11  0.324147D+01
     12  0.000000D+00  0.180591D+01
     13  0.000000D+00  0.000000D+00  0.180591D+01
     14  0.178550D+01  0.000000D+00  0.000000D+00  0.185034D+01
     15 -0.115433D+00  0.000000D+00  0.000000D+00 -0.704035D-01  0.318882D+01
     16  0.000000D+00 -0.294592D-01  0.000000D+00  0.000000D+00  0.000000D+00
     17  0.000000D+00  0.000000D+00 -0.294592D-01  0.000000D+00  0.000000D+00
     18  0.000000D+00  0.000000D+00  0.000000D+00  0.000000D+00  0.000000D+00
     19  0.000000D+00  0.000000D+00  0.000000D+00  0.000000D+00  0.000000D+00
               16            17            18            19 
     16  0.312523D+01
     17  0.000000D+00  0.312523D+01
     18  0.000000D+00  0.000000D+00  0.309153D+01
     19  0.000000D+00  0.000000D+00  0.000000D+00  0.309153D+01
 ****** Core Hamiltonian ****** 
                1             2             3             4             5 
      1 -0.279491D+01
      2 -0.497973D-01 -0.605891D+02
      3 -0.132618D+00 -0.135057D+02 -0.160643D+02
      4 -0.764638D+00 -0.595396D-01 -0.165126D+01 -0.363283D+01
      5 -0.721480D+00 -0.104768D+01 -0.206548D+01 -0.293994D+01 -0.281121D+01
      6  0.000000D+00  0.000000D+00  0.000000D+00  0.000000D+00  0.000000D+00
      7  0.000000D+00  0.000000D+00  0.000000D+00  0.000000D+00  0.000000D+00
      8  0.134345D+00  0.241137D-02  0.198911D-01  0.977314D-02  0.756487D-02
      9  0.000000D+00  0.000000D+00  0.000000D+00  0.000000D+00  0.000000D+00
     10  0.000000D+00  0.000000D+00  0.000000D+00  0.000000D+00  0.000000D+00
     11  0.121075D+01  0.835410D-04  0.434070D-02  0.839749D-01  0.780844D-01
     12  0.000000D+00  0.000000D+00  0.000000D+00  0.000000D+00  0.000000D+00
     13  0.000000D+00  0.000000D+00  0.000000D+00  0.000000D+00  0.000000D+00
     14  0.793722D+00  0.252683D-04  0.122004D-02  0.491342D-01  0.611491D-01
     15 -0.125018D+01 -0.147665D-04 -0.947920D-03 -0.520264D-01 -0.483812D-01
     16  0.000000D+00  0.000000D+00  0.000000D+00  0.000000D+00  0.000000D+00
     17  0.000000D+00  0.000000D+00  0.000000D+00  0.000000D+00  0.000000D+00
     18  0.000000D+00  0.000000D+00  0.000000D+00  0.000000D+00  0.000000D+00
     19  0.000000D+00  0.000000D+00  0.000000D+00  0.000000D+00  0.000000D+00
                6             7             8             9            10 
      6 -0.129908D+02
      7  0.000000D+00 -0.129908D+02
      8  0.000000D+00  0.000000D+00 -0.129955D+02
      9 -0.120556D+01  0.000000D+00  0.000000D+00 -0.300405D+01
     10  0.000000D+00 -0.120556D+01  0.000000D+00  0.000000D+00 -0.300405D+01
     11  0.000000D+00  0.000000D+00 -0.120884D+01  0.000000D+00  0.000000D+00
     12 -0.347621D+00  0.000000D+00  0.000000D+00 -0.168559D+01  0.000000D+00
     13  0.000000D+00 -0.347621D+00  0.000000D+00  0.000000D+00 -0.168559D+01
     14  0.000000D+00  0.000000D+00 -0.348658D+00  0.000000D+00  0.000000D+00
     15  0.000000D+00  0.000000D+00  0.588414D-02  0.000000D+00  0.000000D+00
     16  0.388289D-02  0.000000D+00  0.000000D+00  0.495564D-01  0.000000D+00
     17  0.000000D+00  0.388289D-02  0.000000D+00  0.000000D+00  0.495564D-01
     18  0.000000D+00  0.000000D+00  0.000000D+00  0.000000D+00  0.000000D+00
     19  0.000000D+00  0.000000D+00  0.000000D+00  0.000000D+00  0.000000D+00
               11            12            13            14            15 
     11 -0.307757D+01
     12  0.000000D+00 -0.175458D+01
     13  0.000000D+00  0.000000D+00 -0.175458D+01
     14 -0.173301D+01  0.000000D+00  0.000000D+00 -0.179902D+01
     15  0.115433D+00  0.000000D+00  0.000000D+00  0.704035D-01 -0.284827D+01
     16  0.000000D+00  0.294592D-01  0.000000D+00  0.000000D+00  0.000000D+00
     17  0.000000D+00  0.000000D+00  0.294592D-01  0.000000D+00  0.000000D+00
     18  0.000000D+00  0.000000D+00  0.000000D+00  0.000000D+00  0.000000D+00
     19  0.000000D+00  0.000000D+00  0.000000D+00  0.000000D+00  0.000000D+00
               16            17            18            19 
     16 -0.278468D+01
     17  0.000000D+00 -0.278468D+01
     18  0.000000D+00  0.000000D+00 -0.275098D+01
     19  0.000000D+00  0.000000D+00  0.000000D+00 -0.275098D+01
 SVDSVc IOpt=   1 NormSV=T IR=1
 SVDSVc V= 2.14D+00 1.84D+00 1.24D+00 1.18D+00 1.00D+00 9.81D-01 7.32D-01 4.72D-01 2.95D-01 1.22D-01
 SVDSVc IOpt=   1 NormSV=T IR=2
 SVDSVc V= 1.00D+00
 SVDSVc IOpt=   1 NormSV=T IR=3
 SVDSVc V= 1.70D+00 1.00D+00 9.81D-01 3.19D-01
 SVDSVc IOpt=   1 NormSV=T IR=4
 SVDSVc V= 1.70D+00 1.00D+00 9.81D-01 3.19D-01
 TstOVc:  Largest diagonal error= 1.33D-15 IB=1 I=    3.
 TstOVc:  Largest same sym error= 6.06D-15 IB=1 I=   10 J=    5.
 TstOVc:  Largest diff sym error= 0.00D+00 IB=0 JB=0 I=    0 J=    0.
 Orthogonalized basis functions: 
                 1             2             3             4             5 
      1   0.311884D+00 -0.160758D+00  0.304091D+00  0.225195D+00  0.000000D+00
      2   0.316273D-01  0.499019D-01 -0.425935D+00  0.524635D+00  0.000000D+00
      3   0.111672D+00  0.139655D+00 -0.413363D+00  0.400076D+00  0.000000D+00
      4   0.343318D+00  0.317085D+00  0.120949D-01 -0.183712D+00  0.000000D+00
      5   0.344231D+00  0.317495D+00  0.552868D-02 -0.173640D+00  0.000000D+00
      6   0.000000D+00  0.000000D+00  0.000000D+00  0.000000D+00  0.000000D+00
      7   0.000000D+00  0.000000D+00  0.000000D+00  0.000000D+00  0.000000D+00
      8  -0.462607D-01  0.935407D-01  0.138673D+00  0.113927D+00  0.000000D+00
      9   0.000000D+00  0.000000D+00  0.000000D+00  0.000000D+00  0.000000D+00
     10   0.000000D+00  0.000000D+00  0.000000D+00  0.000000D+00  0.000000D+00
     11  -0.240561D+00  0.383001D+00  0.190199D+00  0.121423D+00  0.000000D+00
     12   0.000000D+00  0.000000D+00  0.000000D+00  0.000000D+00  0.000000D+00
     13   0.000000D+00  0.000000D+00  0.000000D+00  0.000000D+00  0.000000D+00
     14  -0.219617D+00  0.365001D+00  0.208633D+00  0.134555D+00  0.000000D+00
     15   0.110641D+00 -0.774180D-01  0.512689D+00  0.500446D+00  0.000000D+00
     16   0.000000D+00  0.000000D+00  0.000000D+00  0.000000D+00  0.000000D+00
     17   0.000000D+00  0.000000D+00  0.000000D+00  0.000000D+00  0.000000D+00
     18   0.000000D+00  0.000000D+00  0.000000D+00  0.000000D+00  0.100000D+01
     19   0.000000D+00  0.000000D+00  0.000000D+00  0.000000D+00  0.000000D+00
                 6             7             8             9            10 
      1   0.734855D-02 -0.669628D-01  0.101134D+01  0.534166D+00 -0.138963D-01
      2   0.219542D-02 -0.777115D+00 -0.462383D-01 -0.960753D-02 -0.402796D-01
      3  -0.240849D-04  0.851414D+00  0.110631D+00  0.323268D-01  0.471363D-02
      4  -0.191429D-02 -0.947362D-01 -0.179628D+00 -0.845088D-01 -0.202089D+01
      5  -0.184363D-02 -0.112850D+00 -0.171692D+00 -0.749642D-01  0.202411D+01
      6   0.000000D+00  0.000000D+00  0.000000D+00  0.000000D+00  0.000000D+00
      7   0.000000D+00  0.000000D+00  0.000000D+00  0.000000D+00  0.000000D+00
      8   0.971834D+00  0.953758D-02  0.658668D-02 -0.214546D+00  0.870174D-03
      9   0.000000D+00  0.000000D+00  0.000000D+00  0.000000D+00  0.000000D+00
     10   0.000000D+00  0.000000D+00  0.000000D+00  0.000000D+00  0.000000D+00
     11  -0.555755D-01 -0.144252D-01 -0.904770D-01  0.135032D+01 -0.680162D-02
     12   0.000000D+00  0.000000D+00  0.000000D+00  0.000000D+00  0.000000D+00
     13   0.000000D+00  0.000000D+00  0.000000D+00  0.000000D+00  0.000000D+00
     14  -0.217651D+00 -0.344727D-01  0.644046D+00 -0.106397D+01  0.786795D-03
     15  -0.156165D+00  0.100819D+00 -0.773285D+00 -0.305888D+00  0.639464D-02
     16   0.000000D+00  0.000000D+00  0.000000D+00  0.000000D+00  0.000000D+00
     17   0.000000D+00  0.000000D+00  0.000000D+00  0.000000D+00  0.000000D+00
     18   0.000000D+00  0.000000D+00  0.000000D+00  0.000000D+00  0.000000D+00
     19   0.000000D+00  0.000000D+00  0.000000D+00  0.000000D+00  0.000000D+00
                11            12            13            14            15 
      1   0.000000D+00  0.000000D+00  0.000000D+00  0.000000D+00  0.000000D+00
      2   0.000000D+00  0.000000D+00  0.000000D+00  0.000000D+00  0.000000D+00
      3   0.000000D+00  0.000000D+00  0.000000D+00  0.000000D+00  0.000000D+00
      4   0.000000D+00  0.000000D+00  0.000000D+00  0.000000D+00  0.000000D+00
      5   0.000000D+00  0.000000D+00  0.000000D+00  0.000000D+00  0.000000D+00
      6   0.000000D+00  0.152093D+00  0.000000D+00  0.982915D+00 -0.204821D+00
      7   0.000000D+00  0.000000D+00  0.000000D+00  0.000000D+00  0.000000D+00
      8   0.000000D+00  0.000000D+00  0.000000D+00  0.000000D+00  0.000000D+00
      9   0.000000D+00  0.537460D+00  0.000000D+00 -0.589883D-01  0.125925D+01
     10   0.000000D+00  0.000000D+00  0.000000D+00  0.000000D+00  0.000000D+00
     11   0.000000D+00  0.000000D+00  0.000000D+00  0.000000D+00  0.000000D+00
     12   0.000000D+00  0.525304D+00  0.000000D+00 -0.224234D+00 -0.122909D+01
     13   0.000000D+00  0.000000D+00  0.000000D+00  0.000000D+00  0.000000D+00
     14   0.000000D+00  0.000000D+00  0.000000D+00  0.000000D+00  0.000000D+00
     15   0.000000D+00  0.000000D+00  0.000000D+00  0.000000D+00  0.000000D+00
     16   0.000000D+00  0.000000D+00  0.100000D+01  0.000000D+00  0.000000D+00
     17   0.000000D+00  0.000000D+00  0.000000D+00  0.000000D+00  0.000000D+00
     18   0.000000D+00  0.000000D+00  0.000000D+00  0.000000D+00  0.000000D+00
     19   0.100000D+01  0.000000D+00  0.000000D+00  0.000000D+00  0.000000D+00
                16            17            18            19 
      1   0.000000D+00  0.000000D+00  0.000000D+00  0.000000D+00
      2   0.000000D+00  0.000000D+00  0.000000D+00  0.000000D+00
      3   0.000000D+00  0.000000D+00  0.000000D+00  0.000000D+00
      4   0.000000D+00  0.000000D+00  0.000000D+00  0.000000D+00
      5   0.000000D+00  0.000000D+00  0.000000D+00  0.000000D+00
      6   0.000000D+00  0.000000D+00  0.000000D+00  0.000000D+00
      7   0.152093D+00  0.000000D+00  0.982915D+00 -0.204821D+00
      8   0.000000D+00  0.000000D+00  0.000000D+00  0.000000D+00
      9   0.000000D+00  0.000000D+00  0.000000D+00  0.000000D+00
     10   0.537460D+00  0.000000D+00 -0.589883D-01  0.125925D+01
     11   0.000000D+00  0.000000D+00  0.000000D+00  0.000000D+00
     12   0.000000D+00  0.000000D+00  0.000000D+00  0.000000D+00
     13   0.525304D+00  0.000000D+00 -0.224234D+00 -0.122909D+01
     14   0.000000D+00  0.000000D+00  0.000000D+00  0.000000D+00
     15   0.000000D+00  0.000000D+00  0.000000D+00  0.000000D+00
     16   0.000000D+00  0.000000D+00  0.000000D+00  0.000000D+00
     17   0.000000D+00  0.100000D+01  0.000000D+00  0.000000D+00
     18   0.000000D+00  0.000000D+00  0.000000D+00  0.000000D+00
     19   0.000000D+00  0.000000D+00  0.000000D+00  0.000000D+00
 NBasis=    19 RedAO= T EigKep=  1.22D-01  NBF=    10     1     4     4
 NBsUse=    19 1.00D-06 EigRej= -1.00D+00 NBFU=    10     1     4     4
 Leave Link  302 at Mon Mar 28 14:21:12 2022, MaxMem=  9663676416 cpu:               3.4 elap:               0.1
 (Enter /nopt/nrel/apps/gaussian/g16C_1/g16/l303.exe)
 DipDrv will not compute anything.
 Fermi contact integrals: 
                 1             2 
      1   0.628247D+00  0.192696D-02
      2   0.000000D+00  0.194288D+02
      3   0.000000D+00  0.784000D-02
      4   0.249337D-01 -0.235257D-01
      5   0.252102D-01  0.421887D-01
      6   0.000000D+00  0.000000D+00
      7   0.000000D+00  0.000000D+00
      8  -0.460105D-04  0.000000D+00
      9   0.000000D+00  0.000000D+00
     10   0.000000D+00  0.000000D+00
     11  -0.516127D-01  0.000000D+00
     12   0.000000D+00  0.000000D+00
     13   0.000000D+00  0.000000D+00
     14  -0.330953D-01  0.000000D+00
     15   0.709819D-01  0.000000D+00
     16   0.000000D+00  0.000000D+00
     17   0.000000D+00  0.000000D+00
     18   0.000000D+00  0.000000D+00
     19   0.000000D+00  0.000000D+00
 Leave Link  303 at Mon Mar 28 14:21:12 2022, MaxMem=  9663676416 cpu:               1.2 elap:               0.1
 (Enter /nopt/nrel/apps/gaussian/g16C_1/g16/l401.exe)
 ExpMin= 2.05D-02 ExpMax= 3.17D+04 ExpMxC= 1.08D+03 IAcc=3 IRadAn=         5 AccDes= 0.00D+00
 Harris functional with IExCor=  205 and IRadAn=       5 diagonalized for initial guess.
 HarFok:  IExCor=  205 AccDes= 0.00D+00 IRadAn=         5 IDoV= 1 UseB2=F ITyADJ=14
 ICtDFT=  3500011 ScaDFX=  1.000000  1.000000  1.000000  1.000000
 FoFCou: FMM=F IPFlag=           0 FMFlag=      100000 FMFlg1=           0
         NFxFlg=           0 DoJE=T BraDBF=F KetDBF=T FulRan=T
         wScrn=  0.000000 ICntrl=       500 IOpCl=  0 I1Cent=   200000004 NGrid=           0
         NMat0=    1 NMatS0=      1 NMatT0=    0 NMatD0=    1 NMtDS0=    0 NMtDT0=    0
 Petite list used in FoFCou.
 Harris En= -162.212333668635    
 JPrj=0 DoOrth=F DoCkMO=F.
 Initial guess orbital symmetries:
       Occupied  (SG) (SG) (SG) (PI) (PI) (SG)
       Virtual   (SG) (PI) (PI) (SG) (SG) (PI) (PI) (SG) (PI) (PI)
                 (DLTA) (DLTA) (SG)
 The electronic state of the initial guess is 1-SG.
 Leave Link  401 at Mon Mar 28 14:21:12 2022, MaxMem=  9663676416 cpu:               4.7 elap:               0.2
 (Enter /nopt/nrel/apps/gaussian/g16C_1/g16/l502.exe)
 Keep R1 ints in memory in symmetry-blocked form, NReq=7462371.
 FoFCou: FMM=F IPFlag=           0 FMFlag=           0 FMFlg1=           0
         NFxFlg=           0 DoJE=F BraDBF=F KetDBF=F FulRan=T
         wScrn=  0.000000 ICntrl=       600 IOpCl=  0 I1Cent=           0 NGrid=           0
         NMat0=    1 NMatS0=    190 NMatT0=    0 NMatD0=    1 NMtDS0=    0 NMtDT0=    0
 Petite list used in FoFCou.
 Closed shell SCF:
 Using DIIS extrapolation, IDIIS=  1040.
 NGot=  9663676416 LenX=  9663667906 LenY=  9663667024
 Requested convergence on RMS density matrix=1.00D-08 within 128 cycles.
 Requested convergence on MAX density matrix=1.00D-06.
 Requested convergence on             energy=1.00D-06.
 No special actions if energy rises.

 Cycle   1  Pass 1  IDiag  1:
 E= -162.307101690992    
 DIIS: error= 3.36D-02 at cycle   1 NSaved=   1.
 NSaved= 1 IEnMin= 1 EnMin= -162.307101690992     IErMin= 1 ErrMin= 3.36D-02
 ErrMax= 3.36D-02  0.00D+00 EMaxC= 1.00D-01 BMatC= 1.42D-02 BMatP= 1.42D-02
 IDIUse=3 WtCom= 6.64D-01 WtEn= 3.36D-01
 Coeff-Com:  0.100D+01
 Coeff-En:   0.100D+01
 Coeff:      0.100D+01
 Gap=     0.175 Goal=   None    Shift=    0.000
 GapD=    0.175 DampG=1.000 DampE=0.500 DampFc=0.5000 IDamp=-1.
 Damping current iteration by 5.00D-01
 RMSDP=1.36D-02 MaxDP=1.97D-01              OVMax= 1.80D-01

 Cycle   2  Pass 1  IDiag  1:
 E= -162.326206715674     Delta-E=       -0.019105024682 Rises=F Damp=T
 DIIS: error= 1.61D-02 at cycle   2 NSaved=   2.
 NSaved= 2 IEnMin= 2 EnMin= -162.326206715674     IErMin= 2 ErrMin= 1.61D-02
 ErrMax= 1.61D-02  0.00D+00 EMaxC= 1.00D-01 BMatC= 3.57D-03 BMatP= 1.42D-02
 IDIUse=3 WtCom= 8.39D-01 WtEn= 1.61D-01
 Coeff-Com: -0.990D+00 0.199D+01
 Coeff-En:   0.000D+00 0.100D+01
 Coeff:     -0.831D+00 0.183D+01
 Gap=     0.226 Goal=   None    Shift=    0.000
 RMSDP=6.82D-03 MaxDP=9.59D-02 DE=-1.91D-02 OVMax= 5.48D-03

 Cycle   3  Pass 1  IDiag  1:
 E= -162.345851541586     Delta-E=       -0.019644825912 Rises=F Damp=F
 DIIS: error= 4.25D-04 at cycle   3 NSaved=   3.
 NSaved= 3 IEnMin= 3 EnMin= -162.345851541586     IErMin= 3 ErrMin= 4.25D-04
 ErrMax= 4.25D-04  0.00D+00 EMaxC= 1.00D-01 BMatC= 2.58D-06 BMatP= 3.57D-03
 IDIUse=3 WtCom= 9.96D-01 WtEn= 4.25D-03
 Coeff-Com:  0.237D+00-0.470D+00 0.123D+01
 Coeff-En:   0.000D+00 0.000D+00 0.100D+01
 Coeff:      0.236D+00-0.468D+00 0.123D+01
 Gap=     0.232 Goal=   None    Shift=    0.000
 RMSDP=2.27D-04 MaxDP=1.26D-03 DE=-1.96D-02 OVMax= 3.86D-03

 Cycle   4  Pass 1  IDiag  1:
 E= -162.345866270959     Delta-E=       -0.000014729372 Rises=F Damp=F
 DIIS: error= 1.33D-04 at cycle   4 NSaved=   4.
 NSaved= 4 IEnMin= 4 EnMin= -162.345866270959     IErMin= 4 ErrMin= 1.33D-04
 ErrMax= 1.33D-04  0.00D+00 EMaxC= 1.00D-01 BMatC= 1.62D-07 BMatP= 2.58D-06
 IDIUse=3 WtCom= 9.99D-01 WtEn= 1.33D-03
 Coeff-Com:  0.492D-01-0.961D-01 0.445D-01 0.100D+01
 Coeff-En:   0.000D+00 0.000D+00 0.000D+00 0.100D+01
 Coeff:      0.491D-01-0.960D-01 0.444D-01 0.100D+01
 Gap=     0.232 Goal=   None    Shift=    0.000
 RMSDP=6.45D-05 MaxDP=3.49D-04 DE=-1.47D-05 OVMax= 1.33D-03

 Cycle   5  Pass 1  IDiag  1:
 E= -162.345867677377     Delta-E=       -0.000001406419 Rises=F Damp=F
 DIIS: error= 5.74D-05 at cycle   5 NSaved=   5.
 NSaved= 5 IEnMin= 5 EnMin= -162.345867677377     IErMin= 5 ErrMin= 5.74D-05
 ErrMax= 5.74D-05  0.00D+00 EMaxC= 1.00D-01 BMatC= 2.38D-08 BMatP= 1.62D-07
 IDIUse=1 WtCom= 1.00D+00 WtEn= 0.00D+00
 Coeff-Com: -0.109D-01 0.214D-01 0.293D-01-0.989D+00 0.195D+01
 Coeff:     -0.109D-01 0.214D-01 0.293D-01-0.989D+00 0.195D+01
 Gap=     0.233 Goal=   None    Shift=    0.000
 RMSDP=4.98D-05 MaxDP=3.37D-04 DE=-1.41D-06 OVMax= 1.02D-03

 Cycle   6  Pass 1  IDiag  1:
 E= -162.345867974817     Delta-E=       -0.000000297440 Rises=F Damp=F
 DIIS: error= 4.82D-06 at cycle   6 NSaved=   6.
 NSaved= 6 IEnMin= 6 EnMin= -162.345867974817     IErMin= 6 ErrMin= 4.82D-06
 ErrMax= 4.82D-06  0.00D+00 EMaxC= 1.00D-01 BMatC= 4.08D-10 BMatP= 2.38D-08
 IDIUse=1 WtCom= 1.00D+00 WtEn= 0.00D+00
 Coeff-Com: -0.194D-03 0.364D-03-0.166D-01 0.331D+00-0.649D+00 0.133D+01
 Coeff:     -0.194D-03 0.364D-03-0.166D-01 0.331D+00-0.649D+00 0.133D+01
 Gap=     0.233 Goal=   None    Shift=    0.000
 RMSDP=4.46D-06 MaxDP=2.81D-05 DE=-2.97D-07 OVMax= 2.09D-05

 Cycle   7  Pass 1  IDiag  1:
 E= -162.345867976943     Delta-E=       -0.000000002126 Rises=F Damp=F
 DIIS: error= 1.63D-07 at cycle   7 NSaved=   7.
 NSaved= 7 IEnMin= 7 EnMin= -162.345867976943     IErMin= 7 ErrMin= 1.63D-07
 ErrMax= 1.63D-07  0.00D+00 EMaxC= 1.00D-01 BMatC= 3.92D-13 BMatP= 4.08D-10
 IDIUse=1 WtCom= 1.00D+00 WtEn= 0.00D+00
 Coeff-Com: -0.238D-04 0.502D-04 0.304D-02-0.661D-01 0.130D+00-0.276D+00
 Coeff-Com:  0.121D+01
 Coeff:     -0.238D-04 0.502D-04 0.304D-02-0.661D-01 0.130D+00-0.276D+00
 Coeff:      0.121D+01
 Gap=     0.233 Goal=   None    Shift=    0.000
 RMSDP=1.02D-07 MaxDP=6.18D-07 DE=-2.13D-09 OVMax= 3.51D-07

 Cycle   8  Pass 1  IDiag  1:
 E= -162.345867976944     Delta-E=       -0.000000000001 Rises=F Damp=F
 DIIS: error= 1.85D-08 at cycle   8 NSaved=   8.
 NSaved= 8 IEnMin= 8 EnMin= -162.345867976944     IErMin= 8 ErrMin= 1.85D-08
 ErrMax= 1.85D-08  0.00D+00 EMaxC= 1.00D-01 BMatC= 2.69D-15 BMatP= 3.92D-13
 IDIUse=1 WtCom= 1.00D+00 WtEn= 0.00D+00
 Coeff-Com: -0.895D-06 0.169D-05-0.414D-03 0.855D-02-0.165D-01 0.350D-01
 Coeff-Com: -0.169D+00 0.114D+01
 Coeff:     -0.895D-06 0.169D-05-0.414D-03 0.855D-02-0.165D-01 0.350D-01
 Coeff:     -0.169D+00 0.114D+01
 Gap=     0.233 Goal=   None    Shift=    0.000
 RMSDP=1.39D-08 MaxDP=8.65D-08 DE=-7.96D-13 OVMax= 3.04D-07

 Cycle   9  Pass 1  IDiag  1:
 E= -162.345867976944     Delta-E=        0.000000000000 Rises=F Damp=F
 DIIS: error= 1.28D-09 at cycle   9 NSaved=   9.
 NSaved= 9 IEnMin= 8 EnMin= -162.345867976944     IErMin= 9 ErrMin= 1.28D-09
 ErrMax= 1.28D-09  0.00D+00 EMaxC= 1.00D-01 BMatC= 1.66D-17 BMatP= 2.69D-15
 IDIUse=1 WtCom= 1.00D+00 WtEn= 0.00D+00
 Coeff-Com:  0.207D-06-0.435D-06 0.168D-03-0.344D-02 0.662D-02-0.140D-01
 Coeff-Com:  0.659D-01-0.461D+00 0.141D+01
 Coeff:      0.207D-06-0.435D-06 0.168D-03-0.344D-02 0.662D-02-0.140D-01
 Coeff:      0.659D-01-0.461D+00 0.141D+01
 Gap=     0.233 Goal=   None    Shift=    0.000
 RMSDP=1.82D-09 MaxDP=1.29D-08 DE= 0.00D+00 OVMax= 9.36D-09

 SCF Done:  E(RHF) =  -162.345867977     A.U. after    9 cycles
            NFock=  9  Conv=0.18D-08     -V/T= 2.0002
 KE= 1.623069949870D+02 PE=-3.953382942511D+02 EE= 6.835705155909D+01
 Leave Link  502 at Mon Mar 28 14:21:13 2022, MaxMem=  9663676416 cpu:               4.6 elap:               0.2
 (Enter /nopt/nrel/apps/gaussian/g16C_1/g16/l801.exe)
 Windowed orbitals will be sorted by symmetry type.
 ExpMin= 2.05D-02 ExpMax= 3.17D+04 ExpMxC= 1.08D+03 IAcc=3 IRadAn=         5 AccDes= 0.00D+00
 HarFok:  IExCor=  205 AccDes= 0.00D+00 IRadAn=         5 IDoV=-2 UseB2=F ITyADJ=14
 ICtDFT= 12500011 ScaDFX=  1.000000  1.000000  1.000000  1.000000
 Largest valence mixing into a core orbital is  1.17D-04
 Largest core mixing into a valence orbital is  4.89D-05
 Range of M.O.s used for correlation:     6    19
 NBasis=    19 NAE=     6 NBE=     6 NFC=     5 NFV=     0
 NROrb=     14 NOA=     1 NOB=     1 NVA=    13 NVB=    13
 Leave Link  801 at Mon Mar 28 14:21:13 2022, MaxMem=  9663676416 cpu:               1.6 elap:               0.1
 (Enter /nopt/nrel/apps/gaussian/g16C_1/g16/l804.exe)
 Closed-shell transformation, MDV=  9663676416 ITran=4 ISComp=2.
 Unit  1 TFree=         13636 TCopy=        221891.
 Semi-Direct transformation.
 ModeAB=           2 MOrb=             1 LenV=    9663484204
 LASXX=          322 LTotXX=         322 LenRXX=         322
 LTotAB=         441 MaxLAS=        2940 LenRXY=        2940
 NonZer=        3276 LenScr=      785920 LnRSAI=           0
 LnScr1=           0 LExtra=      222959 Total=      1012141
 MaxDsk= 34359738368 SrtSym=           F ITran=            4
 DoSDTr:  NPSUse= 36
 JobTyp=0 Pass  1:  I=   1 to   1.
 (rs|ai) integrals will be sorted in core.
 Complete sort for first half transformation.
 First half transformation complete.
 Complete sort for second half transformation.
 Second half transformation complete.
 Spin components of T(2) and E(2):
     alpha-alpha T2 =       0.0000000000D+00 E2=      0.0000000000D+00
     alpha-beta  T2 =       0.1966194461D-01 E2=     -0.1940418920D-01
     beta-beta   T2 =       0.0000000000D+00 E2=      0.0000000000D+00
 ANorm=    0.1009783118D+01
 E2 =    -0.1940418920D-01 EUMP2 =    -0.16236527216615D+03
 Leave Link  804 at Mon Mar 28 14:21:13 2022, MaxMem=  9663676416 cpu:               3.3 elap:               0.1
 (Enter /nopt/nrel/apps/gaussian/g16C_1/g16/l913.exe)
 CIDS:  MDV=  9663676416.
 Frozen-core window:  NFC=   5 NFV=   0.
 IFCWin=0 IBDFC=1 NFBD=     0     0 NFCmp=     0     0 NFFFC=     0     0
 Using DD3R+UMP44R for 1st iteration.
 Using DD4RQ for 2nd and later iterations.
 Keep R2 and R3 ints in memory in symmetry-blocked form, NReq=7464801.
 FoFCou: FMM=F IPFlag=           0 FMFlag=           0 FMFlg1=           0
         NFxFlg=           0 DoJE=F BraDBF=F KetDBF=F FulRan=T
         wScrn=  0.000000 ICntrl=       600 IOpCl=  0 I1Cent=           0 NGrid=           0
         NMat0=    1 NMatS0=    190 NMatT0=    0 NMatD0=    1 NMtDS0=    0 NMtDT0=    0
 Petite list used in FoFCou.
 CIDS: In Core Option IDoMem=           1.
 Coupled Cluster theory with single and double substitutions
 ===========================================================
 Iterations= 200 Convergence= 0.100D-06
 Produce multiple copies of IABC intergrals
 Iteration Nr.   1
 **********************
 DD1Dir will call FoFMem   1 times, MxPair=         2
 NAB=     1 NAA=     0 NBB=     0.
 MP4(R+Q)=  0.38152409D-03
 Maximum subspace dimension=  5
 A-vector RMS=  1.6787634D-02 Max=  1.9004574D-02 conv= 1.00D-05.
 RLE energy=       -0.0304420548
 E3=       -0.74261719D-02        EUMP3=      -0.16237269834D+03
 E4(DQ)=   -0.29664611D-02        UMP4(DQ)=   -0.16237566480D+03
 E4(SDQ)=  -0.33044430D-02        UMP4(SDQ)=  -0.16237600278D+03
 VARIATIONAL ENERGIES WITH THE FIRST-ORDER WAVEFUNCTION:
 DE(Corr)= -0.26439885E-01 E(Corr)=     -162.37230786    
 NORM(A)=   0.10255155D+01
 Iteration Nr.   2
 **********************
 DD1Dir will call FoFMem   1 times, MxPair=         2
 NAB=     1 NAA=     0 NBB=     0.
 A-vector RMS=  8.9091135D-03 Max=  1.3330422D-02 conv= 1.00D-05.
 RLE energy=       -0.0325496882
 DE(Corr)= -0.31449896E-01 E(CORR)=     -162.37731787     Delta=-5.01D-03
 NORM(A)=   0.10324305D+01
 Iteration Nr.   3
 **********************
 DD1Dir will call FoFMem   1 times, MxPair=         2
 NAB=     1 NAA=     0 NBB=     0.
 A-vector RMS=  8.2108709D-03 Max=  1.2278188D-02 conv= 1.00D-05.
 RLE energy=       -0.0332998417
 DE(Corr)= -0.32559671E-01 E(CORR)=     -162.37842765     Delta=-1.11D-03
 NORM(A)=   0.10394065D+01
 Iteration Nr.   4
 **********************
 DD1Dir will call FoFMem   1 times, MxPair=         2
 NAB=     1 NAA=     0 NBB=     0.
 A-vector RMS=  2.8885869D-03 Max=  7.1856246D-03 conv= 1.00D-05.
 RLE energy=       -0.0337897376
 DE(Corr)= -0.33415040E-01 E(CORR)=     -162.37928302     Delta=-8.55D-04
 NORM(A)=   0.10442818D+01
 Iteration Nr.   5
 **********************
 DD1Dir will call FoFMem   1 times, MxPair=         2
 NAB=     1 NAA=     0 NBB=     0.
 A-vector RMS=  1.4164206D-03 Max=  1.9387734D-03 conv= 1.00D-05.
 RLE energy=       -0.0337770133
 DE(Corr)= -0.33741694E-01 E(CORR)=     -162.37960967     Delta=-3.27D-04
 NORM(A)=   0.10455053D+01
 Iteration Nr.   6
 **********************
 DD1Dir will call FoFMem   1 times, MxPair=         2
 NAB=     1 NAA=     0 NBB=     0.
 A-vector RMS=  4.0932758D-04 Max=  4.2539936D-04 conv= 1.00D-05.
 RLE energy=       -0.0337500469
 DE(Corr)= -0.33761563E-01 E(CORR)=     -162.37962954     Delta=-1.99D-05
 NORM(A)=   0.10456395D+01
 Iteration Nr.   7
 **********************
 DD1Dir will call FoFMem   1 times, MxPair=         2
 NAB=     1 NAA=     0 NBB=     0.
 A-vector RMS=  1.7924633D-04 Max=  2.0480336D-04 conv= 1.00D-05.
 RLE energy=       -0.0337677565
 DE(Corr)= -0.33757994E-01 E(CORR)=     -162.37962597     Delta= 3.57D-06
 NORM(A)=   0.10457493D+01
 Iteration Nr.   8
 **********************
 DD1Dir will call FoFMem   1 times, MxPair=         2
 NAB=     1 NAA=     0 NBB=     0.
 A-vector RMS=  3.3641427D-05 Max=  3.9007015D-05 conv= 1.00D-05.
 RLE energy=       -0.0337639600
 DE(Corr)= -0.33765199E-01 E(CORR)=     -162.37963318     Delta=-7.20D-06
 NORM(A)=   0.10457281D+01
 Iteration Nr.   9
 **********************
 DD1Dir will call FoFMem   1 times, MxPair=         2
 NAB=     1 NAA=     0 NBB=     0.
 A-vector RMS=  8.0861163D-06 Max=  1.7863143D-05 conv= 1.00D-05.
 RLE energy=       -0.0337652841
 DE(Corr)= -0.33764613E-01 E(CORR)=     -162.37963259     Delta= 5.85D-07
 NORM(A)=   0.10457355D+01
 Iteration Nr.  10
 **********************
 DD1Dir will call FoFMem   1 times, MxPair=         2
 NAB=     1 NAA=     0 NBB=     0.
 A-vector RMS=  4.7548291D-06 Max=  6.2983614D-06 conv= 1.00D-05.
 RLE energy=       -0.0337655011
 DE(Corr)= -0.33765233E-01 E(CORR)=     -162.37963321     Delta=-6.20D-07
 NORM(A)=   0.10457381D+01
 Iteration Nr.  11
 **********************
 DD1Dir will call FoFMem   1 times, MxPair=         2
 NAB=     1 NAA=     0 NBB=     0.
 A-vector RMS=  2.3275358D-06 Max=  5.1969148D-06 conv= 1.00D-05.
 RLE energy=       -0.0337657225
 DE(Corr)= -0.33765539E-01 E(CORR)=     -162.37963352     Delta=-3.05D-07
 NORM(A)=   0.10457413D+01
 Iteration Nr.  12
 **********************
 DD1Dir will call FoFMem   1 times, MxPair=         2
 NAB=     1 NAA=     0 NBB=     0.
 A-vector RMS=  8.1427741D-07 Max=  1.1885968D-06 conv= 1.00D-05.
 RLE energy=       -0.0337657818
 DE(Corr)= -0.33765729E-01 E(CORR)=     -162.37963371     Delta=-1.90D-07
 NORM(A)=   0.10457422D+01
 Iteration Nr.  13
 **********************
 DD1Dir will call FoFMem   1 times, MxPair=         2
 NAB=     1 NAA=     0 NBB=     0.
 A-vector RMS=  2.9440456D-07 Max=  8.6310457D-07 conv= 1.00D-05.
 RLE energy=       -0.0337657843
 DE(Corr)= -0.33765777E-01 E(CORR)=     -162.37963375     Delta=-4.83D-08
 NORM(A)=   0.10457425D+01
 CI/CC converged in   13 iterations to DelEn=-4.83D-08 Conv= 1.00D-07 ErrA1= 2.94D-07 Conv= 1.00D-05
 Wavefunction amplitudes converged. E(Corr)=     -162.37963375    
 Largest amplitude= 8.80D-02
 Discarding MO integrals.
 Leave Link  913 at Mon Mar 28 14:21:13 2022, MaxMem=  9663676416 cpu:               4.8 elap:               0.2
 (Enter /nopt/nrel/apps/gaussian/g16C_1/g16/l601.exe)
 Copying SCF densities to generalized density rwf, IOpCl= 0 IROHF=0.

 **********************************************************************

            Population analysis using the SCF Density.

 **********************************************************************

 Orbital symmetries:
       Occupied  (SG) (SG) (PI) (PI) (SG) (SG)
       Virtual   (SG) (PI) (PI) (SG) (SG) (PI) (PI) (SG) (DLTA)
                 (DLTA) (PI) (PI) (SG)
 The electronic state is 1-SG.
 Alpha  occ. eigenvalues --  -40.49628  -2.81383  -1.53623  -1.53623  -1.53308
 Alpha  occ. eigenvalues --   -0.24296
 Alpha virt. eigenvalues --   -0.01040   0.03203   0.03203   0.09747   0.12043
 Alpha virt. eigenvalues --    0.15252   0.15252   0.19047   0.26629   0.26629
 Alpha virt. eigenvalues --    0.27544   0.27544   0.53704
          Condensed to atoms (all electrons):
               1          2
     1  H    0.548460   0.324690
     2  Na   0.324690  10.802160
 Mulliken charges:
               1
     1  H    0.126850
     2  Na  -0.126850
 Sum of Mulliken charges =  -0.00000
 Mulliken charges with hydrogens summed into heavy atoms:
               1
     2  Na  -0.000000
 N-N= 2.328379728048D+00 E-N=-3.953382942736D+02  KE= 1.623069949870D+02
 Symmetry A1   KE= 1.387384687040D+02
 Symmetry A2   KE= 1.820270656796D-51
 Symmetry B1   KE= 1.178426314149D+01
 Symmetry B2   KE= 1.178426314149D+01

 Atomic contributions to Alpha molecular orbitals:
 Alpha occ 1 OE=-40.496 is Na2-s=1.0000
 Alpha occ 2 OE=-2.814 is Na2-s=0.9997
 Alpha occ 3 OE=-1.536 is Na2-p=1.0000
 Alpha occ 4 OE=-1.536 is Na2-p=1.0000
 Alpha occ 5 OE=-1.533 is Na2-p=0.9996
 Alpha occ 6 OE=-0.243 is H1-s=0.4365 Na2-s=0.3148 Na2-p=0.1969
 Alpha vir 7 OE=-0.010 is Na2-s=0.5123 Na2-p=0.4656
 Alpha vir 8 OE=0.032 is Na2-p=0.9959
 Alpha vir 9 OE=0.032 is Na2-p=0.9959
 Alpha vir 10 OE=0.097 is Na2-p=0.6329 Na2-s=0.2765
 Alpha vir 11 OE=0.120 is Na2-s=0.7546 Na2-p=0.1605
 Alpha vir 12 OE=0.153 is Na2-p=0.9588
 Alpha vir 13 OE=0.153 is Na2-p=0.9588
 Alpha vir 14 OE=0.190 is Na2-d=0.4686 Na2-p=0.3761 Na2-s=0.1025
 Alpha vir 15 OE=0.266 is Na2-d=1.0000
 Alpha vir 16 OE=0.266 is Na2-d=1.0000
 Alpha vir 17 OE=0.275 is Na2-d=0.9548
 Alpha vir 18 OE=0.275 is Na2-d=0.9548
 Alpha vir 19 OE=0.537 is H1-s=0.4037 Na2-d=0.3889 Na2-p=0.1682
 
 Leave Link  601 at Mon Mar 28 14:21:13 2022, MaxMem=  9663676416 cpu:               3.2 elap:               0.1
 (Enter /nopt/nrel/apps/gaussian/g16C_1/g16/l9999.exe)

 Test job not archived.
 1\1\GINC-R102U34\SP\RCCSD-FC\Gen\H1Na1\USER\28-Mar-2022\0\\#P CCSD
 (MaxCyc=200,SaveAmplitudes,ReadAmplitudes)/GEN sp pop=AllOrbitals iop(
 3/33=1,3/36=-1)\\test\\0,1\H,0,0.,0.,0.\Na,0,0.,0.,2.5\\Version=ES64L-
 G16RevC.01\State=1-SG\HF=-162.345868\MP2=-162.3652722\MP3=-162.3726983
 \MP4D=-162.3760463\MP4DQ=-162.3756648\MP4SDQ=-162.3760028\CCSD=-162.37
 96338\RMSD=1.819e-09\PG=C*V [C*(H1Na1)]\\@


 IT IS BETTER TO THINK YOU ARE HALF DRY THAN TO KNOW YOU
 ARE ALL WET.  -- SNOOPY
 Job cpu time:       0 days  0 hours  0 minutes 36.3 seconds.
 Elapsed time:       0 days  0 hours  0 minutes  1.4 seconds.
 File lengths (MBytes):  RWF=     13 Int=      0 D2E=      0 Chk=      1 Scr=      1
 Normal termination of Gaussian 16 at Mon Mar 28 14:21:13 2022.
