 Entering Gaussian System, Link 0=g16
 Initial command:
 /nopt/nrel/apps/gaussian/g16C_1/g16/l1.exe "/lustre/eaglefs/scratch/user/qc/kh-dissc/kh-3-ccsd-0.9-sto3g/Gau-3656.inp" -scrdir="/lustre/eaglefs/scratch/user/qc/kh-dissc/kh-3-ccsd-0.9-sto3g/"
 Default is to use a total of  36 processors:
                               36 via shared-memory
                                1 via Linda
 Entering Link 1 = /nopt/nrel/apps/gaussian/g16C_1/g16/l1.exe PID=      3657.
  
 Copyright (c) 1988-2019, Gaussian, Inc.  All Rights Reserved.
  
 This is part of the Gaussian(R) 16 program.  It is based on
 the Gaussian(R) 09 system (copyright 2009, Gaussian, Inc.),
 the Gaussian(R) 03 system (copyright 2003, Gaussian, Inc.),
 the Gaussian(R) 98 system (copyright 1998, Gaussian, Inc.),
 the Gaussian(R) 94 system (copyright 1995, Gaussian, Inc.),
 the Gaussian 92(TM) system (copyright 1992, Gaussian, Inc.),
 the Gaussian 90(TM) system (copyright 1990, Gaussian, Inc.),
 the Gaussian 88(TM) system (copyright 1988, Gaussian, Inc.),
 the Gaussian 86(TM) system (copyright 1986, Carnegie Mellon
 University), and the Gaussian 82(TM) system (copyright 1983,
 Carnegie Mellon University). Gaussian is a federally registered
 trademark of Gaussian, Inc.
  
 This software contains proprietary and confidential information,
 including trade secrets, belonging to Gaussian, Inc.
  
 This software is provided under written license and may be
 used, copied, transmitted, or stored only in accord with that
 written license.
  
 The following legend is applicable only to US Government
 contracts under FAR:
  
                    RESTRICTED RIGHTS LEGEND
  
 Use, reproduction and disclosure by the US Government is
 subject to restrictions as set forth in subparagraphs (a)
 and (c) of the Commercial Computer Software - Restricted
 Rights clause in FAR 52.227-19.
  
 Gaussian, Inc.
 340 Quinnipiac St., Bldg. 40, Wallingford CT 06492
  
  
 ---------------------------------------------------------------
 Warning -- This program may not be used in any manner that
 competes with the business of Gaussian, Inc. or will provide
 assistance to any competitor of Gaussian, Inc.  The licensee
 of this program is prohibited from giving any competitor of
 Gaussian, Inc. access to this program.  By using this program,
 the user acknowledges that Gaussian, Inc. is engaged in the
 business of creating and licensing software in the field of
 computational chemistry and represents and warrants to the
 licensee that it is not a competitor of Gaussian, Inc. and that
 it will not use this program in any manner prohibited above.
 ---------------------------------------------------------------
  

 Cite this work as:
 Gaussian 16, Revision C.01,
 M. J. Frisch, G. W. Trucks, H. B. Schlegel, G. E. Scuseria, 
 M. A. Robb, J. R. Cheeseman, G. Scalmani, V. Barone, 
 G. A. Petersson, H. Nakatsuji, X. Li, M. Caricato, A. V. Marenich, 
 J. Bloino, B. G. Janesko, R. Gomperts, B. Mennucci, H. P. Hratchian, 
 J. V. Ortiz, A. F. Izmaylov, J. L. Sonnenberg, D. Williams-Young, 
 F. Ding, F. Lipparini, F. Egidi, J. Goings, B. Peng, A. Petrone, 
 T. Henderson, D. Ranasinghe, V. G. Zakrzewski, J. Gao, N. Rega, 
 G. Zheng, W. Liang, M. Hada, M. Ehara, K. Toyota, R. Fukuda, 
 J. Hasegawa, M. Ishida, T. Nakajima, Y. Honda, O. Kitao, H. Nakai, 
 T. Vreven, K. Throssell, J. A. Montgomery, Jr., J. E. Peralta, 
 F. Ogliaro, M. J. Bearpark, J. J. Heyd, E. N. Brothers, K. N. Kudin, 
 V. N. Staroverov, T. A. Keith, R. Kobayashi, J. Normand, 
 K. Raghavachari, A. P. Rendell, J. C. Burant, S. S. Iyengar, 
 J. Tomasi, M. Cossi, J. M. Millam, M. Klene, C. Adamo, R. Cammi, 
 J. W. Ochterski, R. L. Martin, K. Morokuma, O. Farkas, 
 J. B. Foresman, and D. J. Fox, Gaussian, Inc., Wallingford CT, 2019.
 
 ******************************************
 Gaussian 16:  ES64L-G16RevC.01  3-Jul-2019
                28-Mar-2022 
 ******************************************
 %chk=molecule
 Default route: CacheSize=180224 MaxDisk=256GB
 ----------------------------------------------------------------------
 #P CCSD(MaxCyc=200,SaveAmplitudes,ReadAmplitudes)/GEN sp pop=AllOrbita
 ls iop(3/33=1,3/36=-1)
 ----------------------------------------------------------------------
 1/4=180224,38=1,172=1/1;
 2/4=180224,12=2,17=6,18=5,40=1/2;
 3/4=180224,5=7,11=9,25=1,30=1,33=1,36=-1/1,2,3;
 4/4=180224/1;
 5/4=180224,5=2,38=5/2;
 8/4=180224,6=4,9=120000,10=1,24=1/1,4;
 9/4=180224,5=7,6=200,77=1/13;
 6/4=180224,7=2,8=2,9=2,10=2,96=-1/1;
 99/4=180224,5=1,9=1/99;
 Leave Link    1 at Mon Mar 28 14:37:42 2022, MaxMem=           0 cpu:               2.5 elap:               0.1
 (Enter /nopt/nrel/apps/gaussian/g16C_1/g16/l101.exe)
 ----
 test
 ----
 Symbolic Z-matrix:
 Charge =  0 Multiplicity = 3
 H                     0.        0.        0. 
 K                     0.        0.        0.9 
 
 ITRead=  0  0
 MicOpt= -1 -1
 NAtoms=      2 NQM=        2 NQMF=       0 NMMI=      0 NMMIF=      0
                NMic=       0 NMicF=      0.
                    Isotopes and Nuclear Properties:
 (Nuclear quadrupole moments (NQMom) in fm**2, nuclear magnetic moments (NMagM)
  in nuclear magnetons)

  Atom         1           2
 IAtWgt=           1          39
 AtmWgt=   1.0078250  38.9637079
 NucSpn=           1           3
 AtZEff=  -0.0000000  -0.0000000
 NQMom=    0.0000000   5.8500000
 NMagM=    2.7928460   0.3914660
 AtZNuc=   1.0000000  19.0000000
 Leave Link  101 at Mon Mar 28 14:37:42 2022, MaxMem=  9663676416 cpu:               3.1 elap:               0.1
 (Enter /nopt/nrel/apps/gaussian/g16C_1/g16/l202.exe)
                          Input orientation:                          
 ---------------------------------------------------------------------
 Center     Atomic      Atomic             Coordinates (Angstroms)
 Number     Number       Type             X           Y           Z
 ---------------------------------------------------------------------
      1          1           0        0.000000    0.000000    0.000000
      2         19           0        0.000000    0.000000    0.900000
 ---------------------------------------------------------------------
 Stoichiometry    HK(3)
 Framework group  C*V[C*(HK)]
 Deg. of freedom     1
 Full point group                 C*V     NOp   4
 Largest Abelian subgroup         C2V     NOp   4
 Largest concise Abelian subgroup C1      NOp   1
                         Standard orientation:                         
 ---------------------------------------------------------------------
 Center     Atomic      Atomic             Coordinates (Angstroms)
 Number     Number       Type             X           Y           Z
 ---------------------------------------------------------------------
      1          1           0        0.000000    0.000000   -0.855000
      2         19           0        0.000000    0.000000    0.045000
 ---------------------------------------------------------------------
 Rotational constants (GHZ):           0.0000000         635.0933463         635.0933463
 Leave Link  202 at Mon Mar 28 14:37:43 2022, MaxMem=  9663676416 cpu:               1.0 elap:               0.1
 (Enter /nopt/nrel/apps/gaussian/g16C_1/g16/l301.exe)
 General basis read from cards:  (5D, 7F)
                         Coordinates in L301:                         
 ---------------------------------------------------------------------
 Center     Atomic      Atomic             Coordinates (Angstroms)
 Number     Number       Type             X           Y           Z
 ---------------------------------------------------------------------
      1          1           0        0.000000    0.000000   -0.855000
      2         19           0        0.000000    0.000000    0.045000
 ---------------------------------------------------------------------
 Centers:       1
 STO-3G
 ****
 Centers:       2
 STO-3G
 ****
 FixB: optimizing general contractions.
 Ernie: Thresh=  0.10000D-02 Tol=  0.10000D-05 Strict=F.
 IA=     1 ShT= 0 ShC= 0 NL=   1 NS=   0.
 IA=     1 L=0 SC=0 ISt=    0 NBk=    0 NP=    0 IndPr=    0.
 IA=     2 ShT= 0 ShC= 0 NL=   1 NS=   0.
 IA=     2 L=0 SC=0 ISt=    0 NBk=    0 NP=    0 IndPr=    0.
 IA=     2 ShT= 1 ShC= 0 NL=   3 NS=   0.
 IA=     2 L=1 SC=0 ISt=    1 NBk=    3 NP=    9 IndPr=    0.
 DoElim1:  L=1 select primitive    1 from    2 using    1 C=-1.00D-01
 DoElim1:  L=1 select primitive    1 from    3 using    1 C=-1.00D-01
 DoElim1:  L=1 select primitive    4 from    3 using    2 C=-2.20D-01
 DoElim2:  L=1 select primitive    9 from    2 using    3 C= 1.13D+00
 DoElim2:  L=1 select primitive    9 from    1 using    3 C= 1.13D+00
 DoElim2:  L=1 select primitive    7 from    1 using    2 C= 9.00D-01
 DoElim1:  L=1 select primitive    1 from    2 using    1 C= 1.56D-01
 DoElim1:  L=1 select primitive    1 from    3 using    1 C= 1.56D-01
 DoElim1:  L=1 select primitive    4 from    3 using    2 C= 1.06D-02
 DoElim2:  L=1 select primitive    8 from    2 using    3 C= 5.72D-01
 DoElim2:  L=1 select primitive    8 from    1 using    3 C= 5.72D-01
 DoElim2:  L=1 select primitive    5 from    1 using    2 C= 5.95D-01
 Delete L=1 primitive    7 from    3 C=  0.00D+00.
 Delete L=1 primitive    5 from    3 C=  0.00D+00.
 Delete L=1 primitive    4 from    3 C=  0.00D+00.
 Delete L=1 primitive    3 from    3 C=  0.00D+00.
 Delete L=1 primitive    2 from    3 C=  0.00D+00.
 Delete L=1 primitive    1 from    3 C=  0.00D+00.
 Delete L=1 primitive    9 from    2 C=  0.00D+00.
 Delete L=1 primitive    8 from    2 C=  0.00D+00.
 Delete L=1 primitive    6 from    2 C=  0.00D+00.
 Delete L=1 primitive    3 from    2 C=  0.00D+00.
 Delete L=1 primitive    2 from    2 C=  0.00D+00.
 Delete L=1 primitive    1 from    2 C=  0.00D+00.
 Delete L=1 primitive    9 from    1 C=  0.00D+00.
 Delete L=1 primitive    8 from    1 C=  0.00D+00.
 Delete L=1 primitive    7 from    1 C=  0.00D+00.
 Delete L=1 primitive    6 from    1 C=  0.00D+00.
 Delete L=1 primitive    5 from    1 C=  0.00D+00.
 Delete L=1 primitive    4 from    1 C=  0.00D+00.
 IA=     2 L=1 SC=0 ISt=    0 NBk=    0 NP=    0 IndPr=    9.
 LdAtmC:  AtmChg=     1.000000    19.000000
 AtZEff=     -1.0000000    -22.4200000
 NEqShl: 
              1            2            3            4
     1            1            1            1            1
     2            2            2            2            2
     3            3            3            3            3
     4            4            4            4            4
     5            5            5            5            5
 NEqBas: 
              1            2            3            4
     1            1            1            1            1
     2            2            2            2            2
     3            3            3            3            3
     4            4           -4           -4            4
     5            5           -5            5           -5
     6            6            6            6            6
     7            7            7            7            7
     8            8           -8           -8            8
     9            9           -9            9           -9
    10           10           10           10           10
    11           11           11           11           11
    12           12          -12          -12           12
    13           13          -13           13          -13
    14           14           14           14           14
 There are     8 symmetry adapted cartesian basis functions of A1  symmetry.
   1         1   1   1   1
   2         2   2   2   2
   3         3   3   3   3
   4         6   6   6   6
   5         7   7   7   7
   6        10  10  10  10
   7        11  11  11  11
   8        14  14  14  14
 There are     0 symmetry adapted cartesian basis functions of A2  symmetry.
 There are     3 symmetry adapted cartesian basis functions of B1  symmetry.
   9         4   4   4   4
  10         8   8   8   8
  11        12  12  12  12
 There are     3 symmetry adapted cartesian basis functions of B2  symmetry.
  12         5   5   5   5
  13         9   9   9   9
  14        13  13  13  13
 Order= 1 2 4 3
 Reordered character table:
              1            2            3            4            5
     1            1            1            1            1            1
     2            2            1            1           -1           -1
     3            4            1           -1           -1            1
     4            3            1           -1            1           -1
 NEqShl: 
              1            2            3            4
     1            1            1            1            1
     2            2            2            2            2
     3            3            3            3            3
     4            4            4            4            4
     5            5            5            5            5
 NEqBas: 
              1            2            3            4
     1            1            1            1            1
     2            2            2            2            2
     3            3            3            3            3
     4            4           -4           -4            4
     5            5           -5            5           -5
     6            6            6            6            6
     7            7            7            7            7
     8            8           -8           -8            8
     9            9           -9            9           -9
    10           10           10           10           10
    11           11           11           11           11
    12           12          -12          -12           12
    13           13          -13           13          -13
    14           14           14           14           14
 There are     8 symmetry adapted basis functions of A1  symmetry.
   1         1   1   1   1
   2         2   2   2   2
   3         3   3   3   3
   4         6   6   6   6
   5         7   7   7   7
   6        10  10  10  10
   7        11  11  11  11
   8        14  14  14  14
 There are     0 symmetry adapted basis functions of A2  symmetry.
 There are     3 symmetry adapted basis functions of B1  symmetry.
   9         4   4   4   4
  10         8   8   8   8
  11        12  12  12  12
 There are     3 symmetry adapted basis functions of B2  symmetry.
  12         5   5   5   5
  13         9   9   9   9
  14        13  13  13  13
 Order= 1 2 4 3
 Reordered character table:
              1            2            3            4            5
     1            1            1            1            1            1
     2            2            1            1           -1           -1
     3            4            1           -1           -1            1
     4            3            1           -1            1           -1
    14 basis functions,    42 primitive gaussians,    14 cartesian basis functions
    11 alpha electrons        9 beta electrons
       nuclear repulsion energy        11.1715188972 Hartrees.
 IS=     1 IAt=     1 ISR=     1 T=0 IP=      1 IndIP=      1 IndIPD=      0 C=  2.769344D-01  0.000000D+00                             NZ=T
 IS=     1 IAt=     1 ISR=     1 T=0 IP=      2 IndIP=      2 IndIPD=      1 C=  2.678389D-01  0.000000D+00                             NZ=T
 IS=     1 IAt=     1 ISR=     1 T=0 IP=      3 IndIP=      3 IndIPD=      2 C=  8.347367D-02  0.000000D+00                             NZ=T
 IS=     2 IAt=     2 ISR=     1 T=0 IP=      1 IndIP=      4 IndIPD=      0 C=  1.610141D+01  0.000000D+00                             NZ=T
 IS=     2 IAt=     2 ISR=     1 T=0 IP=      2 IndIP=      5 IndIPD=      1 C=  1.557258D+01  0.000000D+00                             NZ=T
 IS=     2 IAt=     2 ISR=     1 T=0 IP=      3 IndIP=      6 IndIPD=      2 C=  4.853293D+00  0.000000D+00                             NZ=T
 IS=     3 IAt=     2 ISR=     2 T=1 IP=      1 IndIP=      7 IndIPD=      0 C= -1.387647D+00  3.133407D+01                             NZ=T
 IS=     3 IAt=     2 ISR=     2 T=1 IP=      2 IndIP=      8 IndIPD=      1 C=  1.856089D+00  1.970370D+01                             NZ=T
 IS=     3 IAt=     2 ISR=     2 T=1 IP=      3 IndIP=      9 IndIPD=      2 C=  1.400818D+00  3.121398D+00                             NZ=T
 IS=     4 IAt=     2 ISR=     3 T=1 IP=      1 IndIP=     10 IndIPD=      0 C= -4.134697D-01  7.617973D-02                             NZ=T
 IS=     4 IAt=     2 ISR=     3 T=1 IP=      2 IndIP=     11 IndIPD=      1 C=  1.630428D-01  8.683221D-01                             NZ=T
 IS=     4 IAt=     2 ISR=     3 T=1 IP=      3 IndIP=     12 IndIPD=      2 C=  3.220075D-01  2.086659D-01                             NZ=T
 IS=     5 IAt=     2 ISR=     4 T=1 IP=      1 IndIP=     13 IndIPD=      0 C= -1.316621D-01 -7.357036D-02                             NZ=T
 IS=     5 IAt=     2 ISR=     4 T=1 IP=      2 IndIP=     14 IndIPD=      1 C=  3.957719D-03  9.951033D-02                             NZ=T
 IS=     5 IAt=     2 ISR=     4 T=1 IP=      3 IndIP=     15 IndIPD=      2 C=  1.236808D-01  3.446781D-02                             NZ=T
 IExCor=    0 DFT=F Ex=HF Corr=None ExCW=0 ScaHFX=  1.000000
 ScaDFX=  1.000000  1.000000  1.000000  1.000000 ScalE2=  1.000000  1.000000
 IRadAn=      5 IRanWt=     -1 IRanGd=            0 ICorTp=0 IEmpDi=  4
 NAtoms=    2 NActive=    2 NUniq=    2 SFac= 1.00D+00 NAtFMM=   60 NAOKFM=F Big=F
 Integral buffers will be    131072 words long.
 Raffenetti 2 integral format.
 Two-electron integral symmetry is turned on.
 Leave Link  301 at Mon Mar 28 14:37:43 2022, MaxMem=  9663676416 cpu:               2.1 elap:               0.1
 (Enter /nopt/nrel/apps/gaussian/g16C_1/g16/l302.exe)
 NPDir=0 NMtPBC=     1 NCelOv=     1 NCel=       1 NClECP=     1 NCelD=      1
         NCelK=      1 NCelE2=     1 NClLst=     1 CellRange=     0.0.
 One-electron integrals computed using PRISM.
 One-electron integral symmetry used in STVInt
 Entering OneElI...
 Calculate overlap and kinetic energy integrals
    NBasis =  14  MinDer = 0  MaxDer = 0
 Requested accuracy = 0.1000D-12
 Symmetry will be used
 PrmmSu-InSpLW:  IPartL=    0 NPrtUS=   36 NPrtUL=    1 DoSpLW=F IThBeg=    0 IThEnd=   35 NThAct=   36.
 PrSmSu:  IncTry=   512 NBBP=             15 NTPThr=   100 NPartT=   36 Incr=           1 LDynOK=F GPUOK=F.
 PrsmSu:  NPrtUS=  36 ThrOK=T IAlg=1 LenDen=           0 ISkipM=0 DoSpLW=F IThBeg=    0 IThEnd=   35.
 Prism:   IPart=     0 DynPar=F LinDyn=F Incr=           1.
 PRISM was handed   268433335 working-precision words and    15 shell-pairs
 PRISM was handed   268433335 working-precision words and    15 shell-pairs
 PRISM was handed   268433335 working-precision words and    15 shell-pairs
 PRISM was handed   268433335 working-precision words and    15 shell-pairs
 PRISM was handed   268433335 working-precision words and    15 shell-pairs
 PRISM was handed   268433335 working-precision words and    15 shell-pairs
 IPart= 12 NShTot=           0 NBatch=           0 AvBLen=         0.0
 IPart= 25 NShTot=           0 NBatch=           0 AvBLen=         0.0
 IPart= 33 NShTot=           0 NBatch=           0 AvBLen=         0.0
 IPart=  6 NShTot=           0 NBatch=           0 AvBLen=         0.0
 IPart= 32 NShTot=           0 NBatch=           0 AvBLen=         0.0
 PRISM was handed   268433335 working-precision words and    15 shell-pairs
 PRISM was handed   268433335 working-precision words and    15 shell-pairs
 PRISM was handed   268433335 working-precision words and    15 shell-pairs
 IPart= 24 NShTot=           0 NBatch=           0 AvBLen=         0.0
 PRISM was handed   268433335 working-precision words and    15 shell-pairs
 IPart=  8 NShTot=           0 NBatch=           0 AvBLen=         0.0
 PRISM was handed   268433335 working-precision words and    15 shell-pairs
 PRISM was handed   268433335 working-precision words and    15 shell-pairs
 PRISM was handed   268433335 working-precision words and    15 shell-pairs
 PRISM was handed   268433335 working-precision words and    15 shell-pairs
 PRISM was handed   268433335 working-precision words and    15 shell-pairs
 PRISM was handed   268433335 working-precision words and    15 shell-pairs
 PRISM was handed   268433335 working-precision words and    15 shell-pairs
 PRISM was handed   268433335 working-precision words and    15 shell-pairs
 IPart=  5 NShTot=           2 NBatch=           2 AvBLen=         1.0
 IPart=  2 NShTot=           3 NBatch=           3 AvBLen=         1.0
 IPart= 35 NShTot=           0 NBatch=           0 AvBLen=         0.0
 IPart= 23 NShTot=           0 NBatch=           0 AvBLen=         0.0
 IPart= 29 NShTot=           0 NBatch=           0 AvBLen=         0.0
 IPart=  4 NShTot=           2 NBatch=           2 AvBLen=         1.0
 IPart= 15 NShTot=           0 NBatch=           0 AvBLen=         0.0
 IPart= 30 NShTot=           0 NBatch=           0 AvBLen=         0.0
 PRISM was handed   268433335 working-precision words and    15 shell-pairs
 PRISM was handed   268433335 working-precision words and    15 shell-pairs
 PRISM was handed   268433335 working-precision words and    15 shell-pairs
 PRISM was handed   268433335 working-precision words and    15 shell-pairs
 IPart= 14 NShTot=           0 NBatch=           0 AvBLen=         0.0
 PRISM was handed   268433335 working-precision words and    15 shell-pairs
 IPart= 13 NShTot=           0 NBatch=           0 AvBLen=         0.0
 PRISM was handed   268433335 working-precision words and    15 shell-pairs
 PRISM was handed   268433335 working-precision words and    15 shell-pairs
 PRISM was handed   268433335 working-precision words and    15 shell-pairs
 PRISM was handed   268433335 working-precision words and    15 shell-pairs
 IPart=  0 NShTot=           3 NBatch=           3 AvBLen=         1.0
 IPart=  7 NShTot=           0 NBatch=           0 AvBLen=         0.0
 IPart= 22 NShTot=           0 NBatch=           0 AvBLen=         0.0
 IPart=  9 NShTot=           0 NBatch=           0 AvBLen=         0.0
 IPart= 26 NShTot=           0 NBatch=           0 AvBLen=         0.0
 IPart= 28 NShTot=           0 NBatch=           0 AvBLen=         0.0
 PRISM was handed   268433335 working-precision words and    15 shell-pairs
 IPart=  3 NShTot=           2 NBatch=           2 AvBLen=         1.0
 IPart= 17 NShTot=           0 NBatch=           0 AvBLen=         0.0
 IPart= 31 NShTot=           0 NBatch=           0 AvBLen=         0.0
 PRISM was handed   268433335 working-precision words and    15 shell-pairs
 PRISM was handed   268433335 working-precision words and    15 shell-pairs
 IPart=  1 NShTot=           3 NBatch=           3 AvBLen=         1.0
 PRISM was handed   268433335 working-precision words and    15 shell-pairs
 PRISM was handed   268433335 working-precision words and    15 shell-pairs
 PRISM was handed   268433335 working-precision words and    15 shell-pairs
 PRISM was handed   268433335 working-precision words and    15 shell-pairs
 PRISM was handed   268433335 working-precision words and    15 shell-pairs
 IPart= 27 NShTot=           0 NBatch=           0 AvBLen=         0.0
 PRISM was handed   268433335 working-precision words and    15 shell-pairs
 IPart= 20 NShTot=           0 NBatch=           0 AvBLen=         0.0
 IPart= 21 NShTot=           0 NBatch=           0 AvBLen=         0.0
 IPart= 11 NShTot=           0 NBatch=           0 AvBLen=         0.0
 IPart= 16 NShTot=           0 NBatch=           0 AvBLen=         0.0
 IPart= 19 NShTot=           0 NBatch=           0 AvBLen=         0.0
 IPart= 18 NShTot=           0 NBatch=           0 AvBLen=         0.0
 IPart= 10 NShTot=           0 NBatch=           0 AvBLen=         0.0
 IPart= 34 NShTot=           0 NBatch=           0 AvBLen=         0.0
 PrSmSu:  NxtVal=             37.
 *** Overlap *** 
                1             2             3             4             5 
      1  0.100000D+01
      2  0.163381D-01  0.100000D+01
      3  0.115095D+00  0.354956D+00  0.100000D+01
      4  0.000000D+00  0.000000D+00  0.000000D+00  0.100000D+01
      5  0.000000D+00  0.000000D+00  0.000000D+00  0.000000D+00  0.100000D+01
      6 -0.447556D-01  0.000000D+00  0.000000D+00  0.000000D+00  0.000000D+00
      7  0.549454D+00  0.177465D-01  0.276696D+00  0.000000D+00  0.000000D+00
      8  0.000000D+00  0.000000D+00  0.000000D+00  0.290978D+00  0.000000D+00
      9  0.000000D+00  0.000000D+00  0.000000D+00  0.000000D+00  0.290978D+00
     10 -0.458841D+00  0.000000D+00  0.000000D+00  0.000000D+00  0.000000D+00
     11  0.519904D+00 -0.411512D-03  0.141138D-01  0.000000D+00  0.000000D+00
     12  0.000000D+00  0.000000D+00  0.000000D+00  0.256077D-01  0.000000D+00
     13  0.000000D+00  0.000000D+00  0.000000D+00  0.000000D+00  0.256077D-01
     14 -0.512569D+00  0.000000D+00  0.000000D+00  0.000000D+00  0.000000D+00
                6             7             8             9            10 
      6  0.100000D+01
      7  0.000000D+00  0.100000D+01
      8  0.000000D+00  0.000000D+00  0.100000D+01
      9  0.000000D+00  0.000000D+00  0.000000D+00  0.100000D+01
     10  0.290978D+00  0.000000D+00  0.000000D+00  0.000000D+00  0.100000D+01
     11  0.000000D+00  0.437056D+00  0.000000D+00  0.000000D+00  0.000000D+00
     12  0.000000D+00  0.000000D+00  0.445695D+00  0.000000D+00  0.000000D+00
     13  0.000000D+00  0.000000D+00  0.000000D+00  0.445695D+00  0.000000D+00
     14  0.256077D-01  0.000000D+00  0.000000D+00  0.000000D+00  0.445695D+00
               11            12            13            14 
     11  0.100000D+01
     12  0.000000D+00  0.100000D+01
     13  0.000000D+00  0.000000D+00  0.100000D+01
     14  0.000000D+00  0.000000D+00  0.000000D+00  0.100000D+01
 *** Kinetic Energy *** 
                1             2             3             4             5 
      1  0.760032D+00
      2  0.140164D-03  0.171191D+03
      3  0.662794D-02  0.616344D+00  0.841372D+01
      4  0.000000D+00  0.000000D+00  0.000000D+00  0.263276D+02
      5  0.000000D+00  0.000000D+00  0.000000D+00  0.000000D+00  0.263276D+02
      6 -0.278060D-01  0.000000D+00  0.000000D+00  0.000000D+00  0.000000D+00
      7  0.182761D+00 -0.508771D+00 -0.622783D+00  0.000000D+00  0.000000D+00
      8  0.000000D+00  0.000000D+00  0.000000D+00  0.115183D+01  0.000000D+00
      9  0.000000D+00  0.000000D+00  0.000000D+00  0.000000D+00  0.115183D+01
     10 -0.377159D+00  0.000000D+00  0.000000D+00  0.000000D+00  0.000000D+00
     11  0.610855D-01 -0.277145D-01 -0.148074D+00  0.000000D+00  0.000000D+00
     12  0.000000D+00  0.000000D+00  0.000000D+00 -0.149366D-01  0.000000D+00
     13  0.000000D+00  0.000000D+00  0.000000D+00  0.000000D+00 -0.149366D-01
     14 -0.193315D+00  0.000000D+00  0.000000D+00  0.000000D+00  0.000000D+00
                6             7             8             9            10 
      6  0.263276D+02
      7  0.000000D+00  0.750794D+00
      8  0.000000D+00  0.000000D+00  0.175622D+01
      9  0.000000D+00  0.000000D+00  0.000000D+00  0.175622D+01
     10  0.115183D+01  0.000000D+00  0.000000D+00  0.000000D+00  0.175622D+01
     11  0.000000D+00 -0.454110D-01  0.000000D+00  0.000000D+00  0.000000D+00
     12  0.000000D+00  0.000000D+00  0.159934D+00  0.000000D+00  0.000000D+00
     13  0.000000D+00  0.000000D+00  0.000000D+00  0.159934D+00  0.000000D+00
     14 -0.149366D-01  0.000000D+00  0.000000D+00  0.000000D+00  0.159934D+00
               11            12            13            14 
     11  0.146782D+00
     12  0.000000D+00  0.289753D+00
     13  0.000000D+00  0.000000D+00  0.289753D+00
     14  0.000000D+00  0.000000D+00  0.000000D+00  0.289753D+00
 Entering OneElI...
 Calculate potential energy integrals
    NBasis =  14  MinDer = 0  MaxDer = 0
 Requested accuracy = 0.1000D-12
 Symmetry will be used
 PrmmSu-InSpLW:  IPartL=    0 NPrtUS=   36 NPrtUL=    1 DoSpLW=F IThBeg=    0 IThEnd=   35 NThAct=   36.
 PrSmSu:  IncTry=   512 NBBP=             30 NTPThr=   100 NPartT=   36 Incr=           1 LDynOK=F GPUOK=F.
 PrsmSu:  NPrtUS=  36 ThrOK=T IAlg=1 LenDen=           0 ISkipM=0 DoSpLW=F IThBeg=    0 IThEnd=   35.
 Prism:   IPart=     0 DynPar=F LinDyn=F Incr=           1.
 PRISM was handed   268433425 working-precision words and    15 shell-pairs
 PRISM was handed   268433425 working-precision words and    15 shell-pairs
 PRISM was handed   268433425 working-precision words and    15 shell-pairs
 PRISM was handed   268433425 working-precision words and    15 shell-pairs
 PRISM was handed   268433425 working-precision words and    15 shell-pairs
 PRISM was handed   268433425 working-precision words and    15 shell-pairs
 PRISM was handed   268433425 working-precision words and    15 shell-pairs
 PRISM was handed   268433425 working-precision words and    15 shell-pairs
 PRISM was handed   268433425 working-precision words and    15 shell-pairs
 PRISM was handed   268433425 working-precision words and    15 shell-pairs
 PRISM was handed   268433425 working-precision words and    15 shell-pairs
 PRISM was handed   268433425 working-precision words and    15 shell-pairs
 PRISM was handed   268433425 working-precision words and    15 shell-pairs
 PRISM was handed   268433425 working-precision words and    15 shell-pairs
 PRISM was handed   268433425 working-precision words and    15 shell-pairs
 PRISM was handed   268433425 working-precision words and    15 shell-pairs
 PRISM was handed   268433425 working-precision words and    15 shell-pairs
 PRISM was handed   268433425 working-precision words and    15 shell-pairs
 PRISM was handed   268433425 working-precision words and    15 shell-pairs
 PRISM was handed   268433425 working-precision words and    15 shell-pairs
 PRISM was handed   268433425 working-precision words and    15 shell-pairs
 PRISM was handed   268433425 working-precision words and    15 shell-pairs
 PRISM was handed   268433425 working-precision words and    15 shell-pairs
 PRISM was handed   268433425 working-precision words and    15 shell-pairs
 PRISM was handed   268433425 working-precision words and    15 shell-pairs
 PRISM was handed   268433425 working-precision words and    15 shell-pairs
 PRISM was handed   268433425 working-precision words and    15 shell-pairs
 PRISM was handed   268433425 working-precision words and    15 shell-pairs
 PRISM was handed   268433425 working-precision words and    15 shell-pairs
 PRISM was handed   268433425 working-precision words and    15 shell-pairs
 PRISM was handed   268433425 working-precision words and    15 shell-pairs
 PRISM was handed   268433425 working-precision words and    15 shell-pairs
 PRISM was handed   268433425 working-precision words and    15 shell-pairs
 PRISM was handed   268433425 working-precision words and    15 shell-pairs
 PRISM was handed   268433425 working-precision words and    15 shell-pairs
 PRISM was handed   268433425 working-precision words and    15 shell-pairs
 IPart=  2 NShTot=           6 NBatch=           3 AvBLen=         2.0
 IPart=  3 NShTot=           4 NBatch=           2 AvBLen=         2.0
 IPart=  1 NShTot=           6 NBatch=           3 AvBLen=         2.0
 IPart=  5 NShTot=           4 NBatch=           2 AvBLen=         2.0
 IPart=  4 NShTot=           4 NBatch=           2 AvBLen=         2.0
 IPart=  0 NShTot=           6 NBatch=           3 AvBLen=         2.0
 IPart= 25 NShTot=           0 NBatch=           0 AvBLen=         0.0
 IPart= 30 NShTot=           0 NBatch=           0 AvBLen=         0.0
 IPart=  8 NShTot=           0 NBatch=           0 AvBLen=         0.0
 IPart= 11 NShTot=           0 NBatch=           0 AvBLen=         0.0
 IPart= 10 NShTot=           0 NBatch=           0 AvBLen=         0.0
 IPart= 19 NShTot=           0 NBatch=           0 AvBLen=         0.0
 IPart= 35 NShTot=           0 NBatch=           0 AvBLen=         0.0
 IPart=  7 NShTot=           0 NBatch=           0 AvBLen=         0.0
 IPart= 27 NShTot=           0 NBatch=           0 AvBLen=         0.0
 IPart= 13 NShTot=           0 NBatch=           0 AvBLen=         0.0
 IPart= 24 NShTot=           0 NBatch=           0 AvBLen=         0.0
 IPart= 18 NShTot=           0 NBatch=           0 AvBLen=         0.0
 IPart= 17 NShTot=           0 NBatch=           0 AvBLen=         0.0
 IPart= 21 NShTot=           0 NBatch=           0 AvBLen=         0.0
 IPart= 16 NShTot=           0 NBatch=           0 AvBLen=         0.0
 IPart=  6 NShTot=           0 NBatch=           0 AvBLen=         0.0
 IPart= 26 NShTot=           0 NBatch=           0 AvBLen=         0.0
 IPart= 32 NShTot=           0 NBatch=           0 AvBLen=         0.0
 IPart= 34 NShTot=           0 NBatch=           0 AvBLen=         0.0
 IPart= 31 NShTot=           0 NBatch=           0 AvBLen=         0.0
 IPart= 22 NShTot=           0 NBatch=           0 AvBLen=         0.0
 IPart= 15 NShTot=           0 NBatch=           0 AvBLen=         0.0
 IPart= 29 NShTot=           0 NBatch=           0 AvBLen=         0.0
 IPart= 28 NShTot=           0 NBatch=           0 AvBLen=         0.0
 IPart=  9 NShTot=           0 NBatch=           0 AvBLen=         0.0
 IPart= 12 NShTot=           0 NBatch=           0 AvBLen=         0.0
 IPart= 23 NShTot=           0 NBatch=           0 AvBLen=         0.0
 IPart= 14 NShTot=           0 NBatch=           0 AvBLen=         0.0
 IPart= 33 NShTot=           0 NBatch=           0 AvBLen=         0.0
 IPart= 20 NShTot=           0 NBatch=           0 AvBLen=         0.0
 PrSmSu:  NxtVal=             37.
 ***** Potential Energy ***** 
                1             2             3             4             5 
      1  0.118898D+02
      2  0.295947D+01  0.350361D+03
      3  0.551929D+01  0.640989D+02  0.699558D+02
      4  0.000000D+00  0.000000D+00  0.000000D+00  0.693947D+02
      5  0.000000D+00  0.000000D+00  0.000000D+00  0.000000D+00  0.693947D+02
      6 -0.164580D+01 -0.104756D-01 -0.686971D-01  0.000000D+00  0.000000D+00
      7  0.871154D+01  0.277706D+01  0.112377D+02  0.000000D+00  0.000000D+00
      8  0.000000D+00  0.000000D+00  0.000000D+00  0.117299D+02  0.000000D+00
      9  0.000000D+00  0.000000D+00  0.000000D+00  0.000000D+00  0.117299D+02
     10 -0.669161D+01 -0.637306D-03 -0.320774D-01  0.000000D+00  0.000000D+00
     11  0.487163D+01 -0.975349D-01  0.367651D+00  0.000000D+00  0.000000D+00
     12  0.000000D+00  0.000000D+00  0.000000D+00  0.896201D+00  0.000000D+00
     13  0.000000D+00  0.000000D+00  0.000000D+00  0.000000D+00  0.896201D+00
     14 -0.476283D+01 -0.360926D-04 -0.310548D-02  0.000000D+00  0.000000D+00
                6             7             8             9            10 
      6  0.694121D+02
      7 -0.335646D-01  0.179940D+02
      8  0.000000D+00  0.000000D+00  0.179649D+02
      9  0.000000D+00  0.000000D+00  0.000000D+00  0.179649D+02
     10  0.117439D+02 -0.225423D+00  0.000000D+00  0.000000D+00  0.181378D+02
     11 -0.248987D-02  0.520816D+01  0.000000D+00  0.000000D+00 -0.100374D+00
     12  0.000000D+00  0.000000D+00  0.537230D+01  0.000000D+00  0.000000D+00
     13  0.000000D+00  0.000000D+00  0.000000D+00  0.537230D+01  0.000000D+00
     14  0.897840D+00 -0.996294D-01  0.000000D+00  0.000000D+00  0.545534D+01
               11            12            13            14 
     11  0.714642D+01
     12  0.000000D+00  0.711513D+01
     13  0.000000D+00  0.000000D+00  0.711513D+01
     14 -0.128932D+00  0.000000D+00  0.000000D+00  0.720677D+01
 ****** Core Hamiltonian ****** 
                1             2             3             4             5 
      1 -0.111298D+02
      2 -0.295933D+01 -0.179170D+03
      3 -0.551267D+01 -0.634826D+02 -0.615421D+02
      4  0.000000D+00  0.000000D+00  0.000000D+00 -0.430672D+02
      5  0.000000D+00  0.000000D+00  0.000000D+00  0.000000D+00 -0.430672D+02
      6  0.161800D+01  0.104756D-01  0.686971D-01  0.000000D+00  0.000000D+00
      7 -0.852878D+01 -0.328583D+01 -0.118605D+02  0.000000D+00  0.000000D+00
      8  0.000000D+00  0.000000D+00  0.000000D+00 -0.105780D+02  0.000000D+00
      9  0.000000D+00  0.000000D+00  0.000000D+00  0.000000D+00 -0.105780D+02
     10  0.631445D+01  0.637306D-03  0.320774D-01  0.000000D+00  0.000000D+00
     11 -0.481054D+01  0.698203D-01 -0.515725D+00  0.000000D+00  0.000000D+00
     12  0.000000D+00  0.000000D+00  0.000000D+00 -0.911138D+00  0.000000D+00
     13  0.000000D+00  0.000000D+00  0.000000D+00  0.000000D+00 -0.911138D+00
     14  0.456951D+01  0.360926D-04  0.310548D-02  0.000000D+00  0.000000D+00
                6             7             8             9            10 
      6 -0.430846D+02
      7  0.335646D-01 -0.172432D+02
      8  0.000000D+00  0.000000D+00 -0.162087D+02
      9  0.000000D+00  0.000000D+00  0.000000D+00 -0.162087D+02
     10 -0.105921D+02  0.225423D+00  0.000000D+00  0.000000D+00 -0.163816D+02
     11  0.248987D-02 -0.525358D+01  0.000000D+00  0.000000D+00  0.100374D+00
     12  0.000000D+00  0.000000D+00 -0.521237D+01  0.000000D+00  0.000000D+00
     13  0.000000D+00  0.000000D+00  0.000000D+00 -0.521237D+01  0.000000D+00
     14 -0.912776D+00  0.996294D-01  0.000000D+00  0.000000D+00 -0.529541D+01
               11            12            13            14 
     11 -0.699963D+01
     12  0.000000D+00 -0.682537D+01
     13  0.000000D+00  0.000000D+00 -0.682537D+01
     14  0.128932D+00  0.000000D+00  0.000000D+00 -0.691701D+01
 SVDSVc IOpt=   1 NormSV=T IR=1
 SVDSVc V= 2.31D+00 1.56D+00 1.30D+00 1.01D+00 7.12D-01 4.79D-01 4.54D-01 1.69D-01
 SVDSVc IOpt=   1 NormSV=T IR=3
 SVDSVc V= 1.54D+00 9.77D-01 4.79D-01
 SVDSVc IOpt=   1 NormSV=T IR=4
 SVDSVc V= 1.54D+00 9.77D-01 4.79D-01
 TstOVc:  Largest diagonal error= 1.33D-15 IB=1 I=    8.
 TstOVc:  Largest same sym error= 7.36D-16 IB=1 I=    8 J=    7.
 TstOVc:  Largest diff sym error= 0.00D+00 IB=0 JB=0 I=    0 J=    0.
 Orthogonalized basis functions: 
                 1             2             3             4             5 
      1   0.402667D+00 -0.146992D-01 -0.909063D-01  0.113930D+00  0.388563D-01
      2   0.372355D-01  0.198964D+00  0.571826D+00  0.764833D-01  0.758525D+00
      3   0.105889D+00  0.298181D+00  0.501314D+00  0.286877D-02 -0.597498D+00
      4   0.000000D+00  0.000000D+00  0.000000D+00  0.000000D+00  0.000000D+00
      5   0.000000D+00  0.000000D+00  0.000000D+00  0.000000D+00  0.000000D+00
      6  -0.708976D-01  0.224496D+00 -0.156489D+00  0.856324D+00 -0.183902D-01
      7   0.274869D+00  0.341851D+00 -0.127324D+00 -0.137778D+00 -0.395172D+00
      8   0.000000D+00  0.000000D+00  0.000000D+00  0.000000D+00  0.000000D+00
      9   0.000000D+00  0.000000D+00  0.000000D+00  0.000000D+00  0.000000D+00
     10  -0.237278D+00  0.400254D+00 -0.168548D+00  0.754066D-01  0.208058D-01
     11   0.251813D+00  0.260193D+00 -0.315124D+00 -0.150198D+00  0.559305D+00
     12   0.000000D+00  0.000000D+00  0.000000D+00  0.000000D+00  0.000000D+00
     13   0.000000D+00  0.000000D+00  0.000000D+00  0.000000D+00  0.000000D+00
     14  -0.238881D+00  0.341843D+00 -0.106712D+00 -0.440674D+00  0.385497D-01
                 6             7             8             9            10 
      1  -0.196066D-01  0.112248D+00  0.187361D+01  0.000000D+00  0.000000D+00
      2  -0.837477D-02  0.451750D+00 -0.477475D-01  0.000000D+00  0.000000D+00
      3   0.136203D-01 -0.745966D+00  0.692070D-01  0.000000D+00  0.000000D+00
      4   0.000000D+00  0.000000D+00  0.000000D+00  0.323218D+00  0.847647D+00
      5   0.000000D+00  0.000000D+00  0.000000D+00  0.000000D+00  0.000000D+00
      6  -0.530885D+00 -0.302390D-01 -0.153017D+00  0.000000D+00  0.000000D+00
      7  -0.805577D-02  0.887730D+00 -0.889940D+00  0.000000D+00  0.000000D+00
      8   0.000000D+00  0.000000D+00  0.000000D+00  0.562627D+00 -0.196580D-01
      9   0.000000D+00  0.000000D+00  0.000000D+00  0.000000D+00  0.000000D+00
     10   0.102347D+01  0.696655D-01  0.653864D+00  0.000000D+00  0.000000D+00
     11   0.259633D-01 -0.797169D+00 -0.705423D+00  0.000000D+00  0.000000D+00
     12   0.000000D+00  0.000000D+00  0.000000D+00  0.475981D+00 -0.552364D+00
     13   0.000000D+00  0.000000D+00  0.000000D+00  0.000000D+00  0.000000D+00
     14  -0.869257D+00  0.498827D-01  0.809777D+00  0.000000D+00  0.000000D+00
                11            12            13            14 
      1   0.000000D+00  0.000000D+00  0.000000D+00  0.000000D+00
      2   0.000000D+00  0.000000D+00  0.000000D+00  0.000000D+00
      3   0.000000D+00  0.000000D+00  0.000000D+00  0.000000D+00
      4  -0.534697D+00  0.000000D+00  0.000000D+00  0.000000D+00
      5   0.000000D+00  0.323218D+00  0.847647D+00 -0.534697D+00
      6   0.000000D+00  0.000000D+00  0.000000D+00  0.000000D+00
      7   0.000000D+00  0.000000D+00  0.000000D+00  0.000000D+00
      8   0.103243D+01  0.000000D+00  0.000000D+00  0.000000D+00
      9   0.000000D+00  0.562627D+00 -0.196580D-01  0.103243D+01
     10   0.000000D+00  0.000000D+00  0.000000D+00  0.000000D+00
     11   0.000000D+00  0.000000D+00  0.000000D+00  0.000000D+00
     12  -0.857278D+00  0.000000D+00  0.000000D+00  0.000000D+00
     13   0.000000D+00  0.475981D+00 -0.552364D+00 -0.857278D+00
     14   0.000000D+00  0.000000D+00  0.000000D+00  0.000000D+00
 NBasis=    14 RedAO= T EigKep=  1.69D-01  NBF=     8     0     3     3
 NBsUse=    14 1.00D-06 EigRej= -1.00D+00 NBFU=     8     0     3     3
 Leave Link  302 at Mon Mar 28 14:37:43 2022, MaxMem=  9663676416 cpu:               3.7 elap:               0.1
 (Enter /nopt/nrel/apps/gaussian/g16C_1/g16/l303.exe)
 DipDrv will not compute anything.
 Fermi contact integrals: 
                 1             2 
      1   0.628247D+00  0.952980D-01
      2   0.000000D+00  0.365273D+02
      3   0.148343D-04  0.186926D+01
      4   0.000000D+00  0.000000D+00
      5   0.000000D+00  0.000000D+00
      6  -0.562179D-04  0.000000D+00
      7   0.110163D+00  0.715806D-01
      8   0.000000D+00  0.000000D+00
      9   0.000000D+00  0.000000D+00
     10  -0.189530D+00  0.000000D+00
     11   0.691919D-01 -0.402363D-02
     12   0.000000D+00  0.000000D+00
     13   0.000000D+00  0.000000D+00
     14  -0.115923D+00  0.000000D+00
 Leave Link  303 at Mon Mar 28 14:37:43 2022, MaxMem=  9663676416 cpu:               0.7 elap:               0.0
 (Enter /nopt/nrel/apps/gaussian/g16C_1/g16/l401.exe)
 ExpMin= 8.21D-02 ExpMax= 7.72D+02 ExpMxC= 7.72D+02 IAcc=3 IRadAn=         5 AccDes= 0.00D+00
 Harris functional with IExCor=  205 and IRadAn=       5 diagonalized for initial guess.
 HarFok:  IExCor=  205 AccDes= 0.00D+00 IRadAn=         5 IDoV= 1 UseB2=F ITyADJ=14
 ICtDFT=  3500011 ScaDFX=  1.000000  1.000000  1.000000  1.000000
 FoFCou: FMM=F IPFlag=           0 FMFlag=      100000 FMFlg1=           0
         NFxFlg=           0 DoJE=T BraDBF=F KetDBF=T FulRan=T
         wScrn=  0.000000 ICntrl=       500 IOpCl=  0 I1Cent=   200000004 NGrid=           0
         NMat0=    1 NMatS0=      1 NMatT0=    0 NMatD0=    1 NMtDS0=    0 NMtDT0=    0
 Petite list used in FoFCou.
 Harris En= -592.130269885025    
 JPrj=0 DoOrth=F DoCkMO=F.
 Initial guess orbital symmetries:
 Alpha Orbitals:
       Occupied  (SG) (SG) (SG) (PI) (PI) (SG) (SG) (PI) (PI) (SG)
                 (SG)
       Virtual   (PI) (PI) (SG)
 Beta  Orbitals:
       Occupied  (SG) (SG) (SG) (PI) (PI) (SG) (SG) (PI) (PI)
       Virtual   (SG) (SG) (PI) (PI) (SG)
 The electronic state of the initial guess is 3-SG.
 Initial guess <Sx>= 0.0000 <Sy>= 0.0000 <Sz>= 1.0000 <S**2>= 2.0000 S= 1.0000
 Leave Link  401 at Mon Mar 28 14:37:43 2022, MaxMem=  9663676416 cpu:               4.3 elap:               0.2
 (Enter /nopt/nrel/apps/gaussian/g16C_1/g16/l502.exe)
 Keep R1 and R2 ints in memory in symmetry-blocked form, NReq=7216806.
 FoFCou: FMM=F IPFlag=           0 FMFlag=           0 FMFlg1=           0
         NFxFlg=           0 DoJE=F BraDBF=F KetDBF=F FulRan=T
         wScrn=  0.000000 ICntrl=       600 IOpCl=  0 I1Cent=           0 NGrid=           0
         NMat0=    1 NMatS0=    105 NMatT0=    0 NMatD0=    1 NMtDS0=    0 NMtDT0=    0
 Petite list used in FoFCou.
 UHF open shell SCF:
 Using DIIS extrapolation, IDIIS=  1040.
 NGot=  9663676416 LenX=  9663669932 LenY=  9663669050
 Requested convergence on RMS density matrix=1.00D-08 within 128 cycles.
 Requested convergence on MAX density matrix=1.00D-06.
 Requested convergence on             energy=1.00D-06.
 No special actions if energy rises.

 Cycle   1  Pass 1  IDiag  1:
 E= -592.808044003533    
 DIIS: error= 5.38D-02 at cycle   1 NSaved=   1.
 NSaved= 1 IEnMin= 1 EnMin= -592.808044003533     IErMin= 1 ErrMin= 5.38D-02
 ErrMax= 5.38D-02  0.00D+00 EMaxC= 1.00D-01 BMatC= 1.76D-01 BMatP= 1.76D-01
 IDIUse=3 WtCom= 4.62D-01 WtEn= 5.38D-01
 Coeff-Com:  0.100D+01
 Coeff-En:   0.100D+01
 Coeff:      0.100D+01
 Gap=     0.274 Goal=   None    Shift=    0.000
 Gap=     1.166 Goal=   None    Shift=    0.000
 GapD=    0.274 DampG=1.000 DampE=0.500 DampFc=0.5000 IDamp=-1.
 Damping current iteration by 5.00D-01
 RMSDP=1.79D-02 MaxDP=8.98D-02              OVMax= 0.00D+00

 Cycle   2  Pass 1  IDiag  1:
 E= -592.821478910056     Delta-E=       -0.013434906522 Rises=F Damp=T
 DIIS: error= 2.66D-02 at cycle   2 NSaved=   2.
 NSaved= 2 IEnMin= 2 EnMin= -592.821478910056     IErMin= 2 ErrMin= 2.66D-02
 ErrMax= 2.66D-02  0.00D+00 EMaxC= 1.00D-01 BMatC= 4.27D-02 BMatP= 1.76D-01
 IDIUse=3 WtCom= 7.34D-01 WtEn= 2.66D-01
 Coeff-Com: -0.960D+00 0.196D+01
 Coeff-En:   0.000D+00 0.100D+01
 Coeff:     -0.705D+00 0.170D+01
 Gap=     0.273 Goal=   None    Shift=    0.000
 Gap=     1.137 Goal=   None    Shift=    0.000
 RMSDP=1.03D-02 MaxDP=6.10D-02 DE=-1.34D-02 OVMax= 0.00D+00

 Cycle   3  Pass 1  IDiag  1:
 E= -592.835179793115     Delta-E=       -0.013700883059 Rises=F Damp=F
 DIIS: error= 1.07D-03 at cycle   3 NSaved=   3.
 NSaved= 3 IEnMin= 3 EnMin= -592.835179793115     IErMin= 3 ErrMin= 1.07D-03
 ErrMax= 1.07D-03  0.00D+00 EMaxC= 1.00D-01 BMatC= 6.52D-05 BMatP= 4.27D-02
 IDIUse=3 WtCom= 9.89D-01 WtEn= 1.07D-02
 Coeff-Com:  0.384D+00-0.783D+00 0.140D+01
 Coeff-En:   0.000D+00 0.000D+00 0.100D+01
 Coeff:      0.380D+00-0.774D+00 0.139D+01
 Gap=     0.274 Goal=   None    Shift=    0.000
 Gap=     1.133 Goal=   None    Shift=    0.000
 RMSDP=1.86D-03 MaxDP=1.67D-02 DE=-1.37D-02 OVMax= 0.00D+00

 Cycle   4  Pass 1  IDiag  1:
 E= -592.835237090009     Delta-E=       -0.000057296894 Rises=F Damp=F
 DIIS: error= 7.31D-04 at cycle   4 NSaved=   4.
 NSaved= 4 IEnMin= 4 EnMin= -592.835237090009     IErMin= 4 ErrMin= 7.31D-04
 ErrMax= 7.31D-04  0.00D+00 EMaxC= 1.00D-01 BMatC= 5.87D-06 BMatP= 6.52D-05
 IDIUse=3 WtCom= 9.93D-01 WtEn= 7.31D-03
 Coeff-Com: -0.227D+00 0.464D+00-0.875D+00 0.164D+01
 Coeff-En:   0.000D+00 0.000D+00 0.000D+00 0.100D+01
 Coeff:     -0.225D+00 0.461D+00-0.868D+00 0.163D+01
 Gap=     0.274 Goal=   None    Shift=    0.000
 Gap=     1.132 Goal=   None    Shift=    0.000
 RMSDP=1.13D-03 MaxDP=1.04D-02 DE=-5.73D-05 OVMax= 0.00D+00

 Cycle   5  Pass 1  IDiag  1:
 E= -592.835247844013     Delta-E=       -0.000010754004 Rises=F Damp=F
 DIIS: error= 2.82D-04 at cycle   5 NSaved=   5.
 NSaved= 5 IEnMin= 5 EnMin= -592.835247844013     IErMin= 5 ErrMin= 2.82D-04
 ErrMax= 2.82D-04  0.00D+00 EMaxC= 1.00D-01 BMatC= 8.63D-07 BMatP= 5.87D-06
 IDIUse=3 WtCom= 9.97D-01 WtEn= 2.82D-03
 Coeff-Com:  0.801D-01-0.163D+00 0.311D+00-0.943D+00 0.172D+01
 Coeff-En:   0.000D+00 0.000D+00 0.000D+00 0.000D+00 0.100D+01
 Coeff:      0.798D-01-0.163D+00 0.310D+00-0.940D+00 0.171D+01
 Gap=     0.274 Goal=   None    Shift=    0.000
 Gap=     1.132 Goal=   None    Shift=    0.000
 RMSDP=6.17D-04 MaxDP=5.82D-03 DE=-1.08D-05 OVMax= 0.00D+00

 Cycle   6  Pass 1  IDiag  1:
 E= -592.835249768940     Delta-E=       -0.000001924927 Rises=F Damp=F
 DIIS: error= 4.89D-05 at cycle   6 NSaved=   6.
 NSaved= 6 IEnMin= 6 EnMin= -592.835249768940     IErMin= 6 ErrMin= 4.89D-05
 ErrMax= 4.89D-05  0.00D+00 EMaxC= 1.00D-01 BMatC= 3.38D-08 BMatP= 8.63D-07
 IDIUse=1 WtCom= 1.00D+00 WtEn= 0.00D+00
 Coeff-Com: -0.121D-01 0.247D-01-0.415D-01 0.194D+00-0.627D+00 0.146D+01
 Coeff:     -0.121D-01 0.247D-01-0.415D-01 0.194D+00-0.627D+00 0.146D+01
 Gap=     0.274 Goal=   None    Shift=    0.000
 Gap=     1.132 Goal=   None    Shift=    0.000
 RMSDP=1.31D-04 MaxDP=1.25D-03 DE=-1.92D-06 OVMax= 0.00D+00

 Cycle   7  Pass 1  IDiag  1:
 E= -592.835249832004     Delta-E=       -0.000000063064 Rises=F Damp=F
 DIIS: error= 2.47D-06 at cycle   7 NSaved=   7.
 NSaved= 7 IEnMin= 7 EnMin= -592.835249832004     IErMin= 7 ErrMin= 2.47D-06
 ErrMax= 2.47D-06  0.00D+00 EMaxC= 1.00D-01 BMatC= 2.47D-10 BMatP= 3.38D-08
 IDIUse=1 WtCom= 1.00D+00 WtEn= 0.00D+00
 Coeff-Com:  0.119D-02-0.240D-02 0.258D-02-0.267D-01 0.130D+00-0.362D+00
 Coeff-Com:  0.126D+01
 Coeff:      0.119D-02-0.240D-02 0.258D-02-0.267D-01 0.130D+00-0.362D+00
 Coeff:      0.126D+01
 Gap=     0.274 Goal=   None    Shift=    0.000
 Gap=     1.132 Goal=   None    Shift=    0.000
 RMSDP=3.42D-06 MaxDP=2.19D-05 DE=-6.31D-08 OVMax= 0.00D+00

 Cycle   8  Pass 1  IDiag  1:
 E= -592.835249832171     Delta-E=       -0.000000000167 Rises=F Damp=F
 DIIS: error= 7.49D-07 at cycle   8 NSaved=   8.
 NSaved= 8 IEnMin= 8 EnMin= -592.835249832171     IErMin= 8 ErrMin= 7.49D-07
 ErrMax= 7.49D-07  0.00D+00 EMaxC= 1.00D-01 BMatC= 1.82D-11 BMatP= 2.47D-10
 IDIUse=1 WtCom= 1.00D+00 WtEn= 0.00D+00
 Coeff-Com: -0.856D-03 0.174D-02-0.221D-02 0.139D-01-0.628D-01 0.168D+00
 Coeff-Com: -0.664D+00 0.155D+01
 Coeff:     -0.856D-03 0.174D-02-0.221D-02 0.139D-01-0.628D-01 0.168D+00
 Coeff:     -0.664D+00 0.155D+01
 Gap=     0.274 Goal=   None    Shift=    0.000
 Gap=     1.132 Goal=   None    Shift=    0.000
 RMSDP=1.41D-06 MaxDP=1.10D-05 DE=-1.67D-10 OVMax= 0.00D+00

 Cycle   9  Pass 1  IDiag  1:
 E= -592.835249832184     Delta-E=       -0.000000000014 Rises=F Damp=F
 DIIS: error= 1.30D-07 at cycle   9 NSaved=   9.
 NSaved= 9 IEnMin= 9 EnMin= -592.835249832184     IErMin= 9 ErrMin= 1.30D-07
 ErrMax= 1.30D-07  0.00D+00 EMaxC= 1.00D-01 BMatC= 8.99D-13 BMatP= 1.82D-11
 IDIUse=1 WtCom= 1.00D+00 WtEn= 0.00D+00
 Coeff-Com:  0.730D-04-0.147D-03 0.489D-04-0.995D-03 0.796D-02-0.225D-01
 Coeff-Com:  0.109D+00-0.458D+00 0.136D+01
 Coeff:      0.730D-04-0.147D-03 0.489D-04-0.995D-03 0.796D-02-0.225D-01
 Coeff:      0.109D+00-0.458D+00 0.136D+01
 Gap=     0.274 Goal=   None    Shift=    0.000
 Gap=     1.132 Goal=   None    Shift=    0.000
 RMSDP=3.86D-07 MaxDP=2.90D-06 DE=-1.40D-11 OVMax= 0.00D+00

 Cycle  10  Pass 1  IDiag  1:
 E= -592.835249832185     Delta-E=       -0.000000000001 Rises=F Damp=F
 DIIS: error= 1.25D-08 at cycle  10 NSaved=  10.
 NSaved=10 IEnMin=10 EnMin= -592.835249832185     IErMin=10 ErrMin= 1.25D-08
 ErrMax= 1.25D-08  0.00D+00 EMaxC= 1.00D-01 BMatC= 4.19D-15 BMatP= 8.99D-13
 IDIUse=1 WtCom= 1.00D+00 WtEn= 0.00D+00
 Coeff-Com: -0.441D-05 0.864D-05 0.155D-04 0.312D-04-0.803D-03 0.230D-02
 Coeff-Com: -0.107D-01 0.643D-01-0.225D+00 0.117D+01
 Coeff:     -0.441D-05 0.864D-05 0.155D-04 0.312D-04-0.803D-03 0.230D-02
 Coeff:     -0.107D-01 0.643D-01-0.225D+00 0.117D+01
 Gap=     0.274 Goal=   None    Shift=    0.000
 Gap=     1.132 Goal=   None    Shift=    0.000
 RMSDP=2.87D-08 MaxDP=2.62D-07 DE=-9.09D-13 OVMax= 0.00D+00

 Cycle  11  Pass 1  IDiag  1:
 E= -592.835249832186     Delta-E=       -0.000000000000 Rises=F Damp=F
 DIIS: error= 1.42D-09 at cycle  11 NSaved=  11.
 NSaved=11 IEnMin=11 EnMin= -592.835249832186     IErMin=11 ErrMin= 1.42D-09
 ErrMax= 1.42D-09  0.00D+00 EMaxC= 1.00D-01 BMatC= 3.30D-17 BMatP= 4.19D-15
 IDIUse=1 WtCom= 1.00D+00 WtEn= 0.00D+00
 Coeff-Com:  0.399D-06-0.768D-06-0.296D-05-0.128D-05 0.102D-03-0.293D-03
 Coeff-Com:  0.123D-02-0.851D-02 0.285D-01-0.203D+00 0.118D+01
 Coeff:      0.399D-06-0.768D-06-0.296D-05-0.128D-05 0.102D-03-0.293D-03
 Coeff:      0.123D-02-0.851D-02 0.285D-01-0.203D+00 0.118D+01
 Gap=     0.274 Goal=   None    Shift=    0.000
 Gap=     1.132 Goal=   None    Shift=    0.000
 RMSDP=1.59D-09 MaxDP=1.28D-08 DE=-4.55D-13 OVMax= 0.00D+00

 SCF Done:  E(UHF) =  -592.835249832     A.U. after   11 cycles
            NFock= 11  Conv=0.16D-08     -V/T= 1.9973
 <Sx>= 0.0000 <Sy>= 0.0000 <Sz>= 1.0000 <S**2>= 2.0005 S= 1.0002
 <L.S>= 0.000000000000E+00
 KE= 5.944607175249D+02 PE=-1.430698504769D+03 EE= 2.322310185152D+02
 Annihilation of the first spin contaminant:
 S**2 before annihilation     2.0005,   after     2.0000
 Leave Link  502 at Mon Mar 28 14:37:43 2022, MaxMem=  9663676416 cpu:               3.2 elap:               0.1
 (Enter /nopt/nrel/apps/gaussian/g16C_1/g16/l801.exe)
 Windowed orbitals will be sorted by symmetry type.
 ExpMin= 8.21D-02 ExpMax= 7.72D+02 ExpMxC= 7.72D+02 IAcc=3 IRadAn=         5 AccDes= 0.00D+00
 HarFok:  IExCor=  205 AccDes= 0.00D+00 IRadAn=         5 IDoV=-2 UseB2=F ITyADJ=14
 ICtDFT= 12500011 ScaDFX=  1.000000  1.000000  1.000000  1.000000
 Largest valence mixing into a core orbital is  5.18D-02
 Largest core mixing into a valence orbital is  1.86D-03
 Range of M.O.s used for correlation:    10    14
 NBasis=    14 NAE=    11 NBE=     9 NFC=     9 NFV=     0
 NROrb=      5 NOA=     2 NOB=     0 NVA=     3 NVB=     5
 Leave Link  801 at Mon Mar 28 14:37:43 2022, MaxMem=  9663676416 cpu:               3.5 elap:               0.1
 (Enter /nopt/nrel/apps/gaussian/g16C_1/g16/l804.exe)
 Open-shell transformation, MDV=  9663676416 ITran=4 ISComp=2.
 Unit  1 TFree=         14490 TCopy=          1303.
 Semi-Direct transformation.
 ModeAB=           2 MOrb=             2 LenV=    9663555426
 LASXX=           19 LTotXX=          19 LenRXX=          19
 LTotAB=          52 MaxLAS=        1050 LenRXY=        1050
 NonZer=        1230 LenScr=      785920 LnRSAI=           0
 LnScr1=           0 LExtra=      220700 Total=      1007689
 MaxDsk= 34359738368 SrtSym=           F ITran=            4
 DoSDTr:  NPSUse= 36
 JobTyp=1 Pass  1:  I=   1 to   2.
 (rs|ai) integrals will be sorted in core.
 Complete sort for first half transformation.
 First half transformation complete.
 Complete sort for second half transformation.
 Second half transformation complete.
 Spin components of T(2) and E(2):
     alpha-alpha T2 =       0.0000000000D+00 E2=      0.0000000000D+00
     alpha-beta  T2 =       0.0000000000D+00 E2=      0.0000000000D+00
     beta-beta   T2 =       0.0000000000D+00 E2=      0.0000000000D+00
 ANorm=    0.1000000000D+01
 E2 =     0.0000000000D+00 EUMP2 =    -0.59283524983219D+03
 Leave Link  804 at Mon Mar 28 14:37:43 2022, MaxMem=  9663676416 cpu:               2.2 elap:               0.1
 (Enter /nopt/nrel/apps/gaussian/g16C_1/g16/l913.exe)
 CIDS:  MDV=  9663676416.
 Frozen-core window:  NFC=   9 NFV=   0.
 IFCWin=0 IBDFC=1 NFBD=     0     0 NFCmp=     0     0 NFFFC=     0     0
 Using original routines for 1st iteration.
 Using DD4UQ or CC4UQ for 2nd and later iterations.
 Keep R2 and R3 ints in memory in symmetry-blocked form, NReq=7219196.
 FoFCou: FMM=F IPFlag=           0 FMFlag=           0 FMFlg1=           0
         NFxFlg=           0 DoJE=F BraDBF=F KetDBF=F FulRan=T
         wScrn=  0.000000 ICntrl=       600 IOpCl=  0 I1Cent=           0 NGrid=           0
         NMat0=    1 NMatS0=    105 NMatT0=    0 NMatD0=    1 NMtDS0=    0 NMtDT0=    0
 Petite list used in FoFCou.
 CIDS: In Core Option IDoMem=           1.
 Coupled Cluster theory with single and double substitutions
 ===========================================================
 Iterations= 200 Convergence= 0.100D-06
 Produce multiple copies of IABC intergrals
 Iteration Nr.   1
 **********************
 DD1Dir will call FoFMem   1 times, MxPair=         2
 NAB=     0 NAA=     1 NBB=     0.
 MP4(R+Q)=  0.00000000D+00
 Maximum subspace dimension=  5
 A-vector RMS=  0.0000000D+00 Max=  0.0000000D+00 conv= 1.00D-05.
 RLE energy=        0.0000000000
 E3=        0.00000000D+00        EUMP3=      -0.59283524983D+03
 E4(DQ)=    0.00000000D+00        UMP4(DQ)=   -0.59283524983D+03
 E4(SDQ)=   0.00000000D+00        UMP4(SDQ)=  -0.59283524983D+03
 VARIATIONAL ENERGIES WITH THE FIRST-ORDER WAVEFUNCTION:
 DE(Corr)=  0.00000000E+00 E(Corr)=     -592.83524983    
 NORM(A)=   0.10000000D+01
 Iteration Nr.   2
 **********************
 DD1Dir will call FoFMem   1 times, MxPair=         2
 NAB=     0 NAA=     1 NBB=     0.
 A-vector RMS=  0.0000000D+00 Max=  0.0000000D+00 conv= 1.00D-05.
 RLE energy=        0.0000000000
 DE(Corr)=  0.00000000E+00 E(CORR)=     -592.83524983     Delta= 0.00D+00
 NORM(A)=   0.10000000D+01
 CI/CC converged in    2 iterations to DelEn= 0.00D+00 Conv= 1.00D-07 ErrA1= 0.00D+00 Conv= 1.00D-05
 Wavefunction amplitudes converged. E(Corr)=     -592.83524983    
 Largest amplitude= 0.00D+00
 Discarding MO integrals.
 Leave Link  913 at Mon Mar 28 14:37:43 2022, MaxMem=  9663676416 cpu:               3.2 elap:               0.1
 (Enter /nopt/nrel/apps/gaussian/g16C_1/g16/l601.exe)
 Copying SCF densities to generalized density rwf, IOpCl= 1 IROHF=0.

 **********************************************************************

            Population analysis using the SCF Density.

 **********************************************************************

 Orbital symmetries:
 Alpha Orbitals:
       Occupied  (SG) (SG) (SG) (PI) (PI) (SG) (SG) (PI) (PI) (SG)
                 (SG)
       Virtual   (PI) (PI) (SG)
 Beta  Orbitals:
       Occupied  (SG) (SG) (SG) (PI) (PI) (SG) (SG) (PI) (PI)
       Virtual   (SG) (PI) (PI) (SG) (SG)
 The electronic state is 3-SG.
 Alpha  occ. eigenvalues -- -132.09972 -14.33139 -11.44183 -11.42333 -11.42333
 Alpha  occ. eigenvalues --   -1.92173  -1.19422  -1.01062  -1.01062  -0.20593
 Alpha  occ. eigenvalues --   -0.01162
 Alpha virt. eigenvalues --    0.26287   0.26287   0.47935
  Beta  occ. eigenvalues -- -132.09089 -14.31772 -11.42301 -11.41906 -11.41906
  Beta  occ. eigenvalues --   -1.88680  -1.14956  -0.99764  -0.99764
  Beta virt. eigenvalues --    0.13441   0.33792   0.33792   0.34565   0.53095
          Condensed to atoms (all electrons):
               1          2
     1  H    0.537610   0.173237
     2  K    0.173237  19.115915
          Atomic-Atomic Spin Densities.
               1          2
     1  H    0.049146  -0.024566
     2  K   -0.024566   1.999985
 Mulliken charges and spin densities:
               1          2
     1  H    0.289153   0.024580
     2  K   -0.289153   1.975420
 Sum of Mulliken charges =   0.00000   2.00000
 Mulliken charges and spin densities with hydrogens summed into heavy atoms:
               1          2
     2  K    0.000000   2.000000
 N-N= 1.117151889720D+01 E-N=-1.430698504758D+03  KE= 5.944607175249D+02
 Symmetry A1   KE= 4.767969119662D+02
 Symmetry A2   KE= 0.000000000000D+00
 Symmetry B1   KE= 5.883190277935D+01
 Symmetry B2   KE= 5.883190277935D+01
 Symmetry A1   SP= 2.000000000000D+00
 Symmetry A2   SP= 0.000000000000D+00
 Symmetry B1   SP=-1.984723314976D-16
 Symmetry B2   SP= 2.960459118256D-15

 Atomic contributions to Alpha molecular orbitals:
 Alpha occ 1 OE=-132.100 is K2-s=1.0000
 Alpha occ 2 OE=-14.331 is K2-s=1.0016
 Alpha occ 3 OE=-11.442 is K2-p=1.0003
 Alpha occ 4 OE=-11.423 is K2-p=1.0000
 Alpha occ 5 OE=-11.423 is K2-p=1.0000
 Alpha occ 6 OE=-1.922 is K2-s=0.8105 H1-s=0.1447
 Alpha occ 7 OE=-1.194 is K2-p=0.6631 H1-s=0.1914 K2-s=0.1455
 Alpha occ 8 OE=-1.011 is K2-p=1.0000
 Alpha occ 9 OE=-1.011 is K2-p=1.0000
 Alpha occ 10 OE=-0.206 is K2-s=0.8304 K2-p=0.1106
 Alpha occ 11 OE=-0.012 is K2-p=0.9313
 Alpha vir 12 OE=0.263 is K2-p=1.0000
 Alpha vir 13 OE=0.263 is K2-p=1.0000
 Alpha vir 14 OE=0.479 is H1-s=0.6323 K2-p=0.2495 K2-s=0.1182

 Atomic contributions to Beta  molecular orbitals:
 Beta  occ 1 OE=-132.091 is K2-s=1.0000
 Beta  occ 2 OE=-14.318 is K2-s=1.0016
 Beta  occ 3 OE=-11.423 is K2-p=1.0003
 Beta  occ 4 OE=-11.419 is K2-p=1.0000
 Beta  occ 5 OE=-11.419 is K2-p=1.0000
 Beta  occ 6 OE=-1.887 is K2-s=0.8118 H1-s=0.1476
 Beta  occ 7 OE=-1.150 is K2-p=0.6599 H1-s=0.1982 K2-s=0.1419
 Beta  occ 8 OE=-0.998 is K2-p=1.0000
 Beta  occ 9 OE=-0.998 is K2-p=1.0000
 Beta  vir 10 OE=0.134 is K2-s=0.9082 K2-p=0.1076
 Beta  vir 11 OE=0.338 is K2-p=1.0000
 Beta  vir 12 OE=0.338 is K2-p=1.0000
 Beta  vir 13 OE=0.346 is K2-p=0.9642
 Beta  vir 14 OE=0.531 is H1-s=0.7075 K2-p=0.2270
 
 Leave Link  601 at Mon Mar 28 14:37:44 2022, MaxMem=  9663676416 cpu:               2.5 elap:               0.1
 (Enter /nopt/nrel/apps/gaussian/g16C_1/g16/l9999.exe)

 Test job not archived.
 1\1\GINC-R102U34\SP\UCCSD-FC\Gen\H1K1(3)\USER\28-Mar-2022\0\\#P CC
 SD(MaxCyc=200,SaveAmplitudes,ReadAmplitudes)/GEN sp pop=AllOrbitals io
 p(3/33=1,3/36=-1)\\test\\0,3\H,0,0.,0.,0.\K,0,0.,0.,0.9\\Version=ES64L
 -G16RevC.01\State=3-SG\HF=-592.8352498\MP2=-592.8352498\MP3=-592.83524
 98\MP4D=-592.8352498\MP4DQ=-592.8352498\MP4SDQ=-592.8352498\CCSD=-592.
 8352498\S2=2.000474\S2-1=0.\S2A=2.\RMSD=1.591e-09\PG=C*V [C*(H1K1)]\\@


 YOU CANNOT THROW TO THE GROUND THE LETTERS OF
 THE GREEK ALPHABET AND PICK UP THE ILIAD.
        - RUFUS CHOATE, 1799-1859
 Job cpu time:       0 days  0 hours  0 minutes 33.3 seconds.
 Elapsed time:       0 days  0 hours  0 minutes  1.3 seconds.
 File lengths (MBytes):  RWF=     13 Int=      0 D2E=      0 Chk=      1 Scr=      1
 Normal termination of Gaussian 16 at Mon Mar 28 14:37:44 2022.
