 Entering Gaussian System, Link 0=g16
 Initial command:
 /nopt/nrel/apps/gaussian/g16C_1/g16/l1.exe "/lustre/eaglefs/scratch/user/qc/tih-dissc-sto3g/tih-2-ccsd-1.3-sto3g/Gau-255285.inp" -scrdir="/lustre/eaglefs/scratch/user/qc/tih-dissc-sto3g/tih-2-ccsd-1.3-sto3g/"
 Default is to use a total of  36 processors:
                               36 via shared-memory
                                1 via Linda
 Entering Link 1 = /nopt/nrel/apps/gaussian/g16C_1/g16/l1.exe PID=    255286.
  
 Copyright (c) 1988-2019, Gaussian, Inc.  All Rights Reserved.
  
 This is part of the Gaussian(R) 16 program.  It is based on
 the Gaussian(R) 09 system (copyright 2009, Gaussian, Inc.),
 the Gaussian(R) 03 system (copyright 2003, Gaussian, Inc.),
 the Gaussian(R) 98 system (copyright 1998, Gaussian, Inc.),
 the Gaussian(R) 94 system (copyright 1995, Gaussian, Inc.),
 the Gaussian 92(TM) system (copyright 1992, Gaussian, Inc.),
 the Gaussian 90(TM) system (copyright 1990, Gaussian, Inc.),
 the Gaussian 88(TM) system (copyright 1988, Gaussian, Inc.),
 the Gaussian 86(TM) system (copyright 1986, Carnegie Mellon
 University), and the Gaussian 82(TM) system (copyright 1983,
 Carnegie Mellon University). Gaussian is a federally registered
 trademark of Gaussian, Inc.
  
 This software contains proprietary and confidential information,
 including trade secrets, belonging to Gaussian, Inc.
  
 This software is provided under written license and may be
 used, copied, transmitted, or stored only in accord with that
 written license.
  
 The following legend is applicable only to US Government
 contracts under FAR:
  
                    RESTRICTED RIGHTS LEGEND
  
 Use, reproduction and disclosure by the US Government is
 subject to restrictions as set forth in subparagraphs (a)
 and (c) of the Commercial Computer Software - Restricted
 Rights clause in FAR 52.227-19.
  
 Gaussian, Inc.
 340 Quinnipiac St., Bldg. 40, Wallingford CT 06492
  
  
 ---------------------------------------------------------------
 Warning -- This program may not be used in any manner that
 competes with the business of Gaussian, Inc. or will provide
 assistance to any competitor of Gaussian, Inc.  The licensee
 of this program is prohibited from giving any competitor of
 Gaussian, Inc. access to this program.  By using this program,
 the user acknowledges that Gaussian, Inc. is engaged in the
 business of creating and licensing software in the field of
 computational chemistry and represents and warrants to the
 licensee that it is not a competitor of Gaussian, Inc. and that
 it will not use this program in any manner prohibited above.
 ---------------------------------------------------------------
  

 Cite this work as:
 Gaussian 16, Revision C.01,
 M. J. Frisch, G. W. Trucks, H. B. Schlegel, G. E. Scuseria, 
 M. A. Robb, J. R. Cheeseman, G. Scalmani, V. Barone, 
 G. A. Petersson, H. Nakatsuji, X. Li, M. Caricato, A. V. Marenich, 
 J. Bloino, B. G. Janesko, R. Gomperts, B. Mennucci, H. P. Hratchian, 
 J. V. Ortiz, A. F. Izmaylov, J. L. Sonnenberg, D. Williams-Young, 
 F. Ding, F. Lipparini, F. Egidi, J. Goings, B. Peng, A. Petrone, 
 T. Henderson, D. Ranasinghe, V. G. Zakrzewski, J. Gao, N. Rega, 
 G. Zheng, W. Liang, M. Hada, M. Ehara, K. Toyota, R. Fukuda, 
 J. Hasegawa, M. Ishida, T. Nakajima, Y. Honda, O. Kitao, H. Nakai, 
 T. Vreven, K. Throssell, J. A. Montgomery, Jr., J. E. Peralta, 
 F. Ogliaro, M. J. Bearpark, J. J. Heyd, E. N. Brothers, K. N. Kudin, 
 V. N. Staroverov, T. A. Keith, R. Kobayashi, J. Normand, 
 K. Raghavachari, A. P. Rendell, J. C. Burant, S. S. Iyengar, 
 J. Tomasi, M. Cossi, J. M. Millam, M. Klene, C. Adamo, R. Cammi, 
 J. W. Ochterski, R. L. Martin, K. Morokuma, O. Farkas, 
 J. B. Foresman, and D. J. Fox, Gaussian, Inc., Wallingford CT, 2019.
 
 ******************************************
 Gaussian 16:  ES64L-G16RevC.01  3-Jul-2019
                25-Mar-2022 
 ******************************************
 %chk=molecule
 Default route: CacheSize=180224 MaxDisk=256GB
 --------------------------------------------------
 #P CCSD/GEN sp pop=AllOrbitals iop(3/33=1,3/36=-1)
 --------------------------------------------------
 1/4=180224,38=1,172=1/1;
 2/4=180224,12=2,17=6,18=5,40=1/2;
 3/4=180224,5=7,11=9,25=1,30=1,33=1,36=-1/1,2,3;
 4/4=180224/1;
 5/4=180224,5=2,38=5/2;
 8/4=180224,6=4,9=120000,10=1/1,4;
 9/4=180224,5=7/13;
 6/4=180224,7=2,8=2,9=2,10=2,96=-1/1;
 99/4=180224,5=1,9=1/99;
 Leave Link    1 at Fri Mar 25 14:37:40 2022, MaxMem=           0 cpu:               2.7 elap:               0.1
 (Enter /nopt/nrel/apps/gaussian/g16C_1/g16/l101.exe)
 ----
 test
 ----
 Symbolic Z-matrix:
 Charge =  0 Multiplicity = 2
 H                     0.        0.        0. 
 Ti                    0.        0.        1.3 
 
 ITRead=  0  0
 MicOpt= -1 -1
 NAtoms=      2 NQM=        2 NQMF=       0 NMMI=      0 NMMIF=      0
                NMic=       0 NMicF=      0.
                    Isotopes and Nuclear Properties:
 (Nuclear quadrupole moments (NQMom) in fm**2, nuclear magnetic moments (NMagM)
  in nuclear magnetons)

  Atom         1           2
 IAtWgt=           1          48
 AtmWgt=   1.0078250  47.9479467
 NucSpn=           1           0
 AtZEff=  -0.0000000  -0.0000000
 NQMom=    0.0000000   0.0000000
 NMagM=    2.7928460   0.0000000
 AtZNuc=   1.0000000  22.0000000
 Leave Link  101 at Fri Mar 25 14:37:40 2022, MaxMem=  9663676416 cpu:               2.8 elap:               0.1
 (Enter /nopt/nrel/apps/gaussian/g16C_1/g16/l202.exe)
                          Input orientation:                          
 ---------------------------------------------------------------------
 Center     Atomic      Atomic             Coordinates (Angstroms)
 Number     Number       Type             X           Y           Z
 ---------------------------------------------------------------------
      1          1           0        0.000000    0.000000    0.000000
      2         22           0        0.000000    0.000000    1.300000
 ---------------------------------------------------------------------
 Stoichiometry    HTi(2)
 Framework group  C*V[C*(HTi)]
 Deg. of freedom     1
 Full point group                 C*V     NOp   4
 Largest Abelian subgroup         C2V     NOp   4
 Largest concise Abelian subgroup C1      NOp   1
                         Standard orientation:                         
 ---------------------------------------------------------------------
 Center     Atomic      Atomic             Coordinates (Angstroms)
 Number     Number       Type             X           Y           Z
 ---------------------------------------------------------------------
      1          1           0        0.000000    0.000000   -1.243478
      2         22           0        0.000000    0.000000    0.056522
 ---------------------------------------------------------------------
 Rotational constants (GHZ):           0.0000000         302.9557775         302.9557775
 Leave Link  202 at Fri Mar 25 14:37:40 2022, MaxMem=  9663676416 cpu:               0.9 elap:               0.0
 (Enter /nopt/nrel/apps/gaussian/g16C_1/g16/l301.exe)
 General basis read from cards:  (5D, 7F)
                         Coordinates in L301:                         
 ---------------------------------------------------------------------
 Center     Atomic      Atomic             Coordinates (Angstroms)
 Number     Number       Type             X           Y           Z
 ---------------------------------------------------------------------
      1          1           0        0.000000    0.000000   -1.243478
      2         22           0        0.000000    0.000000    0.056522
 ---------------------------------------------------------------------
 Centers:       1
 STO-3G
 ****
 Centers:       2
 STO-3G
 ****
 FixB: optimizing general contractions.
 Ernie: Thresh=  0.10000D-02 Tol=  0.10000D-05 Strict=F.
 IA=     1 ShT= 0 ShC= 0 NL=   1 NS=   0.
 IA=     1 L=0 SC=0 ISt=    0 NBk=    0 NP=    0 IndPr=    0.
 IA=     2 ShT= 0 ShC= 0 NL=   1 NS=   0.
 IA=     2 L=0 SC=0 ISt=    0 NBk=    0 NP=    0 IndPr=    0.
 IA=     2 ShT= 1 ShC= 0 NL=   3 NS=   0.
 IA=     2 L=1 SC=0 ISt=    1 NBk=    3 NP=    9 IndPr=    0.
 DoElim1:  L=1 select primitive    1 from    2 using    1 C=-1.00D-01
 DoElim1:  L=1 select primitive    1 from    3 using    1 C=-1.00D-01
 DoElim1:  L=1 select primitive    4 from    3 using    2 C=-2.28D-01
 DoElim2:  L=1 select primitive    9 from    2 using    3 C= 1.13D+00
 DoElim2:  L=1 select primitive    9 from    1 using    3 C= 1.13D+00
 DoElim2:  L=1 select primitive    7 from    1 using    2 C= 9.17D-01
 DoElim1:  L=1 select primitive    1 from    2 using    1 C= 1.56D-01
 DoElim1:  L=1 select primitive    1 from    3 using    1 C= 1.56D-01
 DoElim1:  L=1 select primitive    4 from    3 using    2 C= 4.95D-03
 DoElim2:  L=1 select primitive    8 from    2 using    3 C= 5.72D-01
 DoElim2:  L=1 select primitive    8 from    1 using    3 C= 5.72D-01
 DoElim2:  L=1 select primitive    5 from    1 using    2 C= 5.78D-01
 Delete L=1 primitive    7 from    3 C=  0.00D+00.
 Delete L=1 primitive    5 from    3 C=  0.00D+00.
 Delete L=1 primitive    4 from    3 C=  0.00D+00.
 Delete L=1 primitive    3 from    3 C=  0.00D+00.
 Delete L=1 primitive    2 from    3 C=  0.00D+00.
 Delete L=1 primitive    1 from    3 C=  0.00D+00.
 Delete L=1 primitive    9 from    2 C=  0.00D+00.
 Delete L=1 primitive    8 from    2 C=  0.00D+00.
 Delete L=1 primitive    6 from    2 C=  0.00D+00.
 Delete L=1 primitive    3 from    2 C=  0.00D+00.
 Delete L=1 primitive    2 from    2 C=  0.00D+00.
 Delete L=1 primitive    1 from    2 C=  0.00D+00.
 Delete L=1 primitive    9 from    1 C=  0.00D+00.
 Delete L=1 primitive    8 from    1 C=  0.00D+00.
 Delete L=1 primitive    7 from    1 C=  0.00D+00.
 Delete L=1 primitive    6 from    1 C=  0.00D+00.
 Delete L=1 primitive    5 from    1 C=  0.00D+00.
 Delete L=1 primitive    4 from    1 C=  0.00D+00.
 IA=     2 L=1 SC=0 ISt=    0 NBk=    0 NP=    0 IndPr=    9.
 IA=     2 ShT= 2 ShC= 2 NL=   1 NS=   0.
 IA=     2 L=2 SC=2 ISt=    0 NBk=    0 NP=    0 IndPr=    0.
 LdAtmC:  AtmChg=     1.000000    22.000000
 AtZEff=     -1.0000000    -23.9800000
 NEqShl: 
              1            2            3            4
     1            1            1            1            1
     2            2            2            2            2
     3            3            3            3            3
     4            4            4            4            4
     5            5            5            5            5
     6            6            6            6            6
 NEqBas: 
              1            2            3            4
     1            1            1            1            1
     2            2            2            2            2
     3            3            3            3            3
     4            4           -4           -4            4
     5            5           -5            5           -5
     6            6            6            6            6
     7            7            7            7            7
     8            8           -8           -8            8
     9            9           -9            9           -9
    10           10           10           10           10
    11           11           11           11           11
    12           12          -12          -12           12
    13           13          -13           13          -13
    14           14           14           14           14
    15           15           15           15           15
    16           16           16           16           16
    17           17           17           17           17
    18           18           18          -18          -18
    19           19          -19          -19           19
    20           20          -20           20          -20
 There are    11 symmetry adapted cartesian basis functions of A1  symmetry.
   1         1   1   1   1
   2         2   2   2   2
   3         3   3   3   3
   4         6   6   6   6
   5         7   7   7   7
   6        10  10  10  10
   7        11  11  11  11
   8        14  14  14  14
   9        15  15  15  15
  10        16  16  16  16
  11        17  17  17  17
 There are     1 symmetry adapted cartesian basis functions of A2  symmetry.
  12        18  18  18  18
 There are     4 symmetry adapted cartesian basis functions of B1  symmetry.
  13         4   4   4   4
  14         8   8   8   8
  15        12  12  12  12
  16        19  19  19  19
 There are     4 symmetry adapted cartesian basis functions of B2  symmetry.
  17         5   5   5   5
  18         9   9   9   9
  19        13  13  13  13
  20        20  20  20  20
 Order= 1 2 4 3
 Reordered character table:
              1            2            3            4            5
     1            1            1            1            1            1
     2            2            1            1           -1           -1
     3            4            1           -1           -1            1
     4            3            1           -1            1           -1
 NEqShl: 
              1            2            3            4
     1            1            1            1            1
     2            2            2            2            2
     3            3            3            3            3
     4            4            4            4            4
     5            5            5            5            5
     6            6            6            6            6
 NEqBas: 
              1            2            3            4
     1            1            1            1            1
     2            2            2            2            2
     3            3            3            3            3
     4            4           -4           -4            4
     5            5           -5            5           -5
     6            6            6            6            6
     7            7            7            7            7
     8            8           -8           -8            8
     9            9           -9            9           -9
    10           10           10           10           10
    11           11           11           11           11
    12           12          -12          -12           12
    13           13          -13           13          -13
    14           14           14           14           14
    15           15           15           15           15
    16           16          -16          -16           16
    17           17          -17           17          -17
    18           18           18           18           18
    19           19           19          -19          -19
 There are    10 symmetry adapted basis functions of A1  symmetry.
   1         1   1   1   1
   2         2   2   2   2
   3         3   3   3   3
   4         6   6   6   6
   5         7   7   7   7
   6        10  10  10  10
   7        11  11  11  11
   8        14  14  14  14
   9        15  15  15  15
  10        18  18  18  18
 There are     1 symmetry adapted basis functions of A2  symmetry.
  11        19  19  19  19
 There are     4 symmetry adapted basis functions of B1  symmetry.
  12         4   4   4   4
  13         8   8   8   8
  14        12  12  12  12
  15        16  16  16  16
 There are     4 symmetry adapted basis functions of B2  symmetry.
  16         5   5   5   5
  17         9   9   9   9
  18        13  13  13  13
  19        17  17  17  17
 Order= 1 2 4 3
 Reordered character table:
              1            2            3            4            5
     1            1            1            1            1            1
     2            2            1            1           -1           -1
     3            4            1           -1           -1            1
     4            3            1           -1            1           -1
    19 basis functions,    60 primitive gaussians,    20 cartesian basis functions
    12 alpha electrons       11 beta electrons
       nuclear repulsion energy         8.9553066463 Hartrees.
 IS=     1 IAt=     1 ISR=     1 T=0 IP=      1 IndIP=      1 IndIPD=      0 C=  2.769344D-01  0.000000D+00                             NZ=T
 IS=     1 IAt=     1 ISR=     1 T=0 IP=      2 IndIP=      2 IndIPD=      1 C=  2.678389D-01  0.000000D+00                             NZ=T
 IS=     1 IAt=     1 ISR=     1 T=0 IP=      3 IndIP=      3 IndIPD=      2 C=  8.347367D-02  0.000000D+00                             NZ=T
 IS=     2 IAt=     2 ISR=     1 T=0 IP=      1 IndIP=      4 IndIPD=      0 C=  2.004993D+01  0.000000D+00                             NZ=T
 IS=     2 IAt=     2 ISR=     1 T=0 IP=      2 IndIP=      5 IndIPD=      1 C=  1.939142D+01  0.000000D+00                             NZ=T
 IS=     2 IAt=     2 ISR=     1 T=0 IP=      3 IndIP=      6 IndIPD=      2 C=  6.043458D+00  0.000000D+00                             NZ=T
 IS=     3 IAt=     2 ISR=     2 T=1 IP=      1 IndIP=      7 IndIPD=      0 C= -1.820341D+00  4.925761D+01                             NZ=T
 IS=     3 IAt=     2 ISR=     2 T=1 IP=      2 IndIP=      8 IndIPD=      1 C=  2.434854D+00  3.097451D+01                             NZ=T
 IS=     3 IAt=     2 ISR=     2 T=1 IP=      3 IndIP=      9 IndIPD=      2 C=  1.837620D+00  4.906883D+00                             NZ=T
 IS=     4 IAt=     2 ISR=     3 T=1 IP=      1 IndIP=     10 IndIPD=      0 C= -5.746721D-01  5.803915D-02                             NZ=T
 IS=     4 IAt=     2 ISR=     3 T=1 IP=      2 IndIP=     11 IndIPD=      1 C=  2.252897D-01  1.535208D+00                             NZ=T
 IS=     4 IAt=     2 ISR=     3 T=1 IP=      3 IndIP=     12 IndIPD=      2 C=  4.647390D-01  3.915940D-01                             NZ=T
 IS=     5 IAt=     2 ISR=     4 T=1 IP=      1 IndIP=     13 IndIPD=      0 C= -1.706594D-01 -1.133666D-01                             NZ=T
 IS=     5 IAt=     2 ISR=     4 T=1 IP=      2 IndIP=     14 IndIPD=      1 C=  5.129963D-03  1.533382D-01                             NZ=T
 IS=     5 IAt=     2 ISR=     4 T=1 IP=      3 IndIP=     15 IndIPD=      2 C=  1.603140D-01  5.311239D-02                             NZ=T
 IS=     6 IAt=     2 ISR=     5 T=2 IP=      1 IndIP=     16 IndIPD=      1 C=  0.000000D+00  0.000000D+00  8.652016D-01  0.000000D+00 NZ=T
 IS=     6 IAt=     2 ISR=     5 T=2 IP=      2 IndIP=     17 IndIPD=      2 C=  0.000000D+00  0.000000D+00  3.231180D-01  0.000000D+00 NZ=T
 IS=     6 IAt=     2 ISR=     5 T=2 IP=      3 IndIP=     18 IndIPD=      3 C=  0.000000D+00  0.000000D+00  2.668013D-02  0.000000D+00 NZ=T
 IExCor=    0 DFT=F Ex=HF Corr=None ExCW=0 ScaHFX=  1.000000
 ScaDFX=  1.000000  1.000000  1.000000  1.000000 ScalE2=  1.000000  1.000000
 IRadAn=      5 IRanWt=     -1 IRanGd=            0 ICorTp=0 IEmpDi=  4
 NAtoms=    2 NActive=    2 NUniq=    2 SFac= 1.00D+00 NAtFMM=   60 NAOKFM=F Big=F
 Integral buffers will be    131072 words long.
 Raffenetti 2 integral format.
 Two-electron integral symmetry is turned on.
 Leave Link  301 at Fri Mar 25 14:37:40 2022, MaxMem=  9663676416 cpu:               2.4 elap:               0.1
 (Enter /nopt/nrel/apps/gaussian/g16C_1/g16/l302.exe)
 NPDir=0 NMtPBC=     1 NCelOv=     1 NCel=       1 NClECP=     1 NCelD=      1
         NCelK=      1 NCelE2=     1 NClLst=     1 CellRange=     0.0.
 One-electron integrals computed using PRISM.
 One-electron integral symmetry used in STVInt
 Entering OneElI...
 Calculate overlap and kinetic energy integrals
    NBasis =  19  MinDer = 0  MaxDer = 0
 Requested accuracy = 0.1000D-12
 Symmetry will be used
 PrmmSu-InSpLW:  IPartL=    0 NPrtUS=   36 NPrtUL=    1 DoSpLW=F IThBeg=    0 IThEnd=   35 NThAct=   36.
 PrSmSu:  IncTry=   512 NBBP=             21 NTPThr=   100 NPartT=   36 Incr=           1 LDynOK=F GPUOK=F.
 PrsmSu:  NPrtUS=  36 ThrOK=T IAlg=1 LenDen=           0 ISkipM=0 DoSpLW=F IThBeg=    0 IThEnd=   35.
 Prism:   IPart=     0 DynPar=F LinDyn=F Incr=           1.
 PRISM was handed   268432635 working-precision words and    21 shell-pairs
 PRISM was handed   268432635 working-precision words and    21 shell-pairs
 PRISM was handed   268432635 working-precision words and    21 shell-pairs
 PRISM was handed   268432635 working-precision words and    21 shell-pairs
 PRISM was handed   268432635 working-precision words and    21 shell-pairs
 PRISM was handed   268432635 working-precision words and    21 shell-pairs
 PRISM was handed   268432635 working-precision words and    21 shell-pairs
 PRISM was handed   268432635 working-precision words and    21 shell-pairs
 PRISM was handed   268432635 working-precision words and    21 shell-pairs
 PRISM was handed   268432635 working-precision words and    21 shell-pairs
 PRISM was handed   268432635 working-precision words and    21 shell-pairs
 PRISM was handed   268432635 working-precision words and    21 shell-pairs
 PRISM was handed   268432635 working-precision words and    21 shell-pairs
 PRISM was handed   268432635 working-precision words and    21 shell-pairs
 PRISM was handed   268432635 working-precision words and    21 shell-pairs
 PRISM was handed   268432635 working-precision words and    21 shell-pairs
 PRISM was handed   268432635 working-precision words and    21 shell-pairs
 IPart= 16 NShTot=           0 NBatch=           0 AvBLen=         0.0
 IPart= 25 NShTot=           0 NBatch=           0 AvBLen=         0.0
 IPart= 19 NShTot=           0 NBatch=           0 AvBLen=         0.0
 IPart= 15 NShTot=           0 NBatch=           0 AvBLen=         0.0
 IPart= 32 NShTot=           0 NBatch=           0 AvBLen=         0.0
 IPart= 31 NShTot=           0 NBatch=           0 AvBLen=         0.0
 PRISM was handed   268432635 working-precision words and    21 shell-pairs
 IPart= 30 NShTot=           0 NBatch=           0 AvBLen=         0.0
 IPart= 18 NShTot=           0 NBatch=           0 AvBLen=         0.0
 IPart= 20 NShTot=           0 NBatch=           0 AvBLen=         0.0
 IPart= 21 NShTot=           0 NBatch=           0 AvBLen=         0.0
 PRISM was handed   268432635 working-precision words and    21 shell-pairs
 PRISM was handed   268432635 working-precision words and    21 shell-pairs
 IPart= 26 NShTot=           0 NBatch=           0 AvBLen=         0.0
 IPart= 23 NShTot=           0 NBatch=           0 AvBLen=         0.0
 IPart= 33 NShTot=           0 NBatch=           0 AvBLen=         0.0
 IPart=  9 NShTot=           0 NBatch=           0 AvBLen=         0.0
 IPart= 14 NShTot=           0 NBatch=           0 AvBLen=         0.0
 PRISM was handed   268432635 working-precision words and    21 shell-pairs
 PRISM was handed   268432635 working-precision words and    21 shell-pairs
 PRISM was handed   268432635 working-precision words and    21 shell-pairs
 IPart=  3 NShTot=           2 NBatch=           2 AvBLen=         1.0
 IPart=  1 NShTot=           5 NBatch=           5 AvBLen=         1.0
 IPart=  2 NShTot=           4 NBatch=           4 AvBLen=         1.0
 IPart= 12 NShTot=           0 NBatch=           0 AvBLen=         0.0
 PRISM was handed   268432635 working-precision words and    21 shell-pairs
 PRISM was handed   268432635 working-precision words and    21 shell-pairs
 PRISM was handed   268432635 working-precision words and    21 shell-pairs
 IPart= 22 NShTot=           0 NBatch=           0 AvBLen=         0.0
 IPart= 17 NShTot=           0 NBatch=           0 AvBLen=         0.0
 IPart= 24 NShTot=           0 NBatch=           0 AvBLen=         0.0
 PRISM was handed   268432635 working-precision words and    21 shell-pairs
 PRISM was handed   268432635 working-precision words and    21 shell-pairs
 PRISM was handed   268432635 working-precision words and    21 shell-pairs
 IPart=  6 NShTot=           0 NBatch=           0 AvBLen=         0.0
 IPart=  4 NShTot=           2 NBatch=           2 AvBLen=         1.0
 PRISM was handed   268432635 working-precision words and    21 shell-pairs
 IPart= 34 NShTot=           0 NBatch=           0 AvBLen=         0.0
 IPart= 11 NShTot=           0 NBatch=           0 AvBLen=         0.0
 IPart= 10 NShTot=           0 NBatch=           0 AvBLen=         0.0
 PRISM was handed   268432635 working-precision words and    21 shell-pairs
 PRISM was handed   268432635 working-precision words and    21 shell-pairs
 PRISM was handed   268432635 working-precision words and    21 shell-pairs
 PRISM was handed   268432635 working-precision words and    21 shell-pairs
 PRISM was handed   268432635 working-precision words and    21 shell-pairs
 IPart=  5 NShTot=           2 NBatch=           2 AvBLen=         1.0
 IPart=  0 NShTot=           6 NBatch=           6 AvBLen=         1.0
 IPart= 13 NShTot=           0 NBatch=           0 AvBLen=         0.0
 PRISM was handed   268432635 working-precision words and    21 shell-pairs
 IPart= 27 NShTot=           0 NBatch=           0 AvBLen=         0.0
 IPart= 35 NShTot=           0 NBatch=           0 AvBLen=         0.0
 IPart=  7 NShTot=           0 NBatch=           0 AvBLen=         0.0
 IPart= 28 NShTot=           0 NBatch=           0 AvBLen=         0.0
 IPart= 29 NShTot=           0 NBatch=           0 AvBLen=         0.0
 IPart=  8 NShTot=           0 NBatch=           0 AvBLen=         0.0
 PrSmSu:  NxtVal=             37.
 *** Overlap *** 
                1             2             3             4             5 
      1  0.100000D+01
      2  0.501518D-02  0.100000D+01
      3  0.344489D-01  0.371775D+00  0.100000D+01
      4  0.000000D+00  0.000000D+00  0.000000D+00  0.100000D+01
      5  0.000000D+00  0.000000D+00  0.000000D+00  0.000000D+00  0.100000D+01
      6 -0.111275D-01  0.000000D+00  0.000000D+00  0.000000D+00  0.000000D+00
      7  0.224782D+00  0.223608D-01  0.300384D+00  0.000000D+00  0.000000D+00
      8  0.000000D+00  0.000000D+00  0.000000D+00  0.313309D+00  0.000000D+00
      9  0.000000D+00  0.000000D+00  0.000000D+00  0.000000D+00  0.313309D+00
     10 -0.196132D+00  0.000000D+00  0.000000D+00  0.000000D+00  0.000000D+00
     11  0.493010D+00 -0.412730D-03  0.136941D-01  0.000000D+00  0.000000D+00
     12  0.000000D+00  0.000000D+00  0.000000D+00  0.250808D-01  0.000000D+00
     13  0.000000D+00  0.000000D+00  0.000000D+00  0.000000D+00  0.250808D-01
     14 -0.584660D+00  0.000000D+00  0.000000D+00  0.000000D+00  0.000000D+00
     15  0.355417D+00  0.000000D+00  0.000000D+00  0.000000D+00  0.000000D+00
     16  0.000000D+00  0.000000D+00  0.000000D+00  0.000000D+00  0.000000D+00
     17  0.000000D+00  0.000000D+00  0.000000D+00  0.000000D+00  0.000000D+00
     18  0.000000D+00  0.000000D+00  0.000000D+00  0.000000D+00  0.000000D+00
     19  0.000000D+00  0.000000D+00  0.000000D+00  0.000000D+00  0.000000D+00
                6             7             8             9            10 
      6  0.100000D+01
      7  0.000000D+00  0.100000D+01
      8  0.000000D+00  0.000000D+00  0.100000D+01
      9  0.000000D+00  0.000000D+00  0.000000D+00  0.100000D+01
     10  0.313309D+00  0.000000D+00  0.000000D+00  0.000000D+00  0.100000D+01
     11  0.000000D+00  0.395149D+00  0.000000D+00  0.000000D+00  0.000000D+00
     12  0.000000D+00  0.000000D+00  0.407435D+00  0.000000D+00  0.000000D+00
     13  0.000000D+00  0.000000D+00  0.000000D+00  0.407435D+00  0.000000D+00
     14  0.250808D-01  0.000000D+00  0.000000D+00  0.000000D+00  0.407435D+00
     15  0.000000D+00  0.000000D+00  0.000000D+00  0.000000D+00  0.000000D+00
     16  0.000000D+00  0.000000D+00  0.000000D+00  0.000000D+00  0.000000D+00
     17  0.000000D+00  0.000000D+00  0.000000D+00  0.000000D+00  0.000000D+00
     18  0.000000D+00  0.000000D+00  0.000000D+00  0.000000D+00  0.000000D+00
     19  0.000000D+00  0.000000D+00  0.000000D+00  0.000000D+00  0.000000D+00
               11            12            13            14            15 
     11  0.100000D+01
     12  0.000000D+00  0.100000D+01
     13  0.000000D+00  0.000000D+00  0.100000D+01
     14  0.000000D+00  0.000000D+00  0.000000D+00  0.100000D+01
     15  0.000000D+00  0.000000D+00  0.000000D+00  0.000000D+00  0.100000D+01
     16  0.000000D+00  0.000000D+00  0.000000D+00  0.000000D+00  0.000000D+00
     17  0.000000D+00  0.000000D+00  0.000000D+00  0.000000D+00  0.000000D+00
     18  0.000000D+00  0.000000D+00  0.000000D+00  0.000000D+00  0.000000D+00
     19  0.000000D+00  0.000000D+00  0.000000D+00  0.000000D+00  0.000000D+00
               16            17            18            19 
     16  0.100000D+01
     17  0.000000D+00  0.100000D+01
     18  0.000000D+00  0.000000D+00  0.100000D+01
     19  0.000000D+00  0.000000D+00  0.000000D+00  0.100000D+01
 *** Kinetic Energy *** 
                1             2             3             4             5 
      1  0.760032D+00
      2 -0.173002D-02  0.229340D+03
      3 -0.107169D-01  0.137973D+01  0.120824D+02
      4  0.000000D+00  0.000000D+00  0.000000D+00  0.378073D+02
      5  0.000000D+00  0.000000D+00  0.000000D+00  0.000000D+00  0.378073D+02
      6  0.276139D-02  0.000000D+00  0.000000D+00  0.000000D+00  0.000000D+00
      7 -0.169145D-02 -0.798994D+00 -0.840664D+00  0.000000D+00  0.000000D+00
      8  0.000000D+00  0.000000D+00  0.000000D+00  0.187471D+01  0.000000D+00
      9  0.000000D+00  0.000000D+00  0.000000D+00  0.000000D+00  0.187471D+01
     10 -0.527843D-01  0.000000D+00  0.000000D+00  0.000000D+00  0.000000D+00
     11  0.919003D-01 -0.407071D-01 -0.207745D+00  0.000000D+00  0.000000D+00
     12  0.000000D+00  0.000000D+00  0.000000D+00 -0.209473D-01  0.000000D+00
     13  0.000000D+00  0.000000D+00  0.000000D+00  0.000000D+00 -0.209473D-01
     14 -0.232399D+00  0.000000D+00  0.000000D+00  0.000000D+00  0.000000D+00
     15  0.290525D+00  0.000000D+00  0.000000D+00  0.000000D+00  0.000000D+00
     16  0.000000D+00  0.000000D+00  0.000000D+00  0.000000D+00  0.000000D+00
     17  0.000000D+00  0.000000D+00  0.000000D+00  0.000000D+00  0.000000D+00
     18  0.000000D+00  0.000000D+00  0.000000D+00  0.000000D+00  0.000000D+00
     19  0.000000D+00  0.000000D+00  0.000000D+00  0.000000D+00  0.000000D+00
                6             7             8             9            10 
      6  0.378073D+02
      7  0.000000D+00  0.116813D+01
      8  0.000000D+00  0.000000D+00  0.275070D+01
      9  0.000000D+00  0.000000D+00  0.000000D+00  0.275070D+01
     10  0.187471D+01  0.000000D+00  0.000000D+00  0.000000D+00  0.275070D+01
     11  0.000000D+00 -0.927537D-01  0.000000D+00  0.000000D+00  0.000000D+00
     12  0.000000D+00  0.000000D+00  0.199329D+00  0.000000D+00  0.000000D+00
     13  0.000000D+00  0.000000D+00  0.000000D+00  0.199329D+00  0.000000D+00
     14 -0.209473D-01  0.000000D+00  0.000000D+00  0.000000D+00  0.199329D+00
     15  0.000000D+00  0.000000D+00  0.000000D+00  0.000000D+00  0.000000D+00
     16  0.000000D+00  0.000000D+00  0.000000D+00  0.000000D+00  0.000000D+00
     17  0.000000D+00  0.000000D+00  0.000000D+00  0.000000D+00  0.000000D+00
     18  0.000000D+00  0.000000D+00  0.000000D+00  0.000000D+00  0.000000D+00
     19  0.000000D+00  0.000000D+00  0.000000D+00  0.000000D+00  0.000000D+00
               11            12            13            14            15 
     11  0.207443D+00
     12  0.000000D+00  0.409500D+00
     13  0.000000D+00  0.000000D+00  0.409500D+00
     14  0.000000D+00  0.000000D+00  0.000000D+00  0.409500D+00
     15  0.000000D+00  0.000000D+00  0.000000D+00  0.000000D+00  0.180044D+01
     16  0.000000D+00  0.000000D+00  0.000000D+00  0.000000D+00  0.000000D+00
     17  0.000000D+00  0.000000D+00  0.000000D+00  0.000000D+00  0.000000D+00
     18  0.000000D+00  0.000000D+00  0.000000D+00  0.000000D+00  0.000000D+00
     19  0.000000D+00  0.000000D+00  0.000000D+00  0.000000D+00  0.000000D+00
               16            17            18            19 
     16  0.180044D+01
     17  0.000000D+00  0.180044D+01
     18  0.000000D+00  0.000000D+00  0.180044D+01
     19  0.000000D+00  0.000000D+00  0.000000D+00  0.180044D+01
 Entering OneElI...
 Calculate potential energy integrals
    NBasis =  19  MinDer = 0  MaxDer = 0
 Requested accuracy = 0.1000D-12
 Symmetry will be used
 PrmmSu-InSpLW:  IPartL=    0 NPrtUS=   36 NPrtUL=    1 DoSpLW=F IThBeg=    0 IThEnd=   35 NThAct=   36.
 PrSmSu:  IncTry=   512 NBBP=             42 NTPThr=   100 NPartT=   36 Incr=           1 LDynOK=F GPUOK=F.
 PrsmSu:  NPrtUS=  36 ThrOK=T IAlg=1 LenDen=           0 ISkipM=0 DoSpLW=F IThBeg=    0 IThEnd=   35.
 Prism:   IPart=     0 DynPar=F LinDyn=F Incr=           1.
 PRISM was handed   268432827 working-precision words and    21 shell-pairs
 PRISM was handed   268432827 working-precision words and    21 shell-pairs
 PRISM was handed   268432827 working-precision words and    21 shell-pairs
 PRISM was handed   268432827 working-precision words and    21 shell-pairs
 PRISM was handed   268432827 working-precision words and    21 shell-pairs
 PRISM was handed   268432827 working-precision words and    21 shell-pairs
 PRISM was handed   268432827 working-precision words and    21 shell-pairs
 PRISM was handed   268432827 working-precision words and    21 shell-pairs
 PRISM was handed   268432827 working-precision words and    21 shell-pairs
 PRISM was handed   268432827 working-precision words and    21 shell-pairs
 PRISM was handed   268432827 working-precision words and    21 shell-pairs
 PRISM was handed   268432827 working-precision words and    21 shell-pairs
 PRISM was handed   268432827 working-precision words and    21 shell-pairs
 PRISM was handed   268432827 working-precision words and    21 shell-pairs
 PRISM was handed   268432827 working-precision words and    21 shell-pairs
 PRISM was handed   268432827 working-precision words and    21 shell-pairs
 PRISM was handed   268432827 working-precision words and    21 shell-pairs
 PRISM was handed   268432827 working-precision words and    21 shell-pairs
 PRISM was handed   268432827 working-precision words and    21 shell-pairs
 PRISM was handed   268432827 working-precision words and    21 shell-pairs
 PRISM was handed   268432827 working-precision words and    21 shell-pairs
 PRISM was handed   268432827 working-precision words and    21 shell-pairs
 PRISM was handed   268432827 working-precision words and    21 shell-pairs
 PRISM was handed   268432827 working-precision words and    21 shell-pairs
 PRISM was handed   268432827 working-precision words and    21 shell-pairs
 PRISM was handed   268432827 working-precision words and    21 shell-pairs
 PRISM was handed   268432827 working-precision words and    21 shell-pairs
 PRISM was handed   268432827 working-precision words and    21 shell-pairs
 PRISM was handed   268432827 working-precision words and    21 shell-pairs
 PRISM was handed   268432827 working-precision words and    21 shell-pairs
 PRISM was handed   268432827 working-precision words and    21 shell-pairs
 PRISM was handed   268432827 working-precision words and    21 shell-pairs
 PRISM was handed   268432827 working-precision words and    21 shell-pairs
 PRISM was handed   268432827 working-precision words and    21 shell-pairs
 PRISM was handed   268432827 working-precision words and    21 shell-pairs
 PRISM was handed   268432827 working-precision words and    21 shell-pairs
 IPart= 16 NShTot=           0 NBatch=           0 AvBLen=         0.0
 IPart= 12 NShTot=           0 NBatch=           0 AvBLen=         0.0
 IPart= 13 NShTot=           0 NBatch=           0 AvBLen=         0.0
 IPart= 19 NShTot=           0 NBatch=           0 AvBLen=         0.0
 IPart= 11 NShTot=           0 NBatch=           0 AvBLen=         0.0
 IPart= 27 NShTot=           0 NBatch=           0 AvBLen=         0.0
 IPart= 30 NShTot=           0 NBatch=           0 AvBLen=         0.0
 IPart= 15 NShTot=           0 NBatch=           0 AvBLen=         0.0
 IPart=  7 NShTot=           0 NBatch=           0 AvBLen=         0.0
 IPart= 23 NShTot=           0 NBatch=           0 AvBLen=         0.0
 IPart=  6 NShTot=           0 NBatch=           0 AvBLen=         0.0
 IPart= 34 NShTot=           0 NBatch=           0 AvBLen=         0.0
 IPart= 32 NShTot=           0 NBatch=           0 AvBLen=         0.0
 IPart=  8 NShTot=           0 NBatch=           0 AvBLen=         0.0
 IPart= 35 NShTot=           0 NBatch=           0 AvBLen=         0.0
 IPart= 18 NShTot=           0 NBatch=           0 AvBLen=         0.0
 IPart=  9 NShTot=           0 NBatch=           0 AvBLen=         0.0
 IPart= 31 NShTot=           0 NBatch=           0 AvBLen=         0.0
 IPart= 25 NShTot=           0 NBatch=           0 AvBLen=         0.0
 IPart= 10 NShTot=           0 NBatch=           0 AvBLen=         0.0
 IPart= 20 NShTot=           0 NBatch=           0 AvBLen=         0.0
 IPart= 33 NShTot=           0 NBatch=           0 AvBLen=         0.0
 IPart= 14 NShTot=           0 NBatch=           0 AvBLen=         0.0
 IPart= 22 NShTot=           0 NBatch=           0 AvBLen=         0.0
 IPart= 24 NShTot=           0 NBatch=           0 AvBLen=         0.0
 IPart= 28 NShTot=           0 NBatch=           0 AvBLen=         0.0
 IPart= 21 NShTot=           0 NBatch=           0 AvBLen=         0.0
 IPart= 26 NShTot=           0 NBatch=           0 AvBLen=         0.0
 IPart= 29 NShTot=           0 NBatch=           0 AvBLen=         0.0
 IPart= 17 NShTot=           0 NBatch=           0 AvBLen=         0.0
 IPart=  3 NShTot=           4 NBatch=           2 AvBLen=         2.0
 IPart=  2 NShTot=           8 NBatch=           4 AvBLen=         2.0
 IPart=  1 NShTot=          10 NBatch=           5 AvBLen=         2.0
 IPart=  4 NShTot=           4 NBatch=           2 AvBLen=         2.0
 IPart=  5 NShTot=           4 NBatch=           2 AvBLen=         2.0
 IPart=  0 NShTot=          12 NBatch=           6 AvBLen=         2.0
 PrSmSu:  NxtVal=             37.
 ***** Potential Energy ***** 
                1             2             3             4             5 
      1  0.100984D+02
      2  0.121410D+01  0.469171D+03
      3  0.225146D+01  0.902972D+02  0.966591D+02
      4  0.000000D+00  0.000000D+00  0.000000D+00  0.958873D+02
      5  0.000000D+00  0.000000D+00  0.000000D+00  0.000000D+00  0.958873D+02
      6 -0.545739D+00 -0.451424D-02 -0.274760D-01  0.000000D+00  0.000000D+00
      7  0.439667D+01  0.472919D+01  0.170839D+02  0.000000D+00  0.000000D+00
      8  0.000000D+00  0.000000D+00  0.000000D+00  0.175126D+02  0.000000D+00
      9  0.000000D+00  0.000000D+00  0.000000D+00  0.000000D+00  0.175126D+02
     10 -0.328794D+01 -0.313533D-03 -0.137465D-01  0.000000D+00  0.000000D+00
     11  0.507303D+01 -0.133836D+00  0.486983D+00  0.000000D+00  0.000000D+00
     12  0.000000D+00  0.000000D+00  0.000000D+00  0.120844D+01  0.000000D+00
     13  0.000000D+00  0.000000D+00  0.000000D+00  0.000000D+00  0.120844D+01
     14 -0.583201D+01 -0.159915D-04 -0.121647D-02  0.000000D+00  0.000000D+00
     15  0.404466D+01  0.207692D-05  0.759896D-03  0.000000D+00  0.000000D+00
     16  0.000000D+00  0.000000D+00  0.000000D+00 -0.319154D-02  0.000000D+00
     17  0.000000D+00  0.000000D+00  0.000000D+00  0.000000D+00 -0.319154D-02
     18  0.000000D+00  0.000000D+00  0.000000D+00  0.000000D+00  0.000000D+00
     19  0.000000D+00  0.000000D+00  0.000000D+00  0.000000D+00  0.000000D+00
                6             7             8             9            10 
      6  0.958913D+02
      7 -0.143565D-01  0.256409D+02
      8  0.000000D+00  0.000000D+00  0.256689D+02
      9  0.000000D+00  0.000000D+00  0.000000D+00  0.256689D+02
     10  0.175160D+02 -0.971981D-01  0.000000D+00  0.000000D+00  0.257166D+02
     11 -0.969037D-03  0.660192D+01  0.000000D+00  0.000000D+00 -0.582628D-01
     12  0.000000D+00  0.000000D+00  0.690983D+01  0.000000D+00  0.000000D+00
     13  0.000000D+00  0.000000D+00  0.000000D+00  0.690983D+01  0.000000D+00
     14  0.120881D+01 -0.563166D-01  0.000000D+00  0.000000D+00  0.695065D+01
     15 -0.399830D-02  0.412574D-01  0.000000D+00  0.000000D+00 -0.102439D+00
     16  0.000000D+00  0.000000D+00 -0.589766D-01  0.000000D+00  0.000000D+00
     17  0.000000D+00  0.000000D+00  0.000000D+00 -0.589766D-01  0.000000D+00
     18  0.000000D+00  0.000000D+00  0.000000D+00  0.000000D+00  0.000000D+00
     19  0.000000D+00  0.000000D+00  0.000000D+00  0.000000D+00  0.000000D+00
               11            12            13            14            15 
     11  0.971308D+01
     12  0.000000D+00  0.966745D+01
     13  0.000000D+00  0.000000D+00  0.966745D+01
     14 -0.162796D+00  0.000000D+00  0.000000D+00  0.980588D+01
     15  0.891875D-01  0.000000D+00  0.000000D+00 -0.184731D+00  0.143876D+02
     16  0.000000D+00 -0.811831D-01  0.000000D+00  0.000000D+00  0.000000D+00
     17  0.000000D+00  0.000000D+00 -0.811831D-01  0.000000D+00  0.000000D+00
     18  0.000000D+00  0.000000D+00  0.000000D+00  0.000000D+00  0.000000D+00
     19  0.000000D+00  0.000000D+00  0.000000D+00  0.000000D+00  0.000000D+00
               16            17            18            19 
     16  0.142980D+02
     17  0.000000D+00  0.142980D+02
     18  0.000000D+00  0.000000D+00  0.142424D+02
     19  0.000000D+00  0.000000D+00  0.000000D+00  0.142424D+02
 ****** Core Hamiltonian ****** 
                1             2             3             4             5 
      1 -0.933837D+01
      2 -0.121583D+01 -0.239831D+03
      3 -0.226217D+01 -0.889175D+02 -0.845767D+02
      4  0.000000D+00  0.000000D+00  0.000000D+00 -0.580799D+02
      5  0.000000D+00  0.000000D+00  0.000000D+00  0.000000D+00 -0.580799D+02
      6  0.548500D+00  0.451424D-02  0.274760D-01  0.000000D+00  0.000000D+00
      7 -0.439836D+01 -0.552819D+01 -0.179245D+02  0.000000D+00  0.000000D+00
      8  0.000000D+00  0.000000D+00  0.000000D+00 -0.156379D+02  0.000000D+00
      9  0.000000D+00  0.000000D+00  0.000000D+00  0.000000D+00 -0.156379D+02
     10  0.323516D+01  0.313533D-03  0.137465D-01  0.000000D+00  0.000000D+00
     11 -0.498113D+01  0.931289D-01 -0.694728D+00  0.000000D+00  0.000000D+00
     12  0.000000D+00  0.000000D+00  0.000000D+00 -0.122938D+01  0.000000D+00
     13  0.000000D+00  0.000000D+00  0.000000D+00  0.000000D+00 -0.122938D+01
     14  0.559961D+01  0.159915D-04  0.121647D-02  0.000000D+00  0.000000D+00
     15 -0.375413D+01 -0.207692D-05 -0.759896D-03  0.000000D+00  0.000000D+00
     16  0.000000D+00  0.000000D+00  0.000000D+00  0.319154D-02  0.000000D+00
     17  0.000000D+00  0.000000D+00  0.000000D+00  0.000000D+00  0.319154D-02
     18  0.000000D+00  0.000000D+00  0.000000D+00  0.000000D+00  0.000000D+00
     19  0.000000D+00  0.000000D+00  0.000000D+00  0.000000D+00  0.000000D+00
                6             7             8             9            10 
      6 -0.580839D+02
      7  0.143565D-01 -0.244728D+02
      8  0.000000D+00  0.000000D+00 -0.229182D+02
      9  0.000000D+00  0.000000D+00  0.000000D+00 -0.229182D+02
     10 -0.156413D+02  0.971981D-01  0.000000D+00  0.000000D+00 -0.229659D+02
     11  0.969037D-03 -0.669468D+01  0.000000D+00  0.000000D+00  0.582628D-01
     12  0.000000D+00  0.000000D+00 -0.671050D+01  0.000000D+00  0.000000D+00
     13  0.000000D+00  0.000000D+00  0.000000D+00 -0.671050D+01  0.000000D+00
     14 -0.122976D+01  0.563166D-01  0.000000D+00  0.000000D+00 -0.675132D+01
     15  0.399830D-02 -0.412574D-01  0.000000D+00  0.000000D+00  0.102439D+00
     16  0.000000D+00  0.000000D+00  0.589766D-01  0.000000D+00  0.000000D+00
     17  0.000000D+00  0.000000D+00  0.000000D+00  0.589766D-01  0.000000D+00
     18  0.000000D+00  0.000000D+00  0.000000D+00  0.000000D+00  0.000000D+00
     19  0.000000D+00  0.000000D+00  0.000000D+00  0.000000D+00  0.000000D+00
               11            12            13            14            15 
     11 -0.950564D+01
     12  0.000000D+00 -0.925795D+01
     13  0.000000D+00  0.000000D+00 -0.925795D+01
     14  0.162796D+00  0.000000D+00  0.000000D+00 -0.939638D+01
     15 -0.891875D-01  0.000000D+00  0.000000D+00  0.184731D+00 -0.125872D+02
     16  0.000000D+00  0.811831D-01  0.000000D+00  0.000000D+00  0.000000D+00
     17  0.000000D+00  0.000000D+00  0.811831D-01  0.000000D+00  0.000000D+00
     18  0.000000D+00  0.000000D+00  0.000000D+00  0.000000D+00  0.000000D+00
     19  0.000000D+00  0.000000D+00  0.000000D+00  0.000000D+00  0.000000D+00
               16            17            18            19 
     16 -0.124975D+02
     17  0.000000D+00 -0.124975D+02
     18  0.000000D+00  0.000000D+00 -0.124420D+02
     19  0.000000D+00  0.000000D+00  0.000000D+00 -0.124420D+02
 SVDSVc IOpt=   1 NormSV=T IR=1
 SVDSVc V= 2.08D+00 1.56D+00 1.34D+00 1.12D+00 1.00D+00 9.87D-01 7.46D-01 5.48D-01 4.60D-01 1.50D-01
 SVDSVc IOpt=   1 NormSV=T IR=2
 SVDSVc V= 1.00D+00
 SVDSVc IOpt=   1 NormSV=T IR=3
 SVDSVc V= 1.53D+00 1.00D+00 9.76D-01 4.98D-01
 SVDSVc IOpt=   1 NormSV=T IR=4
 SVDSVc V= 1.53D+00 1.00D+00 9.76D-01 4.98D-01
 TstOVc:  Largest diagonal error= 1.33D-15 IB=1 I=    1.
 TstOVc:  Largest same sym error= 8.88D-16 IB=1 I=   10 J=    8.
 TstOVc:  Largest diff sym error= 0.00D+00 IB=0 JB=0 I=    0 J=    0.
 Orthogonalized basis functions: 
                 1             2             3             4             5 
      1   0.425870D+00 -0.338155D-01 -0.171889D+00  0.186550D+00  0.000000D+00
      2   0.367007D-01  0.268382D+00  0.450482D+00  0.307361D+00  0.000000D+00
      3   0.886845D-01  0.382549D+00  0.418780D+00  0.120131D+00  0.000000D+00
      4   0.000000D+00  0.000000D+00  0.000000D+00  0.000000D+00  0.000000D+00
      5   0.000000D+00  0.000000D+00  0.000000D+00  0.000000D+00  0.000000D+00
      6  -0.741418D-01  0.194932D+00 -0.307850D+00  0.421283D+00  0.000000D+00
      7   0.213157D+00  0.373891D+00 -0.485270D-01 -0.337490D+00  0.000000D+00
      8   0.000000D+00  0.000000D+00  0.000000D+00  0.000000D+00  0.000000D+00
      9   0.000000D+00  0.000000D+00  0.000000D+00  0.000000D+00  0.000000D+00
     10  -0.216200D+00  0.324818D+00 -0.331770D+00  0.187828D+00  0.000000D+00
     11   0.272656D+00  0.243183D+00 -0.288006D+00 -0.320936D+00  0.000000D+00
     12   0.000000D+00  0.000000D+00  0.000000D+00  0.000000D+00  0.000000D+00
     13   0.000000D+00  0.000000D+00  0.000000D+00  0.000000D+00  0.000000D+00
     14  -0.312855D+00  0.280326D+00 -0.124137D+00 -0.176886D+00  0.000000D+00
     15   0.139714D+00 -0.214591D-01 -0.178866D+00  0.533712D+00  0.000000D+00
     16   0.000000D+00  0.000000D+00  0.000000D+00  0.000000D+00  0.000000D+00
     17   0.000000D+00  0.000000D+00  0.000000D+00  0.000000D+00  0.000000D+00
     18   0.000000D+00  0.000000D+00  0.000000D+00  0.000000D+00  0.100000D+01
     19   0.000000D+00  0.000000D+00  0.000000D+00  0.000000D+00  0.000000D+00
                 6             7             8             9            10 
      1  -0.243208D-01  0.149813D+00  0.304265D+00 -0.852318D-01  0.177135D+01
      2  -0.223953D-01  0.677826D+00 -0.244434D+00  0.532071D+00  0.235723D-01
      3  -0.678834D-03 -0.432772D+00  0.304025D+00 -0.824378D+00 -0.817820D-01
      4   0.000000D+00  0.000000D+00  0.000000D+00  0.000000D+00  0.000000D+00
      5   0.000000D+00  0.000000D+00  0.000000D+00  0.000000D+00  0.000000D+00
      6  -0.597172D+00 -0.189486D+00 -0.622963D+00 -0.149193D+00  0.811378D-01
      7   0.298682D-01 -0.515197D+00 -0.181868D+00  0.858271D+00  0.469025D-01
      8   0.000000D+00  0.000000D+00  0.000000D+00  0.000000D+00  0.000000D+00
      9   0.000000D+00  0.000000D+00  0.000000D+00  0.000000D+00  0.000000D+00
     10  -0.122507D-01  0.148653D+00  0.943999D+00  0.277878D+00 -0.264733D+00
     11   0.146480D-01  0.536026D+00 -0.182181D+00 -0.528583D+00 -0.104771D+01
     12   0.000000D+00  0.000000D+00  0.000000D+00  0.000000D+00  0.000000D+00
     13   0.000000D+00  0.000000D+00  0.000000D+00  0.000000D+00  0.000000D+00
     14   0.447891D+00  0.125309D+00 -0.422490D+00 -0.294826D+00  0.134268D+01
     15   0.673374D+00 -0.209977D+00 -0.239078D+00  0.560623D-01 -0.740549D+00
     16   0.000000D+00  0.000000D+00  0.000000D+00  0.000000D+00  0.000000D+00
     17   0.000000D+00  0.000000D+00  0.000000D+00  0.000000D+00  0.000000D+00
     18   0.000000D+00  0.000000D+00  0.000000D+00  0.000000D+00  0.000000D+00
     19   0.000000D+00  0.000000D+00  0.000000D+00  0.000000D+00  0.000000D+00
                11            12            13            14            15 
      1   0.000000D+00  0.000000D+00  0.000000D+00  0.000000D+00  0.000000D+00
      2   0.000000D+00  0.000000D+00  0.000000D+00  0.000000D+00  0.000000D+00
      3   0.000000D+00  0.000000D+00  0.000000D+00  0.000000D+00  0.000000D+00
      4   0.000000D+00  0.358362D+00  0.000000D+00  0.802807D+00 -0.593005D+00
      5   0.000000D+00  0.000000D+00  0.000000D+00  0.000000D+00  0.000000D+00
      6   0.000000D+00  0.000000D+00  0.000000D+00  0.000000D+00  0.000000D+00
      7   0.000000D+00  0.000000D+00  0.000000D+00  0.000000D+00  0.000000D+00
      8   0.000000D+00  0.565532D+00  0.000000D+00 -0.127423D-01  0.101370D+01
      9   0.000000D+00  0.000000D+00  0.000000D+00  0.000000D+00  0.000000D+00
     10   0.000000D+00  0.000000D+00  0.000000D+00  0.000000D+00  0.000000D+00
     11   0.000000D+00  0.000000D+00  0.000000D+00  0.000000D+00  0.000000D+00
     12   0.000000D+00  0.454909D+00  0.000000D+00 -0.616584D+00 -0.793056D+00
     13   0.000000D+00  0.000000D+00  0.000000D+00  0.000000D+00  0.000000D+00
     14   0.000000D+00  0.000000D+00  0.000000D+00  0.000000D+00  0.000000D+00
     15   0.000000D+00  0.000000D+00  0.000000D+00  0.000000D+00  0.000000D+00
     16   0.000000D+00  0.000000D+00  0.100000D+01  0.000000D+00  0.000000D+00
     17   0.000000D+00  0.000000D+00  0.000000D+00  0.000000D+00  0.000000D+00
     18   0.000000D+00  0.000000D+00  0.000000D+00  0.000000D+00  0.000000D+00
     19   0.100000D+01  0.000000D+00  0.000000D+00  0.000000D+00  0.000000D+00
                16            17            18            19 
      1   0.000000D+00  0.000000D+00  0.000000D+00  0.000000D+00
      2   0.000000D+00  0.000000D+00  0.000000D+00  0.000000D+00
      3   0.000000D+00  0.000000D+00  0.000000D+00  0.000000D+00
      4   0.000000D+00  0.000000D+00  0.000000D+00  0.000000D+00
      5   0.358362D+00  0.000000D+00  0.802807D+00 -0.593005D+00
      6   0.000000D+00  0.000000D+00  0.000000D+00  0.000000D+00
      7   0.000000D+00  0.000000D+00  0.000000D+00  0.000000D+00
      8   0.000000D+00  0.000000D+00  0.000000D+00  0.000000D+00
      9   0.565532D+00  0.000000D+00 -0.127423D-01  0.101370D+01
     10   0.000000D+00  0.000000D+00  0.000000D+00  0.000000D+00
     11   0.000000D+00  0.000000D+00  0.000000D+00  0.000000D+00
     12   0.000000D+00  0.000000D+00  0.000000D+00  0.000000D+00
     13   0.454909D+00  0.000000D+00 -0.616584D+00 -0.793056D+00
     14   0.000000D+00  0.000000D+00  0.000000D+00  0.000000D+00
     15   0.000000D+00  0.000000D+00  0.000000D+00  0.000000D+00
     16   0.000000D+00  0.000000D+00  0.000000D+00  0.000000D+00
     17   0.000000D+00  0.100000D+01  0.000000D+00  0.000000D+00
     18   0.000000D+00  0.000000D+00  0.000000D+00  0.000000D+00
     19   0.000000D+00  0.000000D+00  0.000000D+00  0.000000D+00
 NBasis=    19 RedAO= T EigKep=  1.50D-01  NBF=    10     1     4     4
 NBsUse=    19 1.00D-06 EigRej= -1.00D+00 NBFU=    10     1     4     4
 Leave Link  302 at Fri Mar 25 14:37:40 2022, MaxMem=  9663676416 cpu:               3.6 elap:               0.1
 (Enter /nopt/nrel/apps/gaussian/g16C_1/g16/l303.exe)
 DipDrv will not compute anything.
 Fermi contact integrals: 
                 1             2 
      1   0.628247D+00  0.363313D-01
      2   0.000000D+00  0.454848D+02
      3   0.000000D+00  0.245213D+01
      4   0.000000D+00  0.000000D+00
      5   0.000000D+00  0.000000D+00
      6   0.000000D+00  0.000000D+00
      7   0.100769D-01  0.115357D+00
      8   0.000000D+00  0.000000D+00
      9   0.000000D+00  0.000000D+00
     10  -0.210196D-01  0.000000D+00
     11   0.782934D-01 -0.521539D-02
     12   0.000000D+00  0.000000D+00
     13   0.000000D+00  0.000000D+00
     14  -0.138063D+00  0.000000D+00
     15   0.144483D+00  0.000000D+00
     16   0.000000D+00  0.000000D+00
     17   0.000000D+00  0.000000D+00
     18   0.000000D+00  0.000000D+00
     19   0.000000D+00  0.000000D+00
 Leave Link  303 at Fri Mar 25 14:37:41 2022, MaxMem=  9663676416 cpu:               1.3 elap:               0.1
 (Enter /nopt/nrel/apps/gaussian/g16C_1/g16/l401.exe)
 ExpMin= 1.16D-01 ExpMax= 1.03D+03 ExpMxC= 1.03D+03 IAcc=3 IRadAn=         5 AccDes= 0.00D+00
 Harris functional with IExCor=  205 and IRadAn=       5 diagonalized for initial guess.
 HarFok:  IExCor=  205 AccDes= 0.00D+00 IRadAn=         5 IDoV= 1 UseB2=F ITyADJ=14
 ICtDFT=  3500011 ScaDFX=  1.000000  1.000000  1.000000  1.000000
 FoFCou: FMM=F IPFlag=           0 FMFlag=      100000 FMFlg1=           0
         NFxFlg=           0 DoJE=T BraDBF=F KetDBF=T FulRan=T
         wScrn=  0.000000 ICntrl=       500 IOpCl=  0 I1Cent=   200000004 NGrid=           0
         NMat0=    1 NMatS0=      1 NMatT0=    0 NMatD0=    1 NMtDS0=    0 NMtDT0=    0
 Petite list used in FoFCou.
 Harris En= -839.477786586296    
 JPrj=0 DoOrth=F DoCkMO=F.
 Initial guess orbital symmetries:
 Alpha Orbitals:
       Occupied  (SG) (SG) (SG) (PI) (PI) (SG) (SG) (PI) (PI) (SG)
                 (SG) (PI)
       Virtual   (PI) (DLTA) (DLTA) (SG) (PI) (PI) (SG)
 Beta  Orbitals:
       Occupied  (SG) (SG) (SG) (PI) (PI) (SG) (SG) (PI) (PI) (SG)
                 (SG)
       Virtual   (PI) (PI) (DLTA) (DLTA) (SG) (PI) (PI) (SG)
 Initial guess <Sx>= 0.0000 <Sy>= 0.0000 <Sz>= 0.5000 <S**2>= 0.7500 S= 0.5000
 Leave Link  401 at Fri Mar 25 14:37:41 2022, MaxMem=  9663676416 cpu:               5.3 elap:               0.2
 (Enter /nopt/nrel/apps/gaussian/g16C_1/g16/l502.exe)
 Keep R1 and R2 ints in memory in symmetry-blocked form, NReq=7413390.
 FoFCou: FMM=F IPFlag=           0 FMFlag=           0 FMFlg1=           0
         NFxFlg=           0 DoJE=F BraDBF=F KetDBF=F FulRan=T
         wScrn=  0.000000 ICntrl=       600 IOpCl=  0 I1Cent=           0 NGrid=           0
         NMat0=    1 NMatS0=    190 NMatT0=    0 NMatD0=    1 NMtDS0=    0 NMtDT0=    0
 Petite list used in FoFCou.
 UHF open shell SCF:
 Using DIIS extrapolation, IDIIS=  1040.
 NGot=  9663676416 LenX=  9663662661 LenY=  9663661779
 Requested convergence on RMS density matrix=1.00D-08 within 128 cycles.
 Requested convergence on MAX density matrix=1.00D-06.
 Requested convergence on             energy=1.00D-06.
 No special actions if energy rises.

 Cycle   1  Pass 1  IDiag  1:
 E= -840.002600723113    
 DIIS: error= 6.65D-02 at cycle   1 NSaved=   1.
 NSaved= 1 IEnMin= 1 EnMin= -840.002600723113     IErMin= 1 ErrMin= 6.65D-02
 ErrMax= 6.65D-02  0.00D+00 EMaxC= 1.00D-01 BMatC= 3.16D-01 BMatP= 3.16D-01
 IDIUse=3 WtCom= 3.35D-01 WtEn= 6.65D-01
 Coeff-Com:  0.100D+01
 Coeff-En:   0.100D+01
 Coeff:      0.100D+01
 Gap=     0.395 Goal=   None    Shift=    0.000
 Gap=     0.460 Goal=   None    Shift=    0.000
 GapD=    0.395 DampG=1.000 DampE=0.250 DampFc=0.2500 IDamp=-1.
 Damping current iteration by 2.50D-01
 RMSDP=2.54D-02 MaxDP=2.47D-01              OVMax= 0.00D+00

 Cycle   2  Pass 1  IDiag  1:
 E= -840.020077361334     Delta-E=       -0.017476638221 Rises=F Damp=T
 DIIS: error= 4.99D-02 at cycle   2 NSaved=   2.
 NSaved= 2 IEnMin= 2 EnMin= -840.020077361334     IErMin= 2 ErrMin= 4.99D-02
 ErrMax= 4.99D-02  0.00D+00 EMaxC= 1.00D-01 BMatC= 1.77D-01 BMatP= 3.16D-01
 IDIUse=3 WtCom= 5.01D-01 WtEn= 4.99D-01
 Coeff-Com: -0.292D+01 0.392D+01
 Coeff-En:   0.000D+00 0.100D+01
 Coeff:     -0.146D+01 0.246D+01
 Gap=     0.398 Goal=   None    Shift=    0.000
 Gap=     0.418 Goal=   None    Shift=    0.000
 RMSDP=1.97D-02 MaxDP=1.87D-01 DE=-1.75D-02 OVMax= 0.00D+00

 Cycle   3  Pass 1  IDiag  1:
 E= -840.075282368393     Delta-E=       -0.055205007059 Rises=F Damp=F
 DIIS: error= 5.21D-03 at cycle   3 NSaved=   3.
 NSaved= 3 IEnMin= 3 EnMin= -840.075282368393     IErMin= 3 ErrMin= 5.21D-03
 ErrMax= 5.21D-03  0.00D+00 EMaxC= 1.00D-01 BMatC= 1.27D-03 BMatP= 1.77D-01
 IDIUse=3 WtCom= 9.48D-01 WtEn= 5.21D-02
 Coeff-Com:  0.242D+01-0.324D+01 0.182D+01
 Coeff-En:   0.000D+00 0.000D+00 0.100D+01
 Coeff:      0.229D+01-0.307D+01 0.178D+01
 Gap=     0.398 Goal=   None    Shift=    0.000
 Gap=     0.416 Goal=   None    Shift=    0.000
 RMSDP=4.39D-03 MaxDP=5.23D-02 DE=-5.52D-02 OVMax= 0.00D+00

 Cycle   4  Pass 1  IDiag  1:
 E= -840.077782050308     Delta-E=       -0.002499681915 Rises=F Damp=F
 DIIS: error= 4.54D-03 at cycle   4 NSaved=   4.
 NSaved= 4 IEnMin= 4 EnMin= -840.077782050308     IErMin= 4 ErrMin= 4.54D-03
 ErrMax= 4.54D-03  0.00D+00 EMaxC= 1.00D-01 BMatC= 4.70D-04 BMatP= 1.27D-03
 IDIUse=3 WtCom= 9.55D-01 WtEn= 4.54D-02
 Coeff-Com: -0.552D+00 0.746D+00-0.991D+00 0.180D+01
 Coeff-En:   0.000D+00 0.000D+00 0.000D+00 0.100D+01
 Coeff:     -0.527D+00 0.712D+00-0.946D+00 0.176D+01
 Gap=     0.403 Goal=   None    Shift=    0.000
 Gap=     0.414 Goal=   None    Shift=    0.000
 RMSDP=4.56D-03 MaxDP=6.42D-02 DE=-2.50D-03 OVMax= 0.00D+00

 Cycle   5  Pass 1  IDiag  1:
 E= -840.079518721672     Delta-E=       -0.001736671364 Rises=F Damp=F
 DIIS: error= 3.66D-03 at cycle   5 NSaved=   5.
 NSaved= 5 IEnMin= 5 EnMin= -840.079518721672     IErMin= 5 ErrMin= 3.66D-03
 ErrMax= 3.66D-03  0.00D+00 EMaxC= 1.00D-01 BMatC= 2.56D-04 BMatP= 4.70D-04
 IDIUse=3 WtCom= 9.63D-01 WtEn= 3.66D-02
 Coeff-Com:  0.449D+00-0.600D+00 0.538D+00-0.127D+01 0.188D+01
 Coeff-En:   0.000D+00 0.000D+00 0.000D+00 0.000D+00 0.100D+01
 Coeff:      0.433D+00-0.578D+00 0.518D+00-0.122D+01 0.185D+01
 Gap=     0.406 Goal=   None    Shift=    0.000
 Gap=     0.412 Goal=   None    Shift=    0.000
 RMSDP=4.01D-03 MaxDP=6.05D-02 DE=-1.74D-03 OVMax= 0.00D+00

 Cycle   6  Pass 1  IDiag  1:
 E= -840.080743288572     Delta-E=       -0.001224566900 Rises=F Damp=F
 DIIS: error= 2.98D-03 at cycle   6 NSaved=   6.
 NSaved= 6 IEnMin= 6 EnMin= -840.080743288572     IErMin= 6 ErrMin= 2.98D-03
 ErrMax= 2.98D-03  0.00D+00 EMaxC= 1.00D-01 BMatC= 1.99D-04 BMatP= 2.56D-04
 IDIUse=3 WtCom= 9.70D-01 WtEn= 2.98D-02
 Coeff-Com: -0.596D+00 0.797D+00-0.543D+00 0.206D+01-0.509D+01 0.437D+01
 Coeff-En:   0.000D+00 0.000D+00 0.000D+00 0.000D+00 0.000D+00 0.100D+01
 Coeff:     -0.579D+00 0.773D+00-0.527D+00 0.200D+01-0.494D+01 0.427D+01
 Gap=     0.403 Goal=   None    Shift=    0.000
 Gap=     0.410 Goal=   None    Shift=    0.000
 RMSDP=8.29D-03 MaxDP=1.17D-01 DE=-1.22D-03 OVMax= 0.00D+00

 Cycle   7  Pass 1  IDiag  1:
 E= -840.082897146967     Delta-E=       -0.002153858395 Rises=F Damp=F
 DIIS: error= 1.93D-03 at cycle   7 NSaved=   7.
 NSaved= 7 IEnMin= 7 EnMin= -840.082897146967     IErMin= 7 ErrMin= 1.93D-03
 ErrMax= 1.93D-03  0.00D+00 EMaxC= 1.00D-01 BMatC= 1.27D-04 BMatP= 1.99D-04
 IDIUse=3 WtCom= 9.81D-01 WtEn= 1.93D-02
 Coeff-Com:  0.589D-01-0.794D-01-0.131D+00-0.445D+00 0.234D+01-0.349D+01
 Coeff-Com:  0.274D+01
 Coeff-En:   0.000D+00 0.000D+00 0.000D+00 0.000D+00 0.000D+00 0.000D+00
 Coeff-En:   0.100D+01
 Coeff:      0.578D-01-0.779D-01-0.129D+00-0.436D+00 0.230D+01-0.342D+01
 Coeff:      0.271D+01
 Gap=     0.417 Goal=   None    Shift=    0.000
 Gap=     0.409 Goal=   None    Shift=    0.000
 RMSDP=1.05D-02 MaxDP=1.36D-01 DE=-2.15D-03 OVMax= 0.00D+00

 Cycle   8  Pass 1  IDiag  1:
 E= -840.084792351999     Delta-E=       -0.001895205032 Rises=F Damp=F
 DIIS: error= 8.73D-04 at cycle   8 NSaved=   8.
 NSaved= 8 IEnMin= 8 EnMin= -840.084792351999     IErMin= 8 ErrMin= 8.73D-04
 ErrMax= 8.73D-04  0.00D+00 EMaxC= 1.00D-01 BMatC= 6.89D-05 BMatP= 1.27D-04
 IDIUse=3 WtCom= 9.91D-01 WtEn= 8.73D-03
 Coeff-Com:  0.144D+00-0.200D+00 0.249D+00 0.173D+00-0.142D+01 0.217D+01
 Coeff-Com: -0.195D+01 0.183D+01
 Coeff-En:   0.000D+00 0.000D+00 0.000D+00 0.000D+00 0.000D+00 0.000D+00
 Coeff-En:   0.000D+00 0.100D+01
 Coeff:      0.143D+00-0.199D+00 0.247D+00 0.171D+00-0.140D+01 0.215D+01
 Coeff:     -0.193D+01 0.183D+01
 Gap=     0.398 Goal=   None    Shift=    0.000
 Gap=     0.408 Goal=   None    Shift=    0.000
 RMSDP=2.70D-03 MaxDP=2.52D-02 DE=-1.90D-03 OVMax= 0.00D+00

 Cycle   9  Pass 1  IDiag  1:
 E= -840.085153357216     Delta-E=       -0.000361005217 Rises=F Damp=F
 DIIS: error= 6.66D-04 at cycle   9 NSaved=   9.
 NSaved= 9 IEnMin= 9 EnMin= -840.085153357216     IErMin= 9 ErrMin= 6.66D-04
 ErrMax= 6.66D-04  0.00D+00 EMaxC= 1.00D-01 BMatC= 4.13D-05 BMatP= 6.89D-05
 IDIUse=3 WtCom= 9.93D-01 WtEn= 6.66D-03
 Coeff-Com:  0.136D+00-0.180D+00 0.197D+00-0.128D+00-0.478D+00 0.127D+01
 Coeff-Com: -0.174D+01 0.550D+00 0.137D+01
 Coeff-En:   0.000D+00 0.000D+00 0.000D+00 0.000D+00 0.000D+00 0.000D+00
 Coeff-En:   0.000D+00 0.000D+00 0.100D+01
 Coeff:      0.135D+00-0.178D+00 0.196D+00-0.127D+00-0.474D+00 0.126D+01
 Coeff:     -0.173D+01 0.547D+00 0.137D+01
 Gap=     0.407 Goal=   None    Shift=    0.000
 Gap=     0.409 Goal=   None    Shift=    0.000
 RMSDP=5.55D-03 MaxDP=5.79D-02 DE=-3.61D-04 OVMax= 0.00D+00

 Cycle  10  Pass 1  IDiag  1:
 E= -840.085571563366     Delta-E=       -0.000418206150 Rises=F Damp=F
 DIIS: error= 6.14D-04 at cycle  10 NSaved=  10.
 NSaved=10 IEnMin=10 EnMin= -840.085571563366     IErMin=10 ErrMin= 6.14D-04
 ErrMax= 6.14D-04  0.00D+00 EMaxC= 1.00D-01 BMatC= 1.49D-05 BMatP= 4.13D-05
 IDIUse=3 WtCom= 9.94D-01 WtEn= 6.14D-03
 Coeff-Com: -0.130D+00 0.172D+00-0.227D+00-0.201D+00 0.156D+01-0.270D+01
 Coeff-Com:  0.332D+01-0.109D+01-0.268D+01 0.299D+01
 Coeff-En:   0.000D+00 0.000D+00 0.000D+00 0.000D+00 0.000D+00 0.000D+00
 Coeff-En:   0.000D+00 0.000D+00 0.000D+00 0.100D+01
 Coeff:     -0.130D+00 0.171D+00-0.226D+00-0.200D+00 0.155D+01-0.269D+01
 Coeff:      0.330D+01-0.108D+01-0.266D+01 0.297D+01
 Gap=     0.413 Goal=   None    Shift=    0.000
 Gap=     0.409 Goal=   None    Shift=    0.000
 RMSDP=1.02D-03 MaxDP=1.12D-02 DE=-4.18D-04 OVMax= 0.00D+00

 Cycle  11  Pass 1  IDiag  1:
 E= -840.085635323957     Delta-E=       -0.000063760591 Rises=F Damp=F
 DIIS: error= 3.49D-04 at cycle  11 NSaved=  11.
 NSaved=11 IEnMin=11 EnMin= -840.085635323957     IErMin=11 ErrMin= 3.49D-04
 ErrMax= 3.49D-04  0.00D+00 EMaxC= 1.00D-01 BMatC= 6.55D-06 BMatP= 1.49D-05
 IDIUse=3 WtCom= 9.97D-01 WtEn= 3.49D-03
 Coeff-Com: -0.121D+00 0.162D+00-0.772D-01 0.320D-01 0.176D+00-0.198D+00
 Coeff-Com: -0.278D+00-0.118D+00 0.583D+00-0.113D+01 0.197D+01
 Coeff-En:   0.000D+00 0.000D+00 0.000D+00 0.000D+00 0.000D+00 0.000D+00
 Coeff-En:   0.000D+00 0.000D+00 0.000D+00 0.000D+00 0.100D+01
 Coeff:     -0.121D+00 0.162D+00-0.769D-01 0.319D-01 0.175D+00-0.197D+00
 Coeff:     -0.277D+00-0.118D+00 0.581D+00-0.113D+01 0.197D+01
 Gap=     0.417 Goal=   None    Shift=    0.000
 Gap=     0.412 Goal=   None    Shift=    0.000
 RMSDP=3.25D-03 MaxDP=2.74D-02 DE=-6.38D-05 OVMax= 0.00D+00

 Cycle  12  Pass 1  IDiag  1:
 E= -840.085689362733     Delta-E=       -0.000054038776 Rises=F Damp=F
 DIIS: error= 1.48D-04 at cycle  12 NSaved=  12.
 NSaved=12 IEnMin=12 EnMin= -840.085689362733     IErMin=12 ErrMin= 1.48D-04
 ErrMax= 1.48D-04  0.00D+00 EMaxC= 1.00D-01 BMatC= 3.10D-06 BMatP= 6.55D-06
 IDIUse=3 WtCom= 9.99D-01 WtEn= 1.48D-03
 Coeff-Com:  0.309D-01-0.399D-01 0.496D-01-0.174D+00 0.258D+00-0.107D+00
 Coeff-Com: -0.296D+00-0.372D-01 0.110D+01-0.107D+01 0.141D+00 0.114D+01
 Coeff-En:   0.000D+00 0.000D+00 0.000D+00 0.000D+00 0.000D+00 0.000D+00
 Coeff-En:   0.000D+00 0.000D+00 0.000D+00 0.000D+00 0.000D+00 0.100D+01
 Coeff:      0.308D-01-0.398D-01 0.496D-01-0.174D+00 0.258D+00-0.107D+00
 Coeff:     -0.295D+00-0.371D-01 0.110D+01-0.106D+01 0.141D+00 0.114D+01
 Gap=     0.416 Goal=   None    Shift=    0.000
 Gap=     0.411 Goal=   None    Shift=    0.000
 RMSDP=5.21D-04 MaxDP=4.44D-03 DE=-5.40D-05 OVMax= 0.00D+00

 Cycle  13  Pass 1  IDiag  1:
 E= -840.085698011509     Delta-E=       -0.000008648776 Rises=F Damp=F
 DIIS: error= 1.18D-04 at cycle  13 NSaved=  13.
 NSaved=13 IEnMin=13 EnMin= -840.085698011509     IErMin=13 ErrMin= 1.18D-04
 ErrMax= 1.18D-04  0.00D+00 EMaxC= 1.00D-01 BMatC= 1.60D-06 BMatP= 3.10D-06
 IDIUse=3 WtCom= 9.99D-01 WtEn= 1.18D-03
 Coeff-Com:  0.227D-01-0.306D-01-0.120D-01-0.109D+00 0.513D+00-0.720D+00
 Coeff-Com:  0.566D+00-0.345D+00-0.129D+00 0.234D+00 0.171D+00-0.135D+01
 Coeff-Com:  0.219D+01
 Coeff-En:   0.000D+00 0.000D+00 0.000D+00 0.000D+00 0.000D+00 0.000D+00
 Coeff-En:   0.000D+00 0.000D+00 0.000D+00 0.000D+00 0.000D+00 0.000D+00
 Coeff-En:   0.100D+01
 Coeff:      0.227D-01-0.306D-01-0.120D-01-0.109D+00 0.512D+00-0.719D+00
 Coeff:      0.565D+00-0.345D+00-0.129D+00 0.234D+00 0.171D+00-0.135D+01
 Coeff:      0.219D+01
 Gap=     0.414 Goal=   None    Shift=    0.000
 Gap=     0.411 Goal=   None    Shift=    0.000
 RMSDP=2.43D-04 MaxDP=1.82D-03 DE=-8.65D-06 OVMax= 0.00D+00

 Cycle  14  Pass 1  IDiag  1:
 E= -840.085701196713     Delta-E=       -0.000003185204 Rises=F Damp=F
 DIIS: error= 5.70D-05 at cycle  14 NSaved=  14.
 NSaved=14 IEnMin=14 EnMin= -840.085701196713     IErMin=14 ErrMin= 5.70D-05
 ErrMax= 5.70D-05  0.00D+00 EMaxC= 1.00D-01 BMatC= 5.03D-07 BMatP= 1.60D-06
 IDIUse=1 WtCom= 1.00D+00 WtEn= 0.00D+00
 Coeff-Com: -0.143D-01 0.197D-01 0.183D-01 0.353D-02-0.201D+00 0.320D+00
 Coeff-Com: -0.340D+00 0.165D+00 0.344D+00-0.422D+00 0.114D+00 0.127D+01
 Coeff-Com: -0.304D+01 0.276D+01
 Coeff:     -0.143D-01 0.197D-01 0.183D-01 0.353D-02-0.201D+00 0.320D+00
 Coeff:     -0.340D+00 0.165D+00 0.344D+00-0.422D+00 0.114D+00 0.127D+01
 Coeff:     -0.304D+01 0.276D+01
 Gap=     0.412 Goal=   None    Shift=    0.000
 Gap=     0.410 Goal=   None    Shift=    0.000
 RMSDP=1.95D-04 MaxDP=1.59D-03 DE=-3.19D-06 OVMax= 0.00D+00

 Cycle  15  Pass 1  IDiag  1:
 E= -840.085702418037     Delta-E=       -0.000001221324 Rises=F Damp=F
 DIIS: error= 3.49D-05 at cycle  15 NSaved=  15.
 NSaved=15 IEnMin=15 EnMin= -840.085702418037     IErMin=15 ErrMin= 3.49D-05
 ErrMax= 3.49D-05  0.00D+00 EMaxC= 1.00D-01 BMatC= 1.26D-07 BMatP= 5.03D-07
 IDIUse=1 WtCom= 1.00D+00 WtEn= 0.00D+00
 Coeff-Com:  0.223D-02-0.298D-02-0.519D-02-0.145D-01 0.813D-01-0.854D-01
 Coeff-Com:  0.212D-01-0.590D-01 0.116D+00-0.964D-01 0.385D-01-0.234D+00
 Coeff-Com:  0.670D+00-0.111D+01 0.168D+01
 Coeff:      0.223D-02-0.298D-02-0.519D-02-0.145D-01 0.813D-01-0.854D-01
 Coeff:      0.212D-01-0.590D-01 0.116D+00-0.964D-01 0.385D-01-0.234D+00
 Coeff:      0.670D+00-0.111D+01 0.168D+01
 Gap=     0.411 Goal=   None    Shift=    0.000
 Gap=     0.410 Goal=   None    Shift=    0.000
 RMSDP=1.06D-04 MaxDP=8.88D-04 DE=-1.22D-06 OVMax= 0.00D+00

 Cycle  16  Pass 1  IDiag  1:
 E= -840.085702738790     Delta-E=       -0.000000320753 Rises=F Damp=F
 DIIS: error= 7.45D-06 at cycle  16 NSaved=  16.
 NSaved=16 IEnMin=16 EnMin= -840.085702738790     IErMin=16 ErrMin= 7.45D-06
 ErrMax= 7.45D-06  0.00D+00 EMaxC= 1.00D-01 BMatC= 5.99D-09 BMatP= 1.26D-07
 IDIUse=1 WtCom= 1.00D+00 WtEn= 0.00D+00
 Coeff-Com: -0.829D-03 0.111D-02 0.274D-03 0.481D-02-0.139D-01 0.632D-02
 Coeff-Com:  0.830D-02 0.405D-02-0.323D-01 0.241D-01 0.172D-01-0.154D-01
 Coeff-Com: -0.492D-01 0.196D+00-0.631D+00 0.148D+01
 Coeff:     -0.829D-03 0.111D-02 0.274D-03 0.481D-02-0.139D-01 0.632D-02
 Coeff:      0.830D-02 0.405D-02-0.323D-01 0.241D-01 0.172D-01-0.154D-01
 Coeff:     -0.492D-01 0.196D+00-0.631D+00 0.148D+01
 Gap=     0.411 Goal=   None    Shift=    0.000
 Gap=     0.410 Goal=   None    Shift=    0.000
 RMSDP=4.27D-05 MaxDP=3.25D-04 DE=-3.21D-07 OVMax= 0.00D+00

 Cycle  17  Pass 1  IDiag  1:
 E= -840.085702762642     Delta-E=       -0.000000023852 Rises=F Damp=F
 DIIS: error= 8.33D-07 at cycle  17 NSaved=  17.
 NSaved=17 IEnMin=17 EnMin= -840.085702762642     IErMin=17 ErrMin= 8.33D-07
 ErrMax= 8.33D-07  0.00D+00 EMaxC= 1.00D-01 BMatC= 5.28D-11 BMatP= 5.99D-09
 IDIUse=1 WtCom= 1.00D+00 WtEn= 0.00D+00
 Coeff-Com: -0.520D-03 0.699D-03-0.233D-03 0.110D-02-0.438D-02 0.687D-02
 Coeff-Com: -0.728D-02 0.322D-02 0.421D-02-0.399D-02-0.130D-02 0.968D-02
 Coeff-Com: -0.146D-01 0.929D-02 0.366D-01-0.280D+00 0.124D+01
 Coeff:     -0.520D-03 0.699D-03-0.233D-03 0.110D-02-0.438D-02 0.687D-02
 Coeff:     -0.728D-02 0.322D-02 0.421D-02-0.399D-02-0.130D-02 0.968D-02
 Coeff:     -0.146D-01 0.929D-02 0.366D-01-0.280D+00 0.124D+01
 Gap=     0.411 Goal=   None    Shift=    0.000
 Gap=     0.410 Goal=   None    Shift=    0.000
 RMSDP=2.57D-06 MaxDP=3.36D-05 DE=-2.39D-08 OVMax= 0.00D+00

 Cycle  18  Pass 1  IDiag  1:
 E= -840.085702762713     Delta-E=       -0.000000000072 Rises=F Damp=F
 DIIS: error= 2.29D-07 at cycle  18 NSaved=  18.
 NSaved=18 IEnMin=18 EnMin= -840.085702762713     IErMin=18 ErrMin= 2.29D-07
 ErrMax= 2.29D-07  0.00D+00 EMaxC= 1.00D-01 BMatC= 9.91D-12 BMatP= 5.28D-11
 IDIUse=1 WtCom= 1.00D+00 WtEn= 0.00D+00
 Coeff-Com: -0.104D-04 0.140D-04 0.309D-05-0.289D-03 0.105D-02-0.124D-02
 Coeff-Com:  0.794D-03-0.578D-03 0.413D-03-0.552D-03 0.119D-02-0.193D-02
 Coeff-Com:  0.646D-03-0.391D-03-0.955D-03 0.309D-01-0.325D+00 0.130D+01
 Coeff:     -0.104D-04 0.140D-04 0.309D-05-0.289D-03 0.105D-02-0.124D-02
 Coeff:      0.794D-03-0.578D-03 0.413D-03-0.552D-03 0.119D-02-0.193D-02
 Coeff:      0.646D-03-0.391D-03-0.955D-03 0.309D-01-0.325D+00 0.130D+01
 Gap=     0.411 Goal=   None    Shift=    0.000
 Gap=     0.410 Goal=   None    Shift=    0.000
 RMSDP=2.88D-06 MaxDP=2.54D-05 DE=-7.16D-11 OVMax= 0.00D+00

 Cycle  19  Pass 1  IDiag  1:
 E= -840.085702762774     Delta-E=       -0.000000000060 Rises=F Damp=F
 DIIS: error= 6.72D-08 at cycle  19 NSaved=  19.
 NSaved=19 IEnMin=19 EnMin= -840.085702762774     IErMin=19 ErrMin= 6.72D-08
 ErrMax= 6.72D-08  0.00D+00 EMaxC= 1.00D-01 BMatC= 3.31D-13 BMatP= 9.91D-12
 IDIUse=1 WtCom= 1.00D+00 WtEn= 0.00D+00
 Coeff-Com:  0.129D-04-0.174D-04-0.222D-04 0.146D-03-0.298D-03 0.208D-03
 Coeff-Com:  0.357D-04 0.740D-05-0.225D-03 0.183D-03-0.280D-03 0.210D-03
 Coeff-Com:  0.757D-03-0.144D-02 0.758D-03 0.673D-02 0.263D-02-0.386D+00
 Coeff-Com:  0.138D+01
 Coeff:      0.129D-04-0.174D-04-0.222D-04 0.146D-03-0.298D-03 0.208D-03
 Coeff:      0.357D-04 0.740D-05-0.225D-03 0.183D-03-0.280D-03 0.210D-03
 Coeff:      0.757D-03-0.144D-02 0.758D-03 0.673D-02 0.263D-02-0.386D+00
 Coeff:      0.138D+01
 Gap=     0.411 Goal=   None    Shift=    0.000
 Gap=     0.410 Goal=   None    Shift=    0.000
 RMSDP=1.42D-07 MaxDP=1.03D-06 DE=-6.03D-11 OVMax= 0.00D+00

 Cycle  20  Pass 1  IDiag  1:
 E= -840.085702762775     Delta-E=       -0.000000000001 Rises=F Damp=F
 DIIS: error= 1.93D-08 at cycle  20 NSaved=  20.
 NSaved=20 IEnMin=20 EnMin= -840.085702762775     IErMin=20 ErrMin= 1.93D-08
 ErrMax= 1.93D-08  0.00D+00 EMaxC= 1.00D-01 BMatC= 4.98D-14 BMatP= 3.31D-13
 IDIUse=1 WtCom= 1.00D+00 WtEn= 0.00D+00
 Coeff-Com: -0.448D-05 0.598D-05 0.195D-05-0.235D-04 0.561D-04-0.535D-04
 Coeff-Com:  0.352D-04 0.739D-06-0.704D-04 0.963D-04 0.165D-04-0.174D-03
 Coeff-Com:  0.157D-03 0.151D-03-0.316D-03-0.120D-02 0.446D-02 0.811D-01
 Coeff-Com: -0.450D+00 0.137D+01
 Coeff:     -0.448D-05 0.598D-05 0.195D-05-0.235D-04 0.561D-04-0.535D-04
 Coeff:      0.352D-04 0.739D-06-0.704D-04 0.963D-04 0.165D-04-0.174D-03
 Coeff:      0.157D-03 0.151D-03-0.316D-03-0.120D-02 0.446D-02 0.811D-01
 Coeff:     -0.450D+00 0.137D+01
 Gap=     0.411 Goal=   None    Shift=    0.000
 Gap=     0.410 Goal=   None    Shift=    0.000
 RMSDP=9.62D-08 MaxDP=7.65D-07 DE=-1.25D-12 OVMax= 0.00D+00

 Cycle  21  Pass 1  IDiag  1:
 E= -840.085702762775     Delta-E=        0.000000000000 Rises=F Damp=F
 DIIS: error= 5.40D-09 at cycle  21 NSaved=  20.
 NSaved=20 IEnMin=19 EnMin= -840.085702762775     IErMin=20 ErrMin= 5.40D-09
 ErrMax= 5.40D-09  0.00D+00 EMaxC= 1.00D-01 BMatC= 1.60D-15 BMatP= 4.98D-14
 IDIUse=1 WtCom= 1.00D+00 WtEn= 0.00D+00
 Large coefficients: NSaved= 20 BigCof=    0.00 CofMax=   10.00 Det=-5.76D-16
 Inversion failed.  Reducing to 19 matrices.
 Large coefficients: NSaved= 19 BigCof=    0.00 CofMax=   10.00 Det=-5.88D-16
 Inversion failed.  Reducing to 18 matrices.
 Large coefficients: NSaved= 18 BigCof=    0.00 CofMax=   10.00 Det=-7.56D-16
 Inversion failed.  Reducing to 17 matrices.
 Large coefficients: NSaved= 17 BigCof=    0.00 CofMax=   10.00 Det=-1.15D-15
 Inversion failed.  Reducing to 16 matrices.
 Large coefficients: NSaved= 16 BigCof=    0.00 CofMax=   10.00 Det=-1.15D-15
 Inversion failed.  Reducing to 15 matrices.
 Coeff-Com:  0.750D-06-0.256D-05 0.204D-04-0.306D-04 0.866D-05 0.524D-04
 Coeff-Com: -0.156D-03 0.103D-03-0.708D-04 0.730D-03-0.732D-02 0.105D-01
 Coeff-Com:  0.629D-01-0.504D+00 0.144D+01
 Coeff:      0.750D-06-0.256D-05 0.204D-04-0.306D-04 0.866D-05 0.524D-04
 Coeff:     -0.156D-03 0.103D-03-0.708D-04 0.730D-03-0.732D-02 0.105D-01
 Coeff:      0.629D-01-0.504D+00 0.144D+01
 Gap=     0.411 Goal=   None    Shift=    0.000
 Gap=     0.410 Goal=   None    Shift=    0.000
 RMSDP=8.57D-09 MaxDP=7.20D-08 DE= 3.41D-13 OVMax= 0.00D+00

 SCF Done:  E(UHF) =  -840.085702763     A.U. after   21 cycles
            NFock= 21  Conv=0.86D-08     -V/T= 2.0037
 <Sx>= 0.0000 <Sy>= 0.0000 <Sz>= 0.5000 <S**2>= 0.9619 S= 0.6009
 <L.S>= 0.000000000000E+00
 KE= 8.369748731845D+02 PE=-2.002959526146D+03 EE= 3.169436435521D+02
 Annihilation of the first spin contaminant:
 S**2 before annihilation     0.9619,   after     0.7504
 Leave Link  502 at Fri Mar 25 14:37:41 2022, MaxMem=  9663676416 cpu:               6.5 elap:               0.2
 (Enter /nopt/nrel/apps/gaussian/g16C_1/g16/l801.exe)
 Windowed orbitals will be sorted by symmetry type.
 ExpMin= 1.16D-01 ExpMax= 1.03D+03 ExpMxC= 1.03D+03 IAcc=3 IRadAn=         5 AccDes= 0.00D+00
 HarFok:  IExCor=  205 AccDes= 0.00D+00 IRadAn=         5 IDoV=-2 UseB2=F ITyADJ=14
 ICtDFT= 12500011 ScaDFX=  1.000000  1.000000  1.000000  1.000000
 Largest valence mixing into a core orbital is  1.19D-03
 Largest core mixing into a valence orbital is  6.86D-04
 Largest valence mixing into a core orbital is  1.97D-03
 Largest core mixing into a valence orbital is  7.91D-04
 Range of M.O.s used for correlation:    10    19
 NBasis=    19 NAE=    12 NBE=    11 NFC=     9 NFV=     0
 NROrb=     10 NOA=     3 NOB=     2 NVA=     7 NVB=     8
 Leave Link  801 at Fri Mar 25 14:37:41 2022, MaxMem=  9663676416 cpu:               3.2 elap:               0.1
 (Enter /nopt/nrel/apps/gaussian/g16C_1/g16/l804.exe)
 Open-shell transformation, MDV=  9663676416 ITran=4 ISComp=2.
 Unit  1 TFree=         25012 TCopy=        222819.
 Semi-Direct transformation.
 ModeAB=           2 MOrb=             3 LenV=    9663501552
 LASXX=          258 LTotXX=         258 LenRXX=         258
 LTotAB=         422 MaxLAS=        6300 LenRXY=        6300
 NonZer=        7290 LenScr=      785920 LnRSAI=           0
 LnScr1=           0 LExtra=      224198 Total=      1016676
 MaxDsk= 34359738368 SrtSym=           F ITran=            4
 DoSDTr:  NPSUse= 36
 JobTyp=1 Pass  1:  I=   1 to   3.
 (rs|ai) integrals will be sorted in core.
 Complete sort for first half transformation.
 First half transformation complete.
 Complete sort for second half transformation.
 Second half transformation complete.
 ModeAB=           2 MOrb=             2 LenV=    9663501552
 LASXX=          192 LTotXX=         192 LenRXX=        4200
 LTotAB=         157 MaxLAS=        4200 LenRXY=         157
 NonZer=        4860 LenScr=      785920 LnRSAI=           0
 LnScr1=           0 LExtra=      230756 Total=      1021033
 MaxDsk= 34359738368 SrtSym=           F ITran=            4
 DoSDTr:  NPSUse= 36
 JobTyp=2 Pass  1:  I=   1 to   2.
 (rs|ai) integrals will be sorted in core.
 Complete sort for first half transformation.
 First half transformation complete.
 Complete sort for second half transformation.
 Second half transformation complete.
 Spin components of T(2) and E(2):
     alpha-alpha T2 =       0.4140572418D-03 E2=     -0.5452695494D-03
     alpha-beta  T2 =       0.2202162533D-01 E2=     -0.2607950140D-01
     beta-beta   T2 =       0.1542809234D-03 E2=     -0.2415309824D-03
 ANorm=    0.1011231904D+01
 E2 =    -0.2686630193D-01 EUMP2 =    -0.84011256906470D+03
 (S**2,0)=  0.96194D+00           (S**2,1)=  0.94274D+00
 E(PUHF)=      -0.84008901850D+03        E(PMP2)=      -0.84011573482D+03
 Leave Link  804 at Fri Mar 25 14:37:41 2022, MaxMem=  9663676416 cpu:               4.6 elap:               0.2
 (Enter /nopt/nrel/apps/gaussian/g16C_1/g16/l913.exe)
 CIDS:  MDV=  9663676416.
 Frozen-core window:  NFC=   9 NFV=   0.
 IFCWin=0 IBDFC=1 NFBD=     0     0 NFCmp=     0     0 NFFFC=     0     0
 Using original routines for 1st iteration.
 Using DD4UQ or CC4UQ for 2nd and later iterations.
 Keep R2 and R3 ints in memory in symmetry-blocked form, NReq=7415856.
 FoFCou: FMM=F IPFlag=           0 FMFlag=           0 FMFlg1=           0
         NFxFlg=           0 DoJE=F BraDBF=F KetDBF=F FulRan=T
         wScrn=  0.000000 ICntrl=       600 IOpCl=  0 I1Cent=           0 NGrid=           0
         NMat0=    1 NMatS0=    190 NMatT0=    0 NMatD0=    1 NMtDS0=    0 NMtDT0=    0
 Petite list used in FoFCou.
 CIDS: In Core Option IDoMem=           1.
 Coupled Cluster theory with single and double substitutions
 ===========================================================
 Iterations=  50 Convergence= 0.100D-06
 Produce multiple copies of IABC intergrals
 Iteration Nr.   1
 **********************
 DD1Dir will call FoFMem   1 times, MxPair=        16
 NAB=     6 NAA=     3 NBB=     1.
 E(PMP3)=      -0.84012720629D+03
 MP4(R+Q)=  0.39137052D-03
 Maximum subspace dimension=  5
 A-vector RMS=  1.3623701D-02 Max=  4.3030314D-02 conv= 1.00D-05.
 RLE energy=       -0.0465900396
 E3=       -0.11756115D-01        EUMP3=      -0.84012432518D+03
 E4(DQ)=   -0.56099663D-02        UMP4(DQ)=   -0.84012993515D+03
 E4(SDQ)=  -0.59012388D-02        UMP4(SDQ)=  -0.84013022642D+03
 VARIATIONAL ENERGIES WITH THE FIRST-ORDER WAVEFUNCTION:
 DE(Corr)= -0.38240066E-01 E(Corr)=     -840.12394283    
 NORM(A)=   0.10382079D+01
 Iteration Nr.   2
 **********************
 DD1Dir will call FoFMem   1 times, MxPair=        16
 NAB=     6 NAA=     3 NBB=     1.
 A-vector RMS=  1.2024915D-02 Max=  1.7979215D-02 conv= 1.00D-05.
 RLE energy=       -0.0520791211
 DE(Corr)= -0.47926371E-01 E(CORR)=     -840.13362913     Delta=-9.69D-03
 NORM(A)=   0.10604487D+01
 Iteration Nr.   3
 **********************
 DD1Dir will call FoFMem   1 times, MxPair=        16
 NAB=     6 NAA=     3 NBB=     1.
 A-vector RMS=  7.1699603D-03 Max=  1.0770862D-02 conv= 1.00D-05.
 RLE energy=       -0.0564386566
 DE(Corr)= -0.52546647E-01 E(CORR)=     -840.13824941     Delta=-4.62D-03
 NORM(A)=   0.10872622D+01
 Iteration Nr.   4
 **********************
 DD1Dir will call FoFMem   1 times, MxPair=        16
 NAB=     6 NAA=     3 NBB=     1.
 A-vector RMS=  2.9750105D-03 Max=  3.5161258D-03 conv= 1.00D-05.
 RLE energy=       -0.0557052966
 DE(Corr)= -0.56131167E-01 E(CORR)=     -840.14183393     Delta=-3.58D-03
 NORM(A)=   0.10898160D+01
 Iteration Nr.   5
 **********************
 DD1Dir will call FoFMem   1 times, MxPair=        16
 NAB=     6 NAA=     3 NBB=     1.
 A-vector RMS=  1.3735324D-03 Max=  2.7786366D-03 conv= 1.00D-05.
 RLE energy=       -0.0578783310
 DE(Corr)= -0.56010395E-01 E(CORR)=     -840.14171316     Delta= 1.21D-04
 NORM(A)=   0.11029718D+01
 Iteration Nr.   6
 **********************
 DD1Dir will call FoFMem   1 times, MxPair=        16
 NAB=     6 NAA=     3 NBB=     1.
 A-vector RMS=  8.5133804D-04 Max=  2.0584803D-03 conv= 1.00D-05.
 RLE energy=       -0.0560717773
 DE(Corr)= -0.57434302E-01 E(CORR)=     -840.14313707     Delta=-1.42D-03
 NORM(A)=   0.10938138D+01
 Iteration Nr.   7
 **********************
 DD1Dir will call FoFMem   1 times, MxPair=        16
 NAB=     6 NAA=     3 NBB=     1.
 A-vector RMS=  8.9401901D-04 Max=  1.1927026D-03 conv= 1.00D-05.
 RLE energy=       -0.0569298552
 DE(Corr)= -0.56275472E-01 E(CORR)=     -840.14197824     Delta= 1.16D-03
 NORM(A)=   0.10999502D+01
 Iteration Nr.   8
 **********************
 DD1Dir will call FoFMem   1 times, MxPair=        16
 NAB=     6 NAA=     3 NBB=     1.
 A-vector RMS=  2.9098403D-04 Max=  4.7328690D-04 conv= 1.00D-05.
 RLE energy=       -0.0567770349
 DE(Corr)= -0.56874625E-01 E(CORR)=     -840.14257739     Delta=-5.99D-04
 NORM(A)=   0.10991425D+01
 Iteration Nr.   9
 **********************
 DD1Dir will call FoFMem   1 times, MxPair=        16
 NAB=     6 NAA=     3 NBB=     1.
 A-vector RMS=  1.9100133D-04 Max=  3.1023953D-04 conv= 1.00D-05.
 RLE energy=       -0.0567532397
 DE(Corr)= -0.56774808E-01 E(CORR)=     -840.14247757     Delta= 9.98D-05
 NORM(A)=   0.10990167D+01
 Iteration Nr.  10
 **********************
 DD1Dir will call FoFMem   1 times, MxPair=        16
 NAB=     6 NAA=     3 NBB=     1.
 A-vector RMS=  9.5947769D-05 Max=  2.1940827D-04 conv= 1.00D-05.
 RLE energy=       -0.0567548371
 DE(Corr)= -0.56754012E-01 E(CORR)=     -840.14245678     Delta= 2.08D-05
 NORM(A)=   0.10990557D+01
 Iteration Nr.  11
 **********************
 DD1Dir will call FoFMem   1 times, MxPair=        16
 NAB=     6 NAA=     3 NBB=     1.
 A-vector RMS=  6.7246247D-05 Max=  1.5690909D-04 conv= 1.00D-05.
 RLE energy=       -0.0567631552
 DE(Corr)= -0.56756028E-01 E(CORR)=     -840.14245879     Delta=-2.02D-06
 NORM(A)=   0.10991031D+01
 Iteration Nr.  12
 **********************
 DD1Dir will call FoFMem   1 times, MxPair=        16
 NAB=     6 NAA=     3 NBB=     1.
 A-vector RMS=  3.1476948D-05 Max=  6.1018187D-05 conv= 1.00D-05.
 RLE energy=       -0.0567542111
 DE(Corr)= -0.56762544E-01 E(CORR)=     -840.14246531     Delta=-6.52D-06
 NORM(A)=   0.10990282D+01
 Iteration Nr.  13
 **********************
 DD1Dir will call FoFMem   1 times, MxPair=        16
 NAB=     6 NAA=     3 NBB=     1.
 A-vector RMS=  2.1398456D-05 Max=  3.2420160D-05 conv= 1.00D-05.
 RLE energy=       -0.0567583484
 DE(Corr)= -0.56756101E-01 E(CORR)=     -840.14245886     Delta= 6.44D-06
 NORM(A)=   0.10990357D+01
 Iteration Nr.  14
 **********************
 DD1Dir will call FoFMem   1 times, MxPair=        16
 NAB=     6 NAA=     3 NBB=     1.
 A-vector RMS=  1.5803297D-05 Max=  2.3911143D-05 conv= 1.00D-05.
 RLE energy=       -0.0567563831
 DE(Corr)= -0.56757503E-01 E(CORR)=     -840.14246027     Delta=-1.40D-06
 NORM(A)=   0.10990419D+01
 Iteration Nr.  15
 **********************
 DD1Dir will call FoFMem   1 times, MxPair=        16
 NAB=     6 NAA=     3 NBB=     1.
 A-vector RMS=  1.0584896D-05 Max=  1.6756052D-05 conv= 1.00D-05.
 RLE energy=       -0.0567609393
 DE(Corr)= -0.56756905E-01 E(CORR)=     -840.14245967     Delta= 5.99D-07
 NORM(A)=   0.10990793D+01
 Iteration Nr.  16
 **********************
 DD1Dir will call FoFMem   1 times, MxPair=        16
 NAB=     6 NAA=     3 NBB=     1.
 A-vector RMS=  5.1330345D-06 Max=  9.3152778D-06 conv= 1.00D-05.
 RLE energy=       -0.0567567366
 DE(Corr)= -0.56760169E-01 E(CORR)=     -840.14246293     Delta=-3.26D-06
 NORM(A)=   0.10990657D+01
 Iteration Nr.  17
 **********************
 DD1Dir will call FoFMem   1 times, MxPair=        16
 NAB=     6 NAA=     3 NBB=     1.
 A-vector RMS=  3.1883907D-06 Max=  5.6327638D-06 conv= 1.00D-05.
 RLE energy=       -0.0567598239
 DE(Corr)= -0.56757835E-01 E(CORR)=     -840.14246060     Delta= 2.33D-06
 NORM(A)=   0.10990795D+01
 Iteration Nr.  18
 **********************
 DD1Dir will call FoFMem   1 times, MxPair=        16
 NAB=     6 NAA=     3 NBB=     1.
 A-vector RMS=  2.2732950D-06 Max=  3.6945898D-06 conv= 1.00D-05.
 RLE energy=       -0.0567584441
 DE(Corr)= -0.56759371E-01 E(CORR)=     -840.14246213     Delta=-1.54D-06
 NORM(A)=   0.10990735D+01
 Iteration Nr.  19
 **********************
 DD1Dir will call FoFMem   1 times, MxPair=        16
 NAB=     6 NAA=     3 NBB=     1.
 A-vector RMS=  1.4568987D-06 Max=  3.0225337D-06 conv= 1.00D-05.
 RLE energy=       -0.0567590038
 DE(Corr)= -0.56758521E-01 E(CORR)=     -840.14246128     Delta= 8.49D-07
 NORM(A)=   0.10990763D+01
 Iteration Nr.  20
 **********************
 DD1Dir will call FoFMem   1 times, MxPair=        16
 NAB=     6 NAA=     3 NBB=     1.
 A-vector RMS=  8.5576055D-07 Max=  1.7912798D-06 conv= 1.00D-05.
 RLE energy=       -0.0567586739
 DE(Corr)= -0.56758806E-01 E(CORR)=     -840.14246157     Delta=-2.84D-07
 NORM(A)=   0.10990758D+01
 Iteration Nr.  21
 **********************
 DD1Dir will call FoFMem   1 times, MxPair=        16
 NAB=     6 NAA=     3 NBB=     1.
 A-vector RMS=  4.7186326D-07 Max=  8.3528332D-07 conv= 1.00D-05.
 RLE energy=       -0.0567588386
 DE(Corr)= -0.56758668E-01 E(CORR)=     -840.14246143     Delta= 1.38D-07
 NORM(A)=   0.10990768D+01
 Iteration Nr.  22
 **********************
 DD1Dir will call FoFMem   1 times, MxPair=        16
 NAB=     6 NAA=     3 NBB=     1.
 A-vector RMS=  2.1349365D-07 Max=  6.1119562D-07 conv= 1.00D-05.
 RLE energy=       -0.0567586769
 DE(Corr)= -0.56758781E-01 E(CORR)=     -840.14246154     Delta=-1.13D-07
 NORM(A)=   0.10990765D+01
 Iteration Nr.  23
 **********************
 DD1Dir will call FoFMem   1 times, MxPair=        16
 NAB=     6 NAA=     3 NBB=     1.
 A-vector RMS=  1.4465577D-07 Max=  5.3557168D-07 conv= 1.00D-05.
 RLE energy=       -0.0567588955
 DE(Corr)= -0.56758709E-01 E(CORR)=     -840.14246147     Delta= 7.19D-08
 NORM(A)=   0.10990774D+01
 CI/CC converged in   23 iterations to DelEn= 7.19D-08 Conv= 1.00D-07 ErrA1= 1.45D-07 Conv= 1.00D-05
 Wavefunction amplitudes converged. E(Corr)=     -840.14246147    
 Dominant configurations:
 ***********************
 Spin Case        I    J    A    B          Value
    AA           11        15           -0.125189D+00
    AA           11        17            0.122179D+00
    BB           11        14           -0.137353D+00
   ABAB          11   11   14   12      -0.188769D+00
   ABAB          11   11   13   13      -0.115336D+00
   ABAB          12   11   13   14       0.112248D+00
 Largest amplitude= 1.89D-01

 S**2, projected HF & approx projected MPn energies after annihilation of
 unwanted spin states (see manual for definitions):

 spins       (S**2,0) (S**2,1)    PUHF        PMP2        PMP3        PMP4
 annihilated
 s+1         0.74977  0.74983 -840.089018 -840.115735 -840.127206
 s+1,s+2     0.75000  0.75000 -840.089015 -840.115731 -840.127203

 Discarding MO integrals.
 Leave Link  913 at Fri Mar 25 14:37:42 2022, MaxMem=  9663676416 cpu:               8.4 elap:               0.3
 (Enter /nopt/nrel/apps/gaussian/g16C_1/g16/l601.exe)
 Copying SCF densities to generalized density rwf, IOpCl= 1 IROHF=0.

 **********************************************************************

            Population analysis using the SCF Density.

 **********************************************************************

 Orbital symmetries:
 Alpha Orbitals:
       Occupied  (SG) (SG) (PI) (PI) (SG) (SG) (SG) (PI) (PI) (SG)
                 (?A) (?B)
       Virtual   (?B) (?B) (?A) (?A) (?A) (?B) (SG)
 Beta  Orbitals:
       Occupied  (SG) (SG) (PI) (PI) (SG) (SG) (PI) (SG) (PI) (SG)
                 (?A)
       Virtual   (?B) (?B) (?A) (?A) (?B) (?A) (?B) (SG)
 Unable to determine electronic state:  an orbital has unidentified symmetry.
 Alpha  occ. eigenvalues -- -181.58415 -21.36466 -17.95078 -17.94661 -17.94232
 Alpha  occ. eigenvalues --   -2.97900  -1.93091  -1.92157  -1.88892  -0.39757
 Alpha  occ. eigenvalues --   -0.16608  -0.14447
 Alpha virt. eigenvalues --    0.26629   0.28423   0.29769   0.31727   0.31948
 Alpha virt. eigenvalues --    0.32328   1.04635
  Beta  occ. eigenvalues -- -181.58341 -21.36265 -17.94997 -17.94426 -17.93918
  Beta  occ. eigenvalues --   -2.94698  -1.89619  -1.87372  -1.85000  -0.38427
  Beta  occ. eigenvalues --   -0.14969
  Beta virt. eigenvalues --    0.26061   0.31101   0.32427   0.33478   0.34185
  Beta virt. eigenvalues --    0.34738   0.38964   1.05389
          Condensed to atoms (all electrons):
               1          2
     1  H    0.793172   0.331909
     2  Ti   0.331909  21.543011
          Atomic-Atomic Spin Densities.
               1          2
     1  H   -0.006978   0.007333
     2  Ti   0.007333   0.992313
 Mulliken charges and spin densities:
               1          2
     1  H   -0.125080   0.000355
     2  Ti   0.125080   0.999645
 Sum of Mulliken charges =  -0.00000   1.00000
 Mulliken charges and spin densities with hydrogens summed into heavy atoms:
               1          2
     2  Ti  -0.000000   1.000000
 N-N= 8.955306646338D+00 E-N=-2.002959526097D+03  KE= 8.369748731845D+02
 Symmetry A1   KE= 6.618834518456D+02
 Symmetry A2   KE= 4.251342916534D-33
 Symmetry B1   KE= 8.666020569916D+01
 Symmetry B2   KE= 8.843121563974D+01
 Symmetry A1   SP=-5.822599347116D-15
 Symmetry A2   SP=-1.481371131391D-33
 Symmetry B1   SP= 9.974892731564D-16
 Symmetry B2   SP= 1.000000000000D+00

 Atomic contributions to Alpha molecular orbitals:
 Alpha occ 1 OE=-181.584 is Ti2-s=1.0000
 Alpha occ 2 OE=-21.365 is Ti2-s=0.9998
 Alpha occ 3 OE=-17.951 is Ti2-p=1.0000
 Alpha occ 4 OE=-17.947 is Ti2-p=1.0000
 Alpha occ 5 OE=-17.942 is Ti2-p=1.0000
 Alpha occ 6 OE=-2.979 is Ti2-s=0.9949
 Alpha occ 7 OE=-1.931 is Ti2-p=0.9861
 Alpha occ 8 OE=-1.922 is Ti2-p=0.9999
 Alpha occ 9 OE=-1.889 is Ti2-p=1.0000
 Alpha occ 10 OE=-0.398 is H1-s=0.5216 Ti2-s=0.2175 Ti2-d=0.1667
 Alpha occ 11 OE=-0.166 is Ti2-s=0.6638 Ti2-p=0.1833 Ti2-d=0.1304
 Alpha occ 12 OE=-0.144 is Ti2-d=0.9114
 Alpha vir 13 OE=0.266 is Ti2-p=0.9114
 Alpha vir 14 OE=0.284 is Ti2-p=0.9719
 Alpha vir 15 OE=0.298 is Ti2-d=0.5094 Ti2-p=0.4893
 Alpha vir 16 OE=0.317 is Ti2-d=1.0000
 Alpha vir 17 OE=0.319 is Ti2-d=0.9704
 Alpha vir 18 OE=0.323 is Ti2-d=0.9718
 Alpha vir 19 OE=1.046 is H1-s=0.4476 Ti2-p=0.2260 Ti2-d=0.2230 Ti2-s=0.1034

 Atomic contributions to Beta  molecular orbitals:
 Beta  occ 1 OE=-181.583 is Ti2-s=1.0000
 Beta  occ 2 OE=-21.363 is Ti2-s=0.9998
 Beta  occ 3 OE=-17.950 is Ti2-p=1.0000
 Beta  occ 4 OE=-17.944 is Ti2-p=1.0000
 Beta  occ 5 OE=-17.939 is Ti2-p=1.0000
 Beta  occ 6 OE=-2.947 is Ti2-s=0.9944
 Beta  occ 7 OE=-1.896 is Ti2-p=1.0000
 Beta  occ 8 OE=-1.874 is Ti2-p=0.9833
 Beta  occ 9 OE=-1.850 is Ti2-p=0.9999
 Beta  occ 10 OE=-0.384 is H1-s=0.5363 Ti2-s=0.1742 Ti2-d=0.1709 Ti2-p=0.1186
 Beta  occ 11 OE=-0.150 is Ti2-s=0.6562 Ti2-d=0.3084
 Beta  vir 12 OE=0.261 is Ti2-p=0.9922
 Beta  vir 13 OE=0.311 is Ti2-p=0.9522
 Beta  vir 14 OE=0.324 is Ti2-d=0.6002 Ti2-p=0.3166
 Beta  vir 15 OE=0.335 is Ti2-d=1.0000
 Beta  vir 16 OE=0.342 is Ti2-d=0.9922
 Beta  vir 17 OE=0.347 is Ti2-d=0.7058 Ti2-p=0.2991
 Beta  vir 18 OE=0.390 is Ti2-d=0.9522
 Beta  vir 19 OE=1.054 is H1-s=0.4365 Ti2-p=0.2510 Ti2-d=0.2147
 
 Leave Link  601 at Fri Mar 25 14:37:42 2022, MaxMem=  9663676416 cpu:               2.3 elap:               0.1
 (Enter /nopt/nrel/apps/gaussian/g16C_1/g16/l9999.exe)

 Test job not archived.
 1\1\GINC-R3I7N35\SP\UCCSD-FC\Gen\H1Ti1(2)\USER\25-Mar-2022\0\\#P C
 CSD/GEN sp pop=AllOrbitals iop(3/33=1,3/36=-1)\\test\\0,2\H,0,0.,0.,0.
 \Ti,0,0.,0.,1.3\\Version=ES64L-G16RevC.01\HF=-840.0857028\MP2=-840.112
 5691\MP3=-840.1243252\MP4D=-840.1303265\MP4DQ=-840.1299351\PUHF=-840.0
 890185\PMP2-0=-840.1157348\PMP3-0=-840.1272063\MP4SDQ=-840.1302264\CCS
 D=-840.1424615\S2=0.96194\S2-1=0.942745\S2A=0.750386\RMSD=8.572e-09\PG
 =C*V [C*(H1Ti1)]\\@


 The cat could very well be man's best friend
 but would never stoop to admitting it.
                               -- Doug Larson
 Job cpu time:       0 days  0 hours  0 minutes 45.6 seconds.
 Elapsed time:       0 days  0 hours  0 minutes  1.7 seconds.
 File lengths (MBytes):  RWF=     13 Int=      0 D2E=      0 Chk=      1 Scr=      1
 Normal termination of Gaussian 16 at Fri Mar 25 14:37:42 2022.
