 Entering Gaussian System, Link 0=g16
 Initial command:
 /nopt/nrel/apps/gaussian/g16C_1/g16/l1.exe "/lustre/eaglefs/scratch/user/qc/lih-dissc/lih-3-ccsd-0.7-ccd/Gau-21792.inp" -scrdir="/lustre/eaglefs/scratch/user/qc/lih-dissc/lih-3-ccsd-0.7-ccd/"
 Default is to use a total of  36 processors:
                               36 via shared-memory
                                1 via Linda
 Entering Link 1 = /nopt/nrel/apps/gaussian/g16C_1/g16/l1.exe PID=     21793.
  
 Copyright (c) 1988-2019, Gaussian, Inc.  All Rights Reserved.
  
 This is part of the Gaussian(R) 16 program.  It is based on
 the Gaussian(R) 09 system (copyright 2009, Gaussian, Inc.),
 the Gaussian(R) 03 system (copyright 2003, Gaussian, Inc.),
 the Gaussian(R) 98 system (copyright 1998, Gaussian, Inc.),
 the Gaussian(R) 94 system (copyright 1995, Gaussian, Inc.),
 the Gaussian 92(TM) system (copyright 1992, Gaussian, Inc.),
 the Gaussian 90(TM) system (copyright 1990, Gaussian, Inc.),
 the Gaussian 88(TM) system (copyright 1988, Gaussian, Inc.),
 the Gaussian 86(TM) system (copyright 1986, Carnegie Mellon
 University), and the Gaussian 82(TM) system (copyright 1983,
 Carnegie Mellon University). Gaussian is a federally registered
 trademark of Gaussian, Inc.
  
 This software contains proprietary and confidential information,
 including trade secrets, belonging to Gaussian, Inc.
  
 This software is provided under written license and may be
 used, copied, transmitted, or stored only in accord with that
 written license.
  
 The following legend is applicable only to US Government
 contracts under FAR:
  
                    RESTRICTED RIGHTS LEGEND
  
 Use, reproduction and disclosure by the US Government is
 subject to restrictions as set forth in subparagraphs (a)
 and (c) of the Commercial Computer Software - Restricted
 Rights clause in FAR 52.227-19.
  
 Gaussian, Inc.
 340 Quinnipiac St., Bldg. 40, Wallingford CT 06492
  
  
 ---------------------------------------------------------------
 Warning -- This program may not be used in any manner that
 competes with the business of Gaussian, Inc. or will provide
 assistance to any competitor of Gaussian, Inc.  The licensee
 of this program is prohibited from giving any competitor of
 Gaussian, Inc. access to this program.  By using this program,
 the user acknowledges that Gaussian, Inc. is engaged in the
 business of creating and licensing software in the field of
 computational chemistry and represents and warrants to the
 licensee that it is not a competitor of Gaussian, Inc. and that
 it will not use this program in any manner prohibited above.
 ---------------------------------------------------------------
  

 Cite this work as:
 Gaussian 16, Revision C.01,
 M. J. Frisch, G. W. Trucks, H. B. Schlegel, G. E. Scuseria, 
 M. A. Robb, J. R. Cheeseman, G. Scalmani, V. Barone, 
 G. A. Petersson, H. Nakatsuji, X. Li, M. Caricato, A. V. Marenich, 
 J. Bloino, B. G. Janesko, R. Gomperts, B. Mennucci, H. P. Hratchian, 
 J. V. Ortiz, A. F. Izmaylov, J. L. Sonnenberg, D. Williams-Young, 
 F. Ding, F. Lipparini, F. Egidi, J. Goings, B. Peng, A. Petrone, 
 T. Henderson, D. Ranasinghe, V. G. Zakrzewski, J. Gao, N. Rega, 
 G. Zheng, W. Liang, M. Hada, M. Ehara, K. Toyota, R. Fukuda, 
 J. Hasegawa, M. Ishida, T. Nakajima, Y. Honda, O. Kitao, H. Nakai, 
 T. Vreven, K. Throssell, J. A. Montgomery, Jr., J. E. Peralta, 
 F. Ogliaro, M. J. Bearpark, J. J. Heyd, E. N. Brothers, K. N. Kudin, 
 V. N. Staroverov, T. A. Keith, R. Kobayashi, J. Normand, 
 K. Raghavachari, A. P. Rendell, J. C. Burant, S. S. Iyengar, 
 J. Tomasi, M. Cossi, J. M. Millam, M. Klene, C. Adamo, R. Cammi, 
 J. W. Ochterski, R. L. Martin, K. Morokuma, O. Farkas, 
 J. B. Foresman, and D. J. Fox, Gaussian, Inc., Wallingford CT, 2019.
 
 ******************************************
 Gaussian 16:  ES64L-G16RevC.01  3-Jul-2019
                28-Mar-2022 
 ******************************************
 %chk=molecule
 Default route: CacheSize=180224 MaxDisk=256GB
 ----------------------------------------------------------------------
 #P CCSD(MaxCyc=200,SaveAmplitudes,ReadAmplitudes)/GEN sp pop=AllOrbita
 ls iop(3/33=1,3/36=-1)
 ----------------------------------------------------------------------
 1/4=180224,38=1,172=1/1;
 2/4=180224,12=2,17=6,18=5,40=1/2;
 3/4=180224,5=7,11=9,25=1,30=1,33=1,36=-1/1,2,3;
 4/4=180224/1;
 5/4=180224,5=2,38=5/2;
 8/4=180224,6=4,9=120000,10=1,24=1/1,4;
 9/4=180224,5=7,6=200,77=1/13;
 6/4=180224,7=2,8=2,9=2,10=2,96=-1/1;
 99/4=180224,5=1,9=1/99;
 Leave Link    1 at Mon Mar 28 14:06:15 2022, MaxMem=           0 cpu:               2.3 elap:               0.1
 (Enter /nopt/nrel/apps/gaussian/g16C_1/g16/l101.exe)
 ----
 test
 ----
 Symbolic Z-matrix:
 Charge =  0 Multiplicity = 3
 H                     0.        0.        0. 
 Li                    0.        0.        0.7 
 
 ITRead=  0  0
 MicOpt= -1 -1
 NAtoms=      2 NQM=        2 NQMF=       0 NMMI=      0 NMMIF=      0
                NMic=       0 NMicF=      0.
                    Isotopes and Nuclear Properties:
 (Nuclear quadrupole moments (NQMom) in fm**2, nuclear magnetic moments (NMagM)
  in nuclear magnetons)

  Atom         1           2
 IAtWgt=           1           7
 AtmWgt=   1.0078250   7.0160045
 NucSpn=           1           3
 AtZEff=  -0.0000000  -0.0000000
 NQMom=    0.0000000  -4.0100000
 NMagM=    2.7928460   3.2564240
 AtZNuc=   1.0000000   3.0000000
 Leave Link  101 at Mon Mar 28 14:06:15 2022, MaxMem=  9663676416 cpu:               2.9 elap:               0.1
 (Enter /nopt/nrel/apps/gaussian/g16C_1/g16/l202.exe)
                          Input orientation:                          
 ---------------------------------------------------------------------
 Center     Atomic      Atomic             Coordinates (Angstroms)
 Number     Number       Type             X           Y           Z
 ---------------------------------------------------------------------
      1          1           0        0.000000    0.000000    0.000000
      2          3           0        0.000000    0.000000    0.700000
 ---------------------------------------------------------------------
 Stoichiometry    HLi(3)
 Framework group  C*V[C*(HLi)]
 Deg. of freedom     1
 Full point group                 C*V     NOp   4
 Largest Abelian subgroup         C2V     NOp   4
 Largest concise Abelian subgroup C1      NOp   1
                         Standard orientation:                         
 ---------------------------------------------------------------------
 Center     Atomic      Atomic             Coordinates (Angstroms)
 Number     Number       Type             X           Y           Z
 ---------------------------------------------------------------------
      1          1           0        0.000000    0.000000   -0.525000
      2          3           0        0.000000    0.000000    0.175000
 ---------------------------------------------------------------------
 Rotational constants (GHZ):           0.0000000        1170.3824780        1170.3824780
 Leave Link  202 at Mon Mar 28 14:06:15 2022, MaxMem=  9663676416 cpu:               0.9 elap:               0.0
 (Enter /nopt/nrel/apps/gaussian/g16C_1/g16/l301.exe)
 General basis read from cards:  (5D, 7F)
                         Coordinates in L301:                         
 ---------------------------------------------------------------------
 Center     Atomic      Atomic             Coordinates (Angstroms)
 Number     Number       Type             X           Y           Z
 ---------------------------------------------------------------------
      1          1           0        0.000000    0.000000   -0.525000
      2          3           0        0.000000    0.000000    0.175000
 ---------------------------------------------------------------------
 Centers:       1
 STO-3G
 ****
 Centers:       2
 cc-pVDZ
 ****
 FixB: optimizing general contractions.
 Ernie: Thresh=  0.10000D-02 Tol=  0.10000D-05 Strict=F.
 IA=     1 ShT= 0 ShC= 0 NL=   1 NS=   0.
 IA=     1 L=0 SC=0 ISt=    0 NBk=    0 NP=    0 IndPr=    0.
 IA=     2 ShT= 0 ShC= 0 NL=   3 NS=   1.
 IA=     2 L=0 SC=0 ISt=    1 NBk=    2 NP=    8 IndPr=    0.
 DoElim1:  L=0 select primitive    2 from    2 using    1 C= 5.89D-03
 DoElim2:  L=0 select primitive    8 from    1 using    2 C= 5.77D-01
 Delete L=0 primitive    2 from    2 C=  2.10D-22.
 Delete L=0 primitive    1 from    2 C=  3.73D-09.
 Delete L=0 primitive    8 from    1 C=  8.70D-19.
 IA=     2 L=0 SC=0 ISt=    0 NBk=    0 NP=    0 IndPr=   13.
 IA=     2 ShT= 1 ShC= 1 NL=   2 NS=   1.
 IA=     2 L=1 SC=1 ISt=    0 NBk=    0 NP=    0 IndPr=    0.
 IA=     2 ShT= 2 ShC= 2 NL=   1 NS=   1.
 IA=     2 L=2 SC=2 ISt=    0 NBk=    0 NP=    0 IndPr=    0.
 Ernie:  3 primitive shells out of 25 were deleted.
 LdAtmC:  AtmChg=     1.000000     3.000000
 AtZEff=     -1.0000000     -1.3500000
 NEqShl: 
              1            2            3            4
     1            1            1            1            1
     2            2            2            2            2
     3            3            3            3            3
     4            4            4            4            4
     5            5            5            5            5
     6            6            6            6            6
     7            7            7            7            7
 NEqBas: 
              1            2            3            4
     1            1            1            1            1
     2            2            2            2            2
     3            3            3            3            3
     4            4            4            4            4
     5            5           -5           -5            5
     6            6           -6            6           -6
     7            7            7            7            7
     8            8           -8           -8            8
     9            9           -9            9           -9
    10           10           10           10           10
    11           11           11           11           11
    12           12           12           12           12
    13           13           13           13           13
    14           14           14          -14          -14
    15           15          -15          -15           15
    16           16          -16           16          -16
 There are     9 symmetry adapted cartesian basis functions of A1  symmetry.
   1         1   1   1   1
   2         2   2   2   2
   3         3   3   3   3
   4         4   4   4   4
   5         7   7   7   7
   6        10  10  10  10
   7        11  11  11  11
   8        12  12  12  12
   9        13  13  13  13
 There are     1 symmetry adapted cartesian basis functions of A2  symmetry.
  10        14  14  14  14
 There are     3 symmetry adapted cartesian basis functions of B1  symmetry.
  11         5   5   5   5
  12         8   8   8   8
  13        15  15  15  15
 There are     3 symmetry adapted cartesian basis functions of B2  symmetry.
  14         6   6   6   6
  15         9   9   9   9
  16        16  16  16  16
 Order= 1 2 4 3
 Reordered character table:
              1            2            3            4            5
     1            1            1            1            1            1
     2            2            1            1           -1           -1
     3            4            1           -1           -1            1
     4            3            1           -1            1           -1
 NEqShl: 
              1            2            3            4
     1            1            1            1            1
     2            2            2            2            2
     3            3            3            3            3
     4            4            4            4            4
     5            5            5            5            5
     6            6            6            6            6
     7            7            7            7            7
 NEqBas: 
              1            2            3            4
     1            1            1            1            1
     2            2            2            2            2
     3            3            3            3            3
     4            4            4            4            4
     5            5           -5           -5            5
     6            6           -6            6           -6
     7            7            7            7            7
     8            8           -8           -8            8
     9            9           -9            9           -9
    10           10           10           10           10
    11           11           11           11           11
    12           12          -12          -12           12
    13           13          -13           13          -13
    14           14           14           14           14
    15           15           15          -15          -15
 There are     8 symmetry adapted basis functions of A1  symmetry.
   1         1   1   1   1
   2         2   2   2   2
   3         3   3   3   3
   4         4   4   4   4
   5         7   7   7   7
   6        10  10  10  10
   7        11  11  11  11
   8        14  14  14  14
 There are     1 symmetry adapted basis functions of A2  symmetry.
   9        15  15  15  15
 There are     3 symmetry adapted basis functions of B1  symmetry.
  10         5   5   5   5
  11         8   8   8   8
  12        12  12  12  12
 There are     3 symmetry adapted basis functions of B2  symmetry.
  13         6   6   6   6
  14         9   9   9   9
  15        13  13  13  13
 Order= 1 2 4 3
 Reordered character table:
              1            2            3            4            5
     1            1            1            1            1            1
     2            2            1            1           -1           -1
     3            4            1           -1           -1            1
     4            3            1           -1            1           -1
    15 basis functions,    35 primitive gaussians,    16 cartesian basis functions
     3 alpha electrons        1 beta electrons
       nuclear repulsion energy         2.2679023325 Hartrees.
 IS=     1 IAt=     1 ISR=     1 T=0 IP=      1 IndIP=      1 IndIPD=      0 C=  2.769344D-01  0.000000D+00                             NZ=T
 IS=     1 IAt=     1 ISR=     1 T=0 IP=      2 IndIP=      2 IndIPD=      1 C=  2.678389D-01  0.000000D+00                             NZ=T
 IS=     1 IAt=     1 ISR=     1 T=0 IP=      3 IndIP=      3 IndIPD=      2 C=  8.347367D-02  0.000000D+00                             NZ=T
 IS=     2 IAt=     2 ISR=     1 T=0 IP=      1 IndIP=      4 IndIPD=      0 C=  1.296301D-01  0.000000D+00                             NZ=T
 IS=     2 IAt=     2 ISR=     1 T=0 IP=      2 IndIP=      5 IndIPD=      1 C=  2.404528D-01  0.000000D+00                             NZ=T
 IS=     2 IAt=     2 ISR=     1 T=0 IP=      3 IndIP=      6 IndIPD=      2 C=  3.994569D-01  0.000000D+00                             NZ=T
 IS=     2 IAt=     2 ISR=     1 T=0 IP=      4 IndIP=      7 IndIPD=      3 C=  5.708542D-01  0.000000D+00                             NZ=T
 IS=     2 IAt=     2 ISR=     1 T=0 IP=      5 IndIP=      8 IndIPD=      4 C=  6.317030D-01  0.000000D+00                             NZ=T
 IS=     2 IAt=     2 ISR=     1 T=0 IP=      6 IndIP=      9 IndIPD=      5 C=  4.558532D-01  0.000000D+00                             NZ=T
 IS=     2 IAt=     2 ISR=     1 T=0 IP=      7 IndIP=     10 IndIPD=      6 C=  1.282724D-01  0.000000D+00                             NZ=T
 IS=     3 IAt=     2 ISR=     2 T=0 IP=      1 IndIP=     11 IndIPD=      0 C= -1.035279D-03  0.000000D+00                             NZ=T
 IS=     3 IAt=     2 ISR=     2 T=0 IP=      2 IndIP=     12 IndIPD=      1 C= -5.681325D-03  0.000000D+00                             NZ=T
 IS=     3 IAt=     2 ISR=     2 T=0 IP=      3 IndIP=     13 IndIPD=      2 C= -1.930258D-02  0.000000D+00                             NZ=T
 IS=     3 IAt=     2 ISR=     2 T=0 IP=      4 IndIP=     14 IndIPD=      3 C= -4.723991D-02  0.000000D+00                             NZ=T
 IS=     3 IAt=     2 ISR=     2 T=0 IP=      5 IndIP=     15 IndIPD=      4 C= -8.136441D-02  0.000000D+00                             NZ=T
 IS=     3 IAt=     2 ISR=     2 T=0 IP=      6 IndIP=     16 IndIPD=      5 C=  1.089727D-01  0.000000D+00                             NZ=T
 IS=     4 IAt=     2 ISR=     3 T=0 IP=      1 IndIP=     17 IndIPD=      0 C=  4.884946D-02  0.000000D+00                             NZ=T
 IS=     5 IAt=     2 ISR=     4 T=1 IP=      1 IndIP=     18 IndIPD=      0 C=  0.000000D+00  9.248065D-02                             NZ=T
 IS=     5 IAt=     2 ISR=     4 T=1 IP=      2 IndIP=     19 IndIPD=      1 C=  0.000000D+00  6.583497D-02                             NZ=T
 IS=     5 IAt=     2 ISR=     4 T=1 IP=      3 IndIP=     20 IndIPD=      2 C=  0.000000D+00  4.562255D-02                             NZ=T
 IS=     6 IAt=     2 ISR=     5 T=1 IP=      1 IndIP=     21 IndIPD=      0 C=  0.000000D+00  1.348597D-02                             NZ=T
 IS=     7 IAt=     2 ISR=     6 T=2 IP=      1 IndIP=     22 IndIPD=      1 C=  0.000000D+00  0.000000D+00  4.258771D-02  0.000000D+00 NZ=T
 IExCor=    0 DFT=F Ex=HF Corr=None ExCW=0 ScaHFX=  1.000000
 ScaDFX=  1.000000  1.000000  1.000000  1.000000 ScalE2=  1.000000  1.000000
 IRadAn=      5 IRanWt=     -1 IRanGd=            0 ICorTp=0 IEmpDi=  4
 NAtoms=    2 NActive=    2 NUniq=    2 SFac= 1.00D+00 NAtFMM=   60 NAOKFM=F Big=F
 Integral buffers will be    131072 words long.
 Raffenetti 2 integral format.
 Two-electron integral symmetry is turned on.
 Leave Link  301 at Mon Mar 28 14:06:15 2022, MaxMem=  9663676416 cpu:               2.2 elap:               0.1
 (Enter /nopt/nrel/apps/gaussian/g16C_1/g16/l302.exe)
 NPDir=0 NMtPBC=     1 NCelOv=     1 NCel=       1 NClECP=     1 NCelD=      1
         NCelK=      1 NCelE2=     1 NClLst=     1 CellRange=     0.0.
 One-electron integrals computed using PRISM.
 One-electron integral symmetry used in STVInt
 Entering OneElI...
 Calculate overlap and kinetic energy integrals
    NBasis =  15  MinDer = 0  MaxDer = 0
 Requested accuracy = 0.1000D-12
 Symmetry will be used
 PrmmSu-InSpLW:  IPartL=    0 NPrtUS=   36 NPrtUL=    1 DoSpLW=F IThBeg=    0 IThEnd=   35 NThAct=   36.
 PrSmSu:  IncTry=   512 NBBP=             28 NTPThr=   100 NPartT=   36 Incr=           1 LDynOK=F GPUOK=F.
 PrsmSu:  NPrtUS=  36 ThrOK=T IAlg=1 LenDen=           0 ISkipM=0 DoSpLW=F IThBeg=    0 IThEnd=   35.
 Prism:   IPart=     0 DynPar=F LinDyn=F Incr=           1.
 PRISM was handed   268432079 working-precision words and    28 shell-pairs
 PRISM was handed   268432079 working-precision words and    28 shell-pairs
 PRISM was handed   268432079 working-precision words and    28 shell-pairs
 PRISM was handed   268432079 working-precision words and    28 shell-pairs
 PRISM was handed   268432079 working-precision words and    28 shell-pairs
 PRISM was handed   268432079 working-precision words and    28 shell-pairs
 PRISM was handed   268432079 working-precision words and    28 shell-pairs
 PRISM was handed   268432079 working-precision words and    28 shell-pairs
 IPart= 23 NShTot=           0 NBatch=           0 AvBLen=         0.0
 IPart= 24 NShTot=           0 NBatch=           0 AvBLen=         0.0
 IPart= 18 NShTot=           0 NBatch=           0 AvBLen=         0.0
 IPart= 20 NShTot=           0 NBatch=           0 AvBLen=         0.0
 IPart= 17 NShTot=           0 NBatch=           0 AvBLen=         0.0
 IPart= 32 NShTot=           0 NBatch=           0 AvBLen=         0.0
 IPart= 29 NShTot=           0 NBatch=           0 AvBLen=         0.0
 PRISM was handed   268432079 working-precision words and    28 shell-pairs
 PRISM was handed   268432079 working-precision words and    28 shell-pairs
 PRISM was handed   268432079 working-precision words and    28 shell-pairs
 PRISM was handed   268432079 working-precision words and    28 shell-pairs
 PRISM was handed   268432079 working-precision words and    28 shell-pairs
 PRISM was handed   268432079 working-precision words and    28 shell-pairs
 IPart= 22 NShTot=           0 NBatch=           0 AvBLen=         0.0
 IPart=  3 NShTot=           0 NBatch=           0 AvBLen=         0.0
 IPart= 21 NShTot=           0 NBatch=           0 AvBLen=         0.0
 IPart= 28 NShTot=           0 NBatch=           0 AvBLen=         0.0
 PRISM was handed   268432079 working-precision words and    28 shell-pairs
 PRISM was handed   268432079 working-precision words and    28 shell-pairs
 IPart= 16 NShTot=           0 NBatch=           0 AvBLen=         0.0
 IPart= 13 NShTot=           0 NBatch=           0 AvBLen=         0.0
 IPart=  2 NShTot=           0 NBatch=           0 AvBLen=         0.0
 PRISM was handed   268432079 working-precision words and    28 shell-pairs
 PRISM was handed   268432079 working-precision words and    28 shell-pairs
 PRISM was handed   268432079 working-precision words and    28 shell-pairs
 PRISM was handed   268432079 working-precision words and    28 shell-pairs
 PRISM was handed   268432079 working-precision words and    28 shell-pairs
 PRISM was handed   268432079 working-precision words and    28 shell-pairs
 PRISM was handed   268432079 working-precision words and    28 shell-pairs
 IPart= 25 NShTot=           0 NBatch=           0 AvBLen=         0.0
 IPart=  4 NShTot=           0 NBatch=           0 AvBLen=         0.0
 IPart= 30 NShTot=           0 NBatch=           0 AvBLen=         0.0
 IPart= 14 NShTot=           0 NBatch=           0 AvBLen=         0.0
 IPart= 12 NShTot=           0 NBatch=           0 AvBLen=         0.0
 IPart= 10 NShTot=           0 NBatch=           0 AvBLen=         0.0
 PRISM was handed   268432079 working-precision words and    28 shell-pairs
 PRISM was handed   268432079 working-precision words and    28 shell-pairs
 IPart=  1 NShTot=           1 NBatch=           1 AvBLen=         1.0
 PRISM was handed   268432079 working-precision words and    28 shell-pairs
 PRISM was handed   268432079 working-precision words and    28 shell-pairs
 PRISM was handed   268432079 working-precision words and    28 shell-pairs
 PRISM was handed   268432079 working-precision words and    28 shell-pairs
 PRISM was handed   268432079 working-precision words and    28 shell-pairs
 IPart=  8 NShTot=           0 NBatch=           0 AvBLen=         0.0
 PRISM was handed   268432079 working-precision words and    28 shell-pairs
 PRISM was handed   268432079 working-precision words and    28 shell-pairs
 IPart= 31 NShTot=           0 NBatch=           0 AvBLen=         0.0
 IPart= 19 NShTot=           0 NBatch=           0 AvBLen=         0.0
 IPart= 35 NShTot=           0 NBatch=           0 AvBLen=         0.0
 IPart= 27 NShTot=           0 NBatch=           0 AvBLen=         0.0
 IPart=  6 NShTot=           0 NBatch=           0 AvBLen=         0.0
 IPart=  9 NShTot=           0 NBatch=           0 AvBLen=         0.0
 IPart= 33 NShTot=           0 NBatch=           0 AvBLen=         0.0
 IPart=  0 NShTot=          27 NBatch=          27 AvBLen=         1.0
 PRISM was handed   268432079 working-precision words and    28 shell-pairs
 PRISM was handed   268432079 working-precision words and    28 shell-pairs
 PRISM was handed   268432079 working-precision words and    28 shell-pairs
 PRISM was handed   268432079 working-precision words and    28 shell-pairs
 IPart= 11 NShTot=           0 NBatch=           0 AvBLen=         0.0
 IPart= 34 NShTot=           0 NBatch=           0 AvBLen=         0.0
 IPart=  5 NShTot=           0 NBatch=           0 AvBLen=         0.0
 IPart= 15 NShTot=           0 NBatch=           0 AvBLen=         0.0
 IPart= 26 NShTot=           0 NBatch=           0 AvBLen=         0.0
 IPart=  7 NShTot=           0 NBatch=           0 AvBLen=         0.0
 PrSmSu:  NxtVal=             37.
 *** Overlap *** 
                1             2             3             4             5 
      1  0.100000D+01
      2  0.411981D+00  0.100000D+01
      3  0.529299D+00  0.130369D+00  0.100000D+01
      4  0.392380D+00  0.157971D+00  0.861205D+00  0.100000D+01
      5  0.000000D+00  0.000000D+00  0.000000D+00  0.000000D+00  0.100000D+01
      6  0.000000D+00  0.000000D+00  0.000000D+00  0.000000D+00  0.000000D+00
      7 -0.426790D+00  0.000000D+00  0.000000D+00  0.000000D+00  0.000000D+00
      8  0.000000D+00  0.000000D+00  0.000000D+00  0.000000D+00  0.626620D+00
      9  0.000000D+00  0.000000D+00  0.000000D+00  0.000000D+00  0.000000D+00
     10 -0.133852D+00  0.000000D+00  0.000000D+00  0.000000D+00  0.000000D+00
     11  0.177019D+00  0.000000D+00  0.000000D+00  0.000000D+00  0.000000D+00
     12  0.000000D+00  0.000000D+00  0.000000D+00  0.000000D+00  0.000000D+00
     13  0.000000D+00  0.000000D+00  0.000000D+00  0.000000D+00  0.000000D+00
     14  0.000000D+00  0.000000D+00  0.000000D+00  0.000000D+00  0.000000D+00
     15  0.000000D+00  0.000000D+00  0.000000D+00  0.000000D+00  0.000000D+00
                6             7             8             9            10 
      6  0.100000D+01
      7  0.000000D+00  0.100000D+01
      8  0.000000D+00  0.000000D+00  0.100000D+01
      9  0.626620D+00  0.000000D+00  0.000000D+00  0.100000D+01
     10  0.000000D+00  0.626620D+00  0.000000D+00  0.000000D+00  0.100000D+01
     11  0.000000D+00  0.000000D+00  0.000000D+00  0.000000D+00  0.000000D+00
     12  0.000000D+00  0.000000D+00  0.000000D+00  0.000000D+00  0.000000D+00
     13  0.000000D+00  0.000000D+00  0.000000D+00  0.000000D+00  0.000000D+00
     14  0.000000D+00  0.000000D+00  0.000000D+00  0.000000D+00  0.000000D+00
     15  0.000000D+00  0.000000D+00  0.000000D+00  0.000000D+00  0.000000D+00
               11            12            13            14            15 
     11  0.100000D+01
     12  0.000000D+00  0.100000D+01
     13  0.000000D+00  0.000000D+00  0.100000D+01
     14  0.000000D+00  0.000000D+00  0.000000D+00  0.100000D+01
     15  0.000000D+00  0.000000D+00  0.000000D+00  0.000000D+00  0.100000D+01
 *** Kinetic Energy *** 
                1             2             3             4             5 
      1  0.760032D+00
      2  0.181015D+00  0.362154D+01
      3  0.444790D-01 -0.261904D+00  0.139297D+00
      4  0.286786D-01  0.128893D-01  0.513567D-01  0.420750D-01
      5  0.000000D+00  0.000000D+00  0.000000D+00  0.000000D+00  0.249967D+00
      6  0.000000D+00  0.000000D+00  0.000000D+00  0.000000D+00  0.000000D+00
      7 -0.190774D+00  0.000000D+00  0.000000D+00  0.000000D+00  0.000000D+00
      8  0.000000D+00  0.000000D+00  0.000000D+00  0.000000D+00  0.578002D-01
      9  0.000000D+00  0.000000D+00  0.000000D+00  0.000000D+00  0.000000D+00
     10 -0.144080D-01  0.000000D+00  0.000000D+00  0.000000D+00  0.000000D+00
     11  0.109694D+00  0.000000D+00  0.000000D+00  0.000000D+00  0.000000D+00
     12  0.000000D+00  0.000000D+00  0.000000D+00  0.000000D+00  0.000000D+00
     13  0.000000D+00  0.000000D+00  0.000000D+00  0.000000D+00  0.000000D+00
     14  0.000000D+00  0.000000D+00  0.000000D+00  0.000000D+00  0.000000D+00
     15  0.000000D+00  0.000000D+00  0.000000D+00  0.000000D+00  0.000000D+00
                6             7             8             9            10 
      6  0.249967D+00
      7  0.000000D+00  0.249967D+00
      8  0.000000D+00  0.000000D+00  0.600750D-01
      9  0.578002D-01  0.000000D+00  0.000000D+00  0.600750D-01
     10  0.000000D+00  0.578002D-01  0.000000D+00  0.000000D+00  0.600750D-01
     11  0.000000D+00  0.000000D+00  0.000000D+00  0.000000D+00  0.000000D+00
     12  0.000000D+00  0.000000D+00  0.000000D+00  0.000000D+00  0.000000D+00
     13  0.000000D+00  0.000000D+00  0.000000D+00  0.000000D+00  0.000000D+00
     14  0.000000D+00  0.000000D+00  0.000000D+00  0.000000D+00  0.000000D+00
     15  0.000000D+00  0.000000D+00  0.000000D+00  0.000000D+00  0.000000D+00
               11            12            13            14            15 
     11  0.433650D+00
     12  0.000000D+00  0.433650D+00
     13  0.000000D+00  0.000000D+00  0.433650D+00
     14  0.000000D+00  0.000000D+00  0.000000D+00  0.433650D+00
     15  0.000000D+00  0.000000D+00  0.000000D+00  0.000000D+00  0.433650D+00
 Entering OneElI...
 Calculate potential energy integrals
    NBasis =  15  MinDer = 0  MaxDer = 0
 Requested accuracy = 0.1000D-12
 Symmetry will be used
 PrmmSu-InSpLW:  IPartL=    0 NPrtUS=   36 NPrtUL=    1 DoSpLW=F IThBeg=    0 IThEnd=   35 NThAct=   36.
 PrSmSu:  IncTry=   512 NBBP=             56 NTPThr=   100 NPartT=   36 Incr=           1 LDynOK=F GPUOK=F.
 PrsmSu:  NPrtUS=  36 ThrOK=T IAlg=1 LenDen=           0 ISkipM=0 DoSpLW=F IThBeg=    0 IThEnd=   35.
 Prism:   IPart=     0 DynPar=F LinDyn=F Incr=           1.
 PRISM was handed   268432199 working-precision words and    28 shell-pairs
 PRISM was handed   268432199 working-precision words and    28 shell-pairs
 PRISM was handed   268432199 working-precision words and    28 shell-pairs
 PRISM was handed   268432199 working-precision words and    28 shell-pairs
 PRISM was handed   268432199 working-precision words and    28 shell-pairs
 PRISM was handed   268432199 working-precision words and    28 shell-pairs
 PRISM was handed   268432199 working-precision words and    28 shell-pairs
 PRISM was handed   268432199 working-precision words and    28 shell-pairs
 PRISM was handed   268432199 working-precision words and    28 shell-pairs
 PRISM was handed   268432199 working-precision words and    28 shell-pairs
 PRISM was handed   268432199 working-precision words and    28 shell-pairs
 PRISM was handed   268432199 working-precision words and    28 shell-pairs
 PRISM was handed   268432199 working-precision words and    28 shell-pairs
 PRISM was handed   268432199 working-precision words and    28 shell-pairs
 PRISM was handed   268432199 working-precision words and    28 shell-pairs
 PRISM was handed   268432199 working-precision words and    28 shell-pairs
 PRISM was handed   268432199 working-precision words and    28 shell-pairs
 PRISM was handed   268432199 working-precision words and    28 shell-pairs
 PRISM was handed   268432199 working-precision words and    28 shell-pairs
 PRISM was handed   268432199 working-precision words and    28 shell-pairs
 PRISM was handed   268432199 working-precision words and    28 shell-pairs
 PRISM was handed   268432199 working-precision words and    28 shell-pairs
 PRISM was handed   268432199 working-precision words and    28 shell-pairs
 PRISM was handed   268432199 working-precision words and    28 shell-pairs
 PRISM was handed   268432199 working-precision words and    28 shell-pairs
 PRISM was handed   268432199 working-precision words and    28 shell-pairs
 PRISM was handed   268432199 working-precision words and    28 shell-pairs
 PRISM was handed   268432199 working-precision words and    28 shell-pairs
 PRISM was handed   268432199 working-precision words and    28 shell-pairs
 PRISM was handed   268432199 working-precision words and    28 shell-pairs
 PRISM was handed   268432199 working-precision words and    28 shell-pairs
 PRISM was handed   268432199 working-precision words and    28 shell-pairs
 PRISM was handed   268432199 working-precision words and    28 shell-pairs
 PRISM was handed   268432199 working-precision words and    28 shell-pairs
 PRISM was handed   268432199 working-precision words and    28 shell-pairs
 PRISM was handed   268432199 working-precision words and    28 shell-pairs
 IPart=  1 NShTot=           2 NBatch=           1 AvBLen=         2.0
 IPart=  0 NShTot=          54 NBatch=          27 AvBLen=         2.0
 IPart= 28 NShTot=           0 NBatch=           0 AvBLen=         0.0
 IPart= 26 NShTot=           0 NBatch=           0 AvBLen=         0.0
 IPart= 21 NShTot=           0 NBatch=           0 AvBLen=         0.0
 IPart= 32 NShTot=           0 NBatch=           0 AvBLen=         0.0
 IPart= 11 NShTot=           0 NBatch=           0 AvBLen=         0.0
 IPart= 20 NShTot=           0 NBatch=           0 AvBLen=         0.0
 IPart= 24 NShTot=           0 NBatch=           0 AvBLen=         0.0
 IPart=  5 NShTot=           0 NBatch=           0 AvBLen=         0.0
 IPart=  3 NShTot=           0 NBatch=           0 AvBLen=         0.0
 IPart= 27 NShTot=           0 NBatch=           0 AvBLen=         0.0
 IPart= 22 NShTot=           0 NBatch=           0 AvBLen=         0.0
 IPart= 35 NShTot=           0 NBatch=           0 AvBLen=         0.0
 IPart=  9 NShTot=           0 NBatch=           0 AvBLen=         0.0
 IPart= 18 NShTot=           0 NBatch=           0 AvBLen=         0.0
 IPart=  6 NShTot=           0 NBatch=           0 AvBLen=         0.0
 IPart=  2 NShTot=           0 NBatch=           0 AvBLen=         0.0
 IPart= 31 NShTot=           0 NBatch=           0 AvBLen=         0.0
 IPart= 16 NShTot=           0 NBatch=           0 AvBLen=         0.0
 IPart= 29 NShTot=           0 NBatch=           0 AvBLen=         0.0
 IPart= 33 NShTot=           0 NBatch=           0 AvBLen=         0.0
 IPart= 30 NShTot=           0 NBatch=           0 AvBLen=         0.0
 IPart= 10 NShTot=           0 NBatch=           0 AvBLen=         0.0
 IPart= 25 NShTot=           0 NBatch=           0 AvBLen=         0.0
 IPart= 19 NShTot=           0 NBatch=           0 AvBLen=         0.0
 IPart=  4 NShTot=           0 NBatch=           0 AvBLen=         0.0
 IPart= 34 NShTot=           0 NBatch=           0 AvBLen=         0.0
 IPart= 23 NShTot=           0 NBatch=           0 AvBLen=         0.0
 IPart=  7 NShTot=           0 NBatch=           0 AvBLen=         0.0
 IPart= 17 NShTot=           0 NBatch=           0 AvBLen=         0.0
 IPart=  8 NShTot=           0 NBatch=           0 AvBLen=         0.0
 IPart= 14 NShTot=           0 NBatch=           0 AvBLen=         0.0
 IPart= 13 NShTot=           0 NBatch=           0 AvBLen=         0.0
 IPart= 15 NShTot=           0 NBatch=           0 AvBLen=         0.0
 IPart= 12 NShTot=           0 NBatch=           0 AvBLen=         0.0
 PrSmSu:  NxtVal=             37.
 ***** Potential Energy ***** 
                1             2             3             4             5 
      1  0.326982D+01
      2  0.221678D+01  0.881847D+01
      3  0.113032D+01  0.281190D+00  0.142952D+01
      4  0.905110D+00  0.741885D+00  0.110544D+01  0.106055D+01
      5  0.000000D+00  0.000000D+00  0.000000D+00  0.000000D+00  0.137302D+01
      6  0.000000D+00  0.000000D+00  0.000000D+00  0.000000D+00  0.000000D+00
      7 -0.106204D+01 -0.537338D-01 -0.104165D+00 -0.782743D-01  0.000000D+00
      8  0.000000D+00  0.000000D+00  0.000000D+00  0.000000D+00  0.621320D+00
      9  0.000000D+00  0.000000D+00  0.000000D+00  0.000000D+00  0.000000D+00
     10 -0.252219D+00 -0.748195D-02 -0.345690D-01 -0.331898D-01  0.000000D+00
     11  0.423410D+00  0.116142D-01  0.352684D-01  0.249386D-01  0.000000D+00
     12  0.000000D+00  0.000000D+00  0.000000D+00  0.000000D+00 -0.545493D-01
     13  0.000000D+00  0.000000D+00  0.000000D+00  0.000000D+00  0.000000D+00
     14  0.000000D+00  0.000000D+00  0.000000D+00  0.000000D+00  0.000000D+00
     15  0.000000D+00  0.000000D+00  0.000000D+00  0.000000D+00  0.000000D+00
                6             7             8             9            10 
      6  0.137302D+01
      7  0.000000D+00  0.143675D+01
      8  0.000000D+00  0.000000D+00  0.656929D+00
      9  0.621320D+00  0.000000D+00  0.000000D+00  0.656929D+00
     10  0.000000D+00  0.638418D+00  0.000000D+00  0.000000D+00  0.664766D+00
     11  0.000000D+00 -0.877977D-01  0.000000D+00  0.000000D+00 -0.326808D-01
     12  0.000000D+00  0.000000D+00 -0.225844D-01  0.000000D+00  0.000000D+00
     13 -0.545493D-01  0.000000D+00  0.000000D+00 -0.225844D-01  0.000000D+00
     14  0.000000D+00  0.000000D+00  0.000000D+00  0.000000D+00  0.000000D+00
     15  0.000000D+00  0.000000D+00  0.000000D+00  0.000000D+00  0.000000D+00
               11            12            13            14            15 
     11  0.122129D+01
     12  0.000000D+00  0.120297D+01
     13  0.000000D+00  0.000000D+00  0.120297D+01
     14  0.000000D+00  0.000000D+00  0.000000D+00  0.118100D+01
     15  0.000000D+00  0.000000D+00  0.000000D+00  0.000000D+00  0.118100D+01
 ****** Core Hamiltonian ****** 
                1             2             3             4             5 
      1 -0.250979D+01
      2 -0.203577D+01 -0.519693D+01
      3 -0.108584D+01 -0.543094D+00 -0.129022D+01
      4 -0.876432D+00 -0.728996D+00 -0.105409D+01 -0.101848D+01
      5  0.000000D+00  0.000000D+00  0.000000D+00  0.000000D+00 -0.112305D+01
      6  0.000000D+00  0.000000D+00  0.000000D+00  0.000000D+00  0.000000D+00
      7  0.871265D+00  0.537338D-01  0.104165D+00  0.782743D-01  0.000000D+00
      8  0.000000D+00  0.000000D+00  0.000000D+00  0.000000D+00 -0.563519D+00
      9  0.000000D+00  0.000000D+00  0.000000D+00  0.000000D+00  0.000000D+00
     10  0.237811D+00  0.748195D-02  0.345690D-01  0.331898D-01  0.000000D+00
     11 -0.313716D+00 -0.116142D-01 -0.352684D-01 -0.249386D-01  0.000000D+00
     12  0.000000D+00  0.000000D+00  0.000000D+00  0.000000D+00  0.545493D-01
     13  0.000000D+00  0.000000D+00  0.000000D+00  0.000000D+00  0.000000D+00
     14  0.000000D+00  0.000000D+00  0.000000D+00  0.000000D+00  0.000000D+00
     15  0.000000D+00  0.000000D+00  0.000000D+00  0.000000D+00  0.000000D+00
                6             7             8             9            10 
      6 -0.112305D+01
      7  0.000000D+00 -0.118678D+01
      8  0.000000D+00  0.000000D+00 -0.596854D+00
      9 -0.563519D+00  0.000000D+00  0.000000D+00 -0.596854D+00
     10  0.000000D+00 -0.580617D+00  0.000000D+00  0.000000D+00 -0.604691D+00
     11  0.000000D+00  0.877977D-01  0.000000D+00  0.000000D+00  0.326808D-01
     12  0.000000D+00  0.000000D+00  0.225844D-01  0.000000D+00  0.000000D+00
     13  0.545493D-01  0.000000D+00  0.000000D+00  0.225844D-01  0.000000D+00
     14  0.000000D+00  0.000000D+00  0.000000D+00  0.000000D+00  0.000000D+00
     15  0.000000D+00  0.000000D+00  0.000000D+00  0.000000D+00  0.000000D+00
               11            12            13            14            15 
     11 -0.787637D+00
     12  0.000000D+00 -0.769317D+00
     13  0.000000D+00  0.000000D+00 -0.769317D+00
     14  0.000000D+00  0.000000D+00  0.000000D+00 -0.747348D+00
     15  0.000000D+00  0.000000D+00  0.000000D+00  0.000000D+00 -0.747348D+00
 SVDSVc IOpt=   1 NormSV=T IR=1
 SVDSVc V= 2.39D+00 1.68D+00 1.08D+00 1.00D+00 9.82D-01 5.37D-01 2.37D-01 9.42D-02
 SVDSVc IOpt=   1 NormSV=T IR=2
 SVDSVc V= 1.00D+00
 SVDSVc IOpt=   1 NormSV=T IR=3
 SVDSVc V= 1.63D+00 1.00D+00 3.73D-01
 SVDSVc IOpt=   1 NormSV=T IR=4
 SVDSVc V= 1.63D+00 1.00D+00 3.73D-01
 TstOVc:  Largest diagonal error= 3.11D-15 IB=1 I=    8.
 TstOVc:  Largest same sym error= 9.67D-16 IB=1 I=    8 J=    4.
 TstOVc:  Largest diff sym error= 0.00D+00 IB=0 JB=0 I=    0 J=    0.
 Orthogonalized basis functions: 
                 1             2             3             4             5 
      1   0.341581D+00 -0.970361D-01  0.281078D+00  0.000000D+00 -0.740828D-01
      2   0.172432D+00  0.350688D-01  0.513844D+00  0.000000D+00 -0.671033D+00
      3   0.353707D+00  0.216512D+00 -0.247264D+00  0.000000D+00  0.153791D+00
      4   0.335050D+00  0.225750D+00 -0.273121D+00  0.000000D+00  0.143851D+00
      5   0.000000D+00  0.000000D+00  0.000000D+00  0.000000D+00  0.000000D+00
      6   0.000000D+00  0.000000D+00  0.000000D+00  0.000000D+00  0.000000D+00
      7  -0.150155D+00  0.503421D+00  0.854183D-01  0.000000D+00 -0.143666D-01
      8   0.000000D+00  0.000000D+00  0.000000D+00  0.000000D+00  0.000000D+00
      9   0.000000D+00  0.000000D+00  0.000000D+00  0.000000D+00  0.000000D+00
     10  -0.100549D+00  0.481697D+00  0.202165D+00  0.000000D+00 -0.500391D-01
     11   0.434856D-01 -0.251923D-01  0.632562D+00  0.000000D+00  0.718172D+00
     12   0.000000D+00  0.000000D+00  0.000000D+00  0.000000D+00  0.000000D+00
     13   0.000000D+00  0.000000D+00  0.000000D+00  0.000000D+00  0.000000D+00
     14   0.000000D+00  0.000000D+00  0.000000D+00  0.100000D+01  0.000000D+00
     15   0.000000D+00  0.000000D+00  0.000000D+00  0.000000D+00  0.000000D+00
                 6             7             8             9            10 
      1   0.717922D+00  0.931009D+00 -0.118866D+01  0.000000D+00  0.000000D+00
      2  -0.508845D+00 -0.390165D+00  0.515778D+00  0.000000D+00  0.000000D+00
      3  -0.531598D-01  0.477709D+00  0.225148D+01  0.000000D+00  0.000000D+00
      4  -0.335601D+00 -0.936629D+00 -0.171564D+01  0.000000D+00  0.000000D+00
      5   0.000000D+00  0.000000D+00  0.000000D+00  0.000000D+00  0.554424D+00
      6   0.000000D+00  0.000000D+00  0.000000D+00  0.000000D+00  0.000000D+00
      7  -0.459821D+00  0.118425D+01 -0.841010D+00  0.000000D+00  0.000000D+00
      8   0.000000D+00  0.000000D+00  0.000000D+00  0.000000D+00  0.554424D+00
      9   0.000000D+00  0.000000D+00  0.000000D+00  0.000000D+00  0.000000D+00
     10   0.829060D+00 -0.808763D+00  0.406141D+00  0.000000D+00  0.000000D+00
     11  -0.274216D+00 -0.215867D+00  0.232292D+00  0.000000D+00  0.000000D+00
     12   0.000000D+00  0.000000D+00  0.000000D+00  0.000000D+00  0.000000D+00
     13   0.000000D+00  0.000000D+00  0.000000D+00  0.000000D+00  0.000000D+00
     14   0.000000D+00  0.000000D+00  0.000000D+00  0.000000D+00  0.000000D+00
     15   0.000000D+00  0.000000D+00  0.000000D+00  0.100000D+01  0.000000D+00
                11            12            13            14            15 
      1   0.000000D+00  0.000000D+00  0.000000D+00  0.000000D+00  0.000000D+00
      2   0.000000D+00  0.000000D+00  0.000000D+00  0.000000D+00  0.000000D+00
      3   0.000000D+00  0.000000D+00  0.000000D+00  0.000000D+00  0.000000D+00
      4   0.000000D+00  0.000000D+00  0.000000D+00  0.000000D+00  0.000000D+00
      5   0.000000D+00  0.115720D+01  0.000000D+00  0.000000D+00  0.000000D+00
      6   0.000000D+00  0.000000D+00  0.554424D+00  0.000000D+00  0.115720D+01
      7   0.000000D+00  0.000000D+00  0.000000D+00  0.000000D+00  0.000000D+00
      8   0.000000D+00 -0.115720D+01  0.000000D+00  0.000000D+00  0.000000D+00
      9   0.000000D+00  0.000000D+00  0.554424D+00  0.000000D+00 -0.115720D+01
     10   0.000000D+00  0.000000D+00  0.000000D+00  0.000000D+00  0.000000D+00
     11   0.000000D+00  0.000000D+00  0.000000D+00  0.000000D+00  0.000000D+00
     12   0.100000D+01  0.000000D+00  0.000000D+00  0.000000D+00  0.000000D+00
     13   0.000000D+00  0.000000D+00  0.000000D+00  0.100000D+01  0.000000D+00
     14   0.000000D+00  0.000000D+00  0.000000D+00  0.000000D+00  0.000000D+00
     15   0.000000D+00  0.000000D+00  0.000000D+00  0.000000D+00  0.000000D+00
 NBasis=    15 RedAO= T EigKep=  9.42D-02  NBF=     8     1     3     3
 NBsUse=    15 1.00D-06 EigRej= -1.00D+00 NBFU=     8     1     3     3
 Leave Link  302 at Mon Mar 28 14:06:15 2022, MaxMem=  9663676416 cpu:               5.9 elap:               0.2
 (Enter /nopt/nrel/apps/gaussian/g16C_1/g16/l303.exe)
 DipDrv will not compute anything.
 Fermi contact integrals: 
                 1             2 
      1   0.628247D+00  0.152706D+00
      2   0.767355D-01  0.255622D+01
      3   0.625205D-01 -0.456508D-01
      4   0.465097D-01  0.488495D-01
      5   0.000000D+00  0.000000D+00
      6   0.000000D+00  0.000000D+00
      7  -0.115240D+00  0.000000D+00
      8   0.000000D+00  0.000000D+00
      9   0.000000D+00  0.000000D+00
     10  -0.171048D-01  0.000000D+00
     11   0.599959D-01  0.000000D+00
     12   0.000000D+00  0.000000D+00
     13   0.000000D+00  0.000000D+00
     14   0.000000D+00  0.000000D+00
     15   0.000000D+00  0.000000D+00
 Leave Link  303 at Mon Mar 28 14:06:15 2022, MaxMem=  9663676416 cpu:               1.1 elap:               0.1
 (Enter /nopt/nrel/apps/gaussian/g16C_1/g16/l401.exe)
 ExpMin= 2.40D-02 ExpMax= 1.47D+03 ExpMxC= 5.03D+01 IAcc=3 IRadAn=         5 AccDes= 0.00D+00
 Harris functional with IExCor=  205 and IRadAn=       5 diagonalized for initial guess.
 HarFok:  IExCor=  205 AccDes= 0.00D+00 IRadAn=         5 IDoV= 1 UseB2=F ITyADJ=14
 ICtDFT=  3500011 ScaDFX=  1.000000  1.000000  1.000000  1.000000
 FoFCou: FMM=F IPFlag=           0 FMFlag=      100000 FMFlg1=           0
         NFxFlg=           0 DoJE=T BraDBF=F KetDBF=T FulRan=T
         wScrn=  0.000000 ICntrl=       500 IOpCl=  0 I1Cent=   200000004 NGrid=           0
         NMat0=    1 NMatS0=      1 NMatT0=    0 NMatD0=    1 NMtDS0=    0 NMtDT0=    0
 Petite list used in FoFCou.
 Harris En= -7.47051222242297    
 JPrj=0 DoOrth=F DoCkMO=F.
 Initial guess orbital symmetries:
 Alpha Orbitals:
       Occupied  (SG) (SG) (SG)
       Virtual   (PI) (PI) (SG) (PI) (PI) (SG) (SG) (PI) (PI) (DLTA)
                 (DLTA) (SG)
 Beta  Orbitals:
       Occupied  (SG)
       Virtual   (SG) (SG) (PI) (PI) (SG) (PI) (PI) (SG) (SG) (PI)
                 (PI) (DLTA) (DLTA) (SG)
 The electronic state of the initial guess is 3-SG.
 Initial guess <Sx>= 0.0000 <Sy>= 0.0000 <Sz>= 1.0000 <S**2>= 2.0000 S= 1.0000
 Leave Link  401 at Mon Mar 28 14:06:16 2022, MaxMem=  9663676416 cpu:               3.9 elap:               0.1
 (Enter /nopt/nrel/apps/gaussian/g16C_1/g16/l502.exe)
 Keep R1 and R2 ints in memory in symmetry-blocked form, NReq=7408286.
 FoFCou: FMM=F IPFlag=           0 FMFlag=           0 FMFlg1=           0
         NFxFlg=           0 DoJE=F BraDBF=F KetDBF=F FulRan=T
         wScrn=  0.000000 ICntrl=       600 IOpCl=  0 I1Cent=           0 NGrid=           0
         NMat0=    1 NMatS0=    120 NMatT0=    0 NMatD0=    1 NMtDS0=    0 NMtDT0=    0
 Petite list used in FoFCou.
 UHF open shell SCF:
 Using DIIS extrapolation, IDIIS=  1040.
 NGot=  9663676416 LenX=  9663669219 LenY=  9663668337
 Requested convergence on RMS density matrix=1.00D-08 within 128 cycles.
 Requested convergence on MAX density matrix=1.00D-06.
 Requested convergence on             energy=1.00D-06.
 No special actions if energy rises.

 Cycle   1  Pass 1  IDiag  1:
 E= -7.51016094666144    
 DIIS: error= 2.19D-02 at cycle   1 NSaved=   1.
 NSaved= 1 IEnMin= 1 EnMin= -7.51016094666144     IErMin= 1 ErrMin= 2.19D-02
 ErrMax= 2.19D-02  0.00D+00 EMaxC= 1.00D-01 BMatC= 3.63D-02 BMatP= 3.63D-02
 IDIUse=3 WtCom= 7.81D-01 WtEn= 2.19D-01
 Coeff-Com:  0.100D+01
 Coeff-En:   0.100D+01
 Coeff:      0.100D+01
 Gap=     0.220 Goal=   None    Shift=    0.000
 Gap=     2.683 Goal=   None    Shift=    0.000
 GapD=    0.220 DampG=1.000 DampE=0.500 DampFc=0.5000 IDamp=-1.
 Damping current iteration by 5.00D-01
 RMSDP=1.09D-02 MaxDP=1.16D-01              OVMax= 4.06D-02

 Cycle   2  Pass 1  IDiag  1:
 E= -7.51526038081571     Delta-E=       -0.005099434154 Rises=F Damp=T
 DIIS: error= 1.28D-02 at cycle   2 NSaved=   2.
 NSaved= 2 IEnMin= 2 EnMin= -7.51526038081571     IErMin= 2 ErrMin= 1.28D-02
 ErrMax= 1.28D-02  0.00D+00 EMaxC= 1.00D-01 BMatC= 1.28D-02 BMatP= 3.63D-02
 IDIUse=3 WtCom= 8.72D-01 WtEn= 1.28D-01
 Coeff-Com: -0.141D+01 0.241D+01
 Coeff-En:   0.000D+00 0.100D+01
 Coeff:     -0.123D+01 0.223D+01
 Gap=     0.211 Goal=   None    Shift=    0.000
 Gap=     2.635 Goal=   None    Shift=    0.000
 RMSDP=8.69D-03 MaxDP=1.02D-01 DE=-5.10D-03 OVMax= 1.53D-02

 Cycle   3  Pass 1  IDiag  1:
 E= -7.52223261784284     Delta-E=       -0.006972237027 Rises=F Damp=F
 DIIS: error= 1.37D-03 at cycle   3 NSaved=   3.
 NSaved= 3 IEnMin= 3 EnMin= -7.52223261784284     IErMin= 3 ErrMin= 1.37D-03
 ErrMax= 1.37D-03  0.00D+00 EMaxC= 1.00D-01 BMatC= 7.52D-05 BMatP= 1.28D-02
 IDIUse=3 WtCom= 9.86D-01 WtEn= 1.37D-02
 Coeff-Com:  0.518D+00-0.943D+00 0.143D+01
 Coeff-En:   0.000D+00 0.000D+00 0.100D+01
 Coeff:      0.511D+00-0.930D+00 0.142D+01
 Gap=     0.212 Goal=   None    Shift=    0.000
 Gap=     2.629 Goal=   None    Shift=    0.000
 RMSDP=1.01D-03 MaxDP=1.50D-02 DE=-6.97D-03 OVMax= 5.47D-03

 Cycle   4  Pass 1  IDiag  1:
 E= -7.52228320727058     Delta-E=       -0.000050589428 Rises=F Damp=F
 DIIS: error= 8.93D-05 at cycle   4 NSaved=   4.
 NSaved= 4 IEnMin= 4 EnMin= -7.52228320727058     IErMin= 4 ErrMin= 8.93D-05
 ErrMax= 8.93D-05  0.00D+00 EMaxC= 1.00D-01 BMatC= 3.42D-07 BMatP= 7.52D-05
 IDIUse=1 WtCom= 1.00D+00 WtEn= 0.00D+00
 Coeff-Com: -0.164D+00 0.301D+00-0.493D+00 0.136D+01
 Coeff:     -0.164D+00 0.301D+00-0.493D+00 0.136D+01
 Gap=     0.212 Goal=   None    Shift=    0.000
 Gap=     2.628 Goal=   None    Shift=    0.000
 RMSDP=8.12D-05 MaxDP=9.16D-04 DE=-5.06D-05 OVMax= 7.49D-04

 Cycle   5  Pass 1  IDiag  1:
 E= -7.52228355633411     Delta-E=       -0.000000349064 Rises=F Damp=F
 DIIS: error= 1.46D-05 at cycle   5 NSaved=   5.
 NSaved= 5 IEnMin= 5 EnMin= -7.52228355633411     IErMin= 5 ErrMin= 1.46D-05
 ErrMax= 1.46D-05  0.00D+00 EMaxC= 1.00D-01 BMatC= 8.53D-09 BMatP= 3.42D-07
 IDIUse=1 WtCom= 1.00D+00 WtEn= 0.00D+00
 Coeff-Com:  0.408D-01-0.751D-01 0.128D+00-0.437D+00 0.134D+01
 Coeff:      0.408D-01-0.751D-01 0.128D+00-0.437D+00 0.134D+01
 Gap=     0.212 Goal=   None    Shift=    0.000
 Gap=     2.628 Goal=   None    Shift=    0.000
 RMSDP=2.43D-05 MaxDP=1.79D-04 DE=-3.49D-07 OVMax= 2.92D-04

 Cycle   6  Pass 1  IDiag  1:
 E= -7.52228357957855     Delta-E=       -0.000000023244 Rises=F Damp=F
 DIIS: error= 5.60D-06 at cycle   6 NSaved=   6.
 NSaved= 6 IEnMin= 6 EnMin= -7.52228357957855     IErMin= 6 ErrMin= 5.60D-06
 ErrMax= 5.60D-06  0.00D+00 EMaxC= 1.00D-01 BMatC= 7.74D-10 BMatP= 8.53D-09
 IDIUse=1 WtCom= 1.00D+00 WtEn= 0.00D+00
 Coeff-Com: -0.102D-01 0.189D-01-0.341D-01 0.137D+00-0.700D+00 0.159D+01
 Coeff:     -0.102D-01 0.189D-01-0.341D-01 0.137D+00-0.700D+00 0.159D+01
 Gap=     0.212 Goal=   None    Shift=    0.000
 Gap=     2.628 Goal=   None    Shift=    0.000
 RMSDP=1.04D-05 MaxDP=7.24D-05 DE=-2.32D-08 OVMax= 1.31D-04

 Cycle   7  Pass 1  IDiag  1:
 E= -7.52228358235187     Delta-E=       -0.000000002773 Rises=F Damp=F
 DIIS: error= 6.86D-07 at cycle   7 NSaved=   7.
 NSaved= 7 IEnMin= 7 EnMin= -7.52228358235187     IErMin= 7 ErrMin= 6.86D-07
 ErrMax= 6.86D-07  0.00D+00 EMaxC= 1.00D-01 BMatC= 1.35D-11 BMatP= 7.74D-10
 IDIUse=1 WtCom= 1.00D+00 WtEn= 0.00D+00
 Coeff-Com:  0.640D-03-0.122D-02 0.254D-02-0.126D-01 0.739D-01-0.275D+00
 Coeff-Com:  0.121D+01
 Coeff:      0.640D-03-0.122D-02 0.254D-02-0.126D-01 0.739D-01-0.275D+00
 Coeff:      0.121D+01
 Gap=     0.212 Goal=   None    Shift=    0.000
 Gap=     2.628 Goal=   None    Shift=    0.000
 RMSDP=1.13D-06 MaxDP=8.82D-06 DE=-2.77D-09 OVMax= 1.64D-05

 Cycle   8  Pass 1  IDiag  1:
 E= -7.52228358239428     Delta-E=       -0.000000000042 Rises=F Damp=F
 DIIS: error= 1.28D-07 at cycle   8 NSaved=   8.
 NSaved= 8 IEnMin= 8 EnMin= -7.52228358239428     IErMin= 8 ErrMin= 1.28D-07
 ErrMax= 1.28D-07  0.00D+00 EMaxC= 1.00D-01 BMatC= 6.63D-13 BMatP= 1.35D-11
 IDIUse=1 WtCom= 1.00D+00 WtEn= 0.00D+00
 Coeff-Com: -0.315D-03 0.597D-03-0.118D-02 0.518D-02-0.239D-01 0.987D-01
 Coeff-Com: -0.576D+00 0.150D+01
 Coeff:     -0.315D-03 0.597D-03-0.118D-02 0.518D-02-0.239D-01 0.987D-01
 Coeff:     -0.576D+00 0.150D+01
 Gap=     0.212 Goal=   None    Shift=    0.000
 Gap=     2.628 Goal=   None    Shift=    0.000
 RMSDP=2.60D-07 MaxDP=3.30D-06 DE=-4.24D-11 OVMax= 2.67D-06

 Cycle   9  Pass 1  IDiag  1:
 E= -7.52228358239602     Delta-E=       -0.000000000002 Rises=F Damp=F
 DIIS: error= 4.16D-08 at cycle   9 NSaved=   9.
 NSaved= 9 IEnMin= 9 EnMin= -7.52228358239602     IErMin= 9 ErrMin= 4.16D-08
 ErrMax= 4.16D-08  0.00D+00 EMaxC= 1.00D-01 BMatC= 4.49D-14 BMatP= 6.63D-13
 IDIUse=1 WtCom= 1.00D+00 WtEn= 0.00D+00
 Coeff-Com:  0.484D-04-0.968D-04 0.248D-03-0.140D-02 0.655D-02-0.391D-01
 Coeff-Com:  0.295D+00-0.996D+00 0.173D+01
 Coeff:      0.484D-04-0.968D-04 0.248D-03-0.140D-02 0.655D-02-0.391D-01
 Coeff:      0.295D+00-0.996D+00 0.173D+01
 Gap=     0.212 Goal=   None    Shift=    0.000
 Gap=     2.628 Goal=   None    Shift=    0.000
 RMSDP=9.88D-08 MaxDP=1.31D-06 DE=-1.74D-12 OVMax= 9.51D-07

 Cycle  10  Pass 1  IDiag  1:
 E= -7.52228358239616     Delta-E=       -0.000000000000 Rises=F Damp=F
 DIIS: error= 1.72D-09 at cycle  10 NSaved=  10.
 NSaved=10 IEnMin=10 EnMin= -7.52228358239616     IErMin=10 ErrMin= 1.72D-09
 ErrMax= 1.72D-09  0.00D+00 EMaxC= 1.00D-01 BMatC= 1.19D-16 BMatP= 4.49D-14
 IDIUse=1 WtCom= 1.00D+00 WtEn= 0.00D+00
 Coeff-Com: -0.607D-06 0.168D-05-0.906D-05 0.667D-04-0.229D-03 0.236D-02
 Coeff-Com: -0.217D-01 0.825D-01-0.188D+00 0.113D+01
 Coeff:     -0.607D-06 0.168D-05-0.906D-05 0.667D-04-0.229D-03 0.236D-02
 Coeff:     -0.217D-01 0.825D-01-0.188D+00 0.113D+01
 Gap=     0.212 Goal=   None    Shift=    0.000
 Gap=     2.628 Goal=   None    Shift=    0.000
 RMSDP=4.12D-09 MaxDP=5.23D-08 DE=-1.40D-13 OVMax= 3.26D-08

 SCF Done:  E(UHF) =  -7.52228358240     A.U. after   10 cycles
            NFock= 10  Conv=0.41D-08     -V/T= 1.9065
 <Sx>= 0.0000 <Sy>= 0.0000 <Sz>= 1.0000 <S**2>= 2.0000 S= 1.0000
 <L.S>= 0.000000000000E+00
 KE= 8.298133381875D+00 PE=-2.168202438744D+01 EE= 3.593705090657D+00
 Annihilation of the first spin contaminant:
 S**2 before annihilation     2.0000,   after     2.0000
 Leave Link  502 at Mon Mar 28 14:06:16 2022, MaxMem=  9663676416 cpu:               5.4 elap:               0.2
 (Enter /nopt/nrel/apps/gaussian/g16C_1/g16/l801.exe)
 Windowed orbitals will be sorted by symmetry type.
 ExpMin= 2.40D-02 ExpMax= 1.47D+03 ExpMxC= 5.03D+01 IAcc=3 IRadAn=         5 AccDes= 0.00D+00
 HarFok:  IExCor=  205 AccDes= 0.00D+00 IRadAn=         5 IDoV=-2 UseB2=F ITyADJ=14
 ICtDFT= 12500011 ScaDFX=  1.000000  1.000000  1.000000  1.000000
 Largest valence mixing into a core orbital is  3.16D-03
 Largest core mixing into a valence orbital is  1.29D-03
 Range of M.O.s used for correlation:     2    15
 NBasis=    15 NAE=     3 NBE=     1 NFC=     1 NFV=     0
 NROrb=     14 NOA=     2 NOB=     0 NVA=    12 NVB=    14
 Leave Link  801 at Mon Mar 28 14:06:16 2022, MaxMem=  9663676416 cpu:               2.1 elap:               0.1
 (Enter /nopt/nrel/apps/gaussian/g16C_1/g16/l804.exe)
 Open-shell transformation, MDV=  9663676416 ITran=4 ISComp=2.
 Unit  1 TFree=         15923 TCopy=        220880.
 Semi-Direct transformation.
 ModeAB=           2 MOrb=             2 LenV=    9663496414
 LASXX=          607 LTotXX=         607 LenRXX=         607
 LTotAB=         853 MaxLAS=        3808 LenRXY=        3808
 NonZer=        4396 LenScr=      785920 LnRSAI=           0
 LnScr1=           0 LExtra=      221865 Total=      1012200
 MaxDsk= 34359738368 SrtSym=           F ITran=            4
 DoSDTr:  NPSUse= 36
 JobTyp=1 Pass  1:  I=   1 to   2.
 (rs|ai) integrals will be sorted in core.
 Complete sort for first half transformation.
 First half transformation complete.
 Complete sort for second half transformation.
 Second half transformation complete.
 Spin components of T(2) and E(2):
     alpha-alpha T2 =       0.4736770502D-03 E2=     -0.5747905418D-03
     alpha-beta  T2 =       0.0000000000D+00 E2=      0.0000000000D+00
     beta-beta   T2 =       0.0000000000D+00 E2=      0.0000000000D+00
 ANorm=    0.1000236810D+01
 E2 =    -0.5747905418D-03 EUMP2 =    -0.75228583729379D+01
 Leave Link  804 at Mon Mar 28 14:06:16 2022, MaxMem=  9663676416 cpu:               3.5 elap:               0.1
 (Enter /nopt/nrel/apps/gaussian/g16C_1/g16/l913.exe)
 CIDS:  MDV=  9663676416.
 Frozen-core window:  NFC=   1 NFV=   0.
 IFCWin=0 IBDFC=1 NFBD=     0     0 NFCmp=     0     0 NFFFC=     0     0
 Using original routines for 1st iteration.
 Using DD4UQ or CC4UQ for 2nd and later iterations.
 Keep R2 and R3 ints in memory in symmetry-blocked form, NReq=7410722.
 FoFCou: FMM=F IPFlag=           0 FMFlag=           0 FMFlg1=           0
         NFxFlg=           0 DoJE=F BraDBF=F KetDBF=F FulRan=T
         wScrn=  0.000000 ICntrl=       600 IOpCl=  0 I1Cent=           0 NGrid=           0
         NMat0=    1 NMatS0=    120 NMatT0=    0 NMatD0=    1 NMtDS0=    0 NMtDT0=    0
 Petite list used in FoFCou.
 CIDS: In Core Option IDoMem=           1.
 Coupled Cluster theory with single and double substitutions
 ===========================================================
 Iterations= 200 Convergence= 0.100D-06
 Produce multiple copies of IABC intergrals
 Iteration Nr.   1
 **********************
 DD1Dir will call FoFMem   1 times, MxPair=         2
 NAB=     0 NAA=     1 NBB=     0.
 MP4(R+Q)=  0.27226509D-06
 Maximum subspace dimension=  5
 A-vector RMS=  1.3395108D-03 Max=  4.2695126D-03 conv= 1.00D-05.
 RLE energy=       -0.0009879657
 E3=       -0.24065567D-03        EUMP3=      -0.75230990286D+01
 E4(DQ)=   -0.10150593D-03        UMP4(DQ)=   -0.75232005345D+01
 E4(SDQ)=  -0.10217693D-03        UMP4(SDQ)=  -0.75232012055D+01
 VARIATIONAL ENERGIES WITH THE FIRST-ORDER WAVEFUNCTION:
 DE(Corr)= -0.81517254E-03 E(Corr)=     -7.5230987549    
 NORM(A)=   0.10007074D+01
 Iteration Nr.   2
 **********************
 DD1Dir will call FoFMem   1 times, MxPair=         2
 NAB=     0 NAA=     1 NBB=     0.
 A-vector RMS=  2.0191825D-04 Max=  3.5005126D-04 conv= 1.00D-05.
 RLE energy=       -0.0009948636
 DE(Corr)= -0.99053170E-03 E(CORR)=     -7.5232741141     Delta=-1.75D-04
 NORM(A)=   0.10007241D+01
 Iteration Nr.   3
 **********************
 DD1Dir will call FoFMem   1 times, MxPair=         2
 NAB=     0 NAA=     1 NBB=     0.
 A-vector RMS=  2.7921379D-05 Max=  6.6082307D-05 conv= 1.00D-05.
 RLE energy=       -0.0009954362
 DE(Corr)= -0.99504531E-03 E(CORR)=     -7.5232786277     Delta=-4.51D-06
 NORM(A)=   0.10007253D+01
 Iteration Nr.   4
 **********************
 DD1Dir will call FoFMem   1 times, MxPair=         2
 NAB=     0 NAA=     1 NBB=     0.
 A-vector RMS=  5.4450924D-06 Max=  1.8629844D-05 conv= 1.00D-05.
 RLE energy=       -0.0009951616
 DE(Corr)= -0.99533118E-03 E(CORR)=     -7.5232789136     Delta=-2.86D-07
 NORM(A)=   0.10007249D+01
 Iteration Nr.   5
 **********************
 DD1Dir will call FoFMem   1 times, MxPair=         2
 NAB=     0 NAA=     1 NBB=     0.
 A-vector RMS=  1.2531008D-06 Max=  4.4733857D-06 conv= 1.00D-05.
 RLE energy=       -0.0009953009
 DE(Corr)= -0.99521548E-03 E(CORR)=     -7.5232787979     Delta= 1.16D-07
 NORM(A)=   0.10007252D+01
 Iteration Nr.   6
 **********************
 DD1Dir will call FoFMem   1 times, MxPair=         2
 NAB=     0 NAA=     1 NBB=     0.
 A-vector RMS=  2.6079156D-07 Max=  5.5413528D-07 conv= 1.00D-05.
 RLE energy=       -0.0009952552
 DE(Corr)= -0.99527467E-03 E(CORR)=     -7.5232788571     Delta=-5.92D-08
 NORM(A)=   0.10007251D+01
 CI/CC converged in    6 iterations to DelEn=-5.92D-08 Conv= 1.00D-07 ErrA1= 2.61D-07 Conv= 1.00D-05
 Wavefunction amplitudes converged. E(Corr)=     -7.5232788571    
 Largest amplitude= 1.75D-02
 Discarding MO integrals.
 Leave Link  913 at Mon Mar 28 14:06:16 2022, MaxMem=  9663676416 cpu:               4.7 elap:               0.2
 (Enter /nopt/nrel/apps/gaussian/g16C_1/g16/l601.exe)
 Copying SCF densities to generalized density rwf, IOpCl= 1 IROHF=0.

 **********************************************************************

            Population analysis using the SCF Density.

 **********************************************************************

 Orbital symmetries:
 Alpha Orbitals:
       Occupied  (SG) (SG) (SG)
       Virtual   (PI) (PI) (SG) (PI) (PI) (SG) (SG) (PI) (PI) (DLTA)
                 (DLTA) (SG)
 Beta  Orbitals:
       Occupied  (SG)
       Virtual   (SG) (PI) (PI) (SG) (SG) (PI) (PI) (SG) (DLTA)
                 (DLTA) (SG) (PI) (PI) (SG)
 The electronic state is 3-SG.
 Alpha  occ. eigenvalues --   -2.73003  -0.61186  -0.19499
 Alpha virt. eigenvalues --    0.01653   0.01653   0.04267   0.11999   0.11999
 Alpha virt. eigenvalues --    0.13448   0.30638   0.31724   0.31724   0.33386
 Alpha virt. eigenvalues --    0.33386   0.57815
  Beta  occ. eigenvalues --   -2.65960
  Beta virt. eigenvalues --   -0.03148   0.04643   0.04643   0.06053   0.07307
  Beta virt. eigenvalues --    0.15794   0.15794   0.19483   0.35974   0.35974
  Beta virt. eigenvalues --    0.36965   0.36968   0.36968   0.75039
          Condensed to atoms (all electrons):
               1          2
     1  H    0.720482   0.055466
     2  Li   0.055466   3.168587
          Atomic-Atomic Spin Densities.
               1          2
     1  H    0.712096   0.005886
     2  Li   0.005886   1.276132
 Mulliken charges and spin densities:
               1          2
     1  H    0.224053   0.717982
     2  Li  -0.224053   1.282018
 Sum of Mulliken charges =   0.00000   2.00000
 Mulliken charges and spin densities with hydrogens summed into heavy atoms:
               1          2
     2  Li   0.000000   2.000000
 N-N= 2.267902332514D+00 E-N=-2.168202439918D+01  KE= 8.298133381875D+00
 Symmetry A1   KE= 8.298133381875D+00
 Symmetry A2   KE=-1.847601071734D-52
 Symmetry B1   KE= 0.000000000000D+00
 Symmetry B2   KE= 0.000000000000D+00
 Symmetry A1   SP= 2.000000000000D+00
 Symmetry A2   SP=-4.169947302714D-52
 Symmetry B1   SP= 0.000000000000D+00
 Symmetry B2   SP= 0.000000000000D+00

 Atomic contributions to Alpha molecular orbitals:
 Alpha occ 1 OE=-2.730 is Li2-s=0.9638
 Alpha occ 2 OE=-0.612 is H1-s=0.7195 Li2-p=0.1748
 Alpha occ 3 OE=-0.195 is Li2-s=0.7605 Li2-p=0.2473
 Alpha vir 4 OE=0.017 is Li2-p=0.9975
 Alpha vir 5 OE=0.017 is Li2-p=0.9975
 Alpha vir 6 OE=0.043 is Li2-p=0.8205 Li2-s=0.1704
 Alpha vir 7 OE=0.120 is Li2-p=0.9855
 Alpha vir 8 OE=0.120 is Li2-p=0.9855
 Alpha vir 9 OE=0.134 is Li2-s=0.7006 Li2-p=0.2922
 Alpha vir 10 OE=0.306 is Li2-d=0.8673
 Alpha vir 11 OE=0.317 is Li2-d=0.9830
 Alpha vir 12 OE=0.317 is Li2-d=0.9830
 Alpha vir 13 OE=0.334 is Li2-d=1.0000
 Alpha vir 14 OE=0.334 is Li2-d=1.0000
 Alpha vir 15 OE=0.578 is Li2-p=0.3709 Li2-s=0.2803 H1-s=0.2359 Li2-d=0.1130

 Atomic contributions to Beta  molecular orbitals:
 Beta  occ 1 OE=-2.660 is Li2-s=0.9712
 Beta  vir 2 OE=-0.031 is Li2-s=0.5308 Li2-p=0.2556 H1-s=0.2092
 Beta  vir 3 OE=0.046 is Li2-p=0.9968
 Beta  vir 4 OE=0.046 is Li2-p=0.9968
 Beta  vir 5 OE=0.061 is Li2-p=0.7008 Li2-s=0.2884
 Beta  vir 6 OE=0.073 is Li2-p=0.4500 Li2-s=0.4067 H1-s=0.1353
 Beta  vir 7 OE=0.158 is Li2-p=0.9808
 Beta  vir 8 OE=0.158 is Li2-p=0.9808
 Beta  vir 9 OE=0.195 is Li2-s=0.6375 Li2-p=0.3410
 Beta  vir 10 OE=0.360 is Li2-d=1.0000
 Beta  vir 11 OE=0.360 is Li2-d=1.0000
 Beta  vir 12 OE=0.370 is Li2-d=0.9226
 Beta  vir 13 OE=0.370 is Li2-d=0.9776
 Beta  vir 14 OE=0.370 is Li2-d=0.9776
 Beta  vir 15 OE=0.750 is H1-s=0.6102 Li2-p=0.1846 Li2-s=0.1656
 
 Leave Link  601 at Mon Mar 28 14:06:16 2022, MaxMem=  9663676416 cpu:               1.0 elap:               0.1
 (Enter /nopt/nrel/apps/gaussian/g16C_1/g16/l9999.exe)

 Test job not archived.
 1\1\GINC-R102U34\SP\UCCSD-FC\Gen\H1Li1(3)\USER\28-Mar-2022\0\\#P C
 CSD(MaxCyc=200,SaveAmplitudes,ReadAmplitudes)/GEN sp pop=AllOrbitals i
 op(3/33=1,3/36=-1)\\test\\0,3\H,0,0.,0.,0.\Li,0,0.,0.,0.7\\Version=ES6
 4L-G16RevC.01\State=3-SG\HF=-7.5222836\MP2=-7.5228584\MP3=-7.523099\MP
 4D=-7.5232008\MP4DQ=-7.5232005\MP4SDQ=-7.5232012\CCSD=-7.5232789\S2=2.
 000023\S2-1=0.\S2A=2.\RMSD=4.122e-09\PG=C*V [C*(H1Li1)]\\@


 THE MEEK SHALL INHERIT THE EARTH.
 (THE REST OF US WILL ESCAPE TO THE STARS)
 Job cpu time:       0 days  0 hours  0 minutes 37.4 seconds.
 Elapsed time:       0 days  0 hours  0 minutes  1.4 seconds.
 File lengths (MBytes):  RWF=     13 Int=      0 D2E=      0 Chk=      1 Scr=      1
 Normal termination of Gaussian 16 at Mon Mar 28 14:06:16 2022.
