 Entering Gaussian System, Link 0=g16
 Initial command:
 /nopt/nrel/apps/gaussian/g16C_1/g16/l1.exe "/lustre/eaglefs/scratch/user/qc/nah-dissc/nah-3-ccsd-2.4-321g/Gau-4443.inp" -scrdir="/lustre/eaglefs/scratch/user/qc/nah-dissc/nah-3-ccsd-2.4-321g/"
 Default is to use a total of  36 processors:
                               36 via shared-memory
                                1 via Linda
 Entering Link 1 = /nopt/nrel/apps/gaussian/g16C_1/g16/l1.exe PID=      4444.
  
 Copyright (c) 1988-2019, Gaussian, Inc.  All Rights Reserved.
  
 This is part of the Gaussian(R) 16 program.  It is based on
 the Gaussian(R) 09 system (copyright 2009, Gaussian, Inc.),
 the Gaussian(R) 03 system (copyright 2003, Gaussian, Inc.),
 the Gaussian(R) 98 system (copyright 1998, Gaussian, Inc.),
 the Gaussian(R) 94 system (copyright 1995, Gaussian, Inc.),
 the Gaussian 92(TM) system (copyright 1992, Gaussian, Inc.),
 the Gaussian 90(TM) system (copyright 1990, Gaussian, Inc.),
 the Gaussian 88(TM) system (copyright 1988, Gaussian, Inc.),
 the Gaussian 86(TM) system (copyright 1986, Carnegie Mellon
 University), and the Gaussian 82(TM) system (copyright 1983,
 Carnegie Mellon University). Gaussian is a federally registered
 trademark of Gaussian, Inc.
  
 This software contains proprietary and confidential information,
 including trade secrets, belonging to Gaussian, Inc.
  
 This software is provided under written license and may be
 used, copied, transmitted, or stored only in accord with that
 written license.
  
 The following legend is applicable only to US Government
 contracts under FAR:
  
                    RESTRICTED RIGHTS LEGEND
  
 Use, reproduction and disclosure by the US Government is
 subject to restrictions as set forth in subparagraphs (a)
 and (c) of the Commercial Computer Software - Restricted
 Rights clause in FAR 52.227-19.
  
 Gaussian, Inc.
 340 Quinnipiac St., Bldg. 40, Wallingford CT 06492
  
  
 ---------------------------------------------------------------
 Warning -- This program may not be used in any manner that
 competes with the business of Gaussian, Inc. or will provide
 assistance to any competitor of Gaussian, Inc.  The licensee
 of this program is prohibited from giving any competitor of
 Gaussian, Inc. access to this program.  By using this program,
 the user acknowledges that Gaussian, Inc. is engaged in the
 business of creating and licensing software in the field of
 computational chemistry and represents and warrants to the
 licensee that it is not a competitor of Gaussian, Inc. and that
 it will not use this program in any manner prohibited above.
 ---------------------------------------------------------------
  

 Cite this work as:
 Gaussian 16, Revision C.01,
 M. J. Frisch, G. W. Trucks, H. B. Schlegel, G. E. Scuseria, 
 M. A. Robb, J. R. Cheeseman, G. Scalmani, V. Barone, 
 G. A. Petersson, H. Nakatsuji, X. Li, M. Caricato, A. V. Marenich, 
 J. Bloino, B. G. Janesko, R. Gomperts, B. Mennucci, H. P. Hratchian, 
 J. V. Ortiz, A. F. Izmaylov, J. L. Sonnenberg, D. Williams-Young, 
 F. Ding, F. Lipparini, F. Egidi, J. Goings, B. Peng, A. Petrone, 
 T. Henderson, D. Ranasinghe, V. G. Zakrzewski, J. Gao, N. Rega, 
 G. Zheng, W. Liang, M. Hada, M. Ehara, K. Toyota, R. Fukuda, 
 J. Hasegawa, M. Ishida, T. Nakajima, Y. Honda, O. Kitao, H. Nakai, 
 T. Vreven, K. Throssell, J. A. Montgomery, Jr., J. E. Peralta, 
 F. Ogliaro, M. J. Bearpark, J. J. Heyd, E. N. Brothers, K. N. Kudin, 
 V. N. Staroverov, T. A. Keith, R. Kobayashi, J. Normand, 
 K. Raghavachari, A. P. Rendell, J. C. Burant, S. S. Iyengar, 
 J. Tomasi, M. Cossi, J. M. Millam, M. Klene, C. Adamo, R. Cammi, 
 J. W. Ochterski, R. L. Martin, K. Morokuma, O. Farkas, 
 J. B. Foresman, and D. J. Fox, Gaussian, Inc., Wallingford CT, 2019.
 
 ******************************************
 Gaussian 16:  ES64L-G16RevC.01  3-Jul-2019
                28-Mar-2022 
 ******************************************
 %chk=molecule
 Default route: CacheSize=180224 MaxDisk=256GB
 ----------------------------------------------------------------------
 #P CCSD(MaxCyc=200,SaveAmplitudes,ReadAmplitudes)/GEN sp pop=AllOrbita
 ls iop(3/33=1,3/36=-1)
 ----------------------------------------------------------------------
 1/4=180224,38=1,172=1/1;
 2/4=180224,12=2,17=6,18=5,40=1/2;
 3/4=180224,5=7,11=9,25=1,30=1,33=1,36=-1/1,2,3;
 4/4=180224/1;
 5/4=180224,5=2,38=5/2;
 8/4=180224,6=4,9=120000,10=1,24=1/1,4;
 9/4=180224,5=7,6=200,77=1/13;
 6/4=180224,7=2,8=2,9=2,10=2,96=-1/1;
 99/4=180224,5=1,9=1/99;
 Leave Link    1 at Mon Mar 28 14:24:47 2022, MaxMem=           0 cpu:               2.5 elap:               0.1
 (Enter /nopt/nrel/apps/gaussian/g16C_1/g16/l101.exe)
 ----
 test
 ----
 Symbolic Z-matrix:
 Charge =  0 Multiplicity = 3
 H                     0.        0.        0. 
 Na                    0.        0.        2.4 
 
 ITRead=  0  0
 MicOpt= -1 -1
 NAtoms=      2 NQM=        2 NQMF=       0 NMMI=      0 NMMIF=      0
                NMic=       0 NMicF=      0.
                    Isotopes and Nuclear Properties:
 (Nuclear quadrupole moments (NQMom) in fm**2, nuclear magnetic moments (NMagM)
  in nuclear magnetons)

  Atom         1           2
 IAtWgt=           1          23
 AtmWgt=   1.0078250  22.9897697
 NucSpn=           1           3
 AtZEff=  -0.0000000  -0.0000000
 NQMom=    0.0000000  10.4000000
 NMagM=    2.7928460   2.2175200
 AtZNuc=   1.0000000  11.0000000
 Leave Link  101 at Mon Mar 28 14:24:47 2022, MaxMem=  9663676416 cpu:               3.0 elap:               0.1
 (Enter /nopt/nrel/apps/gaussian/g16C_1/g16/l202.exe)
                          Input orientation:                          
 ---------------------------------------------------------------------
 Center     Atomic      Atomic             Coordinates (Angstroms)
 Number     Number       Type             X           Y           Z
 ---------------------------------------------------------------------
      1          1           0        0.000000    0.000000    0.000000
      2         11           0        0.000000    0.000000    2.400000
 ---------------------------------------------------------------------
 Stoichiometry    HNa(3)
 Framework group  C*V[C*(HNa)]
 Deg. of freedom     1
 Full point group                 C*V     NOp   4
 Largest Abelian subgroup         C2V     NOp   4
 Largest concise Abelian subgroup C1      NOp   1
                         Standard orientation:                         
 ---------------------------------------------------------------------
 Center     Atomic      Atomic             Coordinates (Angstroms)
 Number     Number       Type             X           Y           Z
 ---------------------------------------------------------------------
      1          1           0        0.000000    0.000000   -2.200000
      2         11           0        0.000000    0.000000    0.200000
 ---------------------------------------------------------------------
 Rotational constants (GHZ):           0.0000000          90.8746324          90.8746324
 Leave Link  202 at Mon Mar 28 14:24:47 2022, MaxMem=  9663676416 cpu:               0.7 elap:               0.0
 (Enter /nopt/nrel/apps/gaussian/g16C_1/g16/l301.exe)
 General basis read from cards:  (5D, 7F)
                         Coordinates in L301:                         
 ---------------------------------------------------------------------
 Center     Atomic      Atomic             Coordinates (Angstroms)
 Number     Number       Type             X           Y           Z
 ---------------------------------------------------------------------
      1          1           0        0.000000    0.000000   -2.200000
      2         11           0        0.000000    0.000000    0.200000
 ---------------------------------------------------------------------
 Centers:       1
 STO-3G
 ****
 Centers:       2
 3-21G
 ****
 FixB: optimizing general contractions.
 Ernie: Thresh=  0.10000D-02 Tol=  0.10000D-05 Strict=F.
 IA=     1 ShT= 0 ShC= 0 NL=   1 NS=   0.
 IA=     1 L=0 SC=0 ISt=    0 NBk=    0 NP=    0 IndPr=    0.
 IA=     2 ShT= 0 ShC= 0 NL=   1 NS=   0.
 IA=     2 L=0 SC=0 ISt=    0 NBk=    0 NP=    0 IndPr=    0.
 IA=     2 ShT= 1 ShC= 0 NL=   3 NS=   1.
 IA=     2 L=1 SC=0 ISt=    1 NBk=    2 NP=    5 IndPr=    0.
 DoElim1:  L=1 select primitive    1 from    2 using    1 C=-1.12D-01
 DoElim2:  L=1 select primitive    5 from    1 using    2 C= 1.09D+00
 DoElim1:  L=1 select primitive    1 from    2 using    1 C= 1.28D-01
 DoElim2:  L=1 select primitive    5 from    1 using    2 C= 9.97D-01
 Delete L=1 primitive    3 from    2 C=  0.00D+00.
 Delete L=1 primitive    2 from    2 C=  0.00D+00.
 Delete L=1 primitive    1 from    2 C=  0.00D+00.
 Delete L=1 primitive    5 from    1 C=  0.00D+00.
 Delete L=1 primitive    4 from    1 C=  0.00D+00.
 IA=     2 L=1 SC=0 ISt=    0 NBk=    0 NP=    0 IndPr=    5.
 LdAtmC:  AtmChg=     1.000000    11.000000
 AtZEff=     -1.0000000    -10.0400000
 NEqShl: 
              1            2            3            4
     1            1            1            1            1
     2            2            2            2            2
     3            3            3            3            3
     4            4            4            4            4
     5            5            5            5            5
 NEqBas: 
              1            2            3            4
     1            1            1            1            1
     2            2            2            2            2
     3            3            3            3            3
     4            4           -4           -4            4
     5            5           -5            5           -5
     6            6            6            6            6
     7            7            7            7            7
     8            8           -8           -8            8
     9            9           -9            9           -9
    10           10           10           10           10
    11           11           11           11           11
    12           12          -12          -12           12
    13           13          -13           13          -13
    14           14           14           14           14
 There are     8 symmetry adapted cartesian basis functions of A1  symmetry.
   1         1   1   1   1
   2         2   2   2   2
   3         3   3   3   3
   4         6   6   6   6
   5         7   7   7   7
   6        10  10  10  10
   7        11  11  11  11
   8        14  14  14  14
 There are     0 symmetry adapted cartesian basis functions of A2  symmetry.
 There are     3 symmetry adapted cartesian basis functions of B1  symmetry.
   9         4   4   4   4
  10         8   8   8   8
  11        12  12  12  12
 There are     3 symmetry adapted cartesian basis functions of B2  symmetry.
  12         5   5   5   5
  13         9   9   9   9
  14        13  13  13  13
 Order= 1 2 4 3
 Reordered character table:
              1            2            3            4            5
     1            1            1            1            1            1
     2            2            1            1           -1           -1
     3            4            1           -1           -1            1
     4            3            1           -1            1           -1
 NEqShl: 
              1            2            3            4
     1            1            1            1            1
     2            2            2            2            2
     3            3            3            3            3
     4            4            4            4            4
     5            5            5            5            5
 NEqBas: 
              1            2            3            4
     1            1            1            1            1
     2            2            2            2            2
     3            3            3            3            3
     4            4           -4           -4            4
     5            5           -5            5           -5
     6            6            6            6            6
     7            7            7            7            7
     8            8           -8           -8            8
     9            9           -9            9           -9
    10           10           10           10           10
    11           11           11           11           11
    12           12          -12          -12           12
    13           13          -13           13          -13
    14           14           14           14           14
 There are     8 symmetry adapted basis functions of A1  symmetry.
   1         1   1   1   1
   2         2   2   2   2
   3         3   3   3   3
   4         6   6   6   6
   5         7   7   7   7
   6        10  10  10  10
   7        11  11  11  11
   8        14  14  14  14
 There are     0 symmetry adapted basis functions of A2  symmetry.
 There are     3 symmetry adapted basis functions of B1  symmetry.
   9         4   4   4   4
  10         8   8   8   8
  11        12  12  12  12
 There are     3 symmetry adapted basis functions of B2  symmetry.
  12         5   5   5   5
  13         9   9   9   9
  14        13  13  13  13
 Order= 1 2 4 3
 Reordered character table:
              1            2            3            4            5
     1            1            1            1            1            1
     2            2            1            1           -1           -1
     3            4            1           -1           -1            1
     4            3            1           -1            1           -1
    14 basis functions,    30 primitive gaussians,    14 cartesian basis functions
     7 alpha electrons        5 beta electrons
       nuclear repulsion energy         2.4253955501 Hartrees.
 IS=     1 IAt=     1 ISR=     1 T=0 IP=      1 IndIP=      1 IndIPD=      0 C=  2.769344D-01  0.000000D+00                             NZ=T
 IS=     1 IAt=     1 ISR=     1 T=0 IP=      2 IndIP=      2 IndIPD=      1 C=  2.678389D-01  0.000000D+00                             NZ=T
 IS=     1 IAt=     1 ISR=     1 T=0 IP=      3 IndIP=      3 IndIPD=      2 C=  8.347367D-02  0.000000D+00                             NZ=T
 IS=     2 IAt=     2 ISR=     1 T=0 IP=      1 IndIP=      4 IndIPD=      0 C=  5.445177D+00  0.000000D+00                             NZ=T
 IS=     2 IAt=     2 ISR=     1 T=0 IP=      2 IndIP=      5 IndIPD=      1 C=  7.646982D+00  0.000000D+00                             NZ=T
 IS=     2 IAt=     2 ISR=     1 T=0 IP=      3 IndIP=      6 IndIPD=      2 C=  4.092173D+00  0.000000D+00                             NZ=T
 IS=     3 IAt=     2 ISR=     2 T=1 IP=      1 IndIP=      7 IndIPD=      0 C= -6.837842D-01  6.561431D+00                             NZ=T
 IS=     3 IAt=     2 ISR=     2 T=1 IP=      2 IndIP=      8 IndIPD=      1 C=  4.933805D-01  3.558943D+00                             NZ=T
 IS=     3 IAt=     2 ISR=     2 T=1 IP=      3 IndIP=      9 IndIPD=      2 C=  5.590773D-01  7.618119D-01                             NZ=T
 IS=     4 IAt=     2 ISR=     3 T=1 IP=      1 IndIP=     10 IndIPD=      0 C= -9.334168D-02  5.458439D-03                             NZ=T
 IS=     4 IAt=     2 ISR=     3 T=1 IP=      2 IndIP=     11 IndIPD=      1 C=  9.521265D-02  4.304303D-02                             NZ=T
 IS=     5 IAt=     2 ISR=     4 T=1 IP=      1 IndIP=     12 IndIPD=      0 C=  4.404717D-02  1.377061D-02                             NZ=T
 IExCor=    0 DFT=F Ex=HF Corr=None ExCW=0 ScaHFX=  1.000000
 ScaDFX=  1.000000  1.000000  1.000000  1.000000 ScalE2=  1.000000  1.000000
 IRadAn=      5 IRanWt=     -1 IRanGd=            0 ICorTp=0 IEmpDi=  4
 NAtoms=    2 NActive=    2 NUniq=    2 SFac= 1.00D+00 NAtFMM=   60 NAOKFM=F Big=F
 Integral buffers will be    131072 words long.
 Raffenetti 2 integral format.
 Two-electron integral symmetry is turned on.
 Leave Link  301 at Mon Mar 28 14:24:47 2022, MaxMem=  9663676416 cpu:               1.8 elap:               0.1
 (Enter /nopt/nrel/apps/gaussian/g16C_1/g16/l302.exe)
 NPDir=0 NMtPBC=     1 NCelOv=     1 NCel=       1 NClECP=     1 NCelD=      1
         NCelK=      1 NCelE2=     1 NClLst=     1 CellRange=     0.0.
 One-electron integrals computed using PRISM.
 One-electron integral symmetry used in STVInt
 Entering OneElI...
 Calculate overlap and kinetic energy integrals
    NBasis =  14  MinDer = 0  MaxDer = 0
 Requested accuracy = 0.1000D-12
 Symmetry will be used
 PrmmSu-InSpLW:  IPartL=    0 NPrtUS=   36 NPrtUL=    1 DoSpLW=F IThBeg=    0 IThEnd=   35 NThAct=   36.
 PrSmSu:  IncTry=   512 NBBP=             15 NTPThr=   100 NPartT=   36 Incr=           1 LDynOK=F GPUOK=F.
 PrsmSu:  NPrtUS=  36 ThrOK=T IAlg=1 LenDen=           0 ISkipM=0 DoSpLW=F IThBeg=    0 IThEnd=   35.
 Prism:   IPart=     0 DynPar=F LinDyn=F Incr=           1.
 PRISM was handed   268433858 working-precision words and    15 shell-pairs
 PRISM was handed   268433858 working-precision words and    15 shell-pairs
 PRISM was handed   268433858 working-precision words and    15 shell-pairs
 PRISM was handed   268433858 working-precision words and    15 shell-pairs
 PRISM was handed   268433858 working-precision words and    15 shell-pairs
 PRISM was handed   268433858 working-precision words and    15 shell-pairs
 PRISM was handed   268433858 working-precision words and    15 shell-pairs
 PRISM was handed   268433858 working-precision words and    15 shell-pairs
 PRISM was handed   268433858 working-precision words and    15 shell-pairs
 PRISM was handed   268433858 working-precision words and    15 shell-pairs
 PRISM was handed   268433858 working-precision words and    15 shell-pairs
 PRISM was handed   268433858 working-precision words and    15 shell-pairs
 PRISM was handed   268433858 working-precision words and    15 shell-pairs
 PRISM was handed   268433858 working-precision words and    15 shell-pairs
 IPart= 16 NShTot=           0 NBatch=           0 AvBLen=         0.0
 IPart= 15 NShTot=           0 NBatch=           0 AvBLen=         0.0
 IPart=  2 NShTot=           0 NBatch=           0 AvBLen=         0.0
 IPart= 11 NShTot=           0 NBatch=           0 AvBLen=         0.0
 IPart=  3 NShTot=           0 NBatch=           0 AvBLen=         0.0
 IPart= 27 NShTot=           0 NBatch=           0 AvBLen=         0.0
 IPart= 28 NShTot=           0 NBatch=           0 AvBLen=         0.0
 IPart= 18 NShTot=           0 NBatch=           0 AvBLen=         0.0
 IPart= 10 NShTot=           0 NBatch=           0 AvBLen=         0.0
 IPart= 34 NShTot=           0 NBatch=           0 AvBLen=         0.0
 IPart=  8 NShTot=           0 NBatch=           0 AvBLen=         0.0
 PRISM was handed   268433858 working-precision words and    15 shell-pairs
 PRISM was handed   268433858 working-precision words and    15 shell-pairs
 IPart= 13 NShTot=           0 NBatch=           0 AvBLen=         0.0
 IPart= 26 NShTot=           0 NBatch=           0 AvBLen=         0.0
 PRISM was handed   268433858 working-precision words and    15 shell-pairs
 PRISM was handed   268433858 working-precision words and    15 shell-pairs
 IPart=  7 NShTot=           0 NBatch=           0 AvBLen=         0.0
 IPart= 25 NShTot=           0 NBatch=           0 AvBLen=         0.0
 IPart=  9 NShTot=           0 NBatch=           0 AvBLen=         0.0
 IPart= 29 NShTot=           0 NBatch=           0 AvBLen=         0.0
 PRISM was handed   268433858 working-precision words and    15 shell-pairs
 PRISM was handed   268433858 working-precision words and    15 shell-pairs
 PRISM was handed   268433858 working-precision words and    15 shell-pairs
 PRISM was handed   268433858 working-precision words and    15 shell-pairs
 PRISM was handed   268433858 working-precision words and    15 shell-pairs
 IPart=  6 NShTot=           0 NBatch=           0 AvBLen=         0.0
 PRISM was handed   268433858 working-precision words and    15 shell-pairs
 IPart= 17 NShTot=           0 NBatch=           0 AvBLen=         0.0
 IPart= 12 NShTot=           0 NBatch=           0 AvBLen=         0.0
 IPart= 35 NShTot=           0 NBatch=           0 AvBLen=         0.0
 IPart=  5 NShTot=           0 NBatch=           0 AvBLen=         0.0
 PRISM was handed   268433858 working-precision words and    15 shell-pairs
 PRISM was handed   268433858 working-precision words and    15 shell-pairs
 PRISM was handed   268433858 working-precision words and    15 shell-pairs
 IPart= 31 NShTot=           0 NBatch=           0 AvBLen=         0.0
 PRISM was handed   268433858 working-precision words and    15 shell-pairs
 IPart= 24 NShTot=           0 NBatch=           0 AvBLen=         0.0
 PRISM was handed   268433858 working-precision words and    15 shell-pairs
 PRISM was handed   268433858 working-precision words and    15 shell-pairs
 IPart= 21 NShTot=           0 NBatch=           0 AvBLen=         0.0
 IPart=  1 NShTot=           3 NBatch=           3 AvBLen=         1.0
 PRISM was handed   268433858 working-precision words and    15 shell-pairs
 PRISM was handed   268433858 working-precision words and    15 shell-pairs
 PRISM was handed   268433858 working-precision words and    15 shell-pairs
 IPart=  4 NShTot=           0 NBatch=           0 AvBLen=         0.0
 PRISM was handed   268433858 working-precision words and    15 shell-pairs
 IPart= 19 NShTot=           0 NBatch=           0 AvBLen=         0.0
 IPart= 23 NShTot=           0 NBatch=           0 AvBLen=         0.0
 PRISM was handed   268433858 working-precision words and    15 shell-pairs
 PRISM was handed   268433858 working-precision words and    15 shell-pairs
 IPart= 20 NShTot=           0 NBatch=           0 AvBLen=         0.0
 IPart= 14 NShTot=           0 NBatch=           0 AvBLen=         0.0
 IPart= 22 NShTot=           0 NBatch=           0 AvBLen=         0.0
 IPart= 30 NShTot=           0 NBatch=           0 AvBLen=         0.0
 IPart=  0 NShTot=          12 NBatch=          12 AvBLen=         1.0
 IPart= 33 NShTot=           0 NBatch=           0 AvBLen=         0.0
 IPart= 32 NShTot=           0 NBatch=           0 AvBLen=         0.0
 PrSmSu:  NxtVal=             37.
 *** Overlap *** 
                1             2             3             4             5 
      1  0.100000D+01
      2  0.963058D-03  0.100000D+01
      3  0.136014D-01  0.226762D+00  0.100000D+01
      4  0.000000D+00  0.000000D+00  0.000000D+00  0.100000D+01
      5  0.000000D+00  0.000000D+00  0.000000D+00  0.000000D+00  0.100000D+01
      6 -0.141777D-01  0.000000D+00  0.000000D+00  0.000000D+00  0.000000D+00
      7  0.240206D+00  0.175172D-02  0.143132D+00  0.000000D+00  0.000000D+00
      8  0.000000D+00  0.000000D+00  0.000000D+00  0.120813D+00  0.000000D+00
      9  0.000000D+00  0.000000D+00  0.000000D+00  0.000000D+00  0.120813D+00
     10 -0.403992D+00  0.000000D+00  0.000000D+00  0.000000D+00  0.000000D+00
     11  0.239323D+00  0.160858D-01  0.166618D+00  0.000000D+00  0.000000D+00
     12  0.000000D+00  0.000000D+00  0.000000D+00  0.399192D-01  0.000000D+00
     13  0.000000D+00  0.000000D+00  0.000000D+00  0.000000D+00  0.399192D-01
     14 -0.307287D+00  0.000000D+00  0.000000D+00  0.000000D+00  0.000000D+00
                6             7             8             9            10 
      6  0.100000D+01
      7  0.000000D+00  0.100000D+01
      8  0.000000D+00  0.000000D+00  0.100000D+01
      9  0.000000D+00  0.000000D+00  0.000000D+00  0.100000D+01
     10  0.120813D+00  0.000000D+00  0.000000D+00  0.000000D+00  0.100000D+01
     11  0.000000D+00  0.876080D+00  0.000000D+00  0.000000D+00  0.000000D+00
     12  0.000000D+00  0.000000D+00  0.775774D+00  0.000000D+00  0.000000D+00
     13  0.000000D+00  0.000000D+00  0.000000D+00  0.775774D+00  0.000000D+00
     14  0.399192D-01  0.000000D+00  0.000000D+00  0.000000D+00  0.775774D+00
               11            12            13            14 
     11  0.100000D+01
     12  0.000000D+00  0.100000D+01
     13  0.000000D+00  0.000000D+00  0.100000D+01
     14  0.000000D+00  0.000000D+00  0.000000D+00  0.100000D+01
 *** Kinetic Energy *** 
                1             2             3             4             5 
      1  0.760032D+00
      2 -0.631869D-03  0.570648D+02
      3 -0.660334D-02 -0.145971D+01  0.183414D+01
      4  0.000000D+00  0.000000D+00  0.000000D+00  0.585712D+01
      5  0.000000D+00  0.000000D+00  0.000000D+00  0.000000D+00  0.585712D+01
      6  0.403065D-02  0.000000D+00  0.000000D+00  0.000000D+00  0.000000D+00
      7  0.142234D-01 -0.420609D-01 -0.141303D+00  0.000000D+00  0.000000D+00
      8  0.000000D+00  0.000000D+00  0.000000D+00  0.441422D-01  0.000000D+00
      9  0.000000D+00  0.000000D+00  0.000000D+00  0.000000D+00  0.441422D-01
     10 -0.584920D-01  0.000000D+00  0.000000D+00  0.000000D+00  0.000000D+00
     11  0.110549D-01  0.117775D-02  0.119127D-01  0.000000D+00  0.000000D+00
     12  0.000000D+00  0.000000D+00  0.000000D+00  0.476129D-02  0.000000D+00
     13  0.000000D+00  0.000000D+00  0.000000D+00  0.000000D+00  0.476129D-02
     14 -0.278432D-01  0.000000D+00  0.000000D+00  0.000000D+00  0.000000D+00
                6             7             8             9            10 
      6  0.585712D+01
      7  0.000000D+00  0.106538D+00
      8  0.000000D+00  0.000000D+00  0.153112D+00
      9  0.000000D+00  0.000000D+00  0.000000D+00  0.153112D+00
     10  0.441422D-01  0.000000D+00  0.000000D+00  0.000000D+00  0.153112D+00
     11  0.000000D+00  0.447876D-01  0.000000D+00  0.000000D+00  0.000000D+00
     12  0.000000D+00  0.000000D+00  0.676855D-01  0.000000D+00  0.000000D+00
     13  0.000000D+00  0.000000D+00  0.000000D+00  0.676855D-01  0.000000D+00
     14  0.476129D-02  0.000000D+00  0.000000D+00  0.000000D+00  0.676855D-01
               11            12            13            14 
     11  0.366524D-01
     12  0.000000D+00  0.610873D-01
     13  0.000000D+00  0.000000D+00  0.610873D-01
     14  0.000000D+00  0.000000D+00  0.000000D+00  0.610873D-01
 Entering OneElI...
 Calculate potential energy integrals
    NBasis =  14  MinDer = 0  MaxDer = 0
 Requested accuracy = 0.1000D-12
 Symmetry will be used
 PrmmSu-InSpLW:  IPartL=    0 NPrtUS=   36 NPrtUL=    1 DoSpLW=F IThBeg=    0 IThEnd=   35 NThAct=   36.
 PrSmSu:  IncTry=   512 NBBP=             30 NTPThr=   100 NPartT=   36 Incr=           1 LDynOK=F GPUOK=F.
 PrsmSu:  NPrtUS=  36 ThrOK=T IAlg=1 LenDen=           0 ISkipM=0 DoSpLW=F IThBeg=    0 IThEnd=   35.
 Prism:   IPart=     0 DynPar=F LinDyn=F Incr=           1.
 PRISM was handed   268433958 working-precision words and    15 shell-pairs
 PRISM was handed   268433958 working-precision words and    15 shell-pairs
 PRISM was handed   268433958 working-precision words and    15 shell-pairs
 PRISM was handed   268433958 working-precision words and    15 shell-pairs
 PRISM was handed   268433958 working-precision words and    15 shell-pairs
 PRISM was handed   268433958 working-precision words and    15 shell-pairs
 PRISM was handed   268433958 working-precision words and    15 shell-pairs
 PRISM was handed   268433958 working-precision words and    15 shell-pairs
 PRISM was handed   268433958 working-precision words and    15 shell-pairs
 PRISM was handed   268433958 working-precision words and    15 shell-pairs
 PRISM was handed   268433958 working-precision words and    15 shell-pairs
 PRISM was handed   268433958 working-precision words and    15 shell-pairs
 PRISM was handed   268433958 working-precision words and    15 shell-pairs
 PRISM was handed   268433958 working-precision words and    15 shell-pairs
 PRISM was handed   268433958 working-precision words and    15 shell-pairs
 PRISM was handed   268433958 working-precision words and    15 shell-pairs
 PRISM was handed   268433958 working-precision words and    15 shell-pairs
 PRISM was handed   268433958 working-precision words and    15 shell-pairs
 PRISM was handed   268433958 working-precision words and    15 shell-pairs
 PRISM was handed   268433958 working-precision words and    15 shell-pairs
 PRISM was handed   268433958 working-precision words and    15 shell-pairs
 PRISM was handed   268433958 working-precision words and    15 shell-pairs
 PRISM was handed   268433958 working-precision words and    15 shell-pairs
 PRISM was handed   268433958 working-precision words and    15 shell-pairs
 PRISM was handed   268433958 working-precision words and    15 shell-pairs
 PRISM was handed   268433958 working-precision words and    15 shell-pairs
 PRISM was handed   268433958 working-precision words and    15 shell-pairs
 PRISM was handed   268433958 working-precision words and    15 shell-pairs
 PRISM was handed   268433958 working-precision words and    15 shell-pairs
 PRISM was handed   268433958 working-precision words and    15 shell-pairs
 PRISM was handed   268433958 working-precision words and    15 shell-pairs
 PRISM was handed   268433958 working-precision words and    15 shell-pairs
 PRISM was handed   268433958 working-precision words and    15 shell-pairs
 PRISM was handed   268433958 working-precision words and    15 shell-pairs
 PRISM was handed   268433958 working-precision words and    15 shell-pairs
 PRISM was handed   268433958 working-precision words and    15 shell-pairs
 IPart= 21 NShTot=           0 NBatch=           0 AvBLen=         0.0
 IPart= 20 NShTot=           0 NBatch=           0 AvBLen=         0.0
 IPart=  5 NShTot=           0 NBatch=           0 AvBLen=         0.0
 IPart= 17 NShTot=           0 NBatch=           0 AvBLen=         0.0
 IPart= 27 NShTot=           0 NBatch=           0 AvBLen=         0.0
 IPart=  6 NShTot=           0 NBatch=           0 AvBLen=         0.0
 IPart= 13 NShTot=           0 NBatch=           0 AvBLen=         0.0
 IPart= 14 NShTot=           0 NBatch=           0 AvBLen=         0.0
 IPart= 35 NShTot=           0 NBatch=           0 AvBLen=         0.0
 IPart=  9 NShTot=           0 NBatch=           0 AvBLen=         0.0
 IPart= 10 NShTot=           0 NBatch=           0 AvBLen=         0.0
 IPart= 11 NShTot=           0 NBatch=           0 AvBLen=         0.0
 IPart= 25 NShTot=           0 NBatch=           0 AvBLen=         0.0
 IPart=  7 NShTot=           0 NBatch=           0 AvBLen=         0.0
 IPart=  2 NShTot=           0 NBatch=           0 AvBLen=         0.0
 IPart=  4 NShTot=           0 NBatch=           0 AvBLen=         0.0
 IPart=  8 NShTot=           0 NBatch=           0 AvBLen=         0.0
 IPart= 12 NShTot=           0 NBatch=           0 AvBLen=         0.0
 IPart= 29 NShTot=           0 NBatch=           0 AvBLen=         0.0
 IPart= 18 NShTot=           0 NBatch=           0 AvBLen=         0.0
 IPart= 19 NShTot=           0 NBatch=           0 AvBLen=         0.0
 IPart= 26 NShTot=           0 NBatch=           0 AvBLen=         0.0
 IPart= 33 NShTot=           0 NBatch=           0 AvBLen=         0.0
 IPart= 15 NShTot=           0 NBatch=           0 AvBLen=         0.0
 IPart= 24 NShTot=           0 NBatch=           0 AvBLen=         0.0
 IPart= 22 NShTot=           0 NBatch=           0 AvBLen=         0.0
 IPart= 28 NShTot=           0 NBatch=           0 AvBLen=         0.0
 IPart=  3 NShTot=           0 NBatch=           0 AvBLen=         0.0
 IPart= 32 NShTot=           0 NBatch=           0 AvBLen=         0.0
 IPart= 23 NShTot=           0 NBatch=           0 AvBLen=         0.0
 IPart=  1 NShTot=           6 NBatch=           3 AvBLen=         2.0
 IPart= 34 NShTot=           0 NBatch=           0 AvBLen=         0.0
 IPart=  0 NShTot=          24 NBatch=          12 AvBLen=         2.0
 IPart= 30 NShTot=           0 NBatch=           0 AvBLen=         0.0
 IPart= 31 NShTot=           0 NBatch=           0 AvBLen=         0.0
 IPart= 16 NShTot=           0 NBatch=           0 AvBLen=         0.0
 PrSmSu:  NxtVal=             37.
 ***** Potential Energy ***** 
                1             2             3             4             5 
      1  0.365192D+01
      2  0.606413D-01  0.117375D+03
      3  0.157980D+00  0.127927D+02  0.183367D+02
      4  0.000000D+00  0.000000D+00  0.000000D+00  0.188561D+02
      5  0.000000D+00  0.000000D+00  0.000000D+00  0.000000D+00  0.188561D+02
      6 -0.126397D+00 -0.183355D-02 -0.214708D-01  0.000000D+00  0.000000D+00
      7  0.858286D+00  0.828151D-01  0.136366D+01  0.000000D+00  0.000000D+00
      8  0.000000D+00  0.000000D+00  0.000000D+00  0.116687D+01  0.000000D+00
      9  0.000000D+00  0.000000D+00  0.000000D+00  0.000000D+00  0.116687D+01
     10 -0.135857D+01 -0.209211D-04 -0.381887D-02  0.000000D+00  0.000000D+00
     11  0.795470D+00  0.102059D+01  0.213998D+01  0.000000D+00  0.000000D+00
     12  0.000000D+00  0.000000D+00  0.000000D+00  0.371693D+00  0.000000D+00
     13  0.000000D+00  0.000000D+00  0.000000D+00  0.000000D+00  0.371693D+00
     14 -0.939943D+00 -0.600865D-05 -0.127773D-02  0.000000D+00  0.000000D+00
                6             7             8             9            10 
      6  0.188610D+02
      7 -0.697820D-02  0.377126D+01
      8  0.000000D+00  0.000000D+00  0.308636D+01
      9  0.000000D+00  0.000000D+00  0.000000D+00  0.308636D+01
     10  0.116864D+01 -0.866193D-01  0.000000D+00  0.000000D+00  0.316337D+01
     11 -0.620763D-02  0.303552D+01  0.000000D+00  0.000000D+00 -0.821871D-01
     12  0.000000D+00  0.000000D+00  0.200699D+01  0.000000D+00  0.000000D+00
     13  0.000000D+00  0.000000D+00  0.000000D+00  0.200699D+01  0.000000D+00
     14  0.372316D+00 -0.558590D-01  0.000000D+00  0.000000D+00  0.206225D+01
               11            12            13            14 
     11  0.292994D+01
     12  0.000000D+00  0.196818D+01
     13  0.000000D+00  0.000000D+00  0.196818D+01
     14 -0.668294D-01  0.000000D+00  0.000000D+00  0.201829D+01
 ****** Core Hamiltonian ****** 
                1             2             3             4             5 
      1 -0.289188D+01
      2 -0.612731D-01 -0.603100D+02
      3 -0.164584D+00 -0.142524D+02 -0.165026D+02
      4  0.000000D+00  0.000000D+00  0.000000D+00 -0.129990D+02
      5  0.000000D+00  0.000000D+00  0.000000D+00  0.000000D+00 -0.129990D+02
      6  0.130427D+00  0.183355D-02  0.214708D-01  0.000000D+00  0.000000D+00
      7 -0.844063D+00 -0.124876D+00 -0.150496D+01  0.000000D+00  0.000000D+00
      8  0.000000D+00  0.000000D+00  0.000000D+00 -0.112273D+01  0.000000D+00
      9  0.000000D+00  0.000000D+00  0.000000D+00  0.000000D+00 -0.112273D+01
     10  0.130007D+01  0.209211D-04  0.381887D-02  0.000000D+00  0.000000D+00
     11 -0.784415D+00 -0.101942D+01 -0.212807D+01  0.000000D+00  0.000000D+00
     12  0.000000D+00  0.000000D+00  0.000000D+00 -0.366931D+00  0.000000D+00
     13  0.000000D+00  0.000000D+00  0.000000D+00  0.000000D+00 -0.366931D+00
     14  0.912100D+00  0.600865D-05  0.127773D-02  0.000000D+00  0.000000D+00
                6             7             8             9            10 
      6 -0.130038D+02
      7  0.697820D-02 -0.366472D+01
      8  0.000000D+00  0.000000D+00 -0.293324D+01
      9  0.000000D+00  0.000000D+00  0.000000D+00 -0.293324D+01
     10 -0.112450D+01  0.866193D-01  0.000000D+00  0.000000D+00 -0.301026D+01
     11  0.620763D-02 -0.299073D+01  0.000000D+00  0.000000D+00  0.821871D-01
     12  0.000000D+00  0.000000D+00 -0.193931D+01  0.000000D+00  0.000000D+00
     13  0.000000D+00  0.000000D+00  0.000000D+00 -0.193931D+01  0.000000D+00
     14 -0.367555D+00  0.558590D-01  0.000000D+00  0.000000D+00 -0.199456D+01
               11            12            13            14 
     11 -0.289329D+01
     12  0.000000D+00 -0.190709D+01
     13  0.000000D+00  0.000000D+00 -0.190709D+01
     14  0.668294D-01  0.000000D+00  0.000000D+00 -0.195720D+01
 SVDSVc IOpt=   1 NormSV=T IR=1
 SVDSVc V= 2.16D+00 1.88D+00 1.20D+00 9.94D-01 7.65D-01 6.69D-01 2.11D-01 1.24D-01
 SVDSVc IOpt=   1 NormSV=T IR=3
 SVDSVc V= 1.79D+00 9.88D-01 2.20D-01
 SVDSVc IOpt=   1 NormSV=T IR=4
 SVDSVc V= 1.79D+00 9.88D-01 2.20D-01
 TstOVc:  Largest diagonal error= 2.00D-15 IB=1 I=    1.
 TstOVc:  Largest same sym error= 1.04D-15 IB=1 I=    7 J=    5.
 TstOVc:  Largest diff sym error= 0.00D+00 IB=0 JB=0 I=    0 J=    0.
 Orthogonalized basis functions: 
                 1             2             3             4             5 
      1   0.307023D+00 -0.858755D-01 -0.781932D-01  0.120064D+00 -0.339098D+00
      2   0.224242D-01  0.423316D-01  0.671343D+00  0.381303D-01 -0.744461D+00
      3   0.895420D-01  0.136079D+00  0.589513D+00  0.112139D-02  0.775149D+00
      4   0.000000D+00  0.000000D+00  0.000000D+00  0.000000D+00  0.000000D+00
      5   0.000000D+00  0.000000D+00  0.000000D+00  0.000000D+00  0.000000D+00
      6  -0.446623D-01  0.655528D-01 -0.292358D-01  0.989598D+00  0.521724D-01
      7   0.305590D+00  0.357526D+00 -0.126493D+00 -0.334960D-01 -0.350060D-01
      8   0.000000D+00  0.000000D+00  0.000000D+00  0.000000D+00  0.000000D+00
      9   0.000000D+00  0.000000D+00  0.000000D+00  0.000000D+00  0.000000D+00
     10  -0.300210D+00  0.352749D+00 -0.412519D-01 -0.268620D-02 -0.892196D-01
     11   0.306646D+00  0.359736D+00 -0.104541D+00 -0.329595D-01 -0.227852D-01
     12   0.000000D+00  0.000000D+00  0.000000D+00  0.000000D+00  0.000000D+00
     13   0.000000D+00  0.000000D+00  0.000000D+00  0.000000D+00  0.000000D+00
     14  -0.283028D+00  0.344523D+00 -0.465986D-01 -0.915675D-01 -0.157676D+00
                 6             7             8             9            10 
      1   0.991238D+00  0.270677D+00  0.491141D-03  0.000000D+00  0.000000D+00
      2  -0.215300D+00 -0.284109D-02 -0.199662D-01  0.000000D+00  0.000000D+00
      3   0.328619D+00  0.118854D-01 -0.503217D-01  0.000000D+00  0.000000D+00
      4   0.000000D+00  0.000000D+00  0.000000D+00  0.106366D+00  0.993078D+00
      5   0.000000D+00  0.000000D+00  0.000000D+00  0.000000D+00  0.000000D+00
      6  -0.869608D-01 -0.165285D+00 -0.348172D-04  0.000000D+00  0.000000D+00
      7  -0.240890D+00 -0.400686D-01 -0.200681D+01  0.000000D+00  0.000000D+00
      8   0.000000D+00  0.000000D+00  0.000000D+00  0.525558D+00 -0.486986D-01
      9   0.000000D+00  0.000000D+00  0.000000D+00  0.000000D+00  0.000000D+00
     10   0.209104D+00  0.159000D+01  0.357296D-03  0.000000D+00  0.000000D+00
     11  -0.233997D+00 -0.400750D-01  0.201577D+01  0.000000D+00  0.000000D+00
     12   0.000000D+00  0.000000D+00  0.000000D+00  0.520070D+00 -0.153894D+00
     13   0.000000D+00  0.000000D+00  0.000000D+00  0.000000D+00  0.000000D+00
     14   0.440493D+00 -0.144997D+01 -0.142473D-03  0.000000D+00  0.000000D+00
                11            12            13            14 
      1   0.000000D+00  0.000000D+00  0.000000D+00  0.000000D+00
      2   0.000000D+00  0.000000D+00  0.000000D+00  0.000000D+00
      3   0.000000D+00  0.000000D+00  0.000000D+00  0.000000D+00
      4  -0.157598D+00  0.000000D+00  0.000000D+00  0.000000D+00
      5   0.000000D+00  0.106366D+00  0.993078D+00 -0.157598D+00
      6   0.000000D+00  0.000000D+00  0.000000D+00  0.000000D+00
      7   0.000000D+00  0.000000D+00  0.000000D+00  0.000000D+00
      8   0.151160D+01  0.000000D+00  0.000000D+00  0.000000D+00
      9   0.000000D+00  0.525558D+00 -0.486986D-01  0.151160D+01
     10   0.000000D+00  0.000000D+00  0.000000D+00  0.000000D+00
     11   0.000000D+00  0.000000D+00  0.000000D+00  0.000000D+00
     12  -0.149532D+01  0.000000D+00  0.000000D+00  0.000000D+00
     13   0.000000D+00  0.520070D+00 -0.153894D+00 -0.149532D+01
     14   0.000000D+00  0.000000D+00  0.000000D+00  0.000000D+00
 NBasis=    14 RedAO= T EigKep=  1.24D-01  NBF=     8     0     3     3
 NBsUse=    14 1.00D-06 EigRej= -1.00D+00 NBFU=     8     0     3     3
 Leave Link  302 at Mon Mar 28 14:24:47 2022, MaxMem=  9663676416 cpu:               3.1 elap:               0.1
 (Enter /nopt/nrel/apps/gaussian/g16C_1/g16/l303.exe)
 DipDrv will not compute anything.
 Fermi contact integrals: 
                 1             2 
      1   0.628247D+00  0.258976D-02
      2   0.000000D+00  0.171843D+02
      3   0.000000D+00  0.368674D+00
      4   0.000000D+00  0.000000D+00
      5   0.000000D+00  0.000000D+00
      6   0.000000D+00  0.000000D+00
      7   0.271774D-01  0.187097D-02
      8   0.000000D+00  0.000000D+00
      9   0.000000D+00  0.000000D+00
     10  -0.557290D-01  0.000000D+00
     11   0.266463D-01  0.440472D-01
     12   0.000000D+00  0.000000D+00
     13   0.000000D+00  0.000000D+00
     14  -0.377818D-01  0.000000D+00
 Leave Link  303 at Mon Mar 28 14:24:47 2022, MaxMem=  9663676416 cpu:               0.9 elap:               0.0
 (Enter /nopt/nrel/apps/gaussian/g16C_1/g16/l401.exe)
 ExpMin= 2.44D-02 ExpMax= 5.48D+02 ExpMxC= 5.48D+02 IAcc=3 IRadAn=         5 AccDes= 0.00D+00
 Harris functional with IExCor=  205 and IRadAn=       5 diagonalized for initial guess.
 HarFok:  IExCor=  205 AccDes= 0.00D+00 IRadAn=         5 IDoV= 1 UseB2=F ITyADJ=14
 ICtDFT=  3500011 ScaDFX=  1.000000  1.000000  1.000000  1.000000
 FoFCou: FMM=F IPFlag=           0 FMFlag=      100000 FMFlg1=           0
         NFxFlg=           0 DoJE=T BraDBF=F KetDBF=T FulRan=T
         wScrn=  0.000000 ICntrl=       500 IOpCl=  0 I1Cent=   200000004 NGrid=           0
         NMat0=    1 NMatS0=      1 NMatT0=    0 NMatD0=    1 NMtDS0=    0 NMtDT0=    0
 Petite list used in FoFCou.
 Harris En= -161.046591567678    
 JPrj=0 DoOrth=F DoCkMO=F.
 Initial guess orbital symmetries:
 Alpha Orbitals:
       Occupied  (SG) (SG) (SG) (PI) (PI) (SG) (SG)
       Virtual   (PI) (PI) (SG) (SG) (PI) (PI) (SG)
 Beta  Orbitals:
       Occupied  (SG) (SG) (SG) (PI) (PI)
       Virtual   (SG) (SG) (PI) (PI) (SG) (SG) (PI) (PI) (SG)
 The electronic state of the initial guess is 3-SG.
 Initial guess <Sx>= 0.0000 <Sy>= 0.0000 <Sz>= 1.0000 <S**2>= 2.0000 S= 1.0000
 Leave Link  401 at Mon Mar 28 14:24:47 2022, MaxMem=  9663676416 cpu:               3.4 elap:               0.1
 (Enter /nopt/nrel/apps/gaussian/g16C_1/g16/l502.exe)
 Keep R1 and R2 ints in memory in symmetry-blocked form, NReq=7213080.
 FoFCou: FMM=F IPFlag=           0 FMFlag=           0 FMFlg1=           0
         NFxFlg=           0 DoJE=F BraDBF=F KetDBF=F FulRan=T
         wScrn=  0.000000 ICntrl=       600 IOpCl=  0 I1Cent=           0 NGrid=           0
         NMat0=    1 NMatS0=    105 NMatT0=    0 NMatD0=    1 NMtDS0=    0 NMtDT0=    0
 Petite list used in FoFCou.
 UHF open shell SCF:
 Using DIIS extrapolation, IDIIS=  1040.
 NGot=  9663676416 LenX=  9663669932 LenY=  9663669050
 Requested convergence on RMS density matrix=1.00D-08 within 128 cycles.
 Requested convergence on MAX density matrix=1.00D-06.
 Requested convergence on             energy=1.00D-06.
 No special actions if energy rises.

 Cycle   1  Pass 1  IDiag  1:
 E= -161.294453104695    
 DIIS: error= 3.84D-02 at cycle   1 NSaved=   1.
 NSaved= 1 IEnMin= 1 EnMin= -161.294453104695     IErMin= 1 ErrMin= 3.84D-02
 ErrMax= 3.84D-02  0.00D+00 EMaxC= 1.00D-01 BMatC= 3.91D-02 BMatP= 3.91D-02
 IDIUse=3 WtCom= 6.16D-01 WtEn= 3.84D-01
 Coeff-Com:  0.100D+01
 Coeff-En:   0.100D+01
 Coeff:      0.100D+01
 Gap=     0.198 Goal=   None    Shift=    0.000
 Gap=     1.515 Goal=   None    Shift=    0.000
 GapD=    0.198 DampG=1.000 DampE=0.500 DampFc=0.5000 IDamp=-1.
 Damping current iteration by 5.00D-01
 RMSDP=1.22D-02 MaxDP=1.65D-01              OVMax= 1.45D-02

 Cycle   2  Pass 1  IDiag  1:
 E= -161.304021156820     Delta-E=       -0.009568052125 Rises=F Damp=T
 DIIS: error= 2.54D-02 at cycle   2 NSaved=   2.
 NSaved= 2 IEnMin= 2 EnMin= -161.304021156820     IErMin= 2 ErrMin= 2.54D-02
 ErrMax= 2.54D-02  0.00D+00 EMaxC= 1.00D-01 BMatC= 1.37D-02 BMatP= 3.91D-02
 IDIUse=3 WtCom= 7.46D-01 WtEn= 2.54D-01
 Coeff-Com: -0.136D+01 0.236D+01
 Coeff-En:   0.000D+00 0.100D+01
 Coeff:     -0.101D+01 0.201D+01
 Gap=     0.189 Goal=   None    Shift=    0.000
 Gap=     1.471 Goal=   None    Shift=    0.000
 RMSDP=9.46D-03 MaxDP=1.38D-01 DE=-9.57D-03 OVMax= 1.73D-03

 Cycle   3  Pass 1  IDiag  1:
 E= -161.317616598894     Delta-E=       -0.013595442073 Rises=F Damp=F
 DIIS: error= 4.10D-03 at cycle   3 NSaved=   3.
 NSaved= 3 IEnMin= 3 EnMin= -161.317616598894     IErMin= 3 ErrMin= 4.10D-03
 ErrMax= 4.10D-03  0.00D+00 EMaxC= 1.00D-01 BMatC= 2.14D-04 BMatP= 1.37D-02
 IDIUse=3 WtCom= 9.59D-01 WtEn= 4.10D-02
 Coeff-Com:  0.626D+00-0.120D+01 0.157D+01
 Coeff-En:   0.000D+00 0.000D+00 0.100D+01
 Coeff:      0.600D+00-0.115D+01 0.155D+01
 Gap=     0.190 Goal=   None    Shift=    0.000
 Gap=     1.475 Goal=   None    Shift=    0.000
 RMSDP=2.05D-03 MaxDP=2.74D-02 DE=-1.36D-02 OVMax= 4.24D-04

 Cycle   4  Pass 1  IDiag  1:
 E= -161.317859468521     Delta-E=       -0.000242869627 Rises=F Damp=F
 DIIS: error= 1.39D-04 at cycle   4 NSaved=   4.
 NSaved= 4 IEnMin= 4 EnMin= -161.317859468521     IErMin= 4 ErrMin= 1.39D-04
 ErrMax= 1.39D-04  0.00D+00 EMaxC= 1.00D-01 BMatC= 6.04D-07 BMatP= 2.14D-04
 IDIUse=3 WtCom= 9.99D-01 WtEn= 1.39D-03
 Coeff-Com: -0.810D-01 0.158D+00-0.248D+00 0.117D+01
 Coeff-En:   0.000D+00 0.000D+00 0.000D+00 0.100D+01
 Coeff:     -0.809D-01 0.158D+00-0.247D+00 0.117D+01
 Gap=     0.189 Goal=   None    Shift=    0.000
 Gap=     1.475 Goal=   None    Shift=    0.000
 RMSDP=2.47D-04 MaxDP=2.19D-03 DE=-2.43D-04 OVMax= 3.77D-05

 Cycle   5  Pass 1  IDiag  1:
 E= -161.317861079730     Delta-E=       -0.000001611209 Rises=F Damp=F
 DIIS: error= 4.73D-05 at cycle   5 NSaved=   5.
 NSaved= 5 IEnMin= 5 EnMin= -161.317861079730     IErMin= 5 ErrMin= 4.73D-05
 ErrMax= 4.73D-05  0.00D+00 EMaxC= 1.00D-01 BMatC= 6.28D-08 BMatP= 6.04D-07
 IDIUse=1 WtCom= 1.00D+00 WtEn= 0.00D+00
 Coeff-Com:  0.343D-01-0.674D-01 0.114D+00-0.757D+00 0.168D+01
 Coeff:      0.343D-01-0.674D-01 0.114D+00-0.757D+00 0.168D+01
 Gap=     0.189 Goal=   None    Shift=    0.000
 Gap=     1.475 Goal=   None    Shift=    0.000
 RMSDP=1.34D-04 MaxDP=1.14D-03 DE=-1.61D-06 OVMax= 2.84D-06

 Cycle   6  Pass 1  IDiag  1:
 E= -161.317861348904     Delta-E=       -0.000000269174 Rises=F Damp=F
 DIIS: error= 8.69D-06 at cycle   6 NSaved=   6.
 NSaved= 6 IEnMin= 6 EnMin= -161.317861348904     IErMin= 6 ErrMin= 8.69D-06
 ErrMax= 8.69D-06  0.00D+00 EMaxC= 1.00D-01 BMatC= 1.45D-09 BMatP= 6.28D-08
 IDIUse=1 WtCom= 1.00D+00 WtEn= 0.00D+00
 Coeff-Com: -0.456D-02 0.914D-02-0.171D-01 0.143D+00-0.443D+00 0.131D+01
 Coeff:     -0.456D-02 0.914D-02-0.171D-01 0.143D+00-0.443D+00 0.131D+01
 Gap=     0.189 Goal=   None    Shift=    0.000
 Gap=     1.475 Goal=   None    Shift=    0.000
 RMSDP=1.71D-05 MaxDP=1.25D-04 DE=-2.69D-07 OVMax= 1.44D-06

 Cycle   7  Pass 1  IDiag  1:
 E= -161.317861354242     Delta-E=       -0.000000005338 Rises=F Damp=F
 DIIS: error= 1.39D-06 at cycle   7 NSaved=   7.
 NSaved= 7 IEnMin= 7 EnMin= -161.317861354242     IErMin= 7 ErrMin= 1.39D-06
 ErrMax= 1.39D-06  0.00D+00 EMaxC= 1.00D-01 BMatC= 5.26D-11 BMatP= 1.45D-09
 IDIUse=1 WtCom= 1.00D+00 WtEn= 0.00D+00
 Coeff-Com:  0.207D-02-0.412D-02 0.723D-02-0.528D-01 0.168D+00-0.556D+00
 Coeff-Com:  0.144D+01
 Coeff:      0.207D-02-0.412D-02 0.723D-02-0.528D-01 0.168D+00-0.556D+00
 Coeff:      0.144D+01
 Gap=     0.189 Goal=   None    Shift=    0.000
 Gap=     1.475 Goal=   None    Shift=    0.000
 RMSDP=2.19D-06 MaxDP=2.64D-05 DE=-5.34D-09 OVMax= 3.32D-07

 Cycle   8  Pass 1  IDiag  1:
 E= -161.317861354378     Delta-E=       -0.000000000135 Rises=F Damp=F
 DIIS: error= 3.32D-07 at cycle   8 NSaved=   8.
 NSaved= 8 IEnMin= 8 EnMin= -161.317861354378     IErMin= 8 ErrMin= 3.32D-07
 ErrMax= 3.32D-07  0.00D+00 EMaxC= 1.00D-01 BMatC= 3.37D-12 BMatP= 5.26D-11
 IDIUse=1 WtCom= 1.00D+00 WtEn= 0.00D+00
 Coeff-Com: -0.432D-03 0.867D-03-0.155D-02 0.116D-01-0.459D-01 0.188D+00
 Coeff-Com: -0.740D+00 0.159D+01
 Coeff:     -0.432D-03 0.867D-03-0.155D-02 0.116D-01-0.459D-01 0.188D+00
 Coeff:     -0.740D+00 0.159D+01
 Gap=     0.189 Goal=   None    Shift=    0.000
 Gap=     1.475 Goal=   None    Shift=    0.000
 RMSDP=7.97D-07 MaxDP=9.50D-06 DE=-1.35D-10 OVMax= 8.28D-08

 Cycle   9  Pass 1  IDiag  1:
 E= -161.317861354388     Delta-E=       -0.000000000010 Rises=F Damp=F
 DIIS: error= 6.25D-08 at cycle   9 NSaved=   9.
 NSaved= 9 IEnMin= 9 EnMin= -161.317861354388     IErMin= 9 ErrMin= 6.25D-08
 ErrMax= 6.25D-08  0.00D+00 EMaxC= 1.00D-01 BMatC= 6.22D-14 BMatP= 3.37D-12
 IDIUse=1 WtCom= 1.00D+00 WtEn= 0.00D+00
 Coeff-Com:  0.145D-04-0.295D-04 0.459D-04-0.183D-03 0.215D-02-0.109D-01
 Coeff-Com:  0.845D-01-0.278D+00 0.120D+01
 Coeff:      0.145D-04-0.295D-04 0.459D-04-0.183D-03 0.215D-02-0.109D-01
 Coeff:      0.845D-01-0.278D+00 0.120D+01
 Gap=     0.189 Goal=   None    Shift=    0.000
 Gap=     1.475 Goal=   None    Shift=    0.000
 RMSDP=1.29D-07 MaxDP=1.41D-06 DE=-1.04D-11 OVMax= 1.40D-08

 Cycle  10  Pass 1  IDiag  1:
 E= -161.317861354388     Delta-E=       -0.000000000000 Rises=F Damp=F
 DIIS: error= 1.37D-08 at cycle  10 NSaved=  10.
 NSaved=10 IEnMin=10 EnMin= -161.317861354388     IErMin=10 ErrMin= 1.37D-08
 ErrMax= 1.37D-08  0.00D+00 EMaxC= 1.00D-01 BMatC= 3.19D-15 BMatP= 6.22D-14
 IDIUse=1 WtCom= 1.00D+00 WtEn= 0.00D+00
 Coeff-Com: -0.131D-04 0.262D-04-0.420D-04 0.202D-03-0.120D-02 0.492D-02
 Coeff-Com: -0.351D-01 0.105D+00-0.554D+00 0.148D+01
 Coeff:     -0.131D-04 0.262D-04-0.420D-04 0.202D-03-0.120D-02 0.492D-02
 Coeff:     -0.351D-01 0.105D+00-0.554D+00 0.148D+01
 Gap=     0.189 Goal=   None    Shift=    0.000
 Gap=     1.475 Goal=   None    Shift=    0.000
 RMSDP=3.29D-08 MaxDP=3.70D-07 DE=-1.71D-13 OVMax= 3.94D-09

 Cycle  11  Pass 1  IDiag  1:
 E= -161.317861354388     Delta-E=        0.000000000000 Rises=F Damp=F
 DIIS: error= 2.66D-09 at cycle  11 NSaved=  11.
 NSaved=11 IEnMin=10 EnMin= -161.317861354388     IErMin=11 ErrMin= 2.66D-09
 ErrMax= 2.66D-09  0.00D+00 EMaxC= 1.00D-01 BMatC= 1.67D-16 BMatP= 3.19D-15
 IDIUse=1 WtCom= 1.00D+00 WtEn= 0.00D+00
 Coeff-Com: -0.400D-06 0.757D-06-0.262D-05 0.503D-04-0.129D-04-0.119D-03
 Coeff-Com:  0.633D-02-0.213D-01 0.166D+00-0.656D+00 0.150D+01
 Coeff:     -0.400D-06 0.757D-06-0.262D-05 0.503D-04-0.129D-04-0.119D-03
 Coeff:      0.633D-02-0.213D-01 0.166D+00-0.656D+00 0.150D+01
 Gap=     0.189 Goal=   None    Shift=    0.000
 Gap=     1.475 Goal=   None    Shift=    0.000
 RMSDP=6.53D-09 MaxDP=7.44D-08 DE= 2.84D-14 OVMax= 6.01D-10

 SCF Done:  E(UHF) =  -161.317861354     A.U. after   11 cycles
            NFock= 11  Conv=0.65D-08     -V/T= 2.0024
 <Sx>= 0.0000 <Sy>= 0.0000 <Sz>= 1.0000 <S**2>= 2.0000 S= 1.0000
 <L.S>= 0.000000000000E+00
 KE= 1.609256803953D+02 PE=-3.927656064741D+02 EE= 6.809666917442D+01
 Annihilation of the first spin contaminant:
 S**2 before annihilation     2.0000,   after     2.0000
 Leave Link  502 at Mon Mar 28 14:24:47 2022, MaxMem=  9663676416 cpu:               5.2 elap:               0.2
 (Enter /nopt/nrel/apps/gaussian/g16C_1/g16/l801.exe)
 Windowed orbitals will be sorted by symmetry type.
 ExpMin= 2.44D-02 ExpMax= 5.48D+02 ExpMxC= 5.48D+02 IAcc=3 IRadAn=         5 AccDes= 0.00D+00
 HarFok:  IExCor=  205 AccDes= 0.00D+00 IRadAn=         5 IDoV=-2 UseB2=F ITyADJ=14
 ICtDFT= 12500011 ScaDFX=  1.000000  1.000000  1.000000  1.000000
 Largest valence mixing into a core orbital is  1.73D-04
 Largest core mixing into a valence orbital is  1.25D-04
 Range of M.O.s used for correlation:     6    14
 NBasis=    14 NAE=     7 NBE=     5 NFC=     5 NFV=     0
 NROrb=      9 NOA=     2 NOB=     0 NVA=     7 NVB=     9
 Leave Link  801 at Mon Mar 28 14:24:47 2022, MaxMem=  9663676416 cpu:               1.6 elap:               0.1
 (Enter /nopt/nrel/apps/gaussian/g16C_1/g16/l804.exe)
 Open-shell transformation, MDV=  9663676416 ITran=4 ISComp=2.
 Unit  1 TFree=         14304 TCopy=        117515.
 Semi-Direct transformation.
 ModeAB=           2 MOrb=             2 LenV=    9663555353
 LASXX=          158 LTotXX=         158 LenRXX=         158
 LTotAB=         269 MaxLAS=        1890 LenRXY=        1890
 NonZer=        2214 LenScr=      785920 LnRSAI=           0
 LnScr1=           0 LExtra=      220902 Total=      1008870
 MaxDsk= 34359738368 SrtSym=           F ITran=            4
 DoSDTr:  NPSUse= 36
 JobTyp=1 Pass  1:  I=   1 to   2.
 (rs|ai) integrals will be sorted in core.
 Complete sort for first half transformation.
 First half transformation complete.
 Complete sort for second half transformation.
 Second half transformation complete.
 Spin components of T(2) and E(2):
     alpha-alpha T2 =       0.3144742218D-04 E2=     -0.3060018047D-04
     alpha-beta  T2 =       0.0000000000D+00 E2=      0.0000000000D+00
     beta-beta   T2 =       0.0000000000D+00 E2=      0.0000000000D+00
 ANorm=    0.1000015724D+01
 E2 =    -0.3060018047D-04 EUMP2 =    -0.16131789195457D+03
 Leave Link  804 at Mon Mar 28 14:24:47 2022, MaxMem=  9663676416 cpu:               1.4 elap:               0.1
 (Enter /nopt/nrel/apps/gaussian/g16C_1/g16/l913.exe)
 CIDS:  MDV=  9663676416.
 Frozen-core window:  NFC=   5 NFV=   0.
 IFCWin=0 IBDFC=1 NFBD=     0     0 NFCmp=     0     0 NFFFC=     0     0
 Using original routines for 1st iteration.
 Using DD4UQ or CC4UQ for 2nd and later iterations.
 Keep R2 and R3 ints in memory in symmetry-blocked form, NReq=7215486.
 FoFCou: FMM=F IPFlag=           0 FMFlag=           0 FMFlg1=           0
         NFxFlg=           0 DoJE=F BraDBF=F KetDBF=F FulRan=T
         wScrn=  0.000000 ICntrl=       600 IOpCl=  0 I1Cent=           0 NGrid=           0
         NMat0=    1 NMatS0=    105 NMatT0=    0 NMatD0=    1 NMtDS0=    0 NMtDT0=    0
 Petite list used in FoFCou.
 CIDS: In Core Option IDoMem=           1.
 Coupled Cluster theory with single and double substitutions
 ===========================================================
 Iterations= 200 Convergence= 0.100D-06
 Produce multiple copies of IABC intergrals
 Iteration Nr.   1
 **********************
 DD1Dir will call FoFMem   1 times, MxPair=         2
 NAB=     0 NAA=     1 NBB=     0.
 MP4(R+Q)=  0.96229679D-09
 Maximum subspace dimension=  5
 A-vector RMS=  6.0381125D-04 Max=  1.2655479D-03 conv= 1.00D-05.
 RLE energy=       -0.0000490748
 E3=       -0.11520296D-04        EUMP3=      -0.16131790347D+03
 E4(DQ)=   -0.43705095D-05        UMP4(DQ)=   -0.16131790785D+03
 E4(SDQ)=  -0.45134480D-05        UMP4(SDQ)=  -0.16131790799D+03
 VARIATIONAL ENERGIES WITH THE FIRST-ORDER WAVEFUNCTION:
 DE(Corr)= -0.42119865E-04 E(Corr)=     -161.31790347    
 NORM(A)=   0.10000409D+01
 Iteration Nr.   2
 **********************
 DD1Dir will call FoFMem   1 times, MxPair=         2
 NAB=     0 NAA=     1 NBB=     0.
 A-vector RMS=  1.0913911D-04 Max=  2.4720151D-04 conv= 1.00D-05.
 RLE energy=       -0.0000497096
 DE(Corr)= -0.49358030E-04 E(CORR)=     -161.31791071     Delta=-7.24D-06
 NORM(A)=   0.10000424D+01
 Iteration Nr.   3
 **********************
 DD1Dir will call FoFMem   1 times, MxPair=         2
 NAB=     0 NAA=     1 NBB=     0.
 A-vector RMS=  3.1091216D-05 Max=  8.8550044D-05 conv= 1.00D-05.
 RLE energy=       -0.0000497412
 DE(Corr)= -0.49709905E-04 E(CORR)=     -161.31791106     Delta=-3.52D-07
 NORM(A)=   0.10000427D+01
 Iteration Nr.   4
 **********************
 DD1Dir will call FoFMem   1 times, MxPair=         2
 NAB=     0 NAA=     1 NBB=     0.
 A-vector RMS=  4.1931742D-06 Max=  1.1216154D-05 conv= 1.00D-05.
 RLE energy=       -0.0000497414
 DE(Corr)= -0.49741014E-04 E(CORR)=     -161.31791110     Delta=-3.11D-08
 NORM(A)=   0.10000427D+01
 Iteration Nr.   5
 **********************
 DD1Dir will call FoFMem   1 times, MxPair=         2
 NAB=     0 NAA=     1 NBB=     0.
 A-vector RMS=  3.9306505D-07 Max=  9.6737296D-07 conv= 1.00D-05.
 RLE energy=       -0.0000497416
 DE(Corr)= -0.49741492E-04 E(CORR)=     -161.31791110     Delta=-4.77D-10
 NORM(A)=   0.10000427D+01
 CI/CC converged in    5 iterations to DelEn=-4.77D-10 Conv= 1.00D-07 ErrA1= 3.93D-07 Conv= 1.00D-05
 Wavefunction amplitudes converged. E(Corr)=     -161.31791110    
 Largest amplitude= 5.60D-03
 Discarding MO integrals.
 Leave Link  913 at Mon Mar 28 14:24:48 2022, MaxMem=  9663676416 cpu:               2.8 elap:               0.1
 (Enter /nopt/nrel/apps/gaussian/g16C_1/g16/l601.exe)
 Copying SCF densities to generalized density rwf, IOpCl= 1 IROHF=0.

 **********************************************************************

            Population analysis using the SCF Density.

 **********************************************************************

 Orbital symmetries:
 Alpha Orbitals:
       Occupied  (SG) (SG) (SG) (PI) (PI) (SG) (SG)
       Virtual   (PI) (PI) (SG) (SG) (PI) (PI) (SG)
 Beta  Orbitals:
       Occupied  (SG) (SG) (PI) (PI) (SG)
       Virtual   (SG) (PI) (PI) (SG) (SG) (SG) (PI) (PI) (SG)
 The electronic state is 3-SG.
 Alpha  occ. eigenvalues --  -40.22149  -2.77700  -1.49331  -1.49203  -1.49203
 Alpha  occ. eigenvalues --   -0.54837  -0.16329
 Alpha virt. eigenvalues --    0.02618   0.02618   0.06465   0.12122   0.15327
 Alpha virt. eigenvalues --    0.15327   0.19802
  Beta  occ. eigenvalues --  -40.21908  -2.77070  -1.48998  -1.48998  -1.48932
  Beta virt. eigenvalues --   -0.01446   0.04882   0.04882   0.05567   0.12569
  Beta virt. eigenvalues --    0.18313   0.18326   0.18326   0.37938
          Condensed to atoms (all electrons):
               1          2
     1  H    0.834730   0.059491
     2  Na   0.059491  11.046287
          Atomic-Atomic Spin Densities.
               1          2
     1  H    0.834610   0.060080
     2  Na   0.060080   1.045230
 Mulliken charges and spin densities:
               1          2
     1  H    0.105778   0.894690
     2  Na  -0.105778   1.105310
 Sum of Mulliken charges =  -0.00000   2.00000
 Mulliken charges and spin densities with hydrogens summed into heavy atoms:
               1          2
     2  Na  -0.000000   2.000000
 N-N= 2.425395550050D+00 E-N=-3.927656065342D+02  KE= 1.609256803953D+02
 Symmetry A1   KE= 1.378578966529D+02
 Symmetry A2   KE= 0.000000000000D+00
 Symmetry B1   KE= 1.153389187117D+01
 Symmetry B2   KE= 1.153389187117D+01
 Symmetry A1   SP= 2.000000000000D+00
 Symmetry A2   SP= 0.000000000000D+00
 Symmetry B1   SP=-1.250358416823D-15
 Symmetry B2   SP=-2.751842053411D-15

 Atomic contributions to Alpha molecular orbitals:
 Alpha occ 1 OE=-40.221 is Na2-s=1.0000
 Alpha occ 2 OE=-2.777 is Na2-s=1.0000
 Alpha occ 3 OE=-1.493 is Na2-p=1.0000
 Alpha occ 4 OE=-1.492 is Na2-p=1.0000
 Alpha occ 5 OE=-1.492 is Na2-p=1.0000
 Alpha occ 6 OE=-0.548 is H1-s=0.8796
 Alpha occ 7 OE=-0.163 is Na2-s=0.8493 Na2-p=0.1357
 Alpha vir 8 OE=0.026 is Na2-p=1.0000
 Alpha vir 9 OE=0.026 is Na2-p=1.0000
 Alpha vir 10 OE=0.065 is Na2-p=0.8180 Na2-s=0.1528
 Alpha vir 11 OE=0.121 is Na2-s=0.9036
 Alpha vir 12 OE=0.153 is Na2-p=1.0000
 Alpha vir 13 OE=0.153 is Na2-p=1.0000
 Alpha vir 14 OE=0.198 is Na2-p=0.8865

 Atomic contributions to Beta  molecular orbitals:
 Beta  occ 1 OE=-40.219 is Na2-s=1.0000
 Beta  occ 2 OE=-2.771 is Na2-s=1.0000
 Beta  occ 3 OE=-1.490 is Na2-p=1.0000
 Beta  occ 4 OE=-1.490 is Na2-p=1.0000
 Beta  occ 5 OE=-1.489 is Na2-p=1.0001
 Beta  vir 6 OE=-0.014 is Na2-s=0.6200 Na2-p=0.2570 H1-s=0.1230
 Beta  vir 7 OE=0.049 is Na2-p=1.0000
 Beta  vir 8 OE=0.049 is Na2-p=1.0000
 Beta  vir 9 OE=0.056 is Na2-p=0.6815 Na2-s=0.3046
 Beta  vir 10 OE=0.126 is Na2-s=0.5413 Na2-p=0.3590
 Beta  vir 11 OE=0.183 is Na2-s=0.5083 Na2-p=0.4386
 Beta  vir 12 OE=0.183 is Na2-p=1.0000
 Beta  vir 13 OE=0.183 is Na2-p=1.0000
 Beta  vir 14 OE=0.379 is H1-s=0.7105 Na2-p=0.2638
 
 Leave Link  601 at Mon Mar 28 14:24:48 2022, MaxMem=  9663676416 cpu:               1.0 elap:               0.1
 (Enter /nopt/nrel/apps/gaussian/g16C_1/g16/l9999.exe)

 Test job not archived.
 1\1\GINC-R102U34\SP\UCCSD-FC\Gen\H1Na1(3)\USER\28-Mar-2022\0\\#P C
 CSD(MaxCyc=200,SaveAmplitudes,ReadAmplitudes)/GEN sp pop=AllOrbitals i
 op(3/33=1,3/36=-1)\\test\\0,3\H,0,0.,0.,0.\Na,0,0.,0.,2.4\\Version=ES6
 4L-G16RevC.01\State=3-SG\HF=-161.3178614\MP2=-161.317892\MP3=-161.3179
 035\MP4D=-161.3179078\MP4DQ=-161.3179078\MP4SDQ=-161.317908\CCSD=-161.
 3179111\S2=2.000025\S2-1=0.\S2A=2.\RMSD=6.528e-09\PG=C*V [C*(H1Na1)]\\
 @


 A SLIP OF THE FOOT YOU MAY SOON RECOVER, BUT A SLIP OF THE TONGUE
 YOU MAY NEVER GET OVER. -- BEN FRANKLIN
 Job cpu time:       0 days  0 hours  0 minutes 28.9 seconds.
 Elapsed time:       0 days  0 hours  0 minutes  1.2 seconds.
 File lengths (MBytes):  RWF=     13 Int=      0 D2E=      0 Chk=      1 Scr=      1
 Normal termination of Gaussian 16 at Mon Mar 28 14:24:48 2022.
