 Entering Gaussian System, Link 0=g16
 Initial command:
 /nopt/nrel/apps/gaussian/g16C_1/g16/l1.exe "/lustre/eaglefs/scratch/user/qc/lih-dissc/lih-3-ccsd-2.9-631g/Gau-17470.inp" -scrdir="/lustre/eaglefs/scratch/user/qc/lih-dissc/lih-3-ccsd-2.9-631g/"
 Default is to use a total of  36 processors:
                               36 via shared-memory
                                1 via Linda
 Entering Link 1 = /nopt/nrel/apps/gaussian/g16C_1/g16/l1.exe PID=     17471.
  
 Copyright (c) 1988-2019, Gaussian, Inc.  All Rights Reserved.
  
 This is part of the Gaussian(R) 16 program.  It is based on
 the Gaussian(R) 09 system (copyright 2009, Gaussian, Inc.),
 the Gaussian(R) 03 system (copyright 2003, Gaussian, Inc.),
 the Gaussian(R) 98 system (copyright 1998, Gaussian, Inc.),
 the Gaussian(R) 94 system (copyright 1995, Gaussian, Inc.),
 the Gaussian 92(TM) system (copyright 1992, Gaussian, Inc.),
 the Gaussian 90(TM) system (copyright 1990, Gaussian, Inc.),
 the Gaussian 88(TM) system (copyright 1988, Gaussian, Inc.),
 the Gaussian 86(TM) system (copyright 1986, Carnegie Mellon
 University), and the Gaussian 82(TM) system (copyright 1983,
 Carnegie Mellon University). Gaussian is a federally registered
 trademark of Gaussian, Inc.
  
 This software contains proprietary and confidential information,
 including trade secrets, belonging to Gaussian, Inc.
  
 This software is provided under written license and may be
 used, copied, transmitted, or stored only in accord with that
 written license.
  
 The following legend is applicable only to US Government
 contracts under FAR:
  
                    RESTRICTED RIGHTS LEGEND
  
 Use, reproduction and disclosure by the US Government is
 subject to restrictions as set forth in subparagraphs (a)
 and (c) of the Commercial Computer Software - Restricted
 Rights clause in FAR 52.227-19.
  
 Gaussian, Inc.
 340 Quinnipiac St., Bldg. 40, Wallingford CT 06492
  
  
 ---------------------------------------------------------------
 Warning -- This program may not be used in any manner that
 competes with the business of Gaussian, Inc. or will provide
 assistance to any competitor of Gaussian, Inc.  The licensee
 of this program is prohibited from giving any competitor of
 Gaussian, Inc. access to this program.  By using this program,
 the user acknowledges that Gaussian, Inc. is engaged in the
 business of creating and licensing software in the field of
 computational chemistry and represents and warrants to the
 licensee that it is not a competitor of Gaussian, Inc. and that
 it will not use this program in any manner prohibited above.
 ---------------------------------------------------------------
  

 Cite this work as:
 Gaussian 16, Revision C.01,
 M. J. Frisch, G. W. Trucks, H. B. Schlegel, G. E. Scuseria, 
 M. A. Robb, J. R. Cheeseman, G. Scalmani, V. Barone, 
 G. A. Petersson, H. Nakatsuji, X. Li, M. Caricato, A. V. Marenich, 
 J. Bloino, B. G. Janesko, R. Gomperts, B. Mennucci, H. P. Hratchian, 
 J. V. Ortiz, A. F. Izmaylov, J. L. Sonnenberg, D. Williams-Young, 
 F. Ding, F. Lipparini, F. Egidi, J. Goings, B. Peng, A. Petrone, 
 T. Henderson, D. Ranasinghe, V. G. Zakrzewski, J. Gao, N. Rega, 
 G. Zheng, W. Liang, M. Hada, M. Ehara, K. Toyota, R. Fukuda, 
 J. Hasegawa, M. Ishida, T. Nakajima, Y. Honda, O. Kitao, H. Nakai, 
 T. Vreven, K. Throssell, J. A. Montgomery, Jr., J. E. Peralta, 
 F. Ogliaro, M. J. Bearpark, J. J. Heyd, E. N. Brothers, K. N. Kudin, 
 V. N. Staroverov, T. A. Keith, R. Kobayashi, J. Normand, 
 K. Raghavachari, A. P. Rendell, J. C. Burant, S. S. Iyengar, 
 J. Tomasi, M. Cossi, J. M. Millam, M. Klene, C. Adamo, R. Cammi, 
 J. W. Ochterski, R. L. Martin, K. Morokuma, O. Farkas, 
 J. B. Foresman, and D. J. Fox, Gaussian, Inc., Wallingford CT, 2019.
 
 ******************************************
 Gaussian 16:  ES64L-G16RevC.01  3-Jul-2019
                28-Mar-2022 
 ******************************************
 %chk=molecule
 Default route: CacheSize=180224 MaxDisk=256GB
 ----------------------------------------------------------------------
 #P CCSD(MaxCyc=200,SaveAmplitudes,ReadAmplitudes)/GEN sp pop=AllOrbita
 ls iop(3/33=1,3/36=-1)
 ----------------------------------------------------------------------
 1/4=180224,38=1,172=1/1;
 2/4=180224,12=2,17=6,18=5,40=1/2;
 3/4=180224,5=7,11=9,25=1,30=1,33=1,36=-1/1,2,3;
 4/4=180224/1;
 5/4=180224,5=2,38=5/2;
 8/4=180224,6=4,9=120000,10=1,24=1/1,4;
 9/4=180224,5=7,6=200,77=1/13;
 6/4=180224,7=2,8=2,9=2,10=2,96=-1/1;
 99/4=180224,5=1,9=1/99;
 Leave Link    1 at Mon Mar 28 14:06:01 2022, MaxMem=           0 cpu:               1.9 elap:               0.1
 (Enter /nopt/nrel/apps/gaussian/g16C_1/g16/l101.exe)
 ----
 test
 ----
 Symbolic Z-matrix:
 Charge =  0 Multiplicity = 3
 H                     0.        0.        0. 
 Li                    0.        0.        2.9 
 
 ITRead=  0  0
 MicOpt= -1 -1
 NAtoms=      2 NQM=        2 NQMF=       0 NMMI=      0 NMMIF=      0
                NMic=       0 NMicF=      0.
                    Isotopes and Nuclear Properties:
 (Nuclear quadrupole moments (NQMom) in fm**2, nuclear magnetic moments (NMagM)
  in nuclear magnetons)

  Atom         1           2
 IAtWgt=           1           7
 AtmWgt=   1.0078250   7.0160045
 NucSpn=           1           3
 AtZEff=  -0.0000000  -0.0000000
 NQMom=    0.0000000  -4.0100000
 NMagM=    2.7928460   3.2564240
 AtZNuc=   1.0000000   3.0000000
 Leave Link  101 at Mon Mar 28 14:06:01 2022, MaxMem=  9663676416 cpu:               2.8 elap:               0.1
 (Enter /nopt/nrel/apps/gaussian/g16C_1/g16/l202.exe)
                          Input orientation:                          
 ---------------------------------------------------------------------
 Center     Atomic      Atomic             Coordinates (Angstroms)
 Number     Number       Type             X           Y           Z
 ---------------------------------------------------------------------
      1          1           0        0.000000    0.000000    0.000000
      2          3           0        0.000000    0.000000    2.900000
 ---------------------------------------------------------------------
 Stoichiometry    HLi(3)
 Framework group  C*V[C*(HLi)]
 Deg. of freedom     1
 Full point group                 C*V     NOp   4
 Largest Abelian subgroup         C2V     NOp   4
 Largest concise Abelian subgroup C1      NOp   1
                         Standard orientation:                         
 ---------------------------------------------------------------------
 Center     Atomic      Atomic             Coordinates (Angstroms)
 Number     Number       Type             X           Y           Z
 ---------------------------------------------------------------------
      1          1           0        0.000000    0.000000   -2.175000
      2          3           0        0.000000    0.000000    0.725000
 ---------------------------------------------------------------------
 Rotational constants (GHZ):           0.0000000          68.1911313          68.1911313
 Leave Link  202 at Mon Mar 28 14:06:01 2022, MaxMem=  9663676416 cpu:               0.6 elap:               0.0
 (Enter /nopt/nrel/apps/gaussian/g16C_1/g16/l301.exe)
 General basis read from cards:  (5D, 7F)
                         Coordinates in L301:                         
 ---------------------------------------------------------------------
 Center     Atomic      Atomic             Coordinates (Angstroms)
 Number     Number       Type             X           Y           Z
 ---------------------------------------------------------------------
      1          1           0        0.000000    0.000000   -2.175000
      2          3           0        0.000000    0.000000    0.725000
 ---------------------------------------------------------------------
 Centers:       1
 STO-3G
 ****
 Centers:       2
 6-31G
 ****
 FixB: optimizing general contractions.
 Ernie: Thresh=  0.10000D-02 Tol=  0.10000D-05 Strict=F.
 IA=     1 ShT= 0 ShC= 0 NL=   1 NS=   0.
 IA=     1 L=0 SC=0 ISt=    0 NBk=    0 NP=    0 IndPr=    0.
 IA=     2 ShT= 0 ShC= 0 NL=   1 NS=   0.
 IA=     2 L=0 SC=0 ISt=    0 NBk=    0 NP=    0 IndPr=    0.
 IA=     2 ShT= 1 ShC= 0 NL=   2 NS=   1.
 IA=     2 L=1 SC=0 ISt=    0 NBk=    0 NP=    0 IndPr=    0.
 LdAtmC:  AtmChg=     1.000000     3.000000
 AtZEff=     -1.0000000     -1.3500000
 NEqShl: 
              1            2            3            4
     1            1            1            1            1
     2            2            2            2            2
     3            3            3            3            3
     4            4            4            4            4
 NEqBas: 
              1            2            3            4
     1            1            1            1            1
     2            2            2            2            2
     3            3            3            3            3
     4            4           -4           -4            4
     5            5           -5            5           -5
     6            6            6            6            6
     7            7            7            7            7
     8            8           -8           -8            8
     9            9           -9            9           -9
    10           10           10           10           10
 There are     6 symmetry adapted cartesian basis functions of A1  symmetry.
   1         1   1   1   1
   2         2   2   2   2
   3         3   3   3   3
   4         6   6   6   6
   5         7   7   7   7
   6        10  10  10  10
 There are     0 symmetry adapted cartesian basis functions of A2  symmetry.
 There are     2 symmetry adapted cartesian basis functions of B1  symmetry.
   7         4   4   4   4
   8         8   8   8   8
 There are     2 symmetry adapted cartesian basis functions of B2  symmetry.
   9         5   5   5   5
  10         9   9   9   9
 Order= 1 2 4 3
 Reordered character table:
              1            2            3            4            5
     1            1            1            1            1            1
     2            2            1            1           -1           -1
     3            4            1           -1           -1            1
     4            3            1           -1            1           -1
 NEqShl: 
              1            2            3            4
     1            1            1            1            1
     2            2            2            2            2
     3            3            3            3            3
     4            4            4            4            4
 NEqBas: 
              1            2            3            4
     1            1            1            1            1
     2            2            2            2            2
     3            3            3            3            3
     4            4           -4           -4            4
     5            5           -5            5           -5
     6            6            6            6            6
     7            7            7            7            7
     8            8           -8           -8            8
     9            9           -9            9           -9
    10           10           10           10           10
 There are     6 symmetry adapted basis functions of A1  symmetry.
   1         1   1   1   1
   2         2   2   2   2
   3         3   3   3   3
   4         6   6   6   6
   5         7   7   7   7
   6        10  10  10  10
 There are     0 symmetry adapted basis functions of A2  symmetry.
 There are     2 symmetry adapted basis functions of B1  symmetry.
   7         4   4   4   4
   8         8   8   8   8
 There are     2 symmetry adapted basis functions of B2  symmetry.
   9         5   5   5   5
  10         9   9   9   9
 Order= 1 2 4 3
 Reordered character table:
              1            2            3            4            5
     1            1            1            1            1            1
     2            2            1            1           -1           -1
     3            4            1           -1           -1            1
     4            3            1           -1            1           -1
    10 basis functions,    25 primitive gaussians,    10 cartesian basis functions
     3 alpha electrons        1 beta electrons
       nuclear repulsion energy         0.5474247010 Hartrees.
 IS=     1 IAt=     1 ISR=     1 T=0 IP=      1 IndIP=      1 IndIPD=      0 C=  2.769344D-01  0.000000D+00                             NZ=T
 IS=     1 IAt=     1 ISR=     1 T=0 IP=      2 IndIP=      2 IndIPD=      1 C=  2.678389D-01  0.000000D+00                             NZ=T
 IS=     1 IAt=     1 ISR=     1 T=0 IP=      3 IndIP=      3 IndIPD=      2 C=  8.347367D-02  0.000000D+00                             NZ=T
 IS=     2 IAt=     2 ISR=     1 T=0 IP=      1 IndIP=      4 IndIPD=      0 C=  1.948572D-01  0.000000D+00                             NZ=T
 IS=     2 IAt=     2 ISR=     1 T=0 IP=      2 IndIP=      5 IndIPD=      1 C=  3.565040D-01  0.000000D+00                             NZ=T
 IS=     2 IAt=     2 ISR=     1 T=0 IP=      3 IndIP=      6 IndIPD=      2 C=  5.614879D-01  0.000000D+00                             NZ=T
 IS=     2 IAt=     2 ISR=     1 T=0 IP=      4 IndIP=      7 IndIPD=      3 C=  6.883627D-01  0.000000D+00                             NZ=T
 IS=     2 IAt=     2 ISR=     1 T=0 IP=      5 IndIP=      8 IndIPD=      4 C=  5.498106D-01  0.000000D+00                             NZ=T
 IS=     2 IAt=     2 ISR=     1 T=0 IP=      6 IndIP=      9 IndIPD=      5 C=  1.755056D-01  0.000000D+00                             NZ=T
 IS=     3 IAt=     2 ISR=     2 T=1 IP=      1 IndIP=     10 IndIPD=      0 C= -4.708915D-02  3.658984D-02                             NZ=T
 IS=     3 IAt=     2 ISR=     2 T=1 IP=      2 IndIP=     11 IndIPD=      1 C= -9.665673D-02  1.133585D-01                             NZ=T
 IS=     3 IAt=     2 ISR=     2 T=1 IP=      3 IndIP=     12 IndIPD=      2 C=  1.151795D-01  5.648589D-02                             NZ=T
 IS=     4 IAt=     2 ISR=     3 T=1 IP=      1 IndIP=     13 IndIPD=      0 C=  5.885627D-02  2.232258D-02                             NZ=T
 IExCor=    0 DFT=F Ex=HF Corr=None ExCW=0 ScaHFX=  1.000000
 ScaDFX=  1.000000  1.000000  1.000000  1.000000 ScalE2=  1.000000  1.000000
 IRadAn=      5 IRanWt=     -1 IRanGd=            0 ICorTp=0 IEmpDi=  4
 NAtoms=    2 NActive=    2 NUniq=    2 SFac= 1.00D+00 NAtFMM=   60 NAOKFM=F Big=F
 Integral buffers will be    131072 words long.
 Raffenetti 2 integral format.
 Two-electron integral symmetry is turned on.
 Leave Link  301 at Mon Mar 28 14:06:01 2022, MaxMem=  9663676416 cpu:               2.2 elap:               0.1
 (Enter /nopt/nrel/apps/gaussian/g16C_1/g16/l302.exe)
 NPDir=0 NMtPBC=     1 NCelOv=     1 NCel=       1 NClECP=     1 NCelD=      1
         NCelK=      1 NCelE2=     1 NClLst=     1 CellRange=     0.0.
 One-electron integrals computed using PRISM.
 One-electron integral symmetry used in STVInt
 Entering OneElI...
 Calculate overlap and kinetic energy integrals
    NBasis =  10  MinDer = 0  MaxDer = 0
 Requested accuracy = 0.1000D-12
 Symmetry will be used
 PrmmSu-InSpLW:  IPartL=    0 NPrtUS=   36 NPrtUL=    1 DoSpLW=F IThBeg=    0 IThEnd=   35 NThAct=   36.
 PrSmSu:  IncTry=   512 NBBP=             10 NTPThr=   100 NPartT=   36 Incr=           1 LDynOK=F GPUOK=F.
 PrsmSu:  NPrtUS=  36 ThrOK=T IAlg=1 LenDen=           0 ISkipM=0 DoSpLW=F IThBeg=    0 IThEnd=   35.
 Prism:   IPart=     0 DynPar=F LinDyn=F Incr=           1.
 PRISM was handed   268433785 working-precision words and    10 shell-pairs
 PRISM was handed   268433785 working-precision words and    10 shell-pairs
 PRISM was handed   268433785 working-precision words and    10 shell-pairs
 PRISM was handed   268433785 working-precision words and    10 shell-pairs
 PRISM was handed   268433785 working-precision words and    10 shell-pairs
 IPart= 23 NShTot=           0 NBatch=           0 AvBLen=         0.0
 IPart= 16 NShTot=           0 NBatch=           0 AvBLen=         0.0
 IPart= 17 NShTot=           0 NBatch=           0 AvBLen=         0.0
 IPart= 29 NShTot=           0 NBatch=           0 AvBLen=         0.0
 PRISM was handed   268433785 working-precision words and    10 shell-pairs
 IPart=  2 NShTot=           0 NBatch=           0 AvBLen=         0.0
 PRISM was handed   268433785 working-precision words and    10 shell-pairs
 PRISM was handed   268433785 working-precision words and    10 shell-pairs
 PRISM was handed   268433785 working-precision words and    10 shell-pairs
 PRISM was handed   268433785 working-precision words and    10 shell-pairs
 PRISM was handed   268433785 working-precision words and    10 shell-pairs
 PRISM was handed   268433785 working-precision words and    10 shell-pairs
 PRISM was handed   268433785 working-precision words and    10 shell-pairs
 PRISM was handed   268433785 working-precision words and    10 shell-pairs
 PRISM was handed   268433785 working-precision words and    10 shell-pairs
 IPart= 28 NShTot=           0 NBatch=           0 AvBLen=         0.0
 IPart=  0 NShTot=          10 NBatch=          10 AvBLen=         1.0
 IPart= 15 NShTot=           0 NBatch=           0 AvBLen=         0.0
 IPart= 34 NShTot=           0 NBatch=           0 AvBLen=         0.0
 IPart= 32 NShTot=           0 NBatch=           0 AvBLen=         0.0
 IPart= 21 NShTot=           0 NBatch=           0 AvBLen=         0.0
 PRISM was handed   268433785 working-precision words and    10 shell-pairs
 IPart= 12 NShTot=           0 NBatch=           0 AvBLen=         0.0
 IPart= 33 NShTot=           0 NBatch=           0 AvBLen=         0.0
 PRISM was handed   268433785 working-precision words and    10 shell-pairs
 IPart= 11 NShTot=           0 NBatch=           0 AvBLen=         0.0
 IPart=  9 NShTot=           0 NBatch=           0 AvBLen=         0.0
 PRISM was handed   268433785 working-precision words and    10 shell-pairs
 PRISM was handed   268433785 working-precision words and    10 shell-pairs
 IPart= 30 NShTot=           0 NBatch=           0 AvBLen=         0.0
 IPart= 14 NShTot=           0 NBatch=           0 AvBLen=         0.0
 PRISM was handed   268433785 working-precision words and    10 shell-pairs
 IPart=  3 NShTot=           0 NBatch=           0 AvBLen=         0.0
 IPart=  8 NShTot=           0 NBatch=           0 AvBLen=         0.0
 PRISM was handed   268433785 working-precision words and    10 shell-pairs
 IPart= 31 NShTot=           0 NBatch=           0 AvBLen=         0.0
 PRISM was handed   268433785 working-precision words and    10 shell-pairs
 PRISM was handed   268433785 working-precision words and    10 shell-pairs
 PRISM was handed   268433785 working-precision words and    10 shell-pairs
 PRISM was handed   268433785 working-precision words and    10 shell-pairs
 PRISM was handed   268433785 working-precision words and    10 shell-pairs
 PRISM was handed   268433785 working-precision words and    10 shell-pairs
 PRISM was handed   268433785 working-precision words and    10 shell-pairs
 PRISM was handed   268433785 working-precision words and    10 shell-pairs
 PRISM was handed   268433785 working-precision words and    10 shell-pairs
 PRISM was handed   268433785 working-precision words and    10 shell-pairs
 PRISM was handed   268433785 working-precision words and    10 shell-pairs
 PRISM was handed   268433785 working-precision words and    10 shell-pairs
 IPart=  7 NShTot=           0 NBatch=           0 AvBLen=         0.0
 PRISM was handed   268433785 working-precision words and    10 shell-pairs
 PRISM was handed   268433785 working-precision words and    10 shell-pairs
 PRISM was handed   268433785 working-precision words and    10 shell-pairs
 IPart= 26 NShTot=           0 NBatch=           0 AvBLen=         0.0
 IPart= 19 NShTot=           0 NBatch=           0 AvBLen=         0.0
 IPart= 24 NShTot=           0 NBatch=           0 AvBLen=         0.0
 IPart=  6 NShTot=           0 NBatch=           0 AvBLen=         0.0
 IPart= 35 NShTot=           0 NBatch=           0 AvBLen=         0.0
 IPart= 20 NShTot=           0 NBatch=           0 AvBLen=         0.0
 IPart= 18 NShTot=           0 NBatch=           0 AvBLen=         0.0
 IPart= 10 NShTot=           0 NBatch=           0 AvBLen=         0.0
 IPart= 27 NShTot=           0 NBatch=           0 AvBLen=         0.0
 IPart= 22 NShTot=           0 NBatch=           0 AvBLen=         0.0
 IPart= 25 NShTot=           0 NBatch=           0 AvBLen=         0.0
 IPart= 13 NShTot=           0 NBatch=           0 AvBLen=         0.0
 IPart=  1 NShTot=           0 NBatch=           0 AvBLen=         0.0
 IPart=  4 NShTot=           0 NBatch=           0 AvBLen=         0.0
 IPart=  5 NShTot=           0 NBatch=           0 AvBLen=         0.0
 PrSmSu:  NxtVal=             37.
 *** Overlap *** 
                1             2             3             4             5 
      1  0.100000D+01
      2  0.301354D-02  0.100000D+01
      3  0.122974D+00  0.145258D+00  0.100000D+01
      4  0.000000D+00  0.000000D+00  0.000000D+00  0.100000D+01
      5  0.000000D+00  0.000000D+00  0.000000D+00  0.000000D+00  0.100000D+01
      6 -0.250678D+00  0.000000D+00  0.000000D+00  0.000000D+00  0.000000D+00
      7  0.184970D+00  0.185742D+00  0.905515D+00  0.000000D+00  0.000000D+00
      8  0.000000D+00  0.000000D+00  0.000000D+00  0.802063D+00  0.000000D+00
      9  0.000000D+00  0.000000D+00  0.000000D+00  0.000000D+00  0.802063D+00
     10 -0.333461D+00  0.000000D+00  0.000000D+00  0.000000D+00  0.000000D+00
                6             7             8             9            10 
      6  0.100000D+01
      7  0.000000D+00  0.100000D+01
      8  0.000000D+00  0.000000D+00  0.100000D+01
      9  0.000000D+00  0.000000D+00  0.000000D+00  0.100000D+01
     10  0.802063D+00  0.000000D+00  0.000000D+00  0.000000D+00  0.100000D+01
 *** Kinetic Energy *** 
                1             2             3             4             5 
      1  0.760032D+00
      2 -0.240371D-02  0.362575D+01
      3 -0.358778D-02 -0.242849D+00  0.145919D+00
      4  0.000000D+00  0.000000D+00  0.000000D+00  0.242177D+00
      5  0.000000D+00  0.000000D+00  0.000000D+00  0.000000D+00  0.242177D+00
      6 -0.190903D-01  0.000000D+00  0.000000D+00  0.000000D+00  0.000000D+00
      7  0.644821D-02  0.193002D-01  0.653913D-01  0.000000D+00  0.000000D+00
      8  0.000000D+00  0.000000D+00  0.000000D+00  0.100038D+00  0.000000D+00
      9  0.000000D+00  0.000000D+00  0.000000D+00  0.000000D+00  0.100038D+00
     10 -0.324841D-01  0.000000D+00  0.000000D+00  0.000000D+00  0.000000D+00
                6             7             8             9            10 
      6  0.242177D+00
      7  0.000000D+00  0.539430D-01
      8  0.000000D+00  0.000000D+00  0.899049D-01
      9  0.000000D+00  0.000000D+00  0.000000D+00  0.899049D-01
     10  0.100038D+00  0.000000D+00  0.000000D+00  0.000000D+00  0.899049D-01
 Entering OneElI...
 Calculate potential energy integrals
    NBasis =  10  MinDer = 0  MaxDer = 0
 Requested accuracy = 0.1000D-12
 Symmetry will be used
 PrmmSu-InSpLW:  IPartL=    0 NPrtUS=   36 NPrtUL=    1 DoSpLW=F IThBeg=    0 IThEnd=   35 NThAct=   36.
 PrSmSu:  IncTry=   512 NBBP=             20 NTPThr=   100 NPartT=   36 Incr=           1 LDynOK=F GPUOK=F.
 PrsmSu:  NPrtUS=  36 ThrOK=T IAlg=1 LenDen=           0 ISkipM=0 DoSpLW=F IThBeg=    0 IThEnd=   35.
 Prism:   IPart=     0 DynPar=F LinDyn=F Incr=           1.
 PRISM was handed   268433834 working-precision words and    10 shell-pairs
 PRISM was handed   268433834 working-precision words and    10 shell-pairs
 PRISM was handed   268433834 working-precision words and    10 shell-pairs
 PRISM was handed   268433834 working-precision words and    10 shell-pairs
 PRISM was handed   268433834 working-precision words and    10 shell-pairs
 PRISM was handed   268433834 working-precision words and    10 shell-pairs
 PRISM was handed   268433834 working-precision words and    10 shell-pairs
 PRISM was handed   268433834 working-precision words and    10 shell-pairs
 PRISM was handed   268433834 working-precision words and    10 shell-pairs
 PRISM was handed   268433834 working-precision words and    10 shell-pairs
 PRISM was handed   268433834 working-precision words and    10 shell-pairs
 PRISM was handed   268433834 working-precision words and    10 shell-pairs
 PRISM was handed   268433834 working-precision words and    10 shell-pairs
 PRISM was handed   268433834 working-precision words and    10 shell-pairs
 PRISM was handed   268433834 working-precision words and    10 shell-pairs
 PRISM was handed   268433834 working-precision words and    10 shell-pairs
 PRISM was handed   268433834 working-precision words and    10 shell-pairs
 PRISM was handed   268433834 working-precision words and    10 shell-pairs
 PRISM was handed   268433834 working-precision words and    10 shell-pairs
 PRISM was handed   268433834 working-precision words and    10 shell-pairs
 PRISM was handed   268433834 working-precision words and    10 shell-pairs
 PRISM was handed   268433834 working-precision words and    10 shell-pairs
 PRISM was handed   268433834 working-precision words and    10 shell-pairs
 PRISM was handed   268433834 working-precision words and    10 shell-pairs
 PRISM was handed   268433834 working-precision words and    10 shell-pairs
 PRISM was handed   268433834 working-precision words and    10 shell-pairs
 PRISM was handed   268433834 working-precision words and    10 shell-pairs
 PRISM was handed   268433834 working-precision words and    10 shell-pairs
 PRISM was handed   268433834 working-precision words and    10 shell-pairs
 PRISM was handed   268433834 working-precision words and    10 shell-pairs
 PRISM was handed   268433834 working-precision words and    10 shell-pairs
 PRISM was handed   268433834 working-precision words and    10 shell-pairs
 PRISM was handed   268433834 working-precision words and    10 shell-pairs
 PRISM was handed   268433834 working-precision words and    10 shell-pairs
 PRISM was handed   268433834 working-precision words and    10 shell-pairs
 PRISM was handed   268433834 working-precision words and    10 shell-pairs
 IPart= 18 NShTot=           0 NBatch=           0 AvBLen=         0.0
 IPart= 10 NShTot=           0 NBatch=           0 AvBLen=         0.0
 IPart= 12 NShTot=           0 NBatch=           0 AvBLen=         0.0
 IPart= 31 NShTot=           0 NBatch=           0 AvBLen=         0.0
 IPart= 26 NShTot=           0 NBatch=           0 AvBLen=         0.0
 IPart= 21 NShTot=           0 NBatch=           0 AvBLen=         0.0
 IPart= 23 NShTot=           0 NBatch=           0 AvBLen=         0.0
 IPart=  9 NShTot=           0 NBatch=           0 AvBLen=         0.0
 IPart= 28 NShTot=           0 NBatch=           0 AvBLen=         0.0
 IPart=  6 NShTot=           0 NBatch=           0 AvBLen=         0.0
 IPart=  2 NShTot=           0 NBatch=           0 AvBLen=         0.0
 IPart= 17 NShTot=           0 NBatch=           0 AvBLen=         0.0
 IPart= 32 NShTot=           0 NBatch=           0 AvBLen=         0.0
 IPart= 34 NShTot=           0 NBatch=           0 AvBLen=         0.0
 IPart= 27 NShTot=           0 NBatch=           0 AvBLen=         0.0
 IPart= 15 NShTot=           0 NBatch=           0 AvBLen=         0.0
 IPart= 22 NShTot=           0 NBatch=           0 AvBLen=         0.0
 IPart= 25 NShTot=           0 NBatch=           0 AvBLen=         0.0
 IPart= 20 NShTot=           0 NBatch=           0 AvBLen=         0.0
 IPart= 35 NShTot=           0 NBatch=           0 AvBLen=         0.0
 IPart=  4 NShTot=           0 NBatch=           0 AvBLen=         0.0
 IPart=  8 NShTot=           0 NBatch=           0 AvBLen=         0.0
 IPart=  7 NShTot=           0 NBatch=           0 AvBLen=         0.0
 IPart= 16 NShTot=           0 NBatch=           0 AvBLen=         0.0
 IPart= 30 NShTot=           0 NBatch=           0 AvBLen=         0.0
 IPart= 19 NShTot=           0 NBatch=           0 AvBLen=         0.0
 IPart= 11 NShTot=           0 NBatch=           0 AvBLen=         0.0
 IPart= 13 NShTot=           0 NBatch=           0 AvBLen=         0.0
 IPart=  5 NShTot=           0 NBatch=           0 AvBLen=         0.0
 IPart= 14 NShTot=           0 NBatch=           0 AvBLen=         0.0
 IPart= 33 NShTot=           0 NBatch=           0 AvBLen=         0.0
 IPart=  3 NShTot=           0 NBatch=           0 AvBLen=         0.0
 IPart=  1 NShTot=           0 NBatch=           0 AvBLen=         0.0
 IPart= 24 NShTot=           0 NBatch=           0 AvBLen=         0.0
 IPart=  0 NShTot=          20 NBatch=          10 AvBLen=         2.0
 IPart= 29 NShTot=           0 NBatch=           0 AvBLen=         0.0
 PrSmSu:  NxtVal=             37.
 ***** Potential Energy ***** 
                1             2             3             4             5 
      1  0.177404D+01
      2  0.101302D-01  0.825349D+01
      3  0.163648D+00  0.312534D+00  0.129494D+01
      4  0.000000D+00  0.000000D+00  0.000000D+00  0.118720D+01
      5  0.000000D+00  0.000000D+00  0.000000D+00  0.000000D+00  0.118720D+01
      6 -0.336433D+00 -0.438390D-02 -0.603041D-01  0.000000D+00  0.000000D+00
      7  0.238275D+00  0.787812D+00  0.109215D+01  0.000000D+00  0.000000D+00
      8  0.000000D+00  0.000000D+00  0.000000D+00  0.761329D+00  0.000000D+00
      9  0.000000D+00  0.000000D+00  0.000000D+00  0.000000D+00  0.761329D+00
     10 -0.425634D+00 -0.120233D-02 -0.485919D-01  0.000000D+00  0.000000D+00
                6             7             8             9            10 
      6  0.123526D+01
      7 -0.652710D-01  0.108345D+01
      8  0.000000D+00  0.000000D+00  0.748264D+00
      9  0.000000D+00  0.000000D+00  0.000000D+00  0.748264D+00
     10  0.809490D+00 -0.676958D-01  0.000000D+00  0.000000D+00  0.811076D+00
 ****** Core Hamiltonian ****** 
                1             2             3             4             5 
      1 -0.101401D+01
      2 -0.125339D-01 -0.462774D+01
      3 -0.167236D+00 -0.555383D+00 -0.114902D+01
      4  0.000000D+00  0.000000D+00  0.000000D+00 -0.945018D+00
      5  0.000000D+00  0.000000D+00  0.000000D+00  0.000000D+00 -0.945018D+00
      6  0.317343D+00  0.438390D-02  0.603041D-01  0.000000D+00  0.000000D+00
      7 -0.231826D+00 -0.768512D+00 -0.102676D+01  0.000000D+00  0.000000D+00
      8  0.000000D+00  0.000000D+00  0.000000D+00 -0.661291D+00  0.000000D+00
      9  0.000000D+00  0.000000D+00  0.000000D+00  0.000000D+00 -0.661291D+00
     10  0.393150D+00  0.120233D-02  0.485919D-01  0.000000D+00  0.000000D+00
                6             7             8             9            10 
      6 -0.993079D+00
      7  0.652710D-01 -0.102951D+01
      8  0.000000D+00  0.000000D+00 -0.658359D+00
      9  0.000000D+00  0.000000D+00  0.000000D+00 -0.658359D+00
     10 -0.709453D+00  0.676958D-01  0.000000D+00  0.000000D+00 -0.721172D+00
 SVDSVc IOpt=   1 NormSV=T IR=1
 SVDSVc V= 2.07D+00 1.90D+00 9.55D-01 7.88D-01 1.93D-01 9.09D-02
 SVDSVc IOpt=   1 NormSV=T IR=3
 SVDSVc V= 1.80D+00 1.98D-01
 SVDSVc IOpt=   1 NormSV=T IR=4
 SVDSVc V= 1.80D+00 1.98D-01
 TstOVc:  Largest diagonal error= 5.11D-15 IB=1 I=    6.
 TstOVc:  Largest same sym error= 1.71D-15 IB=1 I=    3 J=    2.
 TstOVc:  Largest diff sym error= 0.00D+00 IB=0 JB=0 I=    0 J=    0.
 Orthogonalized basis functions: 
                 1             2             3             4             5 
      1   0.255723D+00 -0.130915D+00 -0.238509D+00  0.986779D+00  0.191522D+00
      2   0.110171D+00  0.119003D+00  0.970330D+00  0.244829D+00  0.342456D-02
      3   0.347644D+00  0.327261D+00 -0.144594D+00 -0.223455D+00 -0.785232D-01
      4   0.000000D+00  0.000000D+00  0.000000D+00  0.000000D+00  0.000000D+00
      5   0.000000D+00  0.000000D+00  0.000000D+00  0.000000D+00  0.000000D+00
      6  -0.274344D+00  0.371558D+00 -0.953092D-01  0.353402D+00 -0.156750D+01
      7   0.357933D+00  0.325439D+00 -0.116140D+00 -0.120926D+00  0.434221D-01
      8   0.000000D+00  0.000000D+00  0.000000D+00  0.000000D+00  0.000000D+00
      9   0.000000D+00  0.000000D+00  0.000000D+00  0.000000D+00  0.000000D+00
     10  -0.285659D+00  0.377910D+00 -0.692422D-01  0.214923D+00  0.163703D+01
                 6             7             8             9            10 
      1  -0.196739D+00  0.000000D+00  0.000000D+00  0.000000D+00  0.000000D+00
      2  -0.113315D+00  0.000000D+00  0.000000D+00  0.000000D+00  0.000000D+00
      3  -0.231122D+01  0.000000D+00  0.000000D+00  0.000000D+00  0.000000D+00
      4   0.000000D+00  0.526744D+00  0.158936D+01  0.000000D+00  0.000000D+00
      5   0.000000D+00  0.000000D+00  0.000000D+00  0.526744D+00  0.158936D+01
      6   0.424957D-01  0.000000D+00  0.000000D+00  0.000000D+00  0.000000D+00
      7   0.236528D+01  0.000000D+00  0.000000D+00  0.000000D+00  0.000000D+00
      8   0.000000D+00  0.526744D+00 -0.158936D+01  0.000000D+00  0.000000D+00
      9   0.000000D+00  0.000000D+00  0.000000D+00  0.526744D+00 -0.158936D+01
     10  -0.109656D+00  0.000000D+00  0.000000D+00  0.000000D+00  0.000000D+00
 NBasis=    10 RedAO= T EigKep=  9.09D-02  NBF=     6     0     2     2
 NBsUse=    10 1.00D-06 EigRej= -1.00D+00 NBFU=     6     0     2     2
 Leave Link  302 at Mon Mar 28 14:06:02 2022, MaxMem=  9663676416 cpu:               4.4 elap:               0.2
 (Enter /nopt/nrel/apps/gaussian/g16C_1/g16/l303.exe)
 DipDrv will not compute anything.
 Fermi contact integrals: 
                 1             2 
      1   0.628247D+00  0.523802D-03
      2   0.000000D+00  0.252653D+01
      3   0.107221D-01 -0.285664D-01
      4   0.000000D+00  0.000000D+00
      5   0.000000D+00  0.000000D+00
      6  -0.288165D-01  0.000000D+00
      7   0.199867D-01  0.588563D-01
      8   0.000000D+00  0.000000D+00
      9   0.000000D+00  0.000000D+00
     10  -0.415421D-01  0.000000D+00
 Leave Link  303 at Mon Mar 28 14:06:02 2022, MaxMem=  9663676416 cpu:               1.0 elap:               0.1
 (Enter /nopt/nrel/apps/gaussian/g16C_1/g16/l401.exe)
 ExpMin= 3.60D-02 ExpMax= 6.42D+02 ExpMxC= 9.68D+01 IAcc=3 IRadAn=         5 AccDes= 0.00D+00
 Harris functional with IExCor=  205 and IRadAn=       5 diagonalized for initial guess.
 HarFok:  IExCor=  205 AccDes= 0.00D+00 IRadAn=         5 IDoV= 1 UseB2=F ITyADJ=14
 ICtDFT=  3500011 ScaDFX=  1.000000  1.000000  1.000000  1.000000
 FoFCou: FMM=F IPFlag=           0 FMFlag=      100000 FMFlg1=           0
         NFxFlg=           0 DoJE=T BraDBF=F KetDBF=T FulRan=T
         wScrn=  0.000000 ICntrl=       500 IOpCl=  0 I1Cent=   200000004 NGrid=           0
         NMat0=    1 NMatS0=      1 NMatT0=    0 NMatD0=    1 NMtDS0=    0 NMtDT0=    0
 Petite list used in FoFCou.
 Harris En= -7.81785504580051    
 JPrj=0 DoOrth=F DoCkMO=F.
 Initial guess orbital symmetries:
 Alpha Orbitals:
       Occupied  (SG) (SG) (SG)
       Virtual   (PI) (PI) (SG) (SG) (PI) (PI) (SG)
 Beta  Orbitals:
       Occupied  (SG)
       Virtual   (SG) (SG) (PI) (PI) (SG) (SG) (PI) (PI) (SG)
 The electronic state of the initial guess is 3-SG.
 Initial guess <Sx>= 0.0000 <Sy>= 0.0000 <Sz>= 1.0000 <S**2>= 2.0000 S= 1.0000
 Leave Link  401 at Mon Mar 28 14:06:02 2022, MaxMem=  9663676416 cpu:               4.4 elap:               0.1
 (Enter /nopt/nrel/apps/gaussian/g16C_1/g16/l502.exe)
 Keep R1 and R2 ints in memory in symmetry-blocked form, NReq=7210395.
 FoFCou: FMM=F IPFlag=           0 FMFlag=           0 FMFlg1=           0
         NFxFlg=           0 DoJE=F BraDBF=F KetDBF=F FulRan=T
         wScrn=  0.000000 ICntrl=       600 IOpCl=  0 I1Cent=           0 NGrid=           0
         NMat0=    1 NMatS0=     55 NMatT0=    0 NMatD0=    1 NMtDS0=    0 NMtDT0=    0
 Petite list used in FoFCou.
 UHF open shell SCF:
 Using DIIS extrapolation, IDIIS=  1040.
 NGot=  9663676416 LenX=  9663672766 LenY=  9663671884
 Requested convergence on RMS density matrix=1.00D-08 within 128 cycles.
 Requested convergence on MAX density matrix=1.00D-06.
 Requested convergence on             energy=1.00D-06.
 No special actions if energy rises.

 Cycle   1  Pass 1  IDiag  1:
 E= -7.88051556552635    
 DIIS: error= 3.31D-02 at cycle   1 NSaved=   1.
 NSaved= 1 IEnMin= 1 EnMin= -7.88051556552635     IErMin= 1 ErrMin= 3.31D-02
 ErrMax= 3.31D-02  0.00D+00 EMaxC= 1.00D-01 BMatC= 1.88D-02 BMatP= 1.88D-02
 IDIUse=3 WtCom= 6.69D-01 WtEn= 3.31D-01
 Coeff-Com:  0.100D+01
 Coeff-En:   0.100D+01
 Coeff:      0.100D+01
 Gap=     0.232 Goal=   None    Shift=    0.000
 Gap=     2.504 Goal=   None    Shift=    0.000
 GapD=    0.232 DampG=1.000 DampE=0.500 DampFc=0.5000 IDamp=-1.
 Damping current iteration by 5.00D-01
 RMSDP=1.58D-02 MaxDP=1.59D-01              OVMax= 1.36D-02

 Cycle   2  Pass 1  IDiag  1:
 E= -7.88793517930917     Delta-E=       -0.007419613783 Rises=F Damp=T
 DIIS: error= 2.21D-02 at cycle   2 NSaved=   2.
 NSaved= 2 IEnMin= 2 EnMin= -7.88793517930917     IErMin= 2 ErrMin= 2.21D-02
 ErrMax= 2.21D-02  0.00D+00 EMaxC= 1.00D-01 BMatC= 7.83D-03 BMatP= 1.88D-02
 IDIUse=3 WtCom= 7.79D-01 WtEn= 2.21D-01
 Coeff-Com: -0.173D+01 0.273D+01
 Coeff-En:   0.000D+00 0.100D+01
 Coeff:     -0.135D+01 0.235D+01
 Gap=     0.223 Goal=   None    Shift=    0.000
 Gap=     2.473 Goal=   None    Shift=    0.000
 RMSDP=1.40D-02 MaxDP=1.38D-01 DE=-7.42D-03 OVMax= 2.53D-03

 Cycle   3  Pass 1  IDiag  1:
 E= -7.89951110072085     Delta-E=       -0.011575921412 Rises=F Damp=F
 DIIS: error= 2.47D-03 at cycle   3 NSaved=   3.
 NSaved= 3 IEnMin= 3 EnMin= -7.89951110072085     IErMin= 3 ErrMin= 2.47D-03
 ErrMax= 2.47D-03  0.00D+00 EMaxC= 1.00D-01 BMatC= 9.43D-05 BMatP= 7.83D-03
 IDIUse=3 WtCom= 9.75D-01 WtEn= 2.47D-02
 Coeff-Com:  0.626D+00-0.111D+01 0.148D+01
 Coeff-En:   0.000D+00 0.000D+00 0.100D+01
 Coeff:      0.611D+00-0.108D+01 0.147D+01
 Gap=     0.224 Goal=   None    Shift=    0.000
 Gap=     2.471 Goal=   None    Shift=    0.000
 RMSDP=2.07D-03 MaxDP=1.69D-02 DE=-1.16D-02 OVMax= 9.43D-05

 Cycle   4  Pass 1  IDiag  1:
 E= -7.89964227921083     Delta-E=       -0.000131178490 Rises=F Damp=F
 DIIS: error= 2.08D-04 at cycle   4 NSaved=   4.
 NSaved= 4 IEnMin= 4 EnMin= -7.89964227921083     IErMin= 4 ErrMin= 2.08D-04
 ErrMax= 2.08D-04  0.00D+00 EMaxC= 1.00D-01 BMatC= 9.28D-07 BMatP= 9.43D-05
 IDIUse=3 WtCom= 9.98D-01 WtEn= 2.08D-03
 Coeff-Com: -0.261D+00 0.465D+00-0.675D+00 0.147D+01
 Coeff-En:   0.000D+00 0.000D+00 0.000D+00 0.100D+01
 Coeff:     -0.260D+00 0.464D+00-0.674D+00 0.147D+01
 Gap=     0.224 Goal=   None    Shift=    0.000
 Gap=     2.471 Goal=   None    Shift=    0.000
 RMSDP=3.80D-04 MaxDP=2.62D-03 DE=-1.31D-04 OVMax= 4.93D-05

 Cycle   5  Pass 1  IDiag  1:
 E= -7.89964545752857     Delta-E=       -0.000003178318 Rises=F Damp=F
 DIIS: error= 8.80D-05 at cycle   5 NSaved=   5.
 NSaved= 5 IEnMin= 5 EnMin= -7.89964545752857     IErMin= 5 ErrMin= 8.80D-05
 ErrMax= 8.80D-05  0.00D+00 EMaxC= 1.00D-01 BMatC= 1.58D-07 BMatP= 9.28D-07
 IDIUse=1 WtCom= 1.00D+00 WtEn= 0.00D+00
 Coeff-Com:  0.150D+00-0.268D+00 0.391D+00-0.110D+01 0.182D+01
 Coeff:      0.150D+00-0.268D+00 0.391D+00-0.110D+01 0.182D+01
 Gap=     0.224 Goal=   None    Shift=    0.000
 Gap=     2.471 Goal=   None    Shift=    0.000
 RMSDP=1.87D-04 MaxDP=1.19D-03 DE=-3.18D-06 OVMax= 2.63D-05

 Cycle   6  Pass 1  IDiag  1:
 E= -7.89964612506503     Delta-E=       -0.000000667536 Rises=F Damp=F
 DIIS: error= 2.01D-05 at cycle   6 NSaved=   6.
 NSaved= 6 IEnMin= 6 EnMin= -7.89964612506503     IErMin= 6 ErrMin= 2.01D-05
 ErrMax= 2.01D-05  0.00D+00 EMaxC= 1.00D-01 BMatC= 1.21D-08 BMatP= 1.58D-07
 IDIUse=1 WtCom= 1.00D+00 WtEn= 0.00D+00
 Coeff-Com: -0.596D-01 0.106D+00-0.158D+00 0.526D+00-0.126D+01 0.184D+01
 Coeff:     -0.596D-01 0.106D+00-0.158D+00 0.526D+00-0.126D+01 0.184D+01
 Gap=     0.224 Goal=   None    Shift=    0.000
 Gap=     2.471 Goal=   None    Shift=    0.000
 RMSDP=6.57D-05 MaxDP=4.37D-04 DE=-6.68D-07 OVMax= 1.15D-05

 Cycle   7  Pass 1  IDiag  1:
 E= -7.89964617115612     Delta-E=       -0.000000046091 Rises=F Damp=F
 DIIS: error= 3.32D-06 at cycle   7 NSaved=   7.
 NSaved= 7 IEnMin= 7 EnMin= -7.89964617115612     IErMin= 7 ErrMin= 3.32D-06
 ErrMax= 3.32D-06  0.00D+00 EMaxC= 1.00D-01 BMatC= 4.17D-10 BMatP= 1.21D-08
 IDIUse=1 WtCom= 1.00D+00 WtEn= 0.00D+00
 Coeff-Com:  0.714D-02-0.128D-01 0.193D-01-0.577D-01 0.229D+00-0.435D+00
 Coeff-Com:  0.125D+01
 Coeff:      0.714D-02-0.128D-01 0.193D-01-0.577D-01 0.229D+00-0.435D+00
 Coeff:      0.125D+01
 Gap=     0.224 Goal=   None    Shift=    0.000
 Gap=     2.471 Goal=   None    Shift=    0.000
 RMSDP=1.41D-05 MaxDP=1.07D-04 DE=-4.61D-08 OVMax= 7.23D-07

 Cycle   8  Pass 1  IDiag  1:
 E= -7.89964617243904     Delta-E=       -0.000000001283 Rises=F Damp=F
 DIIS: error= 4.91D-07 at cycle   8 NSaved=   8.
 NSaved= 8 IEnMin= 8 EnMin= -7.89964617243904     IErMin= 8 ErrMin= 4.91D-07
 ErrMax= 4.91D-07  0.00D+00 EMaxC= 1.00D-01 BMatC= 9.32D-12 BMatP= 4.17D-10
 IDIUse=1 WtCom= 1.00D+00 WtEn= 0.00D+00
 Coeff-Com: -0.913D-04 0.184D-03-0.369D-03-0.837D-03-0.335D-01 0.739D-01
 Coeff-Com: -0.378D+00 0.134D+01
 Coeff:     -0.913D-04 0.184D-03-0.369D-03-0.837D-03-0.335D-01 0.739D-01
 Coeff:     -0.378D+00 0.134D+01
 Gap=     0.224 Goal=   None    Shift=    0.000
 Gap=     2.471 Goal=   None    Shift=    0.000
 RMSDP=1.61D-06 MaxDP=9.34D-06 DE=-1.28D-09 OVMax= 2.31D-07

 Cycle   9  Pass 1  IDiag  1:
 E= -7.89964617246727     Delta-E=       -0.000000000028 Rises=F Damp=F
 DIIS: error= 1.01D-08 at cycle   9 NSaved=   9.
 NSaved= 9 IEnMin= 9 EnMin= -7.89964617246727     IErMin= 9 ErrMin= 1.01D-08
 ErrMax= 1.01D-08  0.00D+00 EMaxC= 1.00D-01 BMatC= 2.88D-15 BMatP= 9.32D-12
 IDIUse=1 WtCom= 1.00D+00 WtEn= 0.00D+00
 Coeff-Com:  0.327D-04-0.608D-04 0.992D-04-0.399D-04 0.414D-02-0.861D-02
 Coeff-Com:  0.429D-01-0.155D+00 0.112D+01
 Coeff:      0.327D-04-0.608D-04 0.992D-04-0.399D-04 0.414D-02-0.861D-02
 Coeff:      0.429D-01-0.155D+00 0.112D+01
 Gap=     0.224 Goal=   None    Shift=    0.000
 Gap=     2.471 Goal=   None    Shift=    0.000
 RMSDP=3.59D-08 MaxDP=3.00D-07 DE=-2.82D-11 OVMax= 3.21D-09

 Cycle  10  Pass 1  IDiag  1:
 E= -7.89964617246727     Delta-E=       -0.000000000000 Rises=F Damp=F
 DIIS: error= 3.37D-09 at cycle  10 NSaved=  10.
 NSaved=10 IEnMin=10 EnMin= -7.89964617246727     IErMin=10 ErrMin= 3.37D-09
 ErrMax= 3.37D-09  0.00D+00 EMaxC= 1.00D-01 BMatC= 2.66D-16 BMatP= 2.88D-15
 IDIUse=1 WtCom= 1.00D+00 WtEn= 0.00D+00
 Coeff-Com:  0.586D-05-0.101D-04 0.135D-04-0.961D-04-0.509D-03 0.112D-02
 Coeff-Com: -0.700D-02 0.278D-01-0.394D+00 0.137D+01
 Coeff:      0.586D-05-0.101D-04 0.135D-04-0.961D-04-0.509D-03 0.112D-02
 Coeff:     -0.700D-02 0.278D-01-0.394D+00 0.137D+01
 Gap=     0.224 Goal=   None    Shift=    0.000
 Gap=     2.471 Goal=   None    Shift=    0.000
 RMSDP=6.62D-09 MaxDP=4.44D-08 DE=-1.78D-15 OVMax= 1.17D-09

 SCF Done:  E(UHF) =  -7.89964617247     A.U. after   10 cycles
            NFock= 10  Conv=0.66D-08     -V/T= 1.9714
 <Sx>= 0.0000 <Sy>= 0.0000 <Sz>= 1.0000 <S**2>= 2.0000 S= 1.0000
 <L.S>= 0.000000000000E+00
 KE= 8.132011238663D+00 PE=-1.939958512219D+01 EE= 2.820503010110D+00
 Annihilation of the first spin contaminant:
 S**2 before annihilation     2.0000,   after     2.0000
 Leave Link  502 at Mon Mar 28 14:06:02 2022, MaxMem=  9663676416 cpu:               4.3 elap:               0.2
 (Enter /nopt/nrel/apps/gaussian/g16C_1/g16/l801.exe)
 Windowed orbitals will be sorted by symmetry type.
 ExpMin= 3.60D-02 ExpMax= 6.42D+02 ExpMxC= 9.68D+01 IAcc=3 IRadAn=         5 AccDes= 0.00D+00
 HarFok:  IExCor=  205 AccDes= 0.00D+00 IRadAn=         5 IDoV=-2 UseB2=F ITyADJ=14
 ICtDFT= 12500011 ScaDFX=  1.000000  1.000000  1.000000  1.000000
 Largest valence mixing into a core orbital is  3.97D-04
 Largest core mixing into a valence orbital is  2.58D-04
 Range of M.O.s used for correlation:     2    10
 NBasis=    10 NAE=     3 NBE=     1 NFC=     1 NFV=     0
 NROrb=      9 NOA=     2 NOB=     0 NVA=     7 NVB=     9
 Leave Link  801 at Mon Mar 28 14:06:02 2022, MaxMem=  9663676416 cpu:               2.2 elap:               0.1
 (Enter /nopt/nrel/apps/gaussian/g16C_1/g16/l804.exe)
 Open-shell transformation, MDV=  9663676416 ITran=4 ISComp=2.
 Unit  1 TFree=          7995 TCopy=        115854.
 Semi-Direct transformation.
 ModeAB=           2 MOrb=             2 LenV=    9663554555
 LASXX=          158 LTotXX=         158 LenRXX=         158
 LTotAB=         269 MaxLAS=         990 LenRXY=         990
 NonZer=        1206 LenScr=      785920 LnRSAI=           0
 LnScr1=           0 LExtra=      219242 Total=      1006310
 MaxDsk= 34359738368 SrtSym=           F ITran=            4
 DoSDTr:  NPSUse= 36
 JobTyp=1 Pass  1:  I=   1 to   2.
 (rs|ai) integrals will be sorted in core.
 Complete sort for first half transformation.
 First half transformation complete.
 Complete sort for second half transformation.
 Second half transformation complete.
 Spin components of T(2) and E(2):
     alpha-alpha T2 =       0.3560436044D-04 E2=     -0.3587436994D-04
     alpha-beta  T2 =       0.0000000000D+00 E2=      0.0000000000D+00
     beta-beta   T2 =       0.0000000000D+00 E2=      0.0000000000D+00
 ANorm=    0.1000017802D+01
 E2 =    -0.3587436994D-04 EUMP2 =    -0.78996820468372D+01
 Leave Link  804 at Mon Mar 28 14:06:02 2022, MaxMem=  9663676416 cpu:               2.1 elap:               0.1
 (Enter /nopt/nrel/apps/gaussian/g16C_1/g16/l913.exe)
 CIDS:  MDV=  9663676416.
 Frozen-core window:  NFC=   1 NFV=   0.
 IFCWin=0 IBDFC=1 NFBD=     0     0 NFCmp=     0     0 NFFFC=     0     0
 Using original routines for 1st iteration.
 Using DD4UQ or CC4UQ for 2nd and later iterations.
 Keep R2 and R3 ints in memory in symmetry-blocked form, NReq=7212789.
 FoFCou: FMM=F IPFlag=           0 FMFlag=           0 FMFlg1=           0
         NFxFlg=           0 DoJE=F BraDBF=F KetDBF=F FulRan=T
         wScrn=  0.000000 ICntrl=       600 IOpCl=  0 I1Cent=           0 NGrid=           0
         NMat0=    1 NMatS0=     55 NMatT0=    0 NMatD0=    1 NMtDS0=    0 NMtDT0=    0
 Petite list used in FoFCou.
 CIDS: In Core Option IDoMem=           1.
 Coupled Cluster theory with single and double substitutions
 ===========================================================
 Iterations= 200 Convergence= 0.100D-06
 Produce multiple copies of IABC intergrals
 Iteration Nr.   1
 **********************
 DD1Dir will call FoFMem   1 times, MxPair=         2
 NAB=     0 NAA=     1 NBB=     0.
 MP4(R+Q)=  0.12772840D-08
 Maximum subspace dimension=  5
 A-vector RMS=  6.0875664D-04 Max=  1.5088570D-03 conv= 1.00D-05.
 RLE energy=       -0.0000575917
 E3=       -0.13529015D-04        EUMP3=      -0.78996955759D+01
 E4(DQ)=   -0.51513474D-05        UMP4(DQ)=   -0.78997007272D+01
 E4(SDQ)=  -0.52628812D-05        UMP4(SDQ)=  -0.78997008387D+01
 VARIATIONAL ENERGIES WITH THE FIRST-ORDER WAVEFUNCTION:
 DE(Corr)= -0.49402270E-04 E(Corr)=     -7.8996955747    
 NORM(A)=   0.10000463D+01
 Iteration Nr.   2
 **********************
 DD1Dir will call FoFMem   1 times, MxPair=         2
 NAB=     0 NAA=     1 NBB=     0.
 A-vector RMS=  8.2646817D-05 Max=  1.3177845D-04 conv= 1.00D-05.
 RLE energy=       -0.0000581767
 DE(Corr)= -0.57850572E-04 E(CORR)=     -7.8997040230     Delta=-8.45D-06
 NORM(A)=   0.10000476D+01
 Iteration Nr.   3
 **********************
 DD1Dir will call FoFMem   1 times, MxPair=         2
 NAB=     0 NAA=     1 NBB=     0.
 A-vector RMS=  1.6186167D-05 Max=  3.0526759D-05 conv= 1.00D-05.
 RLE energy=       -0.0000581985
 DE(Corr)= -0.58177174E-04 E(CORR)=     -7.8997043496     Delta=-3.27D-07
 NORM(A)=   0.10000477D+01
 Iteration Nr.   4
 **********************
 DD1Dir will call FoFMem   1 times, MxPair=         2
 NAB=     0 NAA=     1 NBB=     0.
 A-vector RMS=  2.9702457D-06 Max=  5.6282761D-06 conv= 1.00D-05.
 RLE energy=       -0.0000581984
 DE(Corr)= -0.58198398E-04 E(CORR)=     -7.8997043709     Delta=-2.12D-08
 NORM(A)=   0.10000477D+01
 CI/CC converged in    4 iterations to DelEn=-2.12D-08 Conv= 1.00D-07 ErrA1= 2.97D-06 Conv= 1.00D-05
 Wavefunction amplitudes converged. E(Corr)=     -7.8997043709    
 Largest amplitude= 6.26D-03
 Discarding MO integrals.
 Leave Link  913 at Mon Mar 28 14:06:02 2022, MaxMem=  9663676416 cpu:               3.3 elap:               0.1
 (Enter /nopt/nrel/apps/gaussian/g16C_1/g16/l601.exe)
 Copying SCF densities to generalized density rwf, IOpCl= 1 IROHF=0.

 **********************************************************************

            Population analysis using the SCF Density.

 **********************************************************************

 Orbital symmetries:
 Alpha Orbitals:
       Occupied  (SG) (SG) (SG)
       Virtual   (PI) (PI) (SG) (SG) (PI) (PI) (SG)
 Beta  Orbitals:
       Occupied  (SG)
       Virtual   (SG) (SG) (PI) (PI) (SG) (PI) (PI) (SG) (SG)
 The electronic state is 3-SG.
 Alpha  occ. eigenvalues --   -2.47428  -0.50850  -0.18579
 Alpha virt. eigenvalues --    0.03822   0.03822   0.09112   0.19867   0.20697
 Alpha virt. eigenvalues --    0.20697   0.20811
  Beta  occ. eigenvalues --   -2.45800
  Beta virt. eigenvalues --    0.01274   0.06940   0.07212   0.07212   0.21990
  Beta virt. eigenvalues --    0.23491   0.23491   0.24886   0.34900
          Condensed to atoms (all electrons):
               1          2
     1  H    0.871162   0.047144
     2  Li   0.047144   3.034550
          Atomic-Atomic Spin Densities.
               1          2
     1  H    0.871162   0.047146
     2  Li   0.047146   1.034547
 Mulliken charges and spin densities:
               1          2
     1  H    0.081694   0.918307
     2  Li  -0.081694   1.081693
 Sum of Mulliken charges =   0.00000   2.00000
 Mulliken charges and spin densities with hydrogens summed into heavy atoms:
               1          2
     2  Li   0.000000   2.000000
 N-N= 5.474247009517D-01 E-N=-1.939958512984D+01  KE= 8.132011238663D+00
 Symmetry A1   KE= 8.132011238663D+00
 Symmetry A2   KE= 0.000000000000D+00
 Symmetry B1   KE= 0.000000000000D+00
 Symmetry B2   KE= 0.000000000000D+00
 Symmetry A1   SP= 2.000000000000D+00
 Symmetry A2   SP= 0.000000000000D+00
 Symmetry B1   SP= 0.000000000000D+00
 Symmetry B2   SP= 0.000000000000D+00

 Atomic contributions to Alpha molecular orbitals:
 Alpha occ 1 OE=-2.474 is Li2-s=1.0000
 Alpha occ 2 OE=-0.508 is H1-s=0.9039
 Alpha occ 3 OE=-0.186 is Li2-s=0.9271
 Alpha vir 4 OE=0.038 is Li2-p=1.0000
 Alpha vir 5 OE=0.038 is Li2-p=1.0000
 Alpha vir 6 OE=0.091 is Li2-p=0.8750
 Alpha vir 7 OE=0.199 is Li2-p=0.6716 Li2-s=0.3206
 Alpha vir 8 OE=0.207 is Li2-p=1.0000
 Alpha vir 9 OE=0.207 is Li2-p=1.0000
 Alpha vir 10 OE=0.208 is Li2-s=0.6584 Li2-p=0.3368

 Atomic contributions to Beta  molecular orbitals:
 Beta  occ 1 OE=-2.458 is Li2-s=1.0000
 Beta  vir 2 OE=0.013 is Li2-s=0.6822 Li2-p=0.2302
 Beta  vir 3 OE=0.069 is Li2-p=0.6694 Li2-s=0.2941
 Beta  vir 4 OE=0.072 is Li2-p=1.0000
 Beta  vir 5 OE=0.072 is Li2-p=1.0000
 Beta  vir 6 OE=0.220 is Li2-p=0.5172 Li2-s=0.4746
 Beta  vir 7 OE=0.235 is Li2-p=1.0000
 Beta  vir 8 OE=0.235 is Li2-p=1.0000
 Beta  vir 9 OE=0.249 is Li2-p=0.4865 Li2-s=0.4832
 Beta  vir 10 OE=0.349 is H1-s=0.8374
 
 Leave Link  601 at Mon Mar 28 14:06:02 2022, MaxMem=  9663676416 cpu:               1.0 elap:               0.1
 (Enter /nopt/nrel/apps/gaussian/g16C_1/g16/l9999.exe)

 Test job not archived.
 1\1\GINC-R102U34\SP\UCCSD-FC\Gen\H1Li1(3)\USER\28-Mar-2022\0\\#P C
 CSD(MaxCyc=200,SaveAmplitudes,ReadAmplitudes)/GEN sp pop=AllOrbitals i
 op(3/33=1,3/36=-1)\\test\\0,3\H,0,0.,0.,0.\Li,0,0.,0.,2.9\\Version=ES6
 4L-G16RevC.01\State=3-SG\HF=-7.8996462\MP2=-7.899682\MP3=-7.8996956\MP
 4D=-7.8997007\MP4DQ=-7.8997007\MP4SDQ=-7.8997008\CCSD=-7.8997044\S2=2.
 000001\S2-1=0.\S2A=2.\RMSD=6.617e-09\PG=C*V [C*(H1Li1)]\\@


 ONE BIG VICE IN A MAN IS APT TO KEEP OUT MANY SMALLER ONES.

                           -- BRET HARTE
 Job cpu time:       0 days  0 hours  0 minutes 31.6 seconds.
 Elapsed time:       0 days  0 hours  0 minutes  1.2 seconds.
 File lengths (MBytes):  RWF=     13 Int=      0 D2E=      0 Chk=      1 Scr=      1
 Normal termination of Gaussian 16 at Mon Mar 28 14:06:02 2022.
