 Entering Gaussian System, Link 0=g16
 Initial command:
 /nopt/nrel/apps/gaussian/g16C_1/g16/l1.exe "/lustre/eaglefs/scratch/user/qc/lih-dissc/lih-1-ccsd-0.5-augccq/Gau-33898.inp" -scrdir="/lustre/eaglefs/scratch/user/qc/lih-dissc/lih-1-ccsd-0.5-augccq/"
 Default is to use a total of  36 processors:
                               36 via shared-memory
                                1 via Linda
 Entering Link 1 = /nopt/nrel/apps/gaussian/g16C_1/g16/l1.exe PID=     33899.
  
 Copyright (c) 1988-2019, Gaussian, Inc.  All Rights Reserved.
  
 This is part of the Gaussian(R) 16 program.  It is based on
 the Gaussian(R) 09 system (copyright 2009, Gaussian, Inc.),
 the Gaussian(R) 03 system (copyright 2003, Gaussian, Inc.),
 the Gaussian(R) 98 system (copyright 1998, Gaussian, Inc.),
 the Gaussian(R) 94 system (copyright 1995, Gaussian, Inc.),
 the Gaussian 92(TM) system (copyright 1992, Gaussian, Inc.),
 the Gaussian 90(TM) system (copyright 1990, Gaussian, Inc.),
 the Gaussian 88(TM) system (copyright 1988, Gaussian, Inc.),
 the Gaussian 86(TM) system (copyright 1986, Carnegie Mellon
 University), and the Gaussian 82(TM) system (copyright 1983,
 Carnegie Mellon University). Gaussian is a federally registered
 trademark of Gaussian, Inc.
  
 This software contains proprietary and confidential information,
 including trade secrets, belonging to Gaussian, Inc.
  
 This software is provided under written license and may be
 used, copied, transmitted, or stored only in accord with that
 written license.
  
 The following legend is applicable only to US Government
 contracts under FAR:
  
                    RESTRICTED RIGHTS LEGEND
  
 Use, reproduction and disclosure by the US Government is
 subject to restrictions as set forth in subparagraphs (a)
 and (c) of the Commercial Computer Software - Restricted
 Rights clause in FAR 52.227-19.
  
 Gaussian, Inc.
 340 Quinnipiac St., Bldg. 40, Wallingford CT 06492
  
  
 ---------------------------------------------------------------
 Warning -- This program may not be used in any manner that
 competes with the business of Gaussian, Inc. or will provide
 assistance to any competitor of Gaussian, Inc.  The licensee
 of this program is prohibited from giving any competitor of
 Gaussian, Inc. access to this program.  By using this program,
 the user acknowledges that Gaussian, Inc. is engaged in the
 business of creating and licensing software in the field of
 computational chemistry and represents and warrants to the
 licensee that it is not a competitor of Gaussian, Inc. and that
 it will not use this program in any manner prohibited above.
 ---------------------------------------------------------------
  

 Cite this work as:
 Gaussian 16, Revision C.01,
 M. J. Frisch, G. W. Trucks, H. B. Schlegel, G. E. Scuseria, 
 M. A. Robb, J. R. Cheeseman, G. Scalmani, V. Barone, 
 G. A. Petersson, H. Nakatsuji, X. Li, M. Caricato, A. V. Marenich, 
 J. Bloino, B. G. Janesko, R. Gomperts, B. Mennucci, H. P. Hratchian, 
 J. V. Ortiz, A. F. Izmaylov, J. L. Sonnenberg, D. Williams-Young, 
 F. Ding, F. Lipparini, F. Egidi, J. Goings, B. Peng, A. Petrone, 
 T. Henderson, D. Ranasinghe, V. G. Zakrzewski, J. Gao, N. Rega, 
 G. Zheng, W. Liang, M. Hada, M. Ehara, K. Toyota, R. Fukuda, 
 J. Hasegawa, M. Ishida, T. Nakajima, Y. Honda, O. Kitao, H. Nakai, 
 T. Vreven, K. Throssell, J. A. Montgomery, Jr., J. E. Peralta, 
 F. Ogliaro, M. J. Bearpark, J. J. Heyd, E. N. Brothers, K. N. Kudin, 
 V. N. Staroverov, T. A. Keith, R. Kobayashi, J. Normand, 
 K. Raghavachari, A. P. Rendell, J. C. Burant, S. S. Iyengar, 
 J. Tomasi, M. Cossi, J. M. Millam, M. Klene, C. Adamo, R. Cammi, 
 J. W. Ochterski, R. L. Martin, K. Morokuma, O. Farkas, 
 J. B. Foresman, and D. J. Fox, Gaussian, Inc., Wallingford CT, 2019.
 
 ******************************************
 Gaussian 16:  ES64L-G16RevC.01  3-Jul-2019
                28-Mar-2022 
 ******************************************
 %chk=molecule
 Default route: CacheSize=180224 MaxDisk=256GB
 ----------------------------------------------------------------------
 #P CCSD(MaxCyc=200,SaveAmplitudes,ReadAmplitudes)/GEN sp pop=AllOrbita
 ls iop(3/33=1,3/36=-1)
 ----------------------------------------------------------------------
 1/4=180224,38=1,172=1/1;
 2/4=180224,12=2,17=6,18=5,40=1/2;
 3/4=180224,5=7,11=9,25=1,30=1,33=1,36=-1/1,2,3;
 4/4=180224/1;
 5/4=180224,5=2,38=5/2;
 8/4=180224,6=4,9=120000,10=1,24=1/1,4;
 9/4=180224,5=7,6=200,77=1/13;
 6/4=180224,7=2,8=2,9=2,10=2,96=-1/1;
 99/4=180224,5=1,9=1/99;
 Leave Link    1 at Mon Mar 28 14:02:09 2022, MaxMem=           0 cpu:               2.1 elap:               0.1
 (Enter /nopt/nrel/apps/gaussian/g16C_1/g16/l101.exe)
 ----
 test
 ----
 Symbolic Z-matrix:
 Charge =  0 Multiplicity = 1
 H                     0.        0.        0. 
 Li                    0.        0.        0.5 
 
 ITRead=  0  0
 MicOpt= -1 -1
 NAtoms=      2 NQM=        2 NQMF=       0 NMMI=      0 NMMIF=      0
                NMic=       0 NMicF=      0.
                    Isotopes and Nuclear Properties:
 (Nuclear quadrupole moments (NQMom) in fm**2, nuclear magnetic moments (NMagM)
  in nuclear magnetons)

  Atom         1           2
 IAtWgt=           1           7
 AtmWgt=   1.0078250   7.0160045
 NucSpn=           1           3
 AtZEff=  -0.0000000  -0.0000000
 NQMom=    0.0000000  -4.0100000
 NMagM=    2.7928460   3.2564240
 AtZNuc=   1.0000000   3.0000000
 Leave Link  101 at Mon Mar 28 14:02:09 2022, MaxMem=  9663676416 cpu:               3.4 elap:               0.1
 (Enter /nopt/nrel/apps/gaussian/g16C_1/g16/l202.exe)
                          Input orientation:                          
 ---------------------------------------------------------------------
 Center     Atomic      Atomic             Coordinates (Angstroms)
 Number     Number       Type             X           Y           Z
 ---------------------------------------------------------------------
      1          1           0        0.000000    0.000000    0.000000
      2          3           0        0.000000    0.000000    0.500000
 ---------------------------------------------------------------------
 Stoichiometry    HLi
 Framework group  C*V[C*(HLi)]
 Deg. of freedom     1
 Full point group                 C*V     NOp   4
 Largest Abelian subgroup         C2V     NOp   4
 Largest concise Abelian subgroup C1      NOp   1
                         Standard orientation:                         
 ---------------------------------------------------------------------
 Center     Atomic      Atomic             Coordinates (Angstroms)
 Number     Number       Type             X           Y           Z
 ---------------------------------------------------------------------
      1          1           0        0.000000    0.000000   -0.375000
      2          3           0        0.000000    0.000000    0.125000
 ---------------------------------------------------------------------
 Rotational constants (GHZ):           0.0000000        2293.9496568        2293.9496568
 Leave Link  202 at Mon Mar 28 14:02:09 2022, MaxMem=  9663676416 cpu:               1.2 elap:               0.1
 (Enter /nopt/nrel/apps/gaussian/g16C_1/g16/l301.exe)
 General basis read from cards:  (5D, 7F)
                         Coordinates in L301:                         
 ---------------------------------------------------------------------
 Center     Atomic      Atomic             Coordinates (Angstroms)
 Number     Number       Type             X           Y           Z
 ---------------------------------------------------------------------
      1          1           0        0.000000    0.000000   -0.375000
      2          3           0        0.000000    0.000000    0.125000
 ---------------------------------------------------------------------
 Centers:       1
 STO-3G
 ****
 Centers:       2
 aug-cc-pVQZ
 ****
 FixB: optimizing general contractions.
 Ernie: Thresh=  0.10000D-02 Tol=  0.10000D-05 Strict=F.
 IA=     1 ShT= 0 ShC= 0 NL=   1 NS=   0.
 IA=     1 L=0 SC=0 ISt=    0 NBk=    0 NP=    0 IndPr=    0.
 IA=     2 ShT= 0 ShC= 0 NL=   6 NS=   4.
 IA=     2 L=0 SC=0 ISt=    1 NBk=    2 NP=    9 IndPr=    0.
 DoElim1:  L=0 select primitive    3 from    2 using    1 C= 4.73D-03
 DoElim2:  L=0 select primitive    9 from    1 using    2 C=-9.02D-02
 Delete L=0 primitive    3 from    2 C=  2.13D-20.
 Delete L=0 primitive    2 from    2 C=  7.77D-07.
 Delete L=0 primitive    1 from    2 C=  3.37D-07.
 Delete L=0 primitive    9 from    1 C=  1.56D-17.
 IA=     2 L=0 SC=0 ISt=    0 NBk=    0 NP=    0 IndPr=   14.
 IA=     2 ShT= 1 ShC= 1 NL=   5 NS=   4.
 IA=     2 L=1 SC=1 ISt=    0 NBk=    0 NP=    0 IndPr=    0.
 IA=     2 ShT= 2 ShC= 2 NL=   4 NS=   4.
 IA=     2 L=2 SC=2 ISt=    0 NBk=    0 NP=    0 IndPr=    0.
 IA=     2 ShT= 3 ShC= 3 NL=   3 NS=   3.
 IA=     2 L=3 SC=3 ISt=    0 NBk=    0 NP=    0 IndPr=    0.
 IA=     2 ShT= 4 ShC= 4 NL=   2 NS=   2.
 IA=     2 L=4 SC=4 ISt=    0 NBk=    0 NP=    0 IndPr=    0.
 Ernie:  4 primitive shells out of 41 were deleted.
 LdAtmC:  AtmChg=     1.000000     3.000000
 AtZEff=     -1.0000000     -1.3500000
 NEqShl: 
              1            2            3            4
     1            1            1            1            1
     2            2            2            2            2
     3            3            3            3            3
     4            4            4            4            4
     5            5            5            5            5
     6            6            6            6            6
     7            7            7            7            7
     8            8            8            8            8
     9            9            9            9            9
    10           10           10           10           10
    11           11           11           11           11
    12           12           12           12           12
    13           13           13           13           13
    14           14           14           14           14
    15           15           15           15           15
    16           16           16           16           16
    17           17           17           17           17
    18           18           18           18           18
    19           19           19           19           19
    20           20           20           20           20
    21           21           21           21           21
 NEqBas: 
              1            2            3            4
     1            1            1            1            1
     2            2            2            2            2
     3            3            3            3            3
     4            4            4            4            4
     5            5            5            5            5
     6            6            6            6            6
     7            7            7            7            7
     8            8           -8           -8            8
     9            9           -9            9           -9
    10           10           10           10           10
    11           11          -11          -11           11
    12           12          -12           12          -12
    13           13           13           13           13
    14           14          -14          -14           14
    15           15          -15           15          -15
    16           16           16           16           16
    17           17          -17          -17           17
    18           18          -18           18          -18
    19           19           19           19           19
    20           20          -20          -20           20
    21           21          -21           21          -21
    22           22           22           22           22
    23           23           23           23           23
    24           24           24           24           24
    25           25           25           25           25
    26           26           26          -26          -26
    27           27          -27          -27           27
    28           28          -28           28          -28
    29           29           29           29           29
    30           30           30           30           30
    31           31           31           31           31
    32           32           32          -32          -32
    33           33          -33          -33           33
    34           34          -34           34          -34
    35           35           35           35           35
    36           36           36           36           36
    37           37           37           37           37
    38           38           38          -38          -38
    39           39          -39          -39           39
    40           40          -40           40          -40
    41           41           41           41           41
    42           42           42           42           42
    43           43           43           43           43
    44           44           44          -44          -44
    45           45          -45          -45           45
    46           46          -46           46          -46
    47           47          -47          -47           47
    48           48          -48           48          -48
    49           49           49           49           49
    50           50          -50          -50           50
    51           51          -51           51          -51
    52           52           52           52           52
    53           53          -53          -53           53
    54           54          -54           54          -54
    55           55           55           55           55
    56           56           56          -56          -56
    57           57          -57          -57           57
    58           58          -58           58          -58
    59           59           59           59           59
    60           60          -60          -60           60
    61           61          -61           61          -61
    62           62           62           62           62
    63           63          -63          -63           63
    64           64          -64           64          -64
    65           65           65           65           65
    66           66           66          -66          -66
    67           67          -67          -67           67
    68           68          -68           68          -68
    69           69           69           69           69
    70           70          -70          -70           70
    71           71          -71           71          -71
    72           72           72           72           72
    73           73          -73          -73           73
    74           74          -74           74          -74
    75           75           75           75           75
    76           76           76          -76          -76
    77           77           77           77           77
    78           78          -78           78          -78
    79           79           79           79           79
    80           80          -80           80          -80
    81           81           81           81           81
    82           82          -82          -82           82
    83           83           83          -83          -83
    84           84          -84          -84           84
    85           85           85          -85          -85
    86           86           86           86           86
    87           87          -87           87          -87
    88           88           88           88           88
    89           89          -89          -89           89
    90           90           90          -90          -90
    91           91           91           91           91
    92           92           92           92           92
    93           93          -93           93          -93
    94           94           94           94           94
    95           95          -95           95          -95
    96           96           96           96           96
    97           97          -97          -97           97
    98           98           98          -98          -98
    99           99          -99          -99           99
   100          100          100         -100         -100
   101          101          101          101          101
   102          102         -102          102         -102
   103          103          103          103          103
   104          104         -104         -104          104
   105          105          105         -105         -105
   106          106          106          106          106
 There are    45 symmetry adapted cartesian basis functions of A1  symmetry.
   1         1   1   1   1
   2         2   2   2   2
   3         3   3   3   3
   4         4   4   4   4
   5         5   5   5   5
   6         6   6   6   6
   7         7   7   7   7
   8        10  10  10  10
   9        13  13  13  13
  10        16  16  16  16
  11        19  19  19  19
  12        22  22  22  22
  13        23  23  23  23
  14        24  24  24  24
  15        25  25  25  25
  16        29  29  29  29
  17        30  30  30  30
  18        31  31  31  31
  19        35  35  35  35
  20        36  36  36  36
  21        37  37  37  37
  22        41  41  41  41
  23        42  42  42  42
  24        43  43  43  43
  25        49  49  49  49
  26        52  52  52  52
  27        55  55  55  55
  28        59  59  59  59
  29        62  62  62  62
  30        65  65  65  65
  31        69  69  69  69
  32        72  72  72  72
  33        75  75  75  75
  34        77  77  77  77
  35        79  79  79  79
  36        81  81  81  81
  37        86  86  86  86
  38        88  88  88  88
  39        91  91  91  91
  40        92  92  92  92
  41        94  94  94  94
  42        96  96  96  96
  43       101 101 101 101
  44       103 103 103 103
  45       106 106 106 106
 There are    13 symmetry adapted cartesian basis functions of A2  symmetry.
  46        26  26  26  26
  47        32  32  32  32
  48        38  38  38  38
  49        44  44  44  44
  50        56  56  56  56
  51        66  66  66  66
  52        76  76  76  76
  53        83  83  83  83
  54        85  85  85  85
  55        90  90  90  90
  56        98  98  98  98
  57       100 100 100 100
  58       105 105 105 105
 There are    24 symmetry adapted cartesian basis functions of B1  symmetry.
  59         8   8   8   8
  60        11  11  11  11
  61        14  14  14  14
  62        17  17  17  17
  63        20  20  20  20
  64        27  27  27  27
  65        33  33  33  33
  66        39  39  39  39
  67        45  45  45  45
  68        47  47  47  47
  69        50  50  50  50
  70        53  53  53  53
  71        57  57  57  57
  72        60  60  60  60
  73        63  63  63  63
  74        67  67  67  67
  75        70  70  70  70
  76        73  73  73  73
  77        82  82  82  82
  78        84  84  84  84
  79        89  89  89  89
  80        97  97  97  97
  81        99  99  99  99
  82       104 104 104 104
 There are    24 symmetry adapted cartesian basis functions of B2  symmetry.
  83         9   9   9   9
  84        12  12  12  12
  85        15  15  15  15
  86        18  18  18  18
  87        21  21  21  21
  88        28  28  28  28
  89        34  34  34  34
  90        40  40  40  40
  91        46  46  46  46
  92        48  48  48  48
  93        51  51  51  51
  94        54  54  54  54
  95        58  58  58  58
  96        61  61  61  61
  97        64  64  64  64
  98        68  68  68  68
  99        71  71  71  71
 100        74  74  74  74
 101        78  78  78  78
 102        80  80  80  80
 103        87  87  87  87
 104        93  93  93  93
 105        95  95  95  95
 106       102 102 102 102
 Order= 1 2 4 3
 Reordered character table:
              1            2            3            4            5
     1            1            1            1            1            1
     2            2            1            1           -1           -1
     3            4            1           -1           -1            1
     4            3            1           -1            1           -1
 NEqShl: 
              1            2            3            4
     1            1            1            1            1
     2            2            2            2            2
     3            3            3            3            3
     4            4            4            4            4
     5            5            5            5            5
     6            6            6            6            6
     7            7            7            7            7
     8            8            8            8            8
     9            9            9            9            9
    10           10           10           10           10
    11           11           11           11           11
    12           12           12           12           12
    13           13           13           13           13
    14           14           14           14           14
    15           15           15           15           15
    16           16           16           16           16
    17           17           17           17           17
    18           18           18           18           18
    19           19           19           19           19
    20           20           20           20           20
    21           21           21           21           21
 NEqBas: 
              1            2            3            4
     1            1            1            1            1
     2            2            2            2            2
     3            3            3            3            3
     4            4            4            4            4
     5            5            5            5            5
     6            6            6            6            6
     7            7            7            7            7
     8            8           -8           -8            8
     9            9           -9            9           -9
    10           10           10           10           10
    11           11          -11          -11           11
    12           12          -12           12          -12
    13           13           13           13           13
    14           14          -14          -14           14
    15           15          -15           15          -15
    16           16           16           16           16
    17           17          -17          -17           17
    18           18          -18           18          -18
    19           19           19           19           19
    20           20          -20          -20           20
    21           21          -21           21          -21
    22           22           22           22           22
    23           23           23           23           23
    24           24          -24          -24           24
    25           25          -25           25          -25
    26           26           26           26           26
    27           27           27          -27          -27
    28           28           28           28           28
    29           29          -29          -29           29
    30           30          -30           30          -30
    31           31           31           31           31
    32           32           32          -32          -32
    33           33           33           33           33
    34           34          -34          -34           34
    35           35          -35           35          -35
    36           36           36           36           36
    37           37           37          -37          -37
    38           38           38           38           38
    39           39          -39          -39           39
    40           40          -40           40          -40
    41           41           41           41           41
    42           42           42          -42          -42
    43           43           43           43           43
    44           44          -44          -44           44
    45           45          -45           45          -45
    46           46           46           46           46
    47           47           47          -47          -47
    48           48          -48          -48           48
    49           49          -49           49          -49
    50           50           50           50           50
    51           51          -51          -51           51
    52           52          -52           52          -52
    53           53           53           53           53
    54           54           54          -54          -54
    55           55          -55          -55           55
    56           56          -56           56          -56
    57           57           57           57           57
    58           58          -58          -58           58
    59           59          -59           59          -59
    60           60           60           60           60
    61           61           61          -61          -61
    62           62          -62          -62           62
    63           63          -63           63          -63
    64           64           64           64           64
    65           65          -65          -65           65
    66           66          -66           66          -66
    67           67           67           67           67
    68           68           68          -68          -68
    69           69          -69          -69           69
    70           70          -70           70          -70
    71           71           71           71           71
    72           72           72          -72          -72
    73           73           73           73           73
    74           74          -74          -74           74
    75           75          -75           75          -75
    76           76           76           76           76
    77           77           77          -77          -77
    78           78          -78          -78           78
    79           79          -79           79          -79
    80           80           80           80           80
    81           81           81          -81          -81
 There are    32 symmetry adapted basis functions of A1  symmetry.
   1         1   1   1   1
   2         2   2   2   2
   3         3   3   3   3
   4         4   4   4   4
   5         5   5   5   5
   6         6   6   6   6
   7         7   7   7   7
   8        10  10  10  10
   9        13  13  13  13
  10        16  16  16  16
  11        19  19  19  19
  12        22  22  22  22
  13        23  23  23  23
  14        26  26  26  26
  15        28  28  28  28
  16        31  31  31  31
  17        33  33  33  33
  18        36  36  36  36
  19        38  38  38  38
  20        41  41  41  41
  21        43  43  43  43
  22        46  46  46  46
  23        50  50  50  50
  24        53  53  53  53
  25        57  57  57  57
  26        60  60  60  60
  27        64  64  64  64
  28        67  67  67  67
  29        71  71  71  71
  30        73  73  73  73
  31        76  76  76  76
  32        80  80  80  80
 There are    11 symmetry adapted basis functions of A2  symmetry.
  33        27  27  27  27
  34        32  32  32  32
  35        37  37  37  37
  36        42  42  42  42
  37        47  47  47  47
  38        54  54  54  54
  39        61  61  61  61
  40        68  68  68  68
  41        72  72  72  72
  42        77  77  77  77
  43        81  81  81  81
 There are    19 symmetry adapted basis functions of B1  symmetry.
  44         8   8   8   8
  45        11  11  11  11
  46        14  14  14  14
  47        17  17  17  17
  48        20  20  20  20
  49        24  24  24  24
  50        29  29  29  29
  51        34  34  34  34
  52        39  39  39  39
  53        44  44  44  44
  54        48  48  48  48
  55        51  51  51  51
  56        55  55  55  55
  57        58  58  58  58
  58        62  62  62  62
  59        65  65  65  65
  60        69  69  69  69
  61        74  74  74  74
  62        78  78  78  78
 There are    19 symmetry adapted basis functions of B2  symmetry.
  63         9   9   9   9
  64        12  12  12  12
  65        15  15  15  15
  66        18  18  18  18
  67        21  21  21  21
  68        25  25  25  25
  69        30  30  30  30
  70        35  35  35  35
  71        40  40  40  40
  72        45  45  45  45
  73        49  49  49  49
  74        52  52  52  52
  75        56  56  56  56
  76        59  59  59  59
  77        63  63  63  63
  78        66  66  66  66
  79        70  70  70  70
  80        75  75  75  75
  81        79  79  79  79
 Order= 1 2 4 3
 Reordered character table:
              1            2            3            4            5
     1            1            1            1            1            1
     2            2            1            1           -1           -1
     3            4            1           -1           -1            1
     4            3            1           -1            1           -1
    81 basis functions,   126 primitive gaussians,   106 cartesian basis functions
     2 alpha electrons        2 beta electrons
       nuclear repulsion energy         3.1750632655 Hartrees.
 IS=     1 IAt=     1 ISR=     1 T=0 IP=      1 IndIP=      1 IndIPD=      0 C=  2.769344D-01  0.000000D+00                             NZ=T
 IS=     1 IAt=     1 ISR=     1 T=0 IP=      2 IndIP=      2 IndIPD=      1 C=  2.678389D-01  0.000000D+00                             NZ=T
 IS=     1 IAt=     1 ISR=     1 T=0 IP=      3 IndIP=      3 IndIPD=      2 C=  8.347367D-02  0.000000D+00                             NZ=T
 IS=     2 IAt=     2 ISR=     1 T=0 IP=      1 IndIP=      4 IndIPD=      0 C=  8.011529D-02  0.000000D+00                             NZ=T
 IS=     2 IAt=     2 ISR=     1 T=0 IP=      2 IndIP=      5 IndIPD=      1 C=  1.496426D-01  0.000000D+00                             NZ=T
 IS=     2 IAt=     2 ISR=     1 T=0 IP=      3 IndIP=      6 IndIPD=      2 C=  2.558159D-01  0.000000D+00                             NZ=T
 IS=     2 IAt=     2 ISR=     1 T=0 IP=      4 IndIP=      7 IndIPD=      3 C=  4.044663D-01  0.000000D+00                             NZ=T
 IS=     2 IAt=     2 ISR=     1 T=0 IP=      5 IndIP=      8 IndIPD=      4 C=  5.735328D-01  0.000000D+00                             NZ=T
 IS=     2 IAt=     2 ISR=     1 T=0 IP=      6 IndIP=      9 IndIPD=      5 C=  6.883914D-01  0.000000D+00                             NZ=T
 IS=     2 IAt=     2 ISR=     1 T=0 IP=      7 IndIP=     10 IndIPD=      6 C=  6.302397D-01  0.000000D+00                             NZ=T
 IS=     2 IAt=     2 ISR=     1 T=0 IP=      8 IndIP=     11 IndIPD=      7 C=  3.474973D-01  0.000000D+00                             NZ=T
 IS=     3 IAt=     2 ISR=     2 T=0 IP=      1 IndIP=     12 IndIPD=      0 C= -1.462817D-03  0.000000D+00                             NZ=T
 IS=     3 IAt=     2 ISR=     2 T=0 IP=      2 IndIP=     13 IndIPD=      1 C= -1.357745D-02  0.000000D+00                             NZ=T
 IS=     3 IAt=     2 ISR=     2 T=0 IP=      3 IndIP=     14 IndIPD=      2 C= -3.990712D-02  0.000000D+00                             NZ=T
 IS=     3 IAt=     2 ISR=     2 T=0 IP=      4 IndIP=     15 IndIPD=      3 C= -1.039767D-01  0.000000D+00                             NZ=T
 IS=     3 IAt=     2 ISR=     2 T=0 IP=      5 IndIP=     16 IndIPD=      4 C= -2.111586D-01  0.000000D+00                             NZ=T
 IS=     3 IAt=     2 ISR=     2 T=0 IP=      6 IndIP=     17 IndIPD=      5 C= -3.017959D-01  0.000000D+00                             NZ=T
 IS=     4 IAt=     2 ISR=     3 T=0 IP=      1 IndIP=     18 IndIPD=      0 C=  1.221003D-01  0.000000D+00                             NZ=T
 IS=     5 IAt=     2 ISR=     4 T=0 IP=      1 IndIP=     19 IndIPD=      0 C=  7.298435D-02  0.000000D+00                             NZ=T
 IS=     6 IAt=     2 ISR=     5 T=0 IP=      1 IndIP=     20 IndIPD=      0 C=  4.098971D-02  0.000000D+00                             NZ=T
 IS=     7 IAt=     2 ISR=     6 T=0 IP=      1 IndIP=     21 IndIPD=      0 C=  1.604045D-02  0.000000D+00                             NZ=T
 IS=     8 IAt=     2 ISR=     7 T=1 IP=      1 IndIP=     22 IndIPD=      0 C=  0.000000D+00  5.138103D-01                             NZ=T
 IS=     8 IAt=     2 ISR=     7 T=1 IP=      2 IndIP=     23 IndIPD=      1 C=  0.000000D+00  4.393669D-01                             NZ=T
 IS=     8 IAt=     2 ISR=     7 T=1 IP=      3 IndIP=     24 IndIPD=      2 C=  0.000000D+00  3.470054D-01                             NZ=T
 IS=     9 IAt=     2 ISR=     8 T=1 IP=      1 IndIP=     25 IndIPD=      0 C=  0.000000D+00  9.983559D-02                             NZ=T
 IS=    10 IAt=     2 ISR=     9 T=1 IP=      1 IndIP=     26 IndIPD=      0 C=  0.000000D+00  2.932986D-02                             NZ=T
 IS=    11 IAt=     2 ISR=    10 T=1 IP=      1 IndIP=     27 IndIPD=      0 C=  0.000000D+00  9.365278D-03                             NZ=T
 IS=    12 IAt=     2 ISR=    11 T=1 IP=      1 IndIP=     28 IndIPD=      0 C=  0.000000D+00  3.261263D-03                             NZ=T
 IS=    13 IAt=     2 ISR=    12 T=2 IP=      1 IndIP=     29 IndIPD=      1 C=  0.000000D+00  0.000000D+00  2.543236D-01  0.000000D+00 NZ=T
 IS=    14 IAt=     2 ISR=    13 T=2 IP=      1 IndIP=     30 IndIPD=      2 C=  0.000000D+00  0.000000D+00  6.160550D-02  0.000000D+00 NZ=T
 IS=    15 IAt=     2 ISR=    14 T=2 IP=      1 IndIP=     31 IndIPD=      3 C=  0.000000D+00  0.000000D+00  1.490390D-02  0.000000D+00 NZ=T
 IS=    16 IAt=     2 ISR=    15 T=2 IP=      1 IndIP=     32 IndIPD=      4 C=  0.000000D+00  0.000000D+00  3.634583D-03  0.000000D+00 NZ=T
 IS=    17 IAt=     2 ISR=    16 T=3 IP=      1 IndIP=     33 IndIPD=      5 C=  0.000000D+00  0.000000D+00  0.000000D+00  6.274201D-02 NZ=T
 IS=    18 IAt=     2 ISR=    17 T=3 IP=      1 IndIP=     34 IndIPD=      6 C=  0.000000D+00  0.000000D+00  0.000000D+00  1.473313D-02 NZ=T
 IS=    19 IAt=     2 ISR=    18 T=3 IP=      1 IndIP=     35 IndIPD=      7 C=  0.000000D+00  0.000000D+00  0.000000D+00  2.232271D-03 NZ=T
 IS=    20 IAt=     2 ISR=    19 T=4 IP=      1 IndIP=     36 IndIPD=      8 C=  0.000000D+00  0.000000D+00  0.000000D+00  2.147940D-02 NZ=T
 IS=    21 IAt=     2 ISR=    20 T=4 IP=      1 IndIP=     37 IndIPD=      9 C=  0.000000D+00  0.000000D+00  0.000000D+00  2.271551D-03 NZ=T
 IExCor=    0 DFT=F Ex=HF Corr=None ExCW=0 ScaHFX=  1.000000
 ScaDFX=  1.000000  1.000000  1.000000  1.000000 ScalE2=  1.000000  1.000000
 IRadAn=      5 IRanWt=     -1 IRanGd=            0 ICorTp=0 IEmpDi=  4
 NAtoms=    2 NActive=    2 NUniq=    2 SFac= 1.00D+00 NAtFMM=   60 NAOKFM=F Big=F
 Integral buffers will be    131072 words long.
 Raffenetti 1 integral format.
 Two-electron integral symmetry is turned on.
 Leave Link  301 at Mon Mar 28 14:02:09 2022, MaxMem=  9663676416 cpu:               2.2 elap:               0.1
 (Enter /nopt/nrel/apps/gaussian/g16C_1/g16/l302.exe)
 NPDir=0 NMtPBC=     1 NCelOv=     1 NCel=       1 NClECP=     1 NCelD=      1
         NCelK=      1 NCelE2=     1 NClLst=     1 CellRange=     0.0.
 One-electron integrals computed using PRISM.
 One-electron integral symmetry used in STVInt
 Entering OneElI...
 Calculate overlap and kinetic energy integrals
    NBasis =  81  MinDer = 0  MaxDer = 0
 Requested accuracy = 0.1000D-12
 Symmetry will be used
 PrmmSu-InSpLW:  IPartL=    0 NPrtUS=   36 NPrtUL=    1 DoSpLW=F IThBeg=    0 IThEnd=   35 NThAct=   36.
 PrSmSu:  IncTry=   512 NBBP=            231 NTPThr=   100 NPartT=   36 Incr=           1 LDynOK=F GPUOK=F.
 PrsmSu:  NPrtUS=  36 ThrOK=T IAlg=1 LenDen=           0 ISkipM=0 DoSpLW=F IThBeg=    0 IThEnd=   35.
 Prism:   IPart=     0 DynPar=F LinDyn=F Incr=           1.
 PRISM was handed   268416627 working-precision words and   231 shell-pairs
 PRISM was handed   268416627 working-precision words and   231 shell-pairs
 PRISM was handed   268416627 working-precision words and   231 shell-pairs
 PRISM was handed   268416627 working-precision words and   231 shell-pairs
 PRISM was handed   268416627 working-precision words and   231 shell-pairs
 PRISM was handed   268416627 working-precision words and   231 shell-pairs
 PRISM was handed   268416627 working-precision words and   231 shell-pairs
 PRISM was handed   268416627 working-precision words and   231 shell-pairs
 PRISM was handed   268416627 working-precision words and   231 shell-pairs
 PRISM was handed   268416627 working-precision words and   231 shell-pairs
 PRISM was handed   268416627 working-precision words and   231 shell-pairs
 PRISM was handed   268416627 working-precision words and   231 shell-pairs
 PRISM was handed   268416627 working-precision words and   231 shell-pairs
 PRISM was handed   268416627 working-precision words and   231 shell-pairs
 PRISM was handed   268416627 working-precision words and   231 shell-pairs
 PRISM was handed   268416627 working-precision words and   231 shell-pairs
 PRISM was handed   268416627 working-precision words and   231 shell-pairs
 PRISM was handed   268416627 working-precision words and   231 shell-pairs
 PRISM was handed   268416627 working-precision words and   231 shell-pairs
 PRISM was handed   268416627 working-precision words and   231 shell-pairs
 IPart= 23 NShTot=           0 NBatch=           0 AvBLen=         0.0
 IPart= 30 NShTot=           0 NBatch=           0 AvBLen=         0.0
 IPart= 28 NShTot=           0 NBatch=           0 AvBLen=         0.0
 IPart= 25 NShTot=           0 NBatch=           0 AvBLen=         0.0
 IPart= 18 NShTot=           0 NBatch=           0 AvBLen=         0.0
 IPart= 27 NShTot=           0 NBatch=           0 AvBLen=         0.0
 IPart= 29 NShTot=           0 NBatch=           0 AvBLen=         0.0
 IPart= 31 NShTot=           0 NBatch=           0 AvBLen=         0.0
 PRISM was handed   268416627 working-precision words and   231 shell-pairs
 PRISM was handed   268416627 working-precision words and   231 shell-pairs
 PRISM was handed   268416627 working-precision words and   231 shell-pairs
 PRISM was handed   268416627 working-precision words and   231 shell-pairs
 PRISM was handed   268416627 working-precision words and   231 shell-pairs
 PRISM was handed   268416627 working-precision words and   231 shell-pairs
 PRISM was handed   268416627 working-precision words and   231 shell-pairs
 IPart= 14 NShTot=           3 NBatch=           3 AvBLen=         1.0
 IPart= 13 NShTot=           3 NBatch=           3 AvBLen=         1.0
 PRISM was handed   268416627 working-precision words and   231 shell-pairs
 PRISM was handed   268416627 working-precision words and   231 shell-pairs
 PRISM was handed   268416627 working-precision words and   231 shell-pairs
 PRISM was handed   268416627 working-precision words and   231 shell-pairs
 PRISM was handed   268416627 working-precision words and   231 shell-pairs
 PRISM was handed   268416627 working-precision words and   231 shell-pairs
 PRISM was handed   268416627 working-precision words and   231 shell-pairs
 PRISM was handed   268416627 working-precision words and   231 shell-pairs
 PRISM was handed   268416627 working-precision words and   231 shell-pairs
 IPart=  8 NShTot=           9 NBatch=           9 AvBLen=         1.0
 IPart=  9 NShTot=           9 NBatch=           9 AvBLen=         1.0
 IPart=  7 NShTot=          13 NBatch=          13 AvBLen=         1.0
 IPart=  6 NShTot=          13 NBatch=          13 AvBLen=         1.0
 IPart=  4 NShTot=          15 NBatch=          15 AvBLen=         1.0
 IPart= 32 NShTot=           0 NBatch=           0 AvBLen=         0.0
 IPart= 34 NShTot=           0 NBatch=           0 AvBLen=         0.0
 IPart= 19 NShTot=           0 NBatch=           0 AvBLen=         0.0
 IPart= 10 NShTot=           6 NBatch=           6 AvBLen=         1.0
 IPart=  0 NShTot=          44 NBatch=          44 AvBLen=         1.0
 IPart= 22 NShTot=           0 NBatch=           0 AvBLen=         0.0
 IPart= 21 NShTot=           0 NBatch=           0 AvBLen=         0.0
 IPart= 24 NShTot=           0 NBatch=           0 AvBLen=         0.0
 IPart= 12 NShTot=           3 NBatch=           3 AvBLen=         1.0
 IPart= 16 NShTot=           0 NBatch=           0 AvBLen=         0.0
 IPart= 17 NShTot=           0 NBatch=           0 AvBLen=         0.0
 IPart= 15 NShTot=           3 NBatch=           3 AvBLen=         1.0
 IPart= 35 NShTot=           0 NBatch=           0 AvBLen=         0.0
 IPart= 20 NShTot=           0 NBatch=           0 AvBLen=         0.0
 IPart=  5 NShTot=          15 NBatch=          15 AvBLen=         1.0
 IPart= 33 NShTot=           0 NBatch=           0 AvBLen=         0.0
 IPart= 26 NShTot=           0 NBatch=           0 AvBLen=         0.0
 IPart= 11 NShTot=           6 NBatch=           6 AvBLen=         1.0
 IPart=  3 NShTot=          25 NBatch=          25 AvBLen=         1.0
 IPart=  2 NShTot=          30 NBatch=          30 AvBLen=         1.0
 IPart=  1 NShTot=          34 NBatch=          34 AvBLen=         1.0
 PrSmSu:  NxtVal=             37.
 *** Overlap *** 
                1             2             3             4             5 
      1  0.100000D+01
      2  0.450812D+00  0.100000D+01
      3 -0.753700D+00 -0.790233D+00  0.100000D+01
      4  0.699931D+00  0.262633D+00 -0.565272D+00  0.100000D+01
      5  0.531767D+00  0.163571D+00 -0.377722D+00  0.917052D+00  0.100000D+01
      6  0.349343D+00  0.940105D-01 -0.226388D+00  0.693253D+00  0.897345D+00
      7  0.152519D+00  0.373260D-01 -0.923729D-01  0.337233D+00  0.515702D+00
      8  0.000000D+00  0.000000D+00  0.000000D+00  0.000000D+00  0.000000D+00
      9  0.000000D+00  0.000000D+00  0.000000D+00  0.000000D+00  0.000000D+00
     10 -0.488638D+00  0.000000D+00  0.000000D+00  0.000000D+00  0.000000D+00
     11  0.000000D+00  0.000000D+00  0.000000D+00  0.000000D+00  0.000000D+00
     12  0.000000D+00  0.000000D+00  0.000000D+00  0.000000D+00  0.000000D+00
     13 -0.343830D+00  0.000000D+00  0.000000D+00  0.000000D+00  0.000000D+00
     14  0.000000D+00  0.000000D+00  0.000000D+00  0.000000D+00  0.000000D+00
     15  0.000000D+00  0.000000D+00  0.000000D+00  0.000000D+00  0.000000D+00
     16 -0.174176D+00  0.000000D+00  0.000000D+00  0.000000D+00  0.000000D+00
     17  0.000000D+00  0.000000D+00  0.000000D+00  0.000000D+00  0.000000D+00
     18  0.000000D+00  0.000000D+00  0.000000D+00  0.000000D+00  0.000000D+00
     19 -0.720369D-01  0.000000D+00  0.000000D+00  0.000000D+00  0.000000D+00
     20  0.000000D+00  0.000000D+00  0.000000D+00  0.000000D+00  0.000000D+00
     21  0.000000D+00  0.000000D+00  0.000000D+00  0.000000D+00  0.000000D+00
     22 -0.280605D-01  0.000000D+00  0.000000D+00  0.000000D+00  0.000000D+00
     23  0.179261D+00  0.000000D+00  0.000000D+00  0.000000D+00  0.000000D+00
     24  0.000000D+00  0.000000D+00  0.000000D+00  0.000000D+00  0.000000D+00
     25  0.000000D+00  0.000000D+00  0.000000D+00  0.000000D+00  0.000000D+00
     26  0.000000D+00  0.000000D+00  0.000000D+00  0.000000D+00  0.000000D+00
     27  0.000000D+00  0.000000D+00  0.000000D+00  0.000000D+00  0.000000D+00
     28  0.115168D+00  0.000000D+00  0.000000D+00  0.000000D+00  0.000000D+00
     29  0.000000D+00  0.000000D+00  0.000000D+00  0.000000D+00  0.000000D+00
     30  0.000000D+00  0.000000D+00  0.000000D+00  0.000000D+00  0.000000D+00
     31  0.000000D+00  0.000000D+00  0.000000D+00  0.000000D+00  0.000000D+00
     32  0.000000D+00  0.000000D+00  0.000000D+00  0.000000D+00  0.000000D+00
     33  0.555015D-01  0.000000D+00  0.000000D+00  0.000000D+00  0.000000D+00
     34  0.000000D+00  0.000000D+00  0.000000D+00  0.000000D+00  0.000000D+00
     35  0.000000D+00  0.000000D+00  0.000000D+00  0.000000D+00  0.000000D+00
     36  0.000000D+00  0.000000D+00  0.000000D+00  0.000000D+00  0.000000D+00
     37  0.000000D+00  0.000000D+00  0.000000D+00  0.000000D+00  0.000000D+00
     38  0.207574D-01  0.000000D+00  0.000000D+00  0.000000D+00  0.000000D+00
     39  0.000000D+00  0.000000D+00  0.000000D+00  0.000000D+00  0.000000D+00
     40  0.000000D+00  0.000000D+00  0.000000D+00  0.000000D+00  0.000000D+00
     41  0.000000D+00  0.000000D+00  0.000000D+00  0.000000D+00  0.000000D+00
     42  0.000000D+00  0.000000D+00  0.000000D+00  0.000000D+00  0.000000D+00
     43 -0.440151D-01  0.000000D+00  0.000000D+00  0.000000D+00  0.000000D+00
     44  0.000000D+00  0.000000D+00  0.000000D+00  0.000000D+00  0.000000D+00
     45  0.000000D+00  0.000000D+00  0.000000D+00  0.000000D+00  0.000000D+00
     46  0.000000D+00  0.000000D+00  0.000000D+00  0.000000D+00  0.000000D+00
     47  0.000000D+00  0.000000D+00  0.000000D+00  0.000000D+00  0.000000D+00
     48  0.000000D+00  0.000000D+00  0.000000D+00  0.000000D+00  0.000000D+00
     49  0.000000D+00  0.000000D+00  0.000000D+00  0.000000D+00  0.000000D+00
     50 -0.229920D-01  0.000000D+00  0.000000D+00  0.000000D+00  0.000000D+00
     51  0.000000D+00  0.000000D+00  0.000000D+00  0.000000D+00  0.000000D+00
     52  0.000000D+00  0.000000D+00  0.000000D+00  0.000000D+00  0.000000D+00
     53  0.000000D+00  0.000000D+00  0.000000D+00  0.000000D+00  0.000000D+00
     54  0.000000D+00  0.000000D+00  0.000000D+00  0.000000D+00  0.000000D+00
     55  0.000000D+00  0.000000D+00  0.000000D+00  0.000000D+00  0.000000D+00
     56  0.000000D+00  0.000000D+00  0.000000D+00  0.000000D+00  0.000000D+00
     57 -0.746519D-02  0.000000D+00  0.000000D+00  0.000000D+00  0.000000D+00
     58  0.000000D+00  0.000000D+00  0.000000D+00  0.000000D+00  0.000000D+00
     59  0.000000D+00  0.000000D+00  0.000000D+00  0.000000D+00  0.000000D+00
     60  0.000000D+00  0.000000D+00  0.000000D+00  0.000000D+00  0.000000D+00
     61  0.000000D+00  0.000000D+00  0.000000D+00  0.000000D+00  0.000000D+00
     62  0.000000D+00  0.000000D+00  0.000000D+00  0.000000D+00  0.000000D+00
     63  0.000000D+00  0.000000D+00  0.000000D+00  0.000000D+00  0.000000D+00
     64  0.107043D-01  0.000000D+00  0.000000D+00  0.000000D+00  0.000000D+00
     65  0.000000D+00  0.000000D+00  0.000000D+00  0.000000D+00  0.000000D+00
     66  0.000000D+00  0.000000D+00  0.000000D+00  0.000000D+00  0.000000D+00
     67  0.000000D+00  0.000000D+00  0.000000D+00  0.000000D+00  0.000000D+00
     68  0.000000D+00  0.000000D+00  0.000000D+00  0.000000D+00  0.000000D+00
     69  0.000000D+00  0.000000D+00  0.000000D+00  0.000000D+00  0.000000D+00
     70  0.000000D+00  0.000000D+00  0.000000D+00  0.000000D+00  0.000000D+00
     71  0.000000D+00  0.000000D+00  0.000000D+00  0.000000D+00  0.000000D+00
     72  0.000000D+00  0.000000D+00  0.000000D+00  0.000000D+00  0.000000D+00
     73  0.328617D-02  0.000000D+00  0.000000D+00  0.000000D+00  0.000000D+00
     74  0.000000D+00  0.000000D+00  0.000000D+00  0.000000D+00  0.000000D+00
     75  0.000000D+00  0.000000D+00  0.000000D+00  0.000000D+00  0.000000D+00
     76  0.000000D+00  0.000000D+00  0.000000D+00  0.000000D+00  0.000000D+00
     77  0.000000D+00  0.000000D+00  0.000000D+00  0.000000D+00  0.000000D+00
     78  0.000000D+00  0.000000D+00  0.000000D+00  0.000000D+00  0.000000D+00
     79  0.000000D+00  0.000000D+00  0.000000D+00  0.000000D+00  0.000000D+00
     80  0.000000D+00  0.000000D+00  0.000000D+00  0.000000D+00  0.000000D+00
     81  0.000000D+00  0.000000D+00  0.000000D+00  0.000000D+00  0.000000D+00
                6             7             8             9            10 
      6  0.100000D+01
      7  0.758763D+00  0.100000D+01
      8  0.000000D+00  0.000000D+00  0.100000D+01
      9  0.000000D+00  0.000000D+00  0.000000D+00  0.100000D+01
     10  0.000000D+00  0.000000D+00  0.000000D+00  0.000000D+00  0.100000D+01
     11  0.000000D+00  0.000000D+00  0.631085D+00  0.000000D+00  0.000000D+00
     12  0.000000D+00  0.000000D+00  0.000000D+00  0.631085D+00  0.000000D+00
     13  0.000000D+00  0.000000D+00  0.000000D+00  0.000000D+00  0.631085D+00
     14  0.000000D+00  0.000000D+00  0.275662D+00  0.000000D+00  0.000000D+00
     15  0.000000D+00  0.000000D+00  0.000000D+00  0.275662D+00  0.000000D+00
     16  0.000000D+00  0.000000D+00  0.000000D+00  0.000000D+00  0.275662D+00
     17  0.000000D+00  0.000000D+00  0.103467D+00  0.000000D+00  0.000000D+00
     18  0.000000D+00  0.000000D+00  0.000000D+00  0.103467D+00  0.000000D+00
     19  0.000000D+00  0.000000D+00  0.000000D+00  0.000000D+00  0.103467D+00
     20  0.000000D+00  0.000000D+00  0.384460D-01  0.000000D+00  0.000000D+00
     21  0.000000D+00  0.000000D+00  0.000000D+00  0.384460D-01  0.000000D+00
     22  0.000000D+00  0.000000D+00  0.000000D+00  0.000000D+00  0.384460D-01
     23  0.000000D+00  0.000000D+00  0.000000D+00  0.000000D+00  0.000000D+00
     24  0.000000D+00  0.000000D+00  0.000000D+00  0.000000D+00  0.000000D+00
     25  0.000000D+00  0.000000D+00  0.000000D+00  0.000000D+00  0.000000D+00
     26  0.000000D+00  0.000000D+00  0.000000D+00  0.000000D+00  0.000000D+00
     27  0.000000D+00  0.000000D+00  0.000000D+00  0.000000D+00  0.000000D+00
     28  0.000000D+00  0.000000D+00  0.000000D+00  0.000000D+00  0.000000D+00
     29  0.000000D+00  0.000000D+00  0.000000D+00  0.000000D+00  0.000000D+00
     30  0.000000D+00  0.000000D+00  0.000000D+00  0.000000D+00  0.000000D+00
     31  0.000000D+00  0.000000D+00  0.000000D+00  0.000000D+00  0.000000D+00
     32  0.000000D+00  0.000000D+00  0.000000D+00  0.000000D+00  0.000000D+00
     33  0.000000D+00  0.000000D+00  0.000000D+00  0.000000D+00  0.000000D+00
     34  0.000000D+00  0.000000D+00  0.000000D+00  0.000000D+00  0.000000D+00
     35  0.000000D+00  0.000000D+00  0.000000D+00  0.000000D+00  0.000000D+00
     36  0.000000D+00  0.000000D+00  0.000000D+00  0.000000D+00  0.000000D+00
     37  0.000000D+00  0.000000D+00  0.000000D+00  0.000000D+00  0.000000D+00
     38  0.000000D+00  0.000000D+00  0.000000D+00  0.000000D+00  0.000000D+00
     39  0.000000D+00  0.000000D+00  0.000000D+00  0.000000D+00  0.000000D+00
     40  0.000000D+00  0.000000D+00  0.000000D+00  0.000000D+00  0.000000D+00
     41  0.000000D+00  0.000000D+00  0.000000D+00  0.000000D+00  0.000000D+00
     42  0.000000D+00  0.000000D+00  0.000000D+00  0.000000D+00  0.000000D+00
     43  0.000000D+00  0.000000D+00  0.000000D+00  0.000000D+00  0.000000D+00
     44  0.000000D+00  0.000000D+00  0.000000D+00  0.000000D+00  0.000000D+00
     45  0.000000D+00  0.000000D+00  0.000000D+00  0.000000D+00  0.000000D+00
     46  0.000000D+00  0.000000D+00  0.000000D+00  0.000000D+00  0.000000D+00
     47  0.000000D+00  0.000000D+00  0.000000D+00  0.000000D+00  0.000000D+00
     48  0.000000D+00  0.000000D+00  0.000000D+00  0.000000D+00  0.000000D+00
     49  0.000000D+00  0.000000D+00  0.000000D+00  0.000000D+00  0.000000D+00
     50  0.000000D+00  0.000000D+00  0.000000D+00  0.000000D+00  0.000000D+00
     51  0.000000D+00  0.000000D+00  0.000000D+00  0.000000D+00  0.000000D+00
     52  0.000000D+00  0.000000D+00  0.000000D+00  0.000000D+00  0.000000D+00
     53  0.000000D+00  0.000000D+00  0.000000D+00  0.000000D+00  0.000000D+00
     54  0.000000D+00  0.000000D+00  0.000000D+00  0.000000D+00  0.000000D+00
     55  0.000000D+00  0.000000D+00  0.000000D+00  0.000000D+00  0.000000D+00
     56  0.000000D+00  0.000000D+00  0.000000D+00  0.000000D+00  0.000000D+00
     57  0.000000D+00  0.000000D+00  0.000000D+00  0.000000D+00  0.000000D+00
     58  0.000000D+00  0.000000D+00  0.000000D+00  0.000000D+00  0.000000D+00
     59  0.000000D+00  0.000000D+00  0.000000D+00  0.000000D+00  0.000000D+00
     60  0.000000D+00  0.000000D+00  0.000000D+00  0.000000D+00  0.000000D+00
     61  0.000000D+00  0.000000D+00  0.000000D+00  0.000000D+00  0.000000D+00
     62  0.000000D+00  0.000000D+00  0.000000D+00  0.000000D+00  0.000000D+00
     63  0.000000D+00  0.000000D+00  0.000000D+00  0.000000D+00  0.000000D+00
     64  0.000000D+00  0.000000D+00  0.000000D+00  0.000000D+00  0.000000D+00
     65  0.000000D+00  0.000000D+00  0.000000D+00  0.000000D+00  0.000000D+00
     66  0.000000D+00  0.000000D+00  0.000000D+00  0.000000D+00  0.000000D+00
     67  0.000000D+00  0.000000D+00  0.000000D+00  0.000000D+00  0.000000D+00
     68  0.000000D+00  0.000000D+00  0.000000D+00  0.000000D+00  0.000000D+00
     69  0.000000D+00  0.000000D+00  0.000000D+00  0.000000D+00  0.000000D+00
     70  0.000000D+00  0.000000D+00  0.000000D+00  0.000000D+00  0.000000D+00
     71  0.000000D+00  0.000000D+00  0.000000D+00  0.000000D+00  0.000000D+00
     72  0.000000D+00  0.000000D+00  0.000000D+00  0.000000D+00  0.000000D+00
     73  0.000000D+00  0.000000D+00  0.000000D+00  0.000000D+00  0.000000D+00
     74  0.000000D+00  0.000000D+00  0.000000D+00  0.000000D+00  0.000000D+00
     75  0.000000D+00  0.000000D+00  0.000000D+00  0.000000D+00  0.000000D+00
     76  0.000000D+00  0.000000D+00  0.000000D+00  0.000000D+00  0.000000D+00
     77  0.000000D+00  0.000000D+00  0.000000D+00  0.000000D+00  0.000000D+00
     78  0.000000D+00  0.000000D+00  0.000000D+00  0.000000D+00  0.000000D+00
     79  0.000000D+00  0.000000D+00  0.000000D+00  0.000000D+00  0.000000D+00
     80  0.000000D+00  0.000000D+00  0.000000D+00  0.000000D+00  0.000000D+00
     81  0.000000D+00  0.000000D+00  0.000000D+00  0.000000D+00  0.000000D+00
               11            12            13            14            15 
     11  0.100000D+01
     12  0.000000D+00  0.100000D+01
     13  0.000000D+00  0.000000D+00  0.100000D+01
     14  0.749166D+00  0.000000D+00  0.000000D+00  0.100000D+01
     15  0.000000D+00  0.749166D+00  0.000000D+00  0.000000D+00  0.100000D+01
     16  0.000000D+00  0.000000D+00  0.749166D+00  0.000000D+00  0.000000D+00
     17  0.373690D+00  0.000000D+00  0.000000D+00  0.777195D+00  0.000000D+00
     18  0.000000D+00  0.373690D+00  0.000000D+00  0.000000D+00  0.777195D+00
     19  0.000000D+00  0.000000D+00  0.373690D+00  0.000000D+00  0.000000D+00
     20  0.157961D+00  0.000000D+00  0.000000D+00  0.422515D+00  0.000000D+00
     21  0.000000D+00  0.157961D+00  0.000000D+00  0.000000D+00  0.422515D+00
     22  0.000000D+00  0.000000D+00  0.157961D+00  0.000000D+00  0.000000D+00
     23  0.000000D+00  0.000000D+00  0.000000D+00  0.000000D+00  0.000000D+00
     24  0.000000D+00  0.000000D+00  0.000000D+00  0.000000D+00  0.000000D+00
     25  0.000000D+00  0.000000D+00  0.000000D+00  0.000000D+00  0.000000D+00
     26  0.000000D+00  0.000000D+00  0.000000D+00  0.000000D+00  0.000000D+00
     27  0.000000D+00  0.000000D+00  0.000000D+00  0.000000D+00  0.000000D+00
     28  0.000000D+00  0.000000D+00  0.000000D+00  0.000000D+00  0.000000D+00
     29  0.000000D+00  0.000000D+00  0.000000D+00  0.000000D+00  0.000000D+00
     30  0.000000D+00  0.000000D+00  0.000000D+00  0.000000D+00  0.000000D+00
     31  0.000000D+00  0.000000D+00  0.000000D+00  0.000000D+00  0.000000D+00
     32  0.000000D+00  0.000000D+00  0.000000D+00  0.000000D+00  0.000000D+00
     33  0.000000D+00  0.000000D+00  0.000000D+00  0.000000D+00  0.000000D+00
     34  0.000000D+00  0.000000D+00  0.000000D+00  0.000000D+00  0.000000D+00
     35  0.000000D+00  0.000000D+00  0.000000D+00  0.000000D+00  0.000000D+00
     36  0.000000D+00  0.000000D+00  0.000000D+00  0.000000D+00  0.000000D+00
     37  0.000000D+00  0.000000D+00  0.000000D+00  0.000000D+00  0.000000D+00
     38  0.000000D+00  0.000000D+00  0.000000D+00  0.000000D+00  0.000000D+00
     39  0.000000D+00  0.000000D+00  0.000000D+00  0.000000D+00  0.000000D+00
     40  0.000000D+00  0.000000D+00  0.000000D+00  0.000000D+00  0.000000D+00
     41  0.000000D+00  0.000000D+00  0.000000D+00  0.000000D+00  0.000000D+00
     42  0.000000D+00  0.000000D+00  0.000000D+00  0.000000D+00  0.000000D+00
     43  0.000000D+00  0.000000D+00  0.000000D+00  0.000000D+00  0.000000D+00
     44  0.000000D+00  0.000000D+00  0.000000D+00  0.000000D+00  0.000000D+00
     45  0.000000D+00  0.000000D+00  0.000000D+00  0.000000D+00  0.000000D+00
     46  0.000000D+00  0.000000D+00  0.000000D+00  0.000000D+00  0.000000D+00
     47  0.000000D+00  0.000000D+00  0.000000D+00  0.000000D+00  0.000000D+00
     48  0.000000D+00  0.000000D+00  0.000000D+00  0.000000D+00  0.000000D+00
     49  0.000000D+00  0.000000D+00  0.000000D+00  0.000000D+00  0.000000D+00
     50  0.000000D+00  0.000000D+00  0.000000D+00  0.000000D+00  0.000000D+00
     51  0.000000D+00  0.000000D+00  0.000000D+00  0.000000D+00  0.000000D+00
     52  0.000000D+00  0.000000D+00  0.000000D+00  0.000000D+00  0.000000D+00
     53  0.000000D+00  0.000000D+00  0.000000D+00  0.000000D+00  0.000000D+00
     54  0.000000D+00  0.000000D+00  0.000000D+00  0.000000D+00  0.000000D+00
     55  0.000000D+00  0.000000D+00  0.000000D+00  0.000000D+00  0.000000D+00
     56  0.000000D+00  0.000000D+00  0.000000D+00  0.000000D+00  0.000000D+00
     57  0.000000D+00  0.000000D+00  0.000000D+00  0.000000D+00  0.000000D+00
     58  0.000000D+00  0.000000D+00  0.000000D+00  0.000000D+00  0.000000D+00
     59  0.000000D+00  0.000000D+00  0.000000D+00  0.000000D+00  0.000000D+00
     60  0.000000D+00  0.000000D+00  0.000000D+00  0.000000D+00  0.000000D+00
     61  0.000000D+00  0.000000D+00  0.000000D+00  0.000000D+00  0.000000D+00
     62  0.000000D+00  0.000000D+00  0.000000D+00  0.000000D+00  0.000000D+00
     63  0.000000D+00  0.000000D+00  0.000000D+00  0.000000D+00  0.000000D+00
     64  0.000000D+00  0.000000D+00  0.000000D+00  0.000000D+00  0.000000D+00
     65  0.000000D+00  0.000000D+00  0.000000D+00  0.000000D+00  0.000000D+00
     66  0.000000D+00  0.000000D+00  0.000000D+00  0.000000D+00  0.000000D+00
     67  0.000000D+00  0.000000D+00  0.000000D+00  0.000000D+00  0.000000D+00
     68  0.000000D+00  0.000000D+00  0.000000D+00  0.000000D+00  0.000000D+00
     69  0.000000D+00  0.000000D+00  0.000000D+00  0.000000D+00  0.000000D+00
     70  0.000000D+00  0.000000D+00  0.000000D+00  0.000000D+00  0.000000D+00
     71  0.000000D+00  0.000000D+00  0.000000D+00  0.000000D+00  0.000000D+00
     72  0.000000D+00  0.000000D+00  0.000000D+00  0.000000D+00  0.000000D+00
     73  0.000000D+00  0.000000D+00  0.000000D+00  0.000000D+00  0.000000D+00
     74  0.000000D+00  0.000000D+00  0.000000D+00  0.000000D+00  0.000000D+00
     75  0.000000D+00  0.000000D+00  0.000000D+00  0.000000D+00  0.000000D+00
     76  0.000000D+00  0.000000D+00  0.000000D+00  0.000000D+00  0.000000D+00
     77  0.000000D+00  0.000000D+00  0.000000D+00  0.000000D+00  0.000000D+00
     78  0.000000D+00  0.000000D+00  0.000000D+00  0.000000D+00  0.000000D+00
     79  0.000000D+00  0.000000D+00  0.000000D+00  0.000000D+00  0.000000D+00
     80  0.000000D+00  0.000000D+00  0.000000D+00  0.000000D+00  0.000000D+00
     81  0.000000D+00  0.000000D+00  0.000000D+00  0.000000D+00  0.000000D+00
               16            17            18            19            20 
     16  0.100000D+01
     17  0.000000D+00  0.100000D+01
     18  0.000000D+00  0.000000D+00  0.100000D+01
     19  0.777195D+00  0.000000D+00  0.000000D+00  0.100000D+01
     20  0.000000D+00  0.805531D+00  0.000000D+00  0.000000D+00  0.100000D+01
     21  0.000000D+00  0.000000D+00  0.805531D+00  0.000000D+00  0.000000D+00
     22  0.422515D+00  0.000000D+00  0.000000D+00  0.805531D+00  0.000000D+00
     23  0.000000D+00  0.000000D+00  0.000000D+00  0.000000D+00  0.000000D+00
     24  0.000000D+00  0.000000D+00  0.000000D+00  0.000000D+00  0.000000D+00
     25  0.000000D+00  0.000000D+00  0.000000D+00  0.000000D+00  0.000000D+00
     26  0.000000D+00  0.000000D+00  0.000000D+00  0.000000D+00  0.000000D+00
     27  0.000000D+00  0.000000D+00  0.000000D+00  0.000000D+00  0.000000D+00
     28  0.000000D+00  0.000000D+00  0.000000D+00  0.000000D+00  0.000000D+00
     29  0.000000D+00  0.000000D+00  0.000000D+00  0.000000D+00  0.000000D+00
     30  0.000000D+00  0.000000D+00  0.000000D+00  0.000000D+00  0.000000D+00
     31  0.000000D+00  0.000000D+00  0.000000D+00  0.000000D+00  0.000000D+00
     32  0.000000D+00  0.000000D+00  0.000000D+00  0.000000D+00  0.000000D+00
     33  0.000000D+00  0.000000D+00  0.000000D+00  0.000000D+00  0.000000D+00
     34  0.000000D+00  0.000000D+00  0.000000D+00  0.000000D+00  0.000000D+00
     35  0.000000D+00  0.000000D+00  0.000000D+00  0.000000D+00  0.000000D+00
     36  0.000000D+00  0.000000D+00  0.000000D+00  0.000000D+00  0.000000D+00
     37  0.000000D+00  0.000000D+00  0.000000D+00  0.000000D+00  0.000000D+00
     38  0.000000D+00  0.000000D+00  0.000000D+00  0.000000D+00  0.000000D+00
     39  0.000000D+00  0.000000D+00  0.000000D+00  0.000000D+00  0.000000D+00
     40  0.000000D+00  0.000000D+00  0.000000D+00  0.000000D+00  0.000000D+00
     41  0.000000D+00  0.000000D+00  0.000000D+00  0.000000D+00  0.000000D+00
     42  0.000000D+00  0.000000D+00  0.000000D+00  0.000000D+00  0.000000D+00
     43  0.000000D+00  0.000000D+00  0.000000D+00  0.000000D+00  0.000000D+00
     44  0.000000D+00  0.000000D+00  0.000000D+00  0.000000D+00  0.000000D+00
     45  0.000000D+00  0.000000D+00  0.000000D+00  0.000000D+00  0.000000D+00
     46  0.000000D+00  0.000000D+00  0.000000D+00  0.000000D+00  0.000000D+00
     47  0.000000D+00  0.000000D+00  0.000000D+00  0.000000D+00  0.000000D+00
     48  0.000000D+00  0.000000D+00  0.000000D+00  0.000000D+00  0.000000D+00
     49  0.000000D+00  0.000000D+00  0.000000D+00  0.000000D+00  0.000000D+00
     50  0.000000D+00  0.000000D+00  0.000000D+00  0.000000D+00  0.000000D+00
     51  0.000000D+00  0.000000D+00  0.000000D+00  0.000000D+00  0.000000D+00
     52  0.000000D+00  0.000000D+00  0.000000D+00  0.000000D+00  0.000000D+00
     53  0.000000D+00  0.000000D+00  0.000000D+00  0.000000D+00  0.000000D+00
     54  0.000000D+00  0.000000D+00  0.000000D+00  0.000000D+00  0.000000D+00
     55  0.000000D+00  0.000000D+00  0.000000D+00  0.000000D+00  0.000000D+00
     56  0.000000D+00  0.000000D+00  0.000000D+00  0.000000D+00  0.000000D+00
     57  0.000000D+00  0.000000D+00  0.000000D+00  0.000000D+00  0.000000D+00
     58  0.000000D+00  0.000000D+00  0.000000D+00  0.000000D+00  0.000000D+00
     59  0.000000D+00  0.000000D+00  0.000000D+00  0.000000D+00  0.000000D+00
     60  0.000000D+00  0.000000D+00  0.000000D+00  0.000000D+00  0.000000D+00
     61  0.000000D+00  0.000000D+00  0.000000D+00  0.000000D+00  0.000000D+00
     62  0.000000D+00  0.000000D+00  0.000000D+00  0.000000D+00  0.000000D+00
     63  0.000000D+00  0.000000D+00  0.000000D+00  0.000000D+00  0.000000D+00
     64  0.000000D+00  0.000000D+00  0.000000D+00  0.000000D+00  0.000000D+00
     65  0.000000D+00  0.000000D+00  0.000000D+00  0.000000D+00  0.000000D+00
     66  0.000000D+00  0.000000D+00  0.000000D+00  0.000000D+00  0.000000D+00
     67  0.000000D+00  0.000000D+00  0.000000D+00  0.000000D+00  0.000000D+00
     68  0.000000D+00  0.000000D+00  0.000000D+00  0.000000D+00  0.000000D+00
     69  0.000000D+00  0.000000D+00  0.000000D+00  0.000000D+00  0.000000D+00
     70  0.000000D+00  0.000000D+00  0.000000D+00  0.000000D+00  0.000000D+00
     71  0.000000D+00  0.000000D+00  0.000000D+00  0.000000D+00  0.000000D+00
     72  0.000000D+00  0.000000D+00  0.000000D+00  0.000000D+00  0.000000D+00
     73  0.000000D+00  0.000000D+00  0.000000D+00  0.000000D+00  0.000000D+00
     74  0.000000D+00  0.000000D+00  0.000000D+00  0.000000D+00  0.000000D+00
     75  0.000000D+00  0.000000D+00  0.000000D+00  0.000000D+00  0.000000D+00
     76  0.000000D+00  0.000000D+00  0.000000D+00  0.000000D+00  0.000000D+00
     77  0.000000D+00  0.000000D+00  0.000000D+00  0.000000D+00  0.000000D+00
     78  0.000000D+00  0.000000D+00  0.000000D+00  0.000000D+00  0.000000D+00
     79  0.000000D+00  0.000000D+00  0.000000D+00  0.000000D+00  0.000000D+00
     80  0.000000D+00  0.000000D+00  0.000000D+00  0.000000D+00  0.000000D+00
     81  0.000000D+00  0.000000D+00  0.000000D+00  0.000000D+00  0.000000D+00
               21            22            23            24            25 
     21  0.100000D+01
     22  0.000000D+00  0.100000D+01
     23  0.000000D+00  0.000000D+00  0.100000D+01
     24  0.000000D+00  0.000000D+00  0.000000D+00  0.100000D+01
     25  0.000000D+00  0.000000D+00  0.000000D+00  0.000000D+00  0.100000D+01
     26  0.000000D+00  0.000000D+00  0.000000D+00  0.000000D+00  0.000000D+00
     27  0.000000D+00  0.000000D+00  0.000000D+00  0.000000D+00  0.000000D+00
     28  0.000000D+00  0.000000D+00  0.756040D+00  0.000000D+00  0.000000D+00
     29  0.000000D+00  0.000000D+00  0.000000D+00  0.756040D+00  0.000000D+00
     30  0.000000D+00  0.000000D+00  0.000000D+00  0.000000D+00  0.756040D+00
     31  0.000000D+00  0.000000D+00  0.000000D+00  0.000000D+00  0.000000D+00
     32  0.000000D+00  0.000000D+00  0.000000D+00  0.000000D+00  0.000000D+00
     33  0.000000D+00  0.000000D+00  0.352641D+00  0.000000D+00  0.000000D+00
     34  0.000000D+00  0.000000D+00  0.000000D+00  0.352641D+00  0.000000D+00
     35  0.000000D+00  0.000000D+00  0.000000D+00  0.000000D+00  0.352641D+00
     36  0.000000D+00  0.000000D+00  0.000000D+00  0.000000D+00  0.000000D+00
     37  0.000000D+00  0.000000D+00  0.000000D+00  0.000000D+00  0.000000D+00
     38  0.000000D+00  0.000000D+00  0.120257D+00  0.000000D+00  0.000000D+00
     39  0.000000D+00  0.000000D+00  0.000000D+00  0.120257D+00  0.000000D+00
     40  0.000000D+00  0.000000D+00  0.000000D+00  0.000000D+00  0.120257D+00
     41  0.000000D+00  0.000000D+00  0.000000D+00  0.000000D+00  0.000000D+00
     42  0.000000D+00  0.000000D+00  0.000000D+00  0.000000D+00  0.000000D+00
     43  0.000000D+00  0.000000D+00  0.000000D+00  0.000000D+00  0.000000D+00
     44  0.000000D+00  0.000000D+00  0.000000D+00  0.000000D+00  0.000000D+00
     45  0.000000D+00  0.000000D+00  0.000000D+00  0.000000D+00  0.000000D+00
     46  0.000000D+00  0.000000D+00  0.000000D+00  0.000000D+00  0.000000D+00
     47  0.000000D+00  0.000000D+00  0.000000D+00  0.000000D+00  0.000000D+00
     48  0.000000D+00  0.000000D+00  0.000000D+00  0.000000D+00  0.000000D+00
     49  0.000000D+00  0.000000D+00  0.000000D+00  0.000000D+00  0.000000D+00
     50  0.000000D+00  0.000000D+00  0.000000D+00  0.000000D+00  0.000000D+00
     51  0.000000D+00  0.000000D+00  0.000000D+00  0.000000D+00  0.000000D+00
     52  0.000000D+00  0.000000D+00  0.000000D+00  0.000000D+00  0.000000D+00
     53  0.000000D+00  0.000000D+00  0.000000D+00  0.000000D+00  0.000000D+00
     54  0.000000D+00  0.000000D+00  0.000000D+00  0.000000D+00  0.000000D+00
     55  0.000000D+00  0.000000D+00  0.000000D+00  0.000000D+00  0.000000D+00
     56  0.000000D+00  0.000000D+00  0.000000D+00  0.000000D+00  0.000000D+00
     57  0.000000D+00  0.000000D+00  0.000000D+00  0.000000D+00  0.000000D+00
     58  0.000000D+00  0.000000D+00  0.000000D+00  0.000000D+00  0.000000D+00
     59  0.000000D+00  0.000000D+00  0.000000D+00  0.000000D+00  0.000000D+00
     60  0.000000D+00  0.000000D+00  0.000000D+00  0.000000D+00  0.000000D+00
     61  0.000000D+00  0.000000D+00  0.000000D+00  0.000000D+00  0.000000D+00
     62  0.000000D+00  0.000000D+00  0.000000D+00  0.000000D+00  0.000000D+00
     63  0.000000D+00  0.000000D+00  0.000000D+00  0.000000D+00  0.000000D+00
     64  0.000000D+00  0.000000D+00  0.000000D+00  0.000000D+00  0.000000D+00
     65  0.000000D+00  0.000000D+00  0.000000D+00  0.000000D+00  0.000000D+00
     66  0.000000D+00  0.000000D+00  0.000000D+00  0.000000D+00  0.000000D+00
     67  0.000000D+00  0.000000D+00  0.000000D+00  0.000000D+00  0.000000D+00
     68  0.000000D+00  0.000000D+00  0.000000D+00  0.000000D+00  0.000000D+00
     69  0.000000D+00  0.000000D+00  0.000000D+00  0.000000D+00  0.000000D+00
     70  0.000000D+00  0.000000D+00  0.000000D+00  0.000000D+00  0.000000D+00
     71  0.000000D+00  0.000000D+00  0.000000D+00  0.000000D+00  0.000000D+00
     72  0.000000D+00  0.000000D+00  0.000000D+00  0.000000D+00  0.000000D+00
     73  0.000000D+00  0.000000D+00  0.000000D+00  0.000000D+00  0.000000D+00
     74  0.000000D+00  0.000000D+00  0.000000D+00  0.000000D+00  0.000000D+00
     75  0.000000D+00  0.000000D+00  0.000000D+00  0.000000D+00  0.000000D+00
     76  0.000000D+00  0.000000D+00  0.000000D+00  0.000000D+00  0.000000D+00
     77  0.000000D+00  0.000000D+00  0.000000D+00  0.000000D+00  0.000000D+00
     78  0.000000D+00  0.000000D+00  0.000000D+00  0.000000D+00  0.000000D+00
     79  0.000000D+00  0.000000D+00  0.000000D+00  0.000000D+00  0.000000D+00
     80  0.000000D+00  0.000000D+00  0.000000D+00  0.000000D+00  0.000000D+00
     81  0.000000D+00  0.000000D+00  0.000000D+00  0.000000D+00  0.000000D+00
               26            27            28            29            30 
     26  0.100000D+01
     27  0.000000D+00  0.100000D+01
     28  0.000000D+00  0.000000D+00  0.100000D+01
     29  0.000000D+00  0.000000D+00  0.000000D+00  0.100000D+01
     30  0.000000D+00  0.000000D+00  0.000000D+00  0.000000D+00  0.100000D+01
     31  0.756040D+00  0.000000D+00  0.000000D+00  0.000000D+00  0.000000D+00
     32  0.000000D+00  0.756040D+00  0.000000D+00  0.000000D+00  0.000000D+00
     33  0.000000D+00  0.000000D+00  0.755671D+00  0.000000D+00  0.000000D+00
     34  0.000000D+00  0.000000D+00  0.000000D+00  0.755671D+00  0.000000D+00
     35  0.000000D+00  0.000000D+00  0.000000D+00  0.000000D+00  0.755671D+00
     36  0.352641D+00  0.000000D+00  0.000000D+00  0.000000D+00  0.000000D+00
     37  0.000000D+00  0.352641D+00  0.000000D+00  0.000000D+00  0.000000D+00
     38  0.000000D+00  0.000000D+00  0.354232D+00  0.000000D+00  0.000000D+00
     39  0.000000D+00  0.000000D+00  0.000000D+00  0.354232D+00  0.000000D+00
     40  0.000000D+00  0.000000D+00  0.000000D+00  0.000000D+00  0.354232D+00
     41  0.120257D+00  0.000000D+00  0.000000D+00  0.000000D+00  0.000000D+00
     42  0.000000D+00  0.120257D+00  0.000000D+00  0.000000D+00  0.000000D+00
     43  0.000000D+00  0.000000D+00  0.000000D+00  0.000000D+00  0.000000D+00
     44  0.000000D+00  0.000000D+00  0.000000D+00  0.000000D+00  0.000000D+00
     45  0.000000D+00  0.000000D+00  0.000000D+00  0.000000D+00  0.000000D+00
     46  0.000000D+00  0.000000D+00  0.000000D+00  0.000000D+00  0.000000D+00
     47  0.000000D+00  0.000000D+00  0.000000D+00  0.000000D+00  0.000000D+00
     48  0.000000D+00  0.000000D+00  0.000000D+00  0.000000D+00  0.000000D+00
     49  0.000000D+00  0.000000D+00  0.000000D+00  0.000000D+00  0.000000D+00
     50  0.000000D+00  0.000000D+00  0.000000D+00  0.000000D+00  0.000000D+00
     51  0.000000D+00  0.000000D+00  0.000000D+00  0.000000D+00  0.000000D+00
     52  0.000000D+00  0.000000D+00  0.000000D+00  0.000000D+00  0.000000D+00
     53  0.000000D+00  0.000000D+00  0.000000D+00  0.000000D+00  0.000000D+00
     54  0.000000D+00  0.000000D+00  0.000000D+00  0.000000D+00  0.000000D+00
     55  0.000000D+00  0.000000D+00  0.000000D+00  0.000000D+00  0.000000D+00
     56  0.000000D+00  0.000000D+00  0.000000D+00  0.000000D+00  0.000000D+00
     57  0.000000D+00  0.000000D+00  0.000000D+00  0.000000D+00  0.000000D+00
     58  0.000000D+00  0.000000D+00  0.000000D+00  0.000000D+00  0.000000D+00
     59  0.000000D+00  0.000000D+00  0.000000D+00  0.000000D+00  0.000000D+00
     60  0.000000D+00  0.000000D+00  0.000000D+00  0.000000D+00  0.000000D+00
     61  0.000000D+00  0.000000D+00  0.000000D+00  0.000000D+00  0.000000D+00
     62  0.000000D+00  0.000000D+00  0.000000D+00  0.000000D+00  0.000000D+00
     63  0.000000D+00  0.000000D+00  0.000000D+00  0.000000D+00  0.000000D+00
     64  0.000000D+00  0.000000D+00  0.000000D+00  0.000000D+00  0.000000D+00
     65  0.000000D+00  0.000000D+00  0.000000D+00  0.000000D+00  0.000000D+00
     66  0.000000D+00  0.000000D+00  0.000000D+00  0.000000D+00  0.000000D+00
     67  0.000000D+00  0.000000D+00  0.000000D+00  0.000000D+00  0.000000D+00
     68  0.000000D+00  0.000000D+00  0.000000D+00  0.000000D+00  0.000000D+00
     69  0.000000D+00  0.000000D+00  0.000000D+00  0.000000D+00  0.000000D+00
     70  0.000000D+00  0.000000D+00  0.000000D+00  0.000000D+00  0.000000D+00
     71  0.000000D+00  0.000000D+00  0.000000D+00  0.000000D+00  0.000000D+00
     72  0.000000D+00  0.000000D+00  0.000000D+00  0.000000D+00  0.000000D+00
     73  0.000000D+00  0.000000D+00  0.000000D+00  0.000000D+00  0.000000D+00
     74  0.000000D+00  0.000000D+00  0.000000D+00  0.000000D+00  0.000000D+00
     75  0.000000D+00  0.000000D+00  0.000000D+00  0.000000D+00  0.000000D+00
     76  0.000000D+00  0.000000D+00  0.000000D+00  0.000000D+00  0.000000D+00
     77  0.000000D+00  0.000000D+00  0.000000D+00  0.000000D+00  0.000000D+00
     78  0.000000D+00  0.000000D+00  0.000000D+00  0.000000D+00  0.000000D+00
     79  0.000000D+00  0.000000D+00  0.000000D+00  0.000000D+00  0.000000D+00
     80  0.000000D+00  0.000000D+00  0.000000D+00  0.000000D+00  0.000000D+00
     81  0.000000D+00  0.000000D+00  0.000000D+00  0.000000D+00  0.000000D+00
               31            32            33            34            35 
     31  0.100000D+01
     32  0.000000D+00  0.100000D+01
     33  0.000000D+00  0.000000D+00  0.100000D+01
     34  0.000000D+00  0.000000D+00  0.000000D+00  0.100000D+01
     35  0.000000D+00  0.000000D+00  0.000000D+00  0.000000D+00  0.100000D+01
     36  0.755671D+00  0.000000D+00  0.000000D+00  0.000000D+00  0.000000D+00
     37  0.000000D+00  0.755671D+00  0.000000D+00  0.000000D+00  0.000000D+00
     38  0.000000D+00  0.000000D+00  0.757993D+00  0.000000D+00  0.000000D+00
     39  0.000000D+00  0.000000D+00  0.000000D+00  0.757993D+00  0.000000D+00
     40  0.000000D+00  0.000000D+00  0.000000D+00  0.000000D+00  0.757993D+00
     41  0.354232D+00  0.000000D+00  0.000000D+00  0.000000D+00  0.000000D+00
     42  0.000000D+00  0.354232D+00  0.000000D+00  0.000000D+00  0.000000D+00
     43  0.000000D+00  0.000000D+00  0.000000D+00  0.000000D+00  0.000000D+00
     44  0.000000D+00  0.000000D+00  0.000000D+00  0.000000D+00  0.000000D+00
     45  0.000000D+00  0.000000D+00  0.000000D+00  0.000000D+00  0.000000D+00
     46  0.000000D+00  0.000000D+00  0.000000D+00  0.000000D+00  0.000000D+00
     47  0.000000D+00  0.000000D+00  0.000000D+00  0.000000D+00  0.000000D+00
     48  0.000000D+00  0.000000D+00  0.000000D+00  0.000000D+00  0.000000D+00
     49  0.000000D+00  0.000000D+00  0.000000D+00  0.000000D+00  0.000000D+00
     50  0.000000D+00  0.000000D+00  0.000000D+00  0.000000D+00  0.000000D+00
     51  0.000000D+00  0.000000D+00  0.000000D+00  0.000000D+00  0.000000D+00
     52  0.000000D+00  0.000000D+00  0.000000D+00  0.000000D+00  0.000000D+00
     53  0.000000D+00  0.000000D+00  0.000000D+00  0.000000D+00  0.000000D+00
     54  0.000000D+00  0.000000D+00  0.000000D+00  0.000000D+00  0.000000D+00
     55  0.000000D+00  0.000000D+00  0.000000D+00  0.000000D+00  0.000000D+00
     56  0.000000D+00  0.000000D+00  0.000000D+00  0.000000D+00  0.000000D+00
     57  0.000000D+00  0.000000D+00  0.000000D+00  0.000000D+00  0.000000D+00
     58  0.000000D+00  0.000000D+00  0.000000D+00  0.000000D+00  0.000000D+00
     59  0.000000D+00  0.000000D+00  0.000000D+00  0.000000D+00  0.000000D+00
     60  0.000000D+00  0.000000D+00  0.000000D+00  0.000000D+00  0.000000D+00
     61  0.000000D+00  0.000000D+00  0.000000D+00  0.000000D+00  0.000000D+00
     62  0.000000D+00  0.000000D+00  0.000000D+00  0.000000D+00  0.000000D+00
     63  0.000000D+00  0.000000D+00  0.000000D+00  0.000000D+00  0.000000D+00
     64  0.000000D+00  0.000000D+00  0.000000D+00  0.000000D+00  0.000000D+00
     65  0.000000D+00  0.000000D+00  0.000000D+00  0.000000D+00  0.000000D+00
     66  0.000000D+00  0.000000D+00  0.000000D+00  0.000000D+00  0.000000D+00
     67  0.000000D+00  0.000000D+00  0.000000D+00  0.000000D+00  0.000000D+00
     68  0.000000D+00  0.000000D+00  0.000000D+00  0.000000D+00  0.000000D+00
     69  0.000000D+00  0.000000D+00  0.000000D+00  0.000000D+00  0.000000D+00
     70  0.000000D+00  0.000000D+00  0.000000D+00  0.000000D+00  0.000000D+00
     71  0.000000D+00  0.000000D+00  0.000000D+00  0.000000D+00  0.000000D+00
     72  0.000000D+00  0.000000D+00  0.000000D+00  0.000000D+00  0.000000D+00
     73  0.000000D+00  0.000000D+00  0.000000D+00  0.000000D+00  0.000000D+00
     74  0.000000D+00  0.000000D+00  0.000000D+00  0.000000D+00  0.000000D+00
     75  0.000000D+00  0.000000D+00  0.000000D+00  0.000000D+00  0.000000D+00
     76  0.000000D+00  0.000000D+00  0.000000D+00  0.000000D+00  0.000000D+00
     77  0.000000D+00  0.000000D+00  0.000000D+00  0.000000D+00  0.000000D+00
     78  0.000000D+00  0.000000D+00  0.000000D+00  0.000000D+00  0.000000D+00
     79  0.000000D+00  0.000000D+00  0.000000D+00  0.000000D+00  0.000000D+00
     80  0.000000D+00  0.000000D+00  0.000000D+00  0.000000D+00  0.000000D+00
     81  0.000000D+00  0.000000D+00  0.000000D+00  0.000000D+00  0.000000D+00
               36            37            38            39            40 
     36  0.100000D+01
     37  0.000000D+00  0.100000D+01
     38  0.000000D+00  0.000000D+00  0.100000D+01
     39  0.000000D+00  0.000000D+00  0.000000D+00  0.100000D+01
     40  0.000000D+00  0.000000D+00  0.000000D+00  0.000000D+00  0.100000D+01
     41  0.757993D+00  0.000000D+00  0.000000D+00  0.000000D+00  0.000000D+00
     42  0.000000D+00  0.757993D+00  0.000000D+00  0.000000D+00  0.000000D+00
     43  0.000000D+00  0.000000D+00  0.000000D+00  0.000000D+00  0.000000D+00
     44  0.000000D+00  0.000000D+00  0.000000D+00  0.000000D+00  0.000000D+00
     45  0.000000D+00  0.000000D+00  0.000000D+00  0.000000D+00  0.000000D+00
     46  0.000000D+00  0.000000D+00  0.000000D+00  0.000000D+00  0.000000D+00
     47  0.000000D+00  0.000000D+00  0.000000D+00  0.000000D+00  0.000000D+00
     48  0.000000D+00  0.000000D+00  0.000000D+00  0.000000D+00  0.000000D+00
     49  0.000000D+00  0.000000D+00  0.000000D+00  0.000000D+00  0.000000D+00
     50  0.000000D+00  0.000000D+00  0.000000D+00  0.000000D+00  0.000000D+00
     51  0.000000D+00  0.000000D+00  0.000000D+00  0.000000D+00  0.000000D+00
     52  0.000000D+00  0.000000D+00  0.000000D+00  0.000000D+00  0.000000D+00
     53  0.000000D+00  0.000000D+00  0.000000D+00  0.000000D+00  0.000000D+00
     54  0.000000D+00  0.000000D+00  0.000000D+00  0.000000D+00  0.000000D+00
     55  0.000000D+00  0.000000D+00  0.000000D+00  0.000000D+00  0.000000D+00
     56  0.000000D+00  0.000000D+00  0.000000D+00  0.000000D+00  0.000000D+00
     57  0.000000D+00  0.000000D+00  0.000000D+00  0.000000D+00  0.000000D+00
     58  0.000000D+00  0.000000D+00  0.000000D+00  0.000000D+00  0.000000D+00
     59  0.000000D+00  0.000000D+00  0.000000D+00  0.000000D+00  0.000000D+00
     60  0.000000D+00  0.000000D+00  0.000000D+00  0.000000D+00  0.000000D+00
     61  0.000000D+00  0.000000D+00  0.000000D+00  0.000000D+00  0.000000D+00
     62  0.000000D+00  0.000000D+00  0.000000D+00  0.000000D+00  0.000000D+00
     63  0.000000D+00  0.000000D+00  0.000000D+00  0.000000D+00  0.000000D+00
     64  0.000000D+00  0.000000D+00  0.000000D+00  0.000000D+00  0.000000D+00
     65  0.000000D+00  0.000000D+00  0.000000D+00  0.000000D+00  0.000000D+00
     66  0.000000D+00  0.000000D+00  0.000000D+00  0.000000D+00  0.000000D+00
     67  0.000000D+00  0.000000D+00  0.000000D+00  0.000000D+00  0.000000D+00
     68  0.000000D+00  0.000000D+00  0.000000D+00  0.000000D+00  0.000000D+00
     69  0.000000D+00  0.000000D+00  0.000000D+00  0.000000D+00  0.000000D+00
     70  0.000000D+00  0.000000D+00  0.000000D+00  0.000000D+00  0.000000D+00
     71  0.000000D+00  0.000000D+00  0.000000D+00  0.000000D+00  0.000000D+00
     72  0.000000D+00  0.000000D+00  0.000000D+00  0.000000D+00  0.000000D+00
     73  0.000000D+00  0.000000D+00  0.000000D+00  0.000000D+00  0.000000D+00
[...]
 Coeff-Com:  0.177D-02-0.294D-02 0.579D-02-0.623D-02 0.440D-01-0.297D+00
 Coeff-Com:  0.126D+01
 Coeff:      0.177D-02-0.294D-02 0.579D-02-0.623D-02 0.440D-01-0.297D+00
 Coeff:      0.126D+01
 Gap=     0.262 Goal=   None    Shift=    0.000
 RMSDP=1.89D-06 MaxDP=5.64D-05 DE=-9.76D-07 OVMax= 1.05D-04

 Cycle   8  Pass 1  IDiag  1:
 E= -7.17621255781780     Delta-E=       -0.000000006108 Rises=F Damp=F
 DIIS: error= 9.37D-07 at cycle   8 NSaved=   8.
 NSaved= 8 IEnMin= 8 EnMin= -7.17621255781780     IErMin= 8 ErrMin= 9.37D-07
 ErrMax= 9.37D-07  0.00D+00 EMaxC= 1.00D-01 BMatC= 2.91D-11 BMatP= 1.09D-09
 IDIUse=1 WtCom= 1.00D+00 WtEn= 0.00D+00
 Coeff-Com:  0.737D-03-0.144D-02 0.457D-02-0.856D-02 0.121D-01-0.556D-02
 Coeff-Com: -0.143D+00 0.114D+01
 Coeff:      0.737D-03-0.144D-02 0.457D-02-0.856D-02 0.121D-01-0.556D-02
 Coeff:     -0.143D+00 0.114D+01
 Gap=     0.262 Goal=   None    Shift=    0.000
 RMSDP=4.71D-07 MaxDP=1.24D-05 DE=-6.11D-09 OVMax= 2.62D-05

 Cycle   9  Pass 1  IDiag  1:
 E= -7.17621255802670     Delta-E=       -0.000000000209 Rises=F Damp=F
 DIIS: error= 1.46D-07 at cycle   9 NSaved=   9.
 NSaved= 9 IEnMin= 9 EnMin= -7.17621255802670     IErMin= 9 ErrMin= 1.46D-07
 ErrMax= 1.46D-07  0.00D+00 EMaxC= 1.00D-01 BMatC= 6.91D-13 BMatP= 2.91D-11
 IDIUse=1 WtCom= 1.00D+00 WtEn= 0.00D+00
 Coeff-Com: -0.469D-04 0.890D-04-0.525D-03 0.103D-02-0.231D-02 0.658D-02
 Coeff-Com: -0.708D-02-0.200D+00 0.120D+01
 Coeff:     -0.469D-04 0.890D-04-0.525D-03 0.103D-02-0.231D-02 0.658D-02
 Coeff:     -0.708D-02-0.200D+00 0.120D+01
 Gap=     0.262 Goal=   None    Shift=    0.000
 RMSDP=1.10D-07 MaxDP=2.60D-06 DE=-2.09D-10 OVMax= 4.62D-06

 Cycle  10  Pass 1  IDiag  1:
 E= -7.17621255803156     Delta-E=       -0.000000000005 Rises=F Damp=F
 DIIS: error= 3.51D-08 at cycle  10 NSaved=  10.
 NSaved=10 IEnMin=10 EnMin= -7.17621255803156     IErMin=10 ErrMin= 3.51D-08
 ErrMax= 3.51D-08  0.00D+00 EMaxC= 1.00D-01 BMatC= 2.49D-14 BMatP= 6.91D-13
 IDIUse=1 WtCom= 1.00D+00 WtEn= 0.00D+00
 Coeff-Com: -0.211D-05 0.312D-05 0.784D-04-0.167D-03 0.360D-03-0.737D-03
 Coeff-Com: -0.206D-02 0.708D-01-0.412D+00 0.134D+01
 Coeff:     -0.211D-05 0.312D-05 0.784D-04-0.167D-03 0.360D-03-0.737D-03
 Coeff:     -0.206D-02 0.708D-01-0.412D+00 0.134D+01
 Gap=     0.262 Goal=   None    Shift=    0.000
 RMSDP=1.43D-08 MaxDP=3.40D-07 DE=-4.85D-12 OVMax= 1.08D-06

 Cycle  11  Pass 1  IDiag  1:
 E= -7.17621255803178     Delta-E=       -0.000000000000 Rises=F Damp=F
 DIIS: error= 5.05D-09 at cycle  11 NSaved=  11.
 NSaved=11 IEnMin=11 EnMin= -7.17621255803178     IErMin=11 ErrMin= 5.05D-09
 ErrMax= 5.05D-09  0.00D+00 EMaxC= 1.00D-01 BMatC= 6.10D-16 BMatP= 2.49D-14
 IDIUse=1 WtCom= 1.00D+00 WtEn= 0.00D+00
 Coeff-Com:  0.202D-05-0.386D-05 0.332D-05-0.320D-05 0.140D-05-0.187D-04
 Coeff-Com:  0.526D-03-0.783D-02 0.344D-01-0.136D+00 0.111D+01
 Coeff:      0.202D-05-0.386D-05 0.332D-05-0.320D-05 0.140D-05-0.187D-04
 Coeff:      0.526D-03-0.783D-02 0.344D-01-0.136D+00 0.111D+01
 Gap=     0.262 Goal=   None    Shift=    0.000
 RMSDP=2.14D-09 MaxDP=7.08D-08 DE=-2.22D-13 OVMax= 1.04D-07

 SCF Done:  E(RHF) =  -7.17621255803     A.U. after   11 cycles
            NFock= 11  Conv=0.21D-08     -V/T= 1.8156
 KE= 8.799035284325D+00 PE=-2.329212215682D+01 EE= 4.141811048945D+00
 Leave Link  502 at Mon Mar 28 14:02:10 2022, MaxMem=  9663676416 cpu:              21.9 elap:               0.6
 (Enter /nopt/nrel/apps/gaussian/g16C_1/g16/l801.exe)
 Windowed orbitals will be sorted by symmetry type.
 ExpMin= 6.35D-03 ExpMax= 6.60D+03 ExpMxC= 6.43D+01 IAcc=3 IRadAn=         5 AccDes= 0.00D+00
 HarFok:  IExCor=  205 AccDes= 0.00D+00 IRadAn=         5 IDoV=-2 UseB2=F ITyADJ=14
 ICtDFT= 12500011 ScaDFX=  1.000000  1.000000  1.000000  1.000000
 Largest valence mixing into a core orbital is  6.10D-03
 Largest core mixing into a valence orbital is  2.04D-04
 Range of M.O.s used for correlation:     2    81
 NBasis=    81 NAE=     2 NBE=     2 NFC=     1 NFV=     0
 NROrb=     80 NOA=     1 NOB=     1 NVA=    79 NVB=    79
 Leave Link  801 at Mon Mar 28 14:02:10 2022, MaxMem=  9663676416 cpu:               3.3 elap:               0.1
 (Enter /nopt/nrel/apps/gaussian/g16C_1/g16/l804.exe)
 Closed-shell transformation, MDV=  9663676416 ITran=4 ISComp=2.
 Unit  1 TFree=        215414 TCopy=        305698.
 Semi-Direct transformation.
 ModeAB=           2 MOrb=             1 LenV=    9663275884
 LASXX=        63906 LTotXX=       63906 LenRXX=       63906
 LTotAB=       67218 MaxLAS=      453680 LenRXY=      453680
 NonZer=      487280 LenScr=     1461248 LnRSAI=           0
 LnScr1=           0 LExtra=      313034 Total=      2291868
 MaxDsk= 34359738368 SrtSym=           F ITran=            4
 DoSDTr:  NPSUse= 36
 JobTyp=0 Pass  1:  I=   1 to   1.
 (rs|ai) integrals will be sorted in core.
 Complete sort for first half transformation.
 First half transformation complete.
 Complete sort for second half transformation.
 Second half transformation complete.
 Spin components of T(2) and E(2):
     alpha-alpha T2 =       0.0000000000D+00 E2=      0.0000000000D+00
     alpha-beta  T2 =       0.1923788507D-01 E2=     -0.2649041684D-01
     beta-beta   T2 =       0.0000000000D+00 E2=      0.0000000000D+00
 ANorm=    0.1009573120D+01
 E2 =    -0.2649041684D-01 EUMP2 =    -0.72027029748713D+01
 Leave Link  804 at Mon Mar 28 14:02:11 2022, MaxMem=  9663676416 cpu:              16.0 elap:               0.5
 (Enter /nopt/nrel/apps/gaussian/g16C_1/g16/l913.exe)
 CIDS:  MDV=  9663676416.
 Frozen-core window:  NFC=   1 NFV=   0.
 IFCWin=0 IBDFC=1 NFBD=     0     0 NFCmp=     0     0 NFFFC=     0     0
 Using DD3R+UMP44R for 1st iteration.
 Using DD4RQ for 2nd and later iterations.
 Keep R2 and R3 ints in memory in symmetry-blocked form, NReq=46163449.
 FoFCou: FMM=F IPFlag=           0 FMFlag=           0 FMFlg1=           0
         NFxFlg=           0 DoJE=F BraDBF=F KetDBF=F FulRan=T
         wScrn=  0.000000 ICntrl=       600 IOpCl=  0 I1Cent=           0 NGrid=           0
         NMat0=    1 NMatS0=   3321 NMatT0=    0 NMatD0=    1 NMtDS0=    0 NMtDT0=    0
 Petite list used in FoFCou.
 CIDS: In Core Option IDoMem=           1.
 Coupled Cluster theory with single and double substitutions
 ===========================================================
 Iterations= 200 Convergence= 0.100D-06
 Produce multiple copies of IABC intergrals
 Iteration Nr.   1
 **********************
 DD1Dir will call FoFMem   1 times, MxPair=         2
 NAB=     1 NAA=     0 NBB=     0.
 MP4(R+Q)=  0.50961959D-03
 Maximum subspace dimension=  5
 A-vector RMS=  1.7517797D-03 Max=  8.0004694D-03 conv= 1.00D-05.
 RLE energy=       -0.0360686692
 E3=       -0.75449429D-02        EUMP3=      -0.72102479178D+01
 E4(DQ)=   -0.29575021D-02        UMP4(DQ)=   -0.72132054199D+01
 E4(SDQ)=  -0.29922868D-02        UMP4(SDQ)=  -0.72132402046D+01
 VARIATIONAL ENERGIES WITH THE FIRST-ORDER WAVEFUNCTION:
 DE(Corr)= -0.33525107E-01 E(Corr)=     -7.2097376647    
 NORM(A)=   0.10203105D+01
 Iteration Nr.   2
 **********************
 DD1Dir will call FoFMem   1 times, MxPair=         2
 NAB=     1 NAA=     0 NBB=     0.
 A-vector RMS=  1.6165086D-03 Max=  4.2602061D-03 conv= 1.00D-05.
 RLE energy=       -0.0390893181
 DE(Corr)= -0.37568601E-01 E(CORR)=     -7.2137811592     Delta=-4.04D-03
 NORM(A)=   0.10265542D+01
 Iteration Nr.   3
 **********************
 DD1Dir will call FoFMem   1 times, MxPair=         2
 NAB=     1 NAA=     0 NBB=     0.
 A-vector RMS=  1.8040410D-03 Max=  5.5335597D-03 conv= 1.00D-05.
 RLE energy=       -0.0394679719
 DE(Corr)= -0.39086984E-01 E(CORR)=     -7.2152995422     Delta=-1.52D-03
 NORM(A)=   0.10288345D+01
 Iteration Nr.   4
 **********************
 DD1Dir will call FoFMem   1 times, MxPair=         2
 NAB=     1 NAA=     0 NBB=     0.
 A-vector RMS=  1.2672041D-03 Max=  3.7506094D-03 conv= 1.00D-05.
 RLE energy=       -0.0397100772
 DE(Corr)= -0.39494672E-01 E(CORR)=     -7.2157072298     Delta=-4.08D-04
 NORM(A)=   0.10314141D+01
 Iteration Nr.   5
 **********************
 DD1Dir will call FoFMem   1 times, MxPair=         2
 NAB=     1 NAA=     0 NBB=     0.
 A-vector RMS=  7.3609126D-04 Max=  2.3497971D-03 conv= 1.00D-05.
 RLE energy=       -0.0397696212
 DE(Corr)= -0.39688375E-01 E(CORR)=     -7.2159009330     Delta=-1.94D-04
 NORM(A)=   0.10333882D+01
 Iteration Nr.   6
 **********************
 DD1Dir will call FoFMem   1 times, MxPair=         2
 NAB=     1 NAA=     0 NBB=     0.
 A-vector RMS=  1.6515717D-04 Max=  9.6086735D-04 conv= 1.00D-05.
 RLE energy=       -0.0397589828
 DE(Corr)= -0.39765656E-01 E(CORR)=     -7.2159782144     Delta=-7.73D-05
 NORM(A)=   0.10337655D+01
 Iteration Nr.   7
 **********************
 DD1Dir will call FoFMem   1 times, MxPair=         2
 NAB=     1 NAA=     0 NBB=     0.
 A-vector RMS=  7.4313551D-05 Max=  1.9975857D-04 conv= 1.00D-05.
 RLE energy=       -0.0397743368
 DE(Corr)= -0.39770963E-01 E(CORR)=     -7.2159835210     Delta=-5.31D-06
 NORM(A)=   0.10338535D+01
 Iteration Nr.   8
 **********************
 DD1Dir will call FoFMem   1 times, MxPair=         2
 NAB=     1 NAA=     0 NBB=     0.
 A-vector RMS=  2.8016843D-05 Max=  1.2620813D-04 conv= 1.00D-05.
 RLE energy=       -0.0397728964
 DE(Corr)= -0.39773498E-01 E(CORR)=     -7.2159860561     Delta=-2.54D-06
 NORM(A)=   0.10338392D+01
 Iteration Nr.   9
 **********************
 DD1Dir will call FoFMem   1 times, MxPair=         2
 NAB=     1 NAA=     0 NBB=     0.
 A-vector RMS=  1.0653018D-05 Max=  3.1913021D-05 conv= 1.00D-05.
 RLE energy=       -0.0397753503
 DE(Corr)= -0.39774286E-01 E(CORR)=     -7.2159868441     Delta=-7.88D-07
 NORM(A)=   0.10338420D+01
 Iteration Nr.  10
 **********************
 DD1Dir will call FoFMem   1 times, MxPair=         2
 NAB=     1 NAA=     0 NBB=     0.
 A-vector RMS=  3.2715713D-06 Max=  1.1439694D-05 conv= 1.00D-05.
 RLE energy=       -0.0397761223
 DE(Corr)= -0.39775428E-01 E(CORR)=     -7.2159879863     Delta=-1.14D-06
 NORM(A)=   0.10338432D+01
 Iteration Nr.  11
 **********************
 DD1Dir will call FoFMem   1 times, MxPair=         2
 NAB=     1 NAA=     0 NBB=     0.
 A-vector RMS=  2.3388605D-06 Max=  6.7720962D-06 conv= 1.00D-05.
 RLE energy=       -0.0397765418
 DE(Corr)= -0.39776147E-01 E(CORR)=     -7.2159887054     Delta=-7.19D-07
 NORM(A)=   0.10338464D+01
 Iteration Nr.  12
 **********************
 DD1Dir will call FoFMem   1 times, MxPair=         2
 NAB=     1 NAA=     0 NBB=     0.
 A-vector RMS=  2.0748414D-06 Max=  6.3440109D-06 conv= 1.00D-05.
 RLE energy=       -0.0397767752
 DE(Corr)= -0.39776501E-01 E(CORR)=     -7.2159890594     Delta=-3.54D-07
 NORM(A)=   0.10338493D+01
 Iteration Nr.  13
 **********************
 DD1Dir will call FoFMem   1 times, MxPair=         2
 NAB=     1 NAA=     0 NBB=     0.
 A-vector RMS=  1.5498016D-06 Max=  4.6433620D-06 conv= 1.00D-05.
 RLE energy=       -0.0397769066
 DE(Corr)= -0.39776714E-01 E(CORR)=     -7.2159892719     Delta=-2.13D-07
 NORM(A)=   0.10338527D+01
 Iteration Nr.  14
 **********************
 DD1Dir will call FoFMem   1 times, MxPair=         2
 NAB=     1 NAA=     0 NBB=     0.
 A-vector RMS=  8.6735594D-07 Max=  2.6545125D-06 conv= 1.00D-05.
 RLE energy=       -0.0397770102
 DE(Corr)= -0.39776884E-01 E(CORR)=     -7.2159894421     Delta=-1.70D-07
 NORM(A)=   0.10338556D+01
 Iteration Nr.  15
 **********************
 DD1Dir will call FoFMem   1 times, MxPair=         2
 NAB=     1 NAA=     0 NBB=     0.
 A-vector RMS=  3.2541558D-07 Max=  1.3411768D-06 conv= 1.00D-05.
 RLE energy=       -0.0397770150
 DE(Corr)= -0.39776996E-01 E(CORR)=     -7.2159895544     Delta=-1.12D-07
 NORM(A)=   0.10338564D+01
 Iteration Nr.  16
 **********************
 DD1Dir will call FoFMem   1 times, MxPair=         2
 NAB=     1 NAA=     0 NBB=     0.
 A-vector RMS=  1.6577269D-07 Max=  5.8600454D-07 conv= 1.00D-05.
 RLE energy=       -0.0397770210
 DE(Corr)= -0.39777018E-01 E(CORR)=     -7.2159895764     Delta=-2.20D-08
 NORM(A)=   0.10338566D+01
 CI/CC converged in   16 iterations to DelEn=-2.20D-08 Conv= 1.00D-07 ErrA1= 1.66D-07 Conv= 1.00D-05
 Wavefunction amplitudes converged. E(Corr)=     -7.2159895764    
 Largest amplitude= 4.26D-02
 Discarding MO integrals.
 Leave Link  913 at Mon Mar 28 14:02:11 2022, MaxMem=  9663676416 cpu:              23.4 elap:               0.7
 (Enter /nopt/nrel/apps/gaussian/g16C_1/g16/l601.exe)
 Copying SCF densities to generalized density rwf, IOpCl= 0 IROHF=0.

 **********************************************************************

            Population analysis using the SCF Density.

 **********************************************************************

 Orbital symmetries:
       Occupied  (SG) (SG)
       Virtual   (SG) (PI) (PI) (SG) (SG) (PI) (PI) (SG) (DLTA)
                 (DLTA) (PI) (PI) (SG) (SG) (PI) (PI) (SG) (DLTA)
                 (DLTA) (PHI) (PHI) (PI) (PI) (SG) (DLTA) (DLTA)
                 (PI) (PI) (SG) (PI) (PI) (SG) (?A) (?A) (PHI)
                 (PHI) (DLTA) (DLTA) (PI) (PI) (SG) (SG) (DLTA)
                 (DLTA) (PI) (PI) (PHI) (PHI) (SG) (DLTA) (DLTA)
                 (PI) (PI) (SG) (PI) (PI) (SG) (PI) (PI) (DLTA)
                 (DLTA) (PHI) (PHI) (SG) (?A) (?A) (PHI) (PHI)
                 (PI) (PI) (DLTA) (DLTA) (SG) (PI) (PI) (DLTA)
                 (DLTA) (SG) (SG)
 The electronic state is 1-SG.
 Alpha  occ. eigenvalues --   -2.83412  -0.27061
 Alpha virt. eigenvalues --   -0.00850   0.01409   0.01409   0.01797   0.02198
 Alpha virt. eigenvalues --    0.04364   0.04364   0.07138   0.08761   0.08761
 Alpha virt. eigenvalues --    0.09237   0.09237   0.09352   0.10258   0.11797
 Alpha virt. eigenvalues --    0.11797   0.21844   0.22038   0.22038   0.22042
 Alpha virt. eigenvalues --    0.22042   0.22080   0.22080   0.23091   0.26804
 Alpha virt. eigenvalues --    0.26804   0.27118   0.27118   0.28733   0.32036
 Alpha virt. eigenvalues --    0.32036   0.33482   0.53175   0.53175   0.53260
 Alpha virt. eigenvalues --    0.53260   0.53325   0.53325   0.53367   0.53367
 Alpha virt. eigenvalues --    0.53379   0.61044   0.62456   0.62456   0.62469
 Alpha virt. eigenvalues --    0.62469   0.62716   0.62716   0.64597   0.66507
 Alpha virt. eigenvalues --    0.66507   0.66788   0.66788   0.82102   1.01736
 Alpha virt. eigenvalues --    1.01736   1.41673   1.41879   1.41879   1.42098
 Alpha virt. eigenvalues --    1.42098   1.42480   1.42480   1.46097   1.46900
 Alpha virt. eigenvalues --    1.46900   1.49283   1.49283   1.50202   1.50202
 Alpha virt. eigenvalues --    1.50305   1.50305   1.50893   1.51282   1.51282
 Alpha virt. eigenvalues --    1.53819   1.53819   2.28738   5.47836
          Condensed to atoms (all electrons):
               1          2
     1  H    0.569484   0.376646
     2  Li   0.376646   2.677224
 Mulliken charges:
               1
     1  H    0.053870
     2  Li  -0.053870
 Sum of Mulliken charges =  -0.00000
 Mulliken charges with hydrogens summed into heavy atoms:
               1
     2  Li  -0.000000
 N-N= 3.175063265520D+00 E-N=-2.329212207709D+01  KE= 8.799035284325D+00
 Symmetry A1   KE= 8.799035284325D+00
 Symmetry A2   KE= 7.418322063296D-53
 Symmetry B1   KE= 0.000000000000D+00
 Symmetry B2   KE= 0.000000000000D+00

 Atomic contributions to Alpha molecular orbitals:
 Alpha occ 1 OE=-2.834 is Li2-s=0.8827 H1-s=0.1194
 Alpha occ 2 OE=-0.271 is Li2-s=0.3676 H1-s=0.3537 Li2-p=0.2775
 Alpha vir 3 OE=-0.009 is Li2-s=0.5406 Li2-p=0.4454
 Alpha vir 4 OE=0.014 is Li2-p=0.9880
 Alpha vir 5 OE=0.014 is Li2-p=0.9880
 Alpha vir 6 OE=0.018 is Li2-s=0.5661 Li2-p=0.4301
 Alpha vir 7 OE=0.022 is Li2-p=0.6208 Li2-s=0.3720
 Alpha vir 8 OE=0.044 is Li2-p=0.9315
 Alpha vir 9 OE=0.044 is Li2-p=0.9315
 Alpha vir 10 OE=0.071 is Li2-p=0.5656 Li2-d=0.3179 Li2-s=0.1000
 Alpha vir 11 OE=0.088 is Li2-d=0.9896
 Alpha vir 12 OE=0.088 is Li2-d=0.9896
 Alpha vir 13 OE=0.092 is Li2-d=0.9059
 Alpha vir 14 OE=0.092 is Li2-d=0.9059
 Alpha vir 15 OE=0.094 is Li2-s=0.3613 Li2-d=0.3311 Li2-p=0.3005
 Alpha vir 16 OE=0.103 is Li2-s=0.5157 Li2-d=0.3162 Li2-p=0.1567
 Alpha vir 17 OE=0.118 is Li2-p=0.9842
 Alpha vir 18 OE=0.118 is Li2-p=0.9842
 Alpha vir 19 OE=0.218 is Li2-f=0.6243 Li2-d=0.2422 Li2-p=0.1012
 Alpha vir 20 OE=0.220 is Li2-f=0.9220
 Alpha vir 21 OE=0.220 is Li2-f=0.9220
 Alpha vir 22 OE=0.220 is Li2-f=0.9973
 Alpha vir 23 OE=0.220 is Li2-f=0.9973
 Alpha vir 24 OE=0.221 is Li2-f=0.8937
 Alpha vir 25 OE=0.221 is Li2-f=0.8937
 Alpha vir 26 OE=0.231 is Li2-p=0.4728 Li2-f=0.3030 Li2-d=0.1317
 Alpha vir 27 OE=0.268 is Li2-d=0.9319
 Alpha vir 28 OE=0.268 is Li2-d=0.9319
 Alpha vir 29 OE=0.271 is Li2-d=0.8529
 Alpha vir 30 OE=0.271 is Li2-d=0.8529
 Alpha vir 31 OE=0.287 is Li2-d=0.5948 Li2-p=0.3042
 Alpha vir 32 OE=0.320 is Li2-p=0.9533
 Alpha vir 33 OE=0.320 is Li2-p=0.9533
 Alpha vir 34 OE=0.335 is Li2-s=0.9145
 Alpha vir 35 OE=0.532 is Li2-g=1.0000
 Alpha vir 36 OE=0.532 is Li2-g=1.0000
 Alpha vir 37 OE=0.533 is Li2-g=0.9616
 Alpha vir 38 OE=0.533 is Li2-g=0.9616
 Alpha vir 39 OE=0.533 is Li2-g=0.9363
 Alpha vir 40 OE=0.533 is Li2-g=0.9363
 Alpha vir 41 OE=0.534 is Li2-g=0.9223
 Alpha vir 42 OE=0.534 is Li2-g=0.9223
 Alpha vir 43 OE=0.534 is Li2-g=0.9169
 Alpha vir 44 OE=0.610 is Li2-d=0.7003 Li2-f=0.1567
 Alpha vir 45 OE=0.625 is Li2-f=0.6712 Li2-d=0.2781
 Alpha vir 46 OE=0.625 is Li2-f=0.6712 Li2-d=0.2781
 Alpha vir 47 OE=0.625 is Li2-f=0.5738 Li2-d=0.3655
 Alpha vir 48 OE=0.625 is Li2-f=0.5738 Li2-d=0.3655
 Alpha vir 49 OE=0.627 is Li2-f=0.9635
 Alpha vir 50 OE=0.627 is Li2-f=0.9635
 Alpha vir 51 OE=0.646 is Li2-f=0.7481 Li2-d=0.1217
 Alpha vir 52 OE=0.665 is Li2-d=0.7238 Li2-f=0.2665
 Alpha vir 53 OE=0.665 is Li2-d=0.7238 Li2-f=0.2665
 Alpha vir 54 OE=0.668 is Li2-d=0.6292 Li2-f=0.3491
 Alpha vir 55 OE=0.668 is Li2-d=0.6292 Li2-f=0.3491
 Alpha vir 56 OE=0.821 is Li2-p=0.7480 Li2-d=0.1505
 Alpha vir 57 OE=1.017 is Li2-p=0.9935
 Alpha vir 58 OE=1.017 is Li2-p=0.9935
 Alpha vir 59 OE=1.417 is Li2-f=0.7481 Li2-g=0.2451
 Alpha vir 60 OE=1.419 is Li2-f=0.7187 Li2-g=0.2743
 Alpha vir 61 OE=1.419 is Li2-f=0.7187 Li2-g=0.2743
 Alpha vir 62 OE=1.421 is Li2-f=0.7105 Li2-g=0.2779
 Alpha vir 63 OE=1.421 is Li2-f=0.7105 Li2-g=0.2779
 Alpha vir 64 OE=1.425 is Li2-f=0.7534 Li2-g=0.2466
 Alpha vir 65 OE=1.425 is Li2-f=0.7534 Li2-g=0.2466
 Alpha vir 66 OE=1.461 is Li2-d=0.8385
 Alpha vir 67 OE=1.469 is Li2-g=1.0000
 Alpha vir 68 OE=1.469 is Li2-g=1.0000
 Alpha vir 69 OE=1.493 is Li2-g=0.7527 Li2-f=0.2473
 Alpha vir 70 OE=1.493 is Li2-g=0.7527 Li2-f=0.2473
 Alpha vir 71 OE=1.502 is Li2-g=0.4591 Li2-d=0.3217 Li2-f=0.2184
 Alpha vir 72 OE=1.502 is Li2-g=0.4591 Li2-d=0.3217 Li2-f=0.2184
 Alpha vir 73 OE=1.503 is Li2-g=0.7193 Li2-f=0.2683
 Alpha vir 74 OE=1.503 is Li2-g=0.7193 Li2-f=0.2683
 Alpha vir 75 OE=1.509 is Li2-g=0.6696 Li2-f=0.2357
 Alpha vir 76 OE=1.513 is Li2-d=0.6724 Li2-g=0.2649
 Alpha vir 77 OE=1.513 is Li2-d=0.6724 Li2-g=0.2649
 Alpha vir 78 OE=1.538 is Li2-d=0.9772
 Alpha vir 79 OE=1.538 is Li2-d=0.9772
 Alpha vir 80 OE=2.287 is H1-s=0.5402 Li2-p=0.2106 Li2-s=0.1813
 Alpha vir 81 OE=5.478 is Li2-s=0.9610 Li2-p=0.1689 H1-s=-0.1642
 
 Leave Link  601 at Mon Mar 28 14:02:12 2022, MaxMem=  9663676416 cpu:               3.0 elap:               0.1
 (Enter /nopt/nrel/apps/gaussian/g16C_1/g16/l9999.exe)

 Test job not archived.
 1\1\GINC-R102U34\SP\RCCSD-FC\Gen\H1Li1\USER\28-Mar-2022\0\\#P CCSD
 (MaxCyc=200,SaveAmplitudes,ReadAmplitudes)/GEN sp pop=AllOrbitals iop(
 3/33=1,3/36=-1)\\test\\0,1\H,0,0.,0.,0.\Li,0,0.,0.,0.5\\Version=ES64L-
 G16RevC.01\State=1-SG\HF=-7.1762126\MP2=-7.202703\MP3=-7.2102479\MP4D=
 -7.213715\MP4DQ=-7.2132054\MP4SDQ=-7.2132402\CCSD=-7.2159896\RMSD=2.14
 3e-09\PG=C*V [C*(H1Li1)]\\@


 THERE'S SMALL CHOICE IN A BOWL OF ROTTEN APPLES.
                     SHAKESPEARE
 Job cpu time:       0 days  0 hours  1 minutes 32.4 seconds.
 Elapsed time:       0 days  0 hours  0 minutes  2.9 seconds.
 File lengths (MBytes):  RWF=     22 Int=      0 D2E=      0 Chk=      2 Scr=      1
 Normal termination of Gaussian 16 at Mon Mar 28 14:02:12 2022.
