 Entering Gaussian System, Link 0=g16
 Initial command:
 /nopt/nrel/apps/gaussian/g16C_1/g16/l1.exe "/lustre/eaglefs/scratch/user/qc/nah-dissc/nah-1-ccsd-2.3-631g/Gau-17266.inp" -scrdir="/lustre/eaglefs/scratch/user/qc/nah-dissc/nah-1-ccsd-2.3-631g/"
 Default is to use a total of  36 processors:
                               36 via shared-memory
                                1 via Linda
 Entering Link 1 = /nopt/nrel/apps/gaussian/g16C_1/g16/l1.exe PID=     17267.
  
 Copyright (c) 1988-2019, Gaussian, Inc.  All Rights Reserved.
  
 This is part of the Gaussian(R) 16 program.  It is based on
 the Gaussian(R) 09 system (copyright 2009, Gaussian, Inc.),
 the Gaussian(R) 03 system (copyright 2003, Gaussian, Inc.),
 the Gaussian(R) 98 system (copyright 1998, Gaussian, Inc.),
 the Gaussian(R) 94 system (copyright 1995, Gaussian, Inc.),
 the Gaussian 92(TM) system (copyright 1992, Gaussian, Inc.),
 the Gaussian 90(TM) system (copyright 1990, Gaussian, Inc.),
 the Gaussian 88(TM) system (copyright 1988, Gaussian, Inc.),
 the Gaussian 86(TM) system (copyright 1986, Carnegie Mellon
 University), and the Gaussian 82(TM) system (copyright 1983,
 Carnegie Mellon University). Gaussian is a federally registered
 trademark of Gaussian, Inc.
  
 This software contains proprietary and confidential information,
 including trade secrets, belonging to Gaussian, Inc.
  
 This software is provided under written license and may be
 used, copied, transmitted, or stored only in accord with that
 written license.
  
 The following legend is applicable only to US Government
 contracts under FAR:
  
                    RESTRICTED RIGHTS LEGEND
  
 Use, reproduction and disclosure by the US Government is
 subject to restrictions as set forth in subparagraphs (a)
 and (c) of the Commercial Computer Software - Restricted
 Rights clause in FAR 52.227-19.
  
 Gaussian, Inc.
 340 Quinnipiac St., Bldg. 40, Wallingford CT 06492
  
  
 ---------------------------------------------------------------
 Warning -- This program may not be used in any manner that
 competes with the business of Gaussian, Inc. or will provide
 assistance to any competitor of Gaussian, Inc.  The licensee
 of this program is prohibited from giving any competitor of
 Gaussian, Inc. access to this program.  By using this program,
 the user acknowledges that Gaussian, Inc. is engaged in the
 business of creating and licensing software in the field of
 computational chemistry and represents and warrants to the
 licensee that it is not a competitor of Gaussian, Inc. and that
 it will not use this program in any manner prohibited above.
 ---------------------------------------------------------------
  

 Cite this work as:
 Gaussian 16, Revision C.01,
 M. J. Frisch, G. W. Trucks, H. B. Schlegel, G. E. Scuseria, 
 M. A. Robb, J. R. Cheeseman, G. Scalmani, V. Barone, 
 G. A. Petersson, H. Nakatsuji, X. Li, M. Caricato, A. V. Marenich, 
 J. Bloino, B. G. Janesko, R. Gomperts, B. Mennucci, H. P. Hratchian, 
 J. V. Ortiz, A. F. Izmaylov, J. L. Sonnenberg, D. Williams-Young, 
 F. Ding, F. Lipparini, F. Egidi, J. Goings, B. Peng, A. Petrone, 
 T. Henderson, D. Ranasinghe, V. G. Zakrzewski, J. Gao, N. Rega, 
 G. Zheng, W. Liang, M. Hada, M. Ehara, K. Toyota, R. Fukuda, 
 J. Hasegawa, M. Ishida, T. Nakajima, Y. Honda, O. Kitao, H. Nakai, 
 T. Vreven, K. Throssell, J. A. Montgomery, Jr., J. E. Peralta, 
 F. Ogliaro, M. J. Bearpark, J. J. Heyd, E. N. Brothers, K. N. Kudin, 
 V. N. Staroverov, T. A. Keith, R. Kobayashi, J. Normand, 
 K. Raghavachari, A. P. Rendell, J. C. Burant, S. S. Iyengar, 
 J. Tomasi, M. Cossi, J. M. Millam, M. Klene, C. Adamo, R. Cammi, 
 J. W. Ochterski, R. L. Martin, K. Morokuma, O. Farkas, 
 J. B. Foresman, and D. J. Fox, Gaussian, Inc., Wallingford CT, 2019.
 
 ******************************************
 Gaussian 16:  ES64L-G16RevC.01  3-Jul-2019
                28-Mar-2022 
 ******************************************
 %chk=molecule
 Default route: CacheSize=180224 MaxDisk=256GB
 ----------------------------------------------------------------------
 #P CCSD(MaxCyc=200,SaveAmplitudes,ReadAmplitudes)/GEN sp pop=AllOrbita
 ls iop(3/33=1,3/36=-1)
 ----------------------------------------------------------------------
 1/4=180224,38=1,172=1/1;
 2/4=180224,12=2,17=6,18=5,40=1/2;
 3/4=180224,5=7,11=9,25=1,30=1,33=1,36=-1/1,2,3;
 4/4=180224/1;
 5/4=180224,5=2,38=5/2;
 8/4=180224,6=4,9=120000,10=1,24=1/1,4;
 9/4=180224,5=7,6=200,77=1/13;
 6/4=180224,7=2,8=2,9=2,10=2,96=-1/1;
 99/4=180224,5=1,9=1/99;
 Leave Link    1 at Mon Mar 28 14:20:19 2022, MaxMem=           0 cpu:               2.3 elap:               0.1
 (Enter /nopt/nrel/apps/gaussian/g16C_1/g16/l101.exe)
 ----
 test
 ----
 Symbolic Z-matrix:
 Charge =  0 Multiplicity = 1
 H                     0.        0.        0. 
 Na                    0.        0.        2.3 
 
 ITRead=  0  0
 MicOpt= -1 -1
 NAtoms=      2 NQM=        2 NQMF=       0 NMMI=      0 NMMIF=      0
                NMic=       0 NMicF=      0.
                    Isotopes and Nuclear Properties:
 (Nuclear quadrupole moments (NQMom) in fm**2, nuclear magnetic moments (NMagM)
  in nuclear magnetons)

  Atom         1           2
 IAtWgt=           1          23
 AtmWgt=   1.0078250  22.9897697
 NucSpn=           1           3
 AtZEff=  -0.0000000  -0.0000000
 NQMom=    0.0000000  10.4000000
 NMagM=    2.7928460   2.2175200
 AtZNuc=   1.0000000  11.0000000
 Leave Link  101 at Mon Mar 28 14:20:19 2022, MaxMem=  9663676416 cpu:               3.4 elap:               0.1
 (Enter /nopt/nrel/apps/gaussian/g16C_1/g16/l202.exe)
                          Input orientation:                          
 ---------------------------------------------------------------------
 Center     Atomic      Atomic             Coordinates (Angstroms)
 Number     Number       Type             X           Y           Z
 ---------------------------------------------------------------------
      1          1           0        0.000000    0.000000    0.000000
      2         11           0        0.000000    0.000000    2.300000
 ---------------------------------------------------------------------
 Stoichiometry    HNa
 Framework group  C*V[C*(HNa)]
 Deg. of freedom     1
 Full point group                 C*V     NOp   4
 Largest Abelian subgroup         C2V     NOp   4
 Largest concise Abelian subgroup C1      NOp   1
                         Standard orientation:                         
 ---------------------------------------------------------------------
 Center     Atomic      Atomic             Coordinates (Angstroms)
 Number     Number       Type             X           Y           Z
 ---------------------------------------------------------------------
      1          1           0        0.000000    0.000000   -2.108333
      2         11           0        0.000000    0.000000    0.191667
 ---------------------------------------------------------------------
 Rotational constants (GHZ):           0.0000000          98.9485601          98.9485601
 Leave Link  202 at Mon Mar 28 14:20:19 2022, MaxMem=  9663676416 cpu:               0.5 elap:               0.0
 (Enter /nopt/nrel/apps/gaussian/g16C_1/g16/l301.exe)
 General basis read from cards:  (5D, 7F)
                         Coordinates in L301:                         
 ---------------------------------------------------------------------
 Center     Atomic      Atomic             Coordinates (Angstroms)
 Number     Number       Type             X           Y           Z
 ---------------------------------------------------------------------
      1          1           0        0.000000    0.000000   -2.108333
      2         11           0        0.000000    0.000000    0.191667
 ---------------------------------------------------------------------
 Centers:       1
 STO-3G
 ****
 Centers:       2
 6-31G
 ****
 FixB: optimizing general contractions.
 Ernie: Thresh=  0.10000D-02 Tol=  0.10000D-05 Strict=F.
 IA=     1 ShT= 0 ShC= 0 NL=   1 NS=   0.
 IA=     1 L=0 SC=0 ISt=    0 NBk=    0 NP=    0 IndPr=    0.
 IA=     2 ShT= 0 ShC= 0 NL=   1 NS=   0.
 IA=     2 L=0 SC=0 ISt=    0 NBk=    0 NP=    0 IndPr=    0.
 IA=     2 ShT= 1 ShC= 0 NL=   3 NS=   1.
 IA=     2 L=1 SC=0 ISt=    1 NBk=    2 NP=    9 IndPr=    0.
 DoElim1:  L=1 select primitive    1 from    2 using    1 C=-3.54D-03
 DoElim2:  L=1 select primitive    9 from    1 using    2 C= 1.23D+00
 DoElim1:  L=1 select primitive    1 from    2 using    1 C= 5.00D-03
 DoElim2:  L=1 select primitive    8 from    1 using    2 C= 9.50D-01
 Delete L=1 primitive    7 from    2 C=  0.00D+00.
 Delete L=1 primitive    5 from    2 C=  0.00D+00.
 Delete L=1 primitive    4 from    2 C=  0.00D+00.
 Delete L=1 primitive    3 from    2 C=  0.00D+00.
 Delete L=1 primitive    2 from    2 C=  0.00D+00.
 Delete L=1 primitive    1 from    2 C=  0.00D+00.
 Delete L=1 primitive    9 from    1 C=  0.00D+00.
 Delete L=1 primitive    8 from    1 C=  0.00D+00.
 Delete L=1 primitive    6 from    1 C=  0.00D+00.
 IA=     2 L=1 SC=0 ISt=    0 NBk=    0 NP=    0 IndPr=    9.
 LdAtmC:  AtmChg=     1.000000    11.000000
 AtZEff=     -1.0000000    -10.0400000
 NEqShl: 
              1            2            3            4
     1            1            1            1            1
     2            2            2            2            2
     3            3            3            3            3
     4            4            4            4            4
     5            5            5            5            5
 NEqBas: 
              1            2            3            4
     1            1            1            1            1
     2            2            2            2            2
     3            3            3            3            3
     4            4           -4           -4            4
     5            5           -5            5           -5
     6            6            6            6            6
     7            7            7            7            7
     8            8           -8           -8            8
     9            9           -9            9           -9
    10           10           10           10           10
    11           11           11           11           11
    12           12          -12          -12           12
    13           13          -13           13          -13
    14           14           14           14           14
 There are     8 symmetry adapted cartesian basis functions of A1  symmetry.
   1         1   1   1   1
   2         2   2   2   2
   3         3   3   3   3
   4         6   6   6   6
   5         7   7   7   7
   6        10  10  10  10
   7        11  11  11  11
   8        14  14  14  14
 There are     0 symmetry adapted cartesian basis functions of A2  symmetry.
 There are     3 symmetry adapted cartesian basis functions of B1  symmetry.
   9         4   4   4   4
  10         8   8   8   8
  11        12  12  12  12
 There are     3 symmetry adapted cartesian basis functions of B2  symmetry.
  12         5   5   5   5
  13         9   9   9   9
  14        13  13  13  13
 Order= 1 2 4 3
 Reordered character table:
              1            2            3            4            5
     1            1            1            1            1            1
     2            2            1            1           -1           -1
     3            4            1           -1           -1            1
     4            3            1           -1            1           -1
 NEqShl: 
              1            2            3            4
     1            1            1            1            1
     2            2            2            2            2
     3            3            3            3            3
     4            4            4            4            4
     5            5            5            5            5
 NEqBas: 
              1            2            3            4
     1            1            1            1            1
     2            2            2            2            2
     3            3            3            3            3
     4            4           -4           -4            4
     5            5           -5            5           -5
     6            6            6            6            6
     7            7            7            7            7
     8            8           -8           -8            8
     9            9           -9            9           -9
    10           10           10           10           10
    11           11           11           11           11
    12           12          -12          -12           12
    13           13          -13           13          -13
    14           14           14           14           14
 There are     8 symmetry adapted basis functions of A1  symmetry.
   1         1   1   1   1
   2         2   2   2   2
   3         3   3   3   3
   4         6   6   6   6
   5         7   7   7   7
   6        10  10  10  10
   7        11  11  11  11
   8        14  14  14  14
 There are     0 symmetry adapted basis functions of A2  symmetry.
 There are     3 symmetry adapted basis functions of B1  symmetry.
   9         4   4   4   4
  10         8   8   8   8
  11        12  12  12  12
 There are     3 symmetry adapted basis functions of B2  symmetry.
  12         5   5   5   5
  13         9   9   9   9
  14        13  13  13  13
 Order= 1 2 4 3
 Reordered character table:
              1            2            3            4            5
     1            1            1            1            1            1
     2            2            1            1           -1           -1
     3            4            1           -1           -1            1
     4            3            1           -1            1           -1
    14 basis functions,    49 primitive gaussians,    14 cartesian basis functions
     6 alpha electrons        6 beta electrons
       nuclear repulsion energy         2.5308475305 Hartrees.
 IS=     1 IAt=     1 ISR=     1 T=0 IP=      1 IndIP=      1 IndIPD=      0 C=  2.769344D-01  0.000000D+00                             NZ=T
 IS=     1 IAt=     1 ISR=     1 T=0 IP=      2 IndIP=      2 IndIPD=      1 C=  2.678389D-01  0.000000D+00                             NZ=T
 IS=     1 IAt=     1 ISR=     1 T=0 IP=      3 IndIP=      3 IndIPD=      2 C=  8.347367D-02  0.000000D+00                             NZ=T
 IS=     2 IAt=     2 ISR=     1 T=0 IP=      1 IndIP=      4 IndIPD=      0 C=  1.380276D+00  0.000000D+00                             NZ=T
 IS=     2 IAt=     2 ISR=     1 T=0 IP=      2 IndIP=      5 IndIPD=      1 C=  2.543440D+00  0.000000D+00                             NZ=T
 IS=     2 IAt=     2 ISR=     1 T=0 IP=      3 IndIP=      6 IndIPD=      2 C=  4.120502D+00  0.000000D+00                             NZ=T
 IS=     2 IAt=     2 ISR=     1 T=0 IP=      4 IndIP=      7 IndIPD=      3 C=  5.464941D+00  0.000000D+00                             NZ=T
 IS=     2 IAt=     2 ISR=     1 T=0 IP=      5 IndIP=      8 IndIPD=      4 C=  4.476262D+00  0.000000D+00                             NZ=T
 IS=     2 IAt=     2 ISR=     1 T=0 IP=      6 IndIP=      9 IndIPD=      5 C=  1.255723D+00  0.000000D+00                             NZ=T
 IS=     3 IAt=     2 ISR=     2 T=1 IP=      1 IndIP=     10 IndIPD=      0 C= -1.087231D-01  3.772614D+00                             NZ=T
 IS=     3 IAt=     2 ISR=     2 T=1 IP=      2 IndIP=     11 IndIPD=      1 C= -4.564910D-01  4.399752D+00                             NZ=T
 IS=     3 IAt=     2 ISR=     2 T=1 IP=      3 IndIP=     12 IndIPD=      2 C= -4.778739D-01  4.156503D+00                             NZ=T
 IS=     3 IAt=     2 ISR=     2 T=1 IP=      4 IndIP=     13 IndIPD=      3 C=  3.708017D-01  2.647056D+00                             NZ=T
 IS=     3 IAt=     2 ISR=     2 T=1 IP=      5 IndIP=     14 IndIPD=      4 C=  5.874076D-01  9.643141D-01                             NZ=T
 IS=     3 IAt=     2 ISR=     2 T=1 IP=      6 IndIP=     15 IndIPD=      5 C=  1.231036D-01  1.501277D-01                             NZ=T
 IS=     4 IAt=     2 ISR=     3 T=1 IP=      1 IndIP=     16 IndIPD=      0 C= -1.049885D-01 -1.372752D-02                             NZ=T
 IS=     4 IAt=     2 ISR=     3 T=1 IP=      2 IndIP=     17 IndIPD=      1 C= -1.469212D-02  6.158186D-02                             NZ=T
 IS=     4 IAt=     2 ISR=     3 T=1 IP=      3 IndIP=     18 IndIPD=      2 C=  1.153011D-01  2.888614D-03                             NZ=T
 IS=     5 IAt=     2 ISR=     4 T=1 IP=      1 IndIP=     19 IndIPD=      0 C=  4.608593D-02  1.484923D-02                             NZ=T
 IExCor=    0 DFT=F Ex=HF Corr=None ExCW=0 ScaHFX=  1.000000
 ScaDFX=  1.000000  1.000000  1.000000  1.000000 ScalE2=  1.000000  1.000000
 IRadAn=      5 IRanWt=     -1 IRanGd=            0 ICorTp=0 IEmpDi=  4
 NAtoms=    2 NActive=    2 NUniq=    2 SFac= 1.00D+00 NAtFMM=   60 NAOKFM=F Big=F
 Integral buffers will be    131072 words long.
 Raffenetti 1 integral format.
 Two-electron integral symmetry is turned on.
 Leave Link  301 at Mon Mar 28 14:20:19 2022, MaxMem=  9663676416 cpu:               1.9 elap:               0.1
 (Enter /nopt/nrel/apps/gaussian/g16C_1/g16/l302.exe)
 NPDir=0 NMtPBC=     1 NCelOv=     1 NCel=       1 NClECP=     1 NCelD=      1
         NCelK=      1 NCelE2=     1 NClLst=     1 CellRange=     0.0.
 One-electron integrals computed using PRISM.
 One-electron integral symmetry used in STVInt
 Entering OneElI...
 Calculate overlap and kinetic energy integrals
    NBasis =  14  MinDer = 0  MaxDer = 0
 Requested accuracy = 0.1000D-12
 Symmetry will be used
 PrmmSu-InSpLW:  IPartL=    0 NPrtUS=   36 NPrtUL=    1 DoSpLW=F IThBeg=    0 IThEnd=   35 NThAct=   36.
 PrSmSu:  IncTry=   512 NBBP=             15 NTPThr=   100 NPartT=   36 Incr=           1 LDynOK=F GPUOK=F.
 PrsmSu:  NPrtUS=  36 ThrOK=T IAlg=1 LenDen=           0 ISkipM=0 DoSpLW=F IThBeg=    0 IThEnd=   35.
 Prism:   IPart=     0 DynPar=F LinDyn=F Incr=           1.
 PRISM was handed   268432527 working-precision words and    15 shell-pairs
 PRISM was handed   268432527 working-precision words and    15 shell-pairs
 PRISM was handed   268432527 working-precision words and    15 shell-pairs
 PRISM was handed   268432527 working-precision words and    15 shell-pairs
 PRISM was handed   268432527 working-precision words and    15 shell-pairs
 PRISM was handed   268432527 working-precision words and    15 shell-pairs
 IPart= 33 NShTot=           0 NBatch=           0 AvBLen=         0.0
 IPart=  8 NShTot=           0 NBatch=           0 AvBLen=         0.0
 IPart=  2 NShTot=           0 NBatch=           0 AvBLen=         0.0
 IPart= 16 NShTot=           0 NBatch=           0 AvBLen=         0.0
 IPart=  7 NShTot=           0 NBatch=           0 AvBLen=         0.0
 PRISM was handed   268432527 working-precision words and    15 shell-pairs
 IPart= 12 NShTot=           0 NBatch=           0 AvBLen=         0.0
 PRISM was handed   268432527 working-precision words and    15 shell-pairs
 PRISM was handed   268432527 working-precision words and    15 shell-pairs
 PRISM was handed   268432527 working-precision words and    15 shell-pairs
 PRISM was handed   268432527 working-precision words and    15 shell-pairs
 PRISM was handed   268432527 working-precision words and    15 shell-pairs
 IPart=  1 NShTot=           0 NBatch=           0 AvBLen=         0.0
 IPart= 35 NShTot=           0 NBatch=           0 AvBLen=         0.0
 IPart=  4 NShTot=           0 NBatch=           0 AvBLen=         0.0
 PRISM was handed   268432527 working-precision words and    15 shell-pairs
 PRISM was handed   268432527 working-precision words and    15 shell-pairs
 IPart= 29 NShTot=           0 NBatch=           0 AvBLen=         0.0
 IPart= 18 NShTot=           0 NBatch=           0 AvBLen=         0.0
 PRISM was handed   268432527 working-precision words and    15 shell-pairs
 PRISM was handed   268432527 working-precision words and    15 shell-pairs
 PRISM was handed   268432527 working-precision words and    15 shell-pairs
 PRISM was handed   268432527 working-precision words and    15 shell-pairs
 PRISM was handed   268432527 working-precision words and    15 shell-pairs
 IPart= 28 NShTot=           0 NBatch=           0 AvBLen=         0.0
 IPart= 25 NShTot=           0 NBatch=           0 AvBLen=         0.0
 PRISM was handed   268432527 working-precision words and    15 shell-pairs
 PRISM was handed   268432527 working-precision words and    15 shell-pairs
 IPart= 32 NShTot=           0 NBatch=           0 AvBLen=         0.0
 IPart=  5 NShTot=           0 NBatch=           0 AvBLen=         0.0
 IPart= 15 NShTot=           0 NBatch=           0 AvBLen=         0.0
 IPart= 13 NShTot=           0 NBatch=           0 AvBLen=         0.0
 IPart= 24 NShTot=           0 NBatch=           0 AvBLen=         0.0
 PRISM was handed   268432527 working-precision words and    15 shell-pairs
 PRISM was handed   268432527 working-precision words and    15 shell-pairs
 PRISM was handed   268432527 working-precision words and    15 shell-pairs
 IPart= 17 NShTot=           0 NBatch=           0 AvBLen=         0.0
 IPart= 23 NShTot=           0 NBatch=           0 AvBLen=         0.0
 PRISM was handed   268432527 working-precision words and    15 shell-pairs
 PRISM was handed   268432527 working-precision words and    15 shell-pairs
 IPart= 20 NShTot=           0 NBatch=           0 AvBLen=         0.0
 PRISM was handed   268432527 working-precision words and    15 shell-pairs
 IPart= 26 NShTot=           0 NBatch=           0 AvBLen=         0.0
 IPart= 11 NShTot=           0 NBatch=           0 AvBLen=         0.0
 PRISM was handed   268432527 working-precision words and    15 shell-pairs
 PRISM was handed   268432527 working-precision words and    15 shell-pairs
 PRISM was handed   268432527 working-precision words and    15 shell-pairs
 PRISM was handed   268432527 working-precision words and    15 shell-pairs
 PRISM was handed   268432527 working-precision words and    15 shell-pairs
 IPart= 27 NShTot=           0 NBatch=           0 AvBLen=         0.0
 IPart= 19 NShTot=           0 NBatch=           0 AvBLen=         0.0
 IPart= 21 NShTot=           0 NBatch=           0 AvBLen=         0.0
 PRISM was handed   268432527 working-precision words and    15 shell-pairs
 PRISM was handed   268432527 working-precision words and    15 shell-pairs
 PRISM was handed   268432527 working-precision words and    15 shell-pairs
 PRISM was handed   268432527 working-precision words and    15 shell-pairs
 IPart=  6 NShTot=           0 NBatch=           0 AvBLen=         0.0
 IPart= 14 NShTot=           0 NBatch=           0 AvBLen=         0.0
 IPart=  0 NShTot=          15 NBatch=          15 AvBLen=         1.0
 IPart=  9 NShTot=           0 NBatch=           0 AvBLen=         0.0
 IPart=  3 NShTot=           0 NBatch=           0 AvBLen=         0.0
 IPart= 34 NShTot=           0 NBatch=           0 AvBLen=         0.0
 IPart= 22 NShTot=           0 NBatch=           0 AvBLen=         0.0
 IPart= 31 NShTot=           0 NBatch=           0 AvBLen=         0.0
 IPart= 30 NShTot=           0 NBatch=           0 AvBLen=         0.0
 IPart= 10 NShTot=           0 NBatch=           0 AvBLen=         0.0
 PrSmSu:  NxtVal=             37.
 *** Overlap *** 
                1             2             3             4             5 
      1  0.100000D+01
      2  0.144274D-02  0.100000D+01
      3  0.209456D-01  0.230835D+00  0.100000D+01
      4  0.000000D+00  0.000000D+00  0.000000D+00  0.100000D+01
      5  0.000000D+00  0.000000D+00  0.000000D+00  0.000000D+00  0.100000D+01
      6 -0.265560D-01  0.000000D+00  0.000000D+00  0.000000D+00  0.000000D+00
      7  0.256931D+00 -0.127644D-04  0.161245D+00  0.000000D+00  0.000000D+00
      8  0.000000D+00  0.000000D+00  0.000000D+00  0.186871D+00  0.000000D+00
      9  0.000000D+00  0.000000D+00  0.000000D+00  0.000000D+00  0.186871D+00
     10 -0.406600D+00  0.000000D+00  0.000000D+00  0.000000D+00  0.000000D+00
     11  0.251631D+00  0.189170D-01  0.190082D+00  0.000000D+00  0.000000D+00
     12  0.000000D+00  0.000000D+00  0.000000D+00  0.574619D-01  0.000000D+00
     13  0.000000D+00  0.000000D+00  0.000000D+00  0.000000D+00  0.574619D-01
     14 -0.317348D+00  0.000000D+00  0.000000D+00  0.000000D+00  0.000000D+00
                6             7             8             9            10 
      6  0.100000D+01
      7  0.000000D+00  0.100000D+01
      8  0.000000D+00  0.000000D+00  0.100000D+01
      9  0.000000D+00  0.000000D+00  0.000000D+00  0.100000D+01
     10  0.186871D+00  0.000000D+00  0.000000D+00  0.000000D+00  0.100000D+01
     11  0.000000D+00  0.876272D+00  0.000000D+00  0.000000D+00  0.000000D+00
     12  0.000000D+00  0.000000D+00  0.672925D+00  0.000000D+00  0.000000D+00
     13  0.000000D+00  0.000000D+00  0.000000D+00  0.672925D+00  0.000000D+00
     14  0.574619D-01  0.000000D+00  0.000000D+00  0.000000D+00  0.672925D+00
               11            12            13            14 
     11  0.100000D+01
     12  0.000000D+00  0.100000D+01
     13  0.000000D+00  0.000000D+00  0.100000D+01
     14  0.000000D+00  0.000000D+00  0.000000D+00  0.100000D+01
 *** Kinetic Energy *** 
                1             2             3             4             5 
      1  0.760032D+00
      2 -0.811209D-03  0.565455D+02
      3 -0.849809D-02 -0.266647D+01  0.196759D+01
      4  0.000000D+00  0.000000D+00  0.000000D+00  0.588848D+01
      5  0.000000D+00  0.000000D+00  0.000000D+00  0.000000D+00  0.588848D+01
      6  0.589126D-02  0.000000D+00  0.000000D+00  0.000000D+00  0.000000D+00
      7  0.176238D-01 -0.516638D-01 -0.152029D+00  0.000000D+00  0.000000D+00
      8  0.000000D+00  0.000000D+00  0.000000D+00  0.478086D-01  0.000000D+00
      9  0.000000D+00  0.000000D+00  0.000000D+00  0.000000D+00  0.478086D-01
     10 -0.662821D-01  0.000000D+00  0.000000D+00  0.000000D+00  0.000000D+00
     11  0.124369D-01  0.147038D-02  0.142898D-01  0.000000D+00  0.000000D+00
     12  0.000000D+00  0.000000D+00  0.000000D+00  0.716353D-02  0.000000D+00
     13  0.000000D+00  0.000000D+00  0.000000D+00  0.000000D+00  0.716353D-02
     14 -0.305821D-01  0.000000D+00  0.000000D+00  0.000000D+00  0.000000D+00
                6             7             8             9            10 
      6  0.588848D+01
      7  0.000000D+00  0.116833D+00
      8  0.000000D+00  0.000000D+00  0.205703D+00
      9  0.000000D+00  0.000000D+00  0.000000D+00  0.205703D+00
     10  0.478086D-01  0.000000D+00  0.000000D+00  0.000000D+00  0.205703D+00
     11  0.000000D+00  0.474660D-01  0.000000D+00  0.000000D+00  0.000000D+00
     12  0.000000D+00  0.000000D+00  0.664432D-01  0.000000D+00  0.000000D+00
     13  0.000000D+00  0.000000D+00  0.000000D+00  0.664432D-01  0.000000D+00
     14  0.716353D-02  0.000000D+00  0.000000D+00  0.000000D+00  0.664432D-01
               11            12            13            14 
     11  0.389316D-01
     12  0.000000D+00  0.648860D-01
     13  0.000000D+00  0.000000D+00  0.648860D-01
     14  0.000000D+00  0.000000D+00  0.000000D+00  0.648860D-01
 Entering OneElI...
 Calculate potential energy integrals
    NBasis =  14  MinDer = 0  MaxDer = 0
 Requested accuracy = 0.1000D-12
 Symmetry will be used
 PrmmSu-InSpLW:  IPartL=    0 NPrtUS=   36 NPrtUL=    1 DoSpLW=F IThBeg=    0 IThEnd=   35 NThAct=   36.
 PrSmSu:  IncTry=   512 NBBP=             30 NTPThr=   100 NPartT=   36 Incr=           1 LDynOK=F GPUOK=F.
 PrsmSu:  NPrtUS=  36 ThrOK=T IAlg=1 LenDen=           0 ISkipM=0 DoSpLW=F IThBeg=    0 IThEnd=   35.
 Prism:   IPart=     0 DynPar=F LinDyn=F Incr=           1.
 PRISM was handed   268432644 working-precision words and    15 shell-pairs
 PRISM was handed   268432644 working-precision words and    15 shell-pairs
 PRISM was handed   268432644 working-precision words and    15 shell-pairs
 PRISM was handed   268432644 working-precision words and    15 shell-pairs
 PRISM was handed   268432644 working-precision words and    15 shell-pairs
 PRISM was handed   268432644 working-precision words and    15 shell-pairs
 PRISM was handed   268432644 working-precision words and    15 shell-pairs
 PRISM was handed   268432644 working-precision words and    15 shell-pairs
 PRISM was handed   268432644 working-precision words and    15 shell-pairs
 PRISM was handed   268432644 working-precision words and    15 shell-pairs
 PRISM was handed   268432644 working-precision words and    15 shell-pairs
 PRISM was handed   268432644 working-precision words and    15 shell-pairs
 PRISM was handed   268432644 working-precision words and    15 shell-pairs
 PRISM was handed   268432644 working-precision words and    15 shell-pairs
 PRISM was handed   268432644 working-precision words and    15 shell-pairs
 PRISM was handed   268432644 working-precision words and    15 shell-pairs
 PRISM was handed   268432644 working-precision words and    15 shell-pairs
 PRISM was handed   268432644 working-precision words and    15 shell-pairs
 PRISM was handed   268432644 working-precision words and    15 shell-pairs
 PRISM was handed   268432644 working-precision words and    15 shell-pairs
 PRISM was handed   268432644 working-precision words and    15 shell-pairs
 PRISM was handed   268432644 working-precision words and    15 shell-pairs
 PRISM was handed   268432644 working-precision words and    15 shell-pairs
 PRISM was handed   268432644 working-precision words and    15 shell-pairs
 PRISM was handed   268432644 working-precision words and    15 shell-pairs
 PRISM was handed   268432644 working-precision words and    15 shell-pairs
 PRISM was handed   268432644 working-precision words and    15 shell-pairs
 PRISM was handed   268432644 working-precision words and    15 shell-pairs
 PRISM was handed   268432644 working-precision words and    15 shell-pairs
 PRISM was handed   268432644 working-precision words and    15 shell-pairs
 PRISM was handed   268432644 working-precision words and    15 shell-pairs
 PRISM was handed   268432644 working-precision words and    15 shell-pairs
 PRISM was handed   268432644 working-precision words and    15 shell-pairs
 PRISM was handed   268432644 working-precision words and    15 shell-pairs
 PRISM was handed   268432644 working-precision words and    15 shell-pairs
 PRISM was handed   268432644 working-precision words and    15 shell-pairs
 IPart= 14 NShTot=           0 NBatch=           0 AvBLen=         0.0
 IPart= 20 NShTot=           0 NBatch=           0 AvBLen=         0.0
 IPart= 31 NShTot=           0 NBatch=           0 AvBLen=         0.0
 IPart= 12 NShTot=           0 NBatch=           0 AvBLen=         0.0
 IPart=  6 NShTot=           0 NBatch=           0 AvBLen=         0.0
 IPart= 28 NShTot=           0 NBatch=           0 AvBLen=         0.0
 IPart= 22 NShTot=           0 NBatch=           0 AvBLen=         0.0
 IPart=  8 NShTot=           0 NBatch=           0 AvBLen=         0.0
 IPart= 11 NShTot=           0 NBatch=           0 AvBLen=         0.0
 IPart= 32 NShTot=           0 NBatch=           0 AvBLen=         0.0
 IPart= 23 NShTot=           0 NBatch=           0 AvBLen=         0.0
 IPart=  3 NShTot=           0 NBatch=           0 AvBLen=         0.0
 IPart= 15 NShTot=           0 NBatch=           0 AvBLen=         0.0
 IPart= 35 NShTot=           0 NBatch=           0 AvBLen=         0.0
 IPart= 27 NShTot=           0 NBatch=           0 AvBLen=         0.0
 IPart= 17 NShTot=           0 NBatch=           0 AvBLen=         0.0
 IPart=  1 NShTot=           0 NBatch=           0 AvBLen=         0.0
 IPart=  9 NShTot=           0 NBatch=           0 AvBLen=         0.0
 IPart= 18 NShTot=           0 NBatch=           0 AvBLen=         0.0
 IPart= 34 NShTot=           0 NBatch=           0 AvBLen=         0.0
 IPart=  5 NShTot=           0 NBatch=           0 AvBLen=         0.0
 IPart= 26 NShTot=           0 NBatch=           0 AvBLen=         0.0
 IPart= 25 NShTot=           0 NBatch=           0 AvBLen=         0.0
 IPart= 24 NShTot=           0 NBatch=           0 AvBLen=         0.0
 IPart=  4 NShTot=           0 NBatch=           0 AvBLen=         0.0
 IPart= 10 NShTot=           0 NBatch=           0 AvBLen=         0.0
 IPart= 33 NShTot=           0 NBatch=           0 AvBLen=         0.0
 IPart=  2 NShTot=           0 NBatch=           0 AvBLen=         0.0
 IPart= 29 NShTot=           0 NBatch=           0 AvBLen=         0.0
 IPart=  7 NShTot=           0 NBatch=           0 AvBLen=         0.0
 IPart= 16 NShTot=           0 NBatch=           0 AvBLen=         0.0
 IPart= 19 NShTot=           0 NBatch=           0 AvBLen=         0.0
 IPart= 21 NShTot=           0 NBatch=           0 AvBLen=         0.0
 IPart= 30 NShTot=           0 NBatch=           0 AvBLen=         0.0
 IPart= 13 NShTot=           0 NBatch=           0 AvBLen=         0.0
 IPart=  0 NShTot=          30 NBatch=          15 AvBLen=         2.0
 PrSmSu:  NxtVal=             37.
 ***** Potential Energy ***** 
                1             2             3             4             5 
      1  0.375728D+01
      2  0.838060D-01  0.117191D+03
      3  0.219341D+00  0.106598D+02  0.180562D+02
      4  0.000000D+00  0.000000D+00  0.000000D+00  0.188855D+02
      5  0.000000D+00  0.000000D+00  0.000000D+00  0.000000D+00  0.188855D+02
      6 -0.198041D+00 -0.243406D-02 -0.236288D-01  0.000000D+00  0.000000D+00
      7  0.949356D+00 -0.498345D-01  0.132477D+01  0.000000D+00  0.000000D+00
      8  0.000000D+00  0.000000D+00  0.000000D+00  0.155616D+01  0.000000D+00
      9  0.000000D+00  0.000000D+00  0.000000D+00  0.000000D+00  0.155616D+01
     10 -0.146200D+01 -0.372338D-04 -0.692872D-02  0.000000D+00  0.000000D+00
     11  0.867770D+00  0.111016D+01  0.229087D+01  0.000000D+00  0.000000D+00
     12  0.000000D+00  0.000000D+00  0.000000D+00  0.462325D+00  0.000000D+00
     13  0.000000D+00  0.000000D+00  0.000000D+00  0.000000D+00  0.462325D+00
     14 -0.999959D+00 -0.107895D-04 -0.215416D-02  0.000000D+00  0.000000D+00
                6             7             8             9            10 
      6  0.188914D+02
      7 -0.111694D-01  0.382209D+01
      8  0.000000D+00  0.000000D+00  0.351767D+01
      9  0.000000D+00  0.000000D+00  0.000000D+00  0.351767D+01
     10  0.156085D+01 -0.939763D-01  0.000000D+00  0.000000D+00  0.359760D+01
     11 -0.943843D-02  0.309175D+01  0.000000D+00  0.000000D+00 -0.828938D-01
     12  0.000000D+00  0.000000D+00  0.194947D+01  0.000000D+00  0.000000D+00
     13  0.000000D+00  0.000000D+00  0.000000D+00  0.194947D+01  0.000000D+00
     14  0.463914D+00 -0.585103D-01  0.000000D+00  0.000000D+00  0.200227D+01
               11            12            13            14 
     11  0.302087D+01
     12  0.000000D+00  0.202902D+01
     13  0.000000D+00  0.000000D+00  0.202902D+01
     14 -0.689203D-01  0.000000D+00  0.000000D+00  0.208023D+01
 ****** Core Hamiltonian ****** 
                1             2             3             4             5 
      1 -0.299725D+01
      2 -0.846172D-01 -0.606453D+02
      3 -0.227839D+00 -0.133263D+02 -0.160886D+02
      4  0.000000D+00  0.000000D+00  0.000000D+00 -0.129970D+02
      5  0.000000D+00  0.000000D+00  0.000000D+00  0.000000D+00 -0.129970D+02
      6  0.203933D+00  0.243406D-02  0.236288D-01  0.000000D+00  0.000000D+00
      7 -0.931732D+00 -0.182924D-02 -0.147680D+01  0.000000D+00  0.000000D+00
      8  0.000000D+00  0.000000D+00  0.000000D+00 -0.150835D+01  0.000000D+00
      9  0.000000D+00  0.000000D+00  0.000000D+00  0.000000D+00 -0.150835D+01
     10  0.139572D+01  0.372338D-04  0.692872D-02  0.000000D+00  0.000000D+00
     11 -0.855333D+00 -0.110868D+01 -0.227658D+01  0.000000D+00  0.000000D+00
     12  0.000000D+00  0.000000D+00  0.000000D+00 -0.455162D+00  0.000000D+00
     13  0.000000D+00  0.000000D+00  0.000000D+00  0.000000D+00 -0.455162D+00
     14  0.969377D+00  0.107895D-04  0.215416D-02  0.000000D+00  0.000000D+00
                6             7             8             9            10 
      6 -0.130029D+02
      7  0.111694D-01 -0.370526D+01
      8  0.000000D+00  0.000000D+00 -0.331196D+01
      9  0.000000D+00  0.000000D+00  0.000000D+00 -0.331196D+01
     10 -0.151304D+01  0.939763D-01  0.000000D+00  0.000000D+00 -0.339189D+01
     11  0.943843D-02 -0.304429D+01  0.000000D+00  0.000000D+00  0.828938D-01
     12  0.000000D+00  0.000000D+00 -0.188303D+01  0.000000D+00  0.000000D+00
     13  0.000000D+00  0.000000D+00  0.000000D+00 -0.188303D+01  0.000000D+00
     14 -0.456750D+00  0.585103D-01  0.000000D+00  0.000000D+00 -0.193583D+01
               11            12            13            14 
     11 -0.298194D+01
     12  0.000000D+00 -0.196413D+01
     13  0.000000D+00  0.000000D+00 -0.196413D+01
     14  0.689203D-01  0.000000D+00  0.000000D+00 -0.201534D+01
 SVDSVc IOpt=   1 NormSV=T IR=1
 SVDSVc V= 2.16D+00 1.84D+00 1.19D+00 9.86D-01 7.54D-01 6.37D-01 3.04D-01 1.23D-01
 SVDSVc IOpt=   1 NormSV=T IR=3
 SVDSVc V= 1.72D+00 9.71D-01 3.14D-01
 SVDSVc IOpt=   1 NormSV=T IR=4
 SVDSVc V= 1.72D+00 9.71D-01 3.14D-01
 TstOVc:  Largest diagonal error= 2.22D-15 IB=1 I=    8.
 TstOVc:  Largest same sym error= 7.31D-16 IB=1 I=    6 J=    5.
 TstOVc:  Largest diff sym error= 0.00D+00 IB=0 JB=0 I=    0 J=    0.
 Orthogonalized basis functions: 
                 1             2             3             4             5 
      1   0.304681D+00 -0.139634D+00 -0.807937D-01  0.178873D+00 -0.284041D+00
      2   0.288983D-01  0.451014D-01  0.678913D+00  0.624192D-01 -0.747340D+00
      3   0.115274D+00  0.139697D+00  0.575612D+00 -0.570528D-03  0.802492D+00
      4   0.000000D+00  0.000000D+00  0.000000D+00  0.000000D+00  0.000000D+00
      5   0.000000D+00  0.000000D+00  0.000000D+00  0.000000D+00  0.000000D+00
      6  -0.586238D-01  0.116434D+00 -0.497705D-01  0.972743D+00  0.683577D-01
      7   0.343278D+00  0.311988D+00 -0.141175D+00 -0.517902D-01 -0.632830D-01
      8   0.000000D+00  0.000000D+00  0.000000D+00  0.000000D+00  0.000000D+00
      9   0.000000D+00  0.000000D+00  0.000000D+00  0.000000D+00  0.000000D+00
     10  -0.249976D+00  0.390658D+00 -0.477613D-01  0.456524D-02 -0.808913D-01
     11   0.344385D+00  0.315259D+00 -0.113216D+00 -0.515385D-01 -0.466199D-01
     12   0.000000D+00  0.000000D+00  0.000000D+00  0.000000D+00  0.000000D+00
     13   0.000000D+00  0.000000D+00  0.000000D+00  0.000000D+00  0.000000D+00
     14  -0.231014D+00  0.372493D+00 -0.486515D-01 -0.162143D+00 -0.161020D+00
                 6             7             8             9            10 
      1   0.100105D+01  0.288115D+00  0.144358D-01  0.000000D+00  0.000000D+00
      2  -0.176613D+00 -0.503082D-02 -0.275396D-01  0.000000D+00  0.000000D+00
      3   0.291806D+00  0.176057D-01 -0.610132D-01  0.000000D+00  0.000000D+00
      4   0.000000D+00  0.000000D+00  0.000000D+00  0.180764D+00  0.976429D+00
      5   0.000000D+00  0.000000D+00  0.000000D+00  0.000000D+00  0.000000D+00
      6  -0.111160D+00 -0.255866D+00 -0.104007D-02  0.000000D+00  0.000000D+00
      7  -0.245132D+00 -0.454194D-01 -0.201026D+01  0.000000D+00  0.000000D+00
      8   0.000000D+00  0.000000D+00  0.000000D+00  0.532957D+00 -0.716361D-01
      9   0.000000D+00  0.000000D+00  0.000000D+00  0.000000D+00  0.000000D+00
     10   0.195294D+00  0.134827D+01  0.694263D-02  0.000000D+00  0.000000D+00
     11  -0.245588D+00 -0.516179D-01  0.201860D+01  0.000000D+00  0.000000D+00
     12   0.000000D+00  0.000000D+00  0.000000D+00  0.516103D+00 -0.268016D+00
     13   0.000000D+00  0.000000D+00  0.000000D+00  0.000000D+00  0.000000D+00
     14   0.530301D+00 -0.115030D+01 -0.352918D-04  0.000000D+00  0.000000D+00
                11            12            13            14 
      1   0.000000D+00  0.000000D+00  0.000000D+00  0.000000D+00
      2   0.000000D+00  0.000000D+00  0.000000D+00  0.000000D+00
      3   0.000000D+00  0.000000D+00  0.000000D+00  0.000000D+00
      4  -0.243572D+00  0.000000D+00  0.000000D+00  0.000000D+00
      5   0.000000D+00  0.180764D+00  0.976429D+00 -0.243572D+00
      6   0.000000D+00  0.000000D+00  0.000000D+00  0.000000D+00
      7   0.000000D+00  0.000000D+00  0.000000D+00  0.000000D+00
      8   0.127086D+01  0.000000D+00  0.000000D+00  0.000000D+00
      9   0.000000D+00  0.532957D+00 -0.716361D-01  0.127086D+01
     10   0.000000D+00  0.000000D+00  0.000000D+00  0.000000D+00
     11   0.000000D+00  0.000000D+00  0.000000D+00  0.000000D+00
     12  -0.122706D+01  0.000000D+00  0.000000D+00  0.000000D+00
     13   0.000000D+00  0.516103D+00 -0.268016D+00 -0.122706D+01
     14   0.000000D+00  0.000000D+00  0.000000D+00  0.000000D+00
 NBasis=    14 RedAO= T EigKep=  1.23D-01  NBF=     8     0     3     3
 NBsUse=    14 1.00D-06 EigRej= -1.00D+00 NBFU=     8     0     3     3
 Leave Link  302 at Mon Mar 28 14:20:19 2022, MaxMem=  9663676416 cpu:               4.6 elap:               0.2
 (Enter /nopt/nrel/apps/gaussian/g16C_1/g16/l303.exe)
 DipDrv will not compute anything.
 Fermi contact integrals: 
                 1             2 
      1   0.628247D+00  0.343937D-02
      2   0.000000D+00  0.192411D+02
      3   0.183640D-04  0.382249D-01
      4   0.000000D+00  0.000000D+00
      5   0.000000D+00  0.000000D+00
      6  -0.973382D-04  0.000000D+00
      7   0.297507D-01 -0.437955D-02
      8   0.000000D+00  0.000000D+00
      9   0.000000D+00  0.000000D+00
     10  -0.579519D-01  0.000000D+00
     11   0.282249D-01  0.460859D-01
     12   0.000000D+00  0.000000D+00
     13   0.000000D+00  0.000000D+00
     14  -0.395271D-01  0.000000D+00
 Leave Link  303 at Mon Mar 28 14:20:19 2022, MaxMem=  9663676416 cpu:               1.1 elap:               0.1
 (Enter /nopt/nrel/apps/gaussian/g16C_1/g16/l401.exe)
 ExpMin= 2.60D-02 ExpMax= 9.99D+03 ExpMxC= 1.50D+03 IAcc=3 IRadAn=         5 AccDes= 0.00D+00
 Harris functional with IExCor=  205 and IRadAn=       5 diagonalized for initial guess.
 HarFok:  IExCor=  205 AccDes= 0.00D+00 IRadAn=         5 IDoV= 1 UseB2=F ITyADJ=14
 ICtDFT=  3500011 ScaDFX=  1.000000  1.000000  1.000000  1.000000
 FoFCou: FMM=F IPFlag=           0 FMFlag=      100000 FMFlg1=           0
         NFxFlg=           0 DoJE=T BraDBF=F KetDBF=T FulRan=T
         wScrn=  0.000000 ICntrl=       500 IOpCl=  0 I1Cent=   200000004 NGrid=           0
         NMat0=    1 NMatS0=      1 NMatT0=    0 NMatD0=    1 NMtDS0=    0 NMtDT0=    0
 Petite list used in FoFCou.
 Harris En= -162.199870775074    
 JPrj=0 DoOrth=F DoCkMO=F.
 Initial guess orbital symmetries:
       Occupied  (SG) (SG) (SG) (PI) (PI) (SG)
       Virtual   (SG) (PI) (PI) (SG) (SG) (PI) (PI) (SG)
 The electronic state of the initial guess is 1-SG.
 Leave Link  401 at Mon Mar 28 14:20:19 2022, MaxMem=  9663676416 cpu:               3.9 elap:               0.1
 (Enter /nopt/nrel/apps/gaussian/g16C_1/g16/l502.exe)
 Keep R1 ints in memory in symmetry-blocked form, NReq=7222902.
 FoFCou: FMM=F IPFlag=           0 FMFlag=           0 FMFlg1=           0
         NFxFlg=           0 DoJE=F BraDBF=F KetDBF=F FulRan=T
         wScrn=  0.000000 ICntrl=       600 IOpCl=  0 I1Cent=           0 NGrid=           0
         NMat0=    1 NMatS0=    105 NMatT0=    0 NMatD0=    1 NMtDS0=    0 NMtDT0=    0
 Petite list used in FoFCou.
 Closed shell SCF:
 Using DIIS extrapolation, IDIIS=  1040.
 NGot=  9663676416 LenX=  9663671753 LenY=  9663670871
 Requested convergence on RMS density matrix=1.00D-08 within 128 cycles.
 Requested convergence on MAX density matrix=1.00D-06.
 Requested convergence on             energy=1.00D-06.
 No special actions if energy rises.

 Cycle   1  Pass 1  IDiag  1:
 E= -162.294150642480    
 DIIS: error= 3.69D-02 at cycle   1 NSaved=   1.
 NSaved= 1 IEnMin= 1 EnMin= -162.294150642480     IErMin= 1 ErrMin= 3.69D-02
 ErrMax= 3.69D-02  0.00D+00 EMaxC= 1.00D-01 BMatC= 1.42D-02 BMatP= 1.42D-02
 IDIUse=3 WtCom= 6.31D-01 WtEn= 3.69D-01
 Coeff-Com:  0.100D+01
 Coeff-En:   0.100D+01
 Coeff:      0.100D+01
 Gap=     0.190 Goal=   None    Shift=    0.000
 GapD=    0.190 DampG=1.000 DampE=0.500 DampFc=0.5000 IDamp=-1.
 Damping current iteration by 5.00D-01
 RMSDP=1.93D-02 MaxDP=2.13D-01              OVMax= 1.10D-02

 Cycle   2  Pass 1  IDiag  1:
 E= -162.313766496810     Delta-E=       -0.019615854330 Rises=F Damp=T
 DIIS: error= 1.73D-02 at cycle   2 NSaved=   2.
 NSaved= 2 IEnMin= 2 EnMin= -162.313766496810     IErMin= 2 ErrMin= 1.73D-02
 ErrMax= 1.73D-02  0.00D+00 EMaxC= 1.00D-01 BMatC= 3.43D-03 BMatP= 1.42D-02
 IDIUse=3 WtCom= 8.27D-01 WtEn= 1.73D-01
 Coeff-Com: -0.956D+00 0.196D+01
 Coeff-En:   0.000D+00 0.100D+01
 Coeff:     -0.790D+00 0.179D+01
 Gap=     0.246 Goal=   None    Shift=    0.000
 RMSDP=8.99D-03 MaxDP=9.64D-02 DE=-1.96D-02 OVMax= 4.97D-04

 Cycle   3  Pass 1  IDiag  1:
 E= -162.332974885416     Delta-E=       -0.019208388606 Rises=F Damp=F
 DIIS: error= 2.76D-04 at cycle   3 NSaved=   3.
 NSaved= 3 IEnMin= 3 EnMin= -162.332974885416     IErMin= 3 ErrMin= 2.76D-04
 ErrMax= 2.76D-04  0.00D+00 EMaxC= 1.00D-01 BMatC= 1.44D-06 BMatP= 3.43D-03
 IDIUse=3 WtCom= 9.97D-01 WtEn= 2.76D-03
 Coeff-Com:  0.210D+00-0.429D+00 0.122D+01
 Coeff-En:   0.000D+00 0.000D+00 0.100D+01
 Coeff:      0.210D+00-0.428D+00 0.122D+01
 Gap=     0.250 Goal=   None    Shift=    0.000
 RMSDP=2.50D-04 MaxDP=1.38D-03 DE=-1.92D-02 OVMax= 1.65D-04

 Cycle   4  Pass 1  IDiag  1:
 E= -162.332980717459     Delta-E=       -0.000005832044 Rises=F Damp=F
 DIIS: error= 8.46D-05 at cycle   4 NSaved=   4.
 NSaved= 4 IEnMin= 4 EnMin= -162.332980717459     IErMin= 4 ErrMin= 8.46D-05
 ErrMax= 8.46D-05  0.00D+00 EMaxC= 1.00D-01 BMatC= 5.86D-08 BMatP= 1.44D-06
 IDIUse=1 WtCom= 1.00D+00 WtEn= 0.00D+00
 Coeff-Com:  0.859D-01-0.175D+00 0.398D+00 0.691D+00
 Coeff:      0.859D-01-0.175D+00 0.398D+00 0.691D+00
 Gap=     0.250 Goal=   None    Shift=    0.000
 RMSDP=4.18D-05 MaxDP=2.28D-04 DE=-5.83D-06 OVMax= 2.68D-06

 Cycle   5  Pass 1  IDiag  1:
 E= -162.332981123095     Delta-E=       -0.000000405635 Rises=F Damp=F
 DIIS: error= 5.26D-05 at cycle   5 NSaved=   5.
 NSaved= 5 IEnMin= 5 EnMin= -162.332981123095     IErMin= 5 ErrMin= 5.26D-05
 ErrMax= 5.26D-05  0.00D+00 EMaxC= 1.00D-01 BMatC= 2.08D-08 BMatP= 5.86D-08
 IDIUse=1 WtCom= 1.00D+00 WtEn= 0.00D+00
 Coeff-Com:  0.477D-02-0.969D-02 0.462D-01-0.149D+01 0.245D+01
 Coeff:      0.477D-02-0.969D-02 0.462D-01-0.149D+01 0.245D+01
 Gap=     0.251 Goal=   None    Shift=    0.000
 RMSDP=5.34D-05 MaxDP=2.63D-04 DE=-4.06D-07 OVMax= 1.60D-06

 Cycle   6  Pass 1  IDiag  1:
 E= -162.332981360223     Delta-E=       -0.000000237128 Rises=F Damp=F
 DIIS: error= 5.23D-06 at cycle   6 NSaved=   6.
 NSaved= 6 IEnMin= 6 EnMin= -162.332981360223     IErMin= 6 ErrMin= 5.23D-06
 ErrMax= 5.23D-06  0.00D+00 EMaxC= 1.00D-01 BMatC= 2.17D-10 BMatP= 2.08D-08
 IDIUse=1 WtCom= 1.00D+00 WtEn= 0.00D+00
 Coeff-Com: -0.180D-02 0.364D-02-0.160D-01 0.727D+00-0.131D+01 0.159D+01
 Coeff:     -0.180D-02 0.364D-02-0.160D-01 0.727D+00-0.131D+01 0.159D+01
 Gap=     0.251 Goal=   None    Shift=    0.000
 RMSDP=7.52D-06 MaxDP=4.06D-05 DE=-2.37D-07 OVMax= 8.27D-07

 Cycle   7  Pass 1  IDiag  1:
 E= -162.332981362873     Delta-E=       -0.000000002650 Rises=F Damp=F
 DIIS: error= 6.86D-07 at cycle   7 NSaved=   7.
 NSaved= 7 IEnMin= 7 EnMin= -162.332981362873     IErMin= 7 ErrMin= 6.86D-07
 ErrMax= 6.86D-07  0.00D+00 EMaxC= 1.00D-01 BMatC= 4.67D-12 BMatP= 2.17D-10
 IDIUse=1 WtCom= 1.00D+00 WtEn= 0.00D+00
 Coeff-Com: -0.176D-04 0.405D-04 0.809D-03-0.104D+00 0.206D+00-0.274D+00
 Coeff-Com:  0.117D+01
 Coeff:     -0.176D-04 0.405D-04 0.809D-03-0.104D+00 0.206D+00-0.274D+00
 Coeff:      0.117D+01
 Gap=     0.251 Goal=   None    Shift=    0.000
 RMSDP=9.08D-07 MaxDP=5.17D-06 DE=-2.65D-09 OVMax= 1.11D-07

 Cycle   8  Pass 1  IDiag  1:
 E= -162.332981362917     Delta-E=       -0.000000000044 Rises=F Damp=F
 DIIS: error= 1.43D-08 at cycle   8 NSaved=   8.
 NSaved= 8 IEnMin= 8 EnMin= -162.332981362917     IErMin= 8 ErrMin= 1.43D-08
 ErrMax= 1.43D-08  0.00D+00 EMaxC= 1.00D-01 BMatC= 3.28D-15 BMatP= 4.67D-12
 IDIUse=1 WtCom= 1.00D+00 WtEn= 0.00D+00
 Coeff-Com:  0.144D-05-0.346D-05-0.122D-03 0.148D-01-0.299D-01 0.407D-01
 Coeff-Com: -0.213D+00 0.119D+01
 Coeff:      0.144D-05-0.346D-05-0.122D-03 0.148D-01-0.299D-01 0.407D-01
 Coeff:     -0.213D+00 0.119D+01
 Gap=     0.251 Goal=   None    Shift=    0.000
 RMSDP=2.31D-08 MaxDP=1.39D-07 DE=-4.45D-11 OVMax= 4.04D-10

 Cycle   9  Pass 1  IDiag  1:
 E= -162.332981362918     Delta-E=       -0.000000000000 Rises=F Damp=F
 DIIS: error= 1.33D-09 at cycle   9 NSaved=   9.
 NSaved= 9 IEnMin= 9 EnMin= -162.332981362918     IErMin= 9 ErrMin= 1.33D-09
 ErrMax= 1.33D-09  0.00D+00 EMaxC= 1.00D-01 BMatC= 1.22D-17 BMatP= 3.28D-15
 IDIUse=1 WtCom= 1.00D+00 WtEn= 0.00D+00
 Coeff-Com:  0.105D-05-0.209D-05 0.206D-04-0.166D-02 0.330D-02-0.445D-02
 Coeff-Com:  0.225D-01-0.145D+00 0.113D+01
 Coeff:      0.105D-05-0.209D-05 0.206D-04-0.166D-02 0.330D-02-0.445D-02
 Coeff:      0.225D-01-0.145D+00 0.113D+01
 Gap=     0.251 Goal=   None    Shift=    0.000
 RMSDP=1.41D-09 MaxDP=5.91D-09 DE=-2.27D-13 OVMax= 1.26D-10

 SCF Done:  E(RHF) =  -162.332981363     A.U. after    9 cycles
            NFock=  9  Conv=0.14D-08     -V/T= 2.0007
 KE= 1.622145309284D+02 PE=-3.956078907089D+02 EE= 6.852953088709D+01
 Leave Link  502 at Mon Mar 28 14:20:20 2022, MaxMem=  9663676416 cpu:               4.8 elap:               0.2
 (Enter /nopt/nrel/apps/gaussian/g16C_1/g16/l801.exe)
 Windowed orbitals will be sorted by symmetry type.
 ExpMin= 2.60D-02 ExpMax= 9.99D+03 ExpMxC= 1.50D+03 IAcc=3 IRadAn=         5 AccDes= 0.00D+00
 HarFok:  IExCor=  205 AccDes= 0.00D+00 IRadAn=         5 IDoV=-2 UseB2=F ITyADJ=14
 ICtDFT= 12500011 ScaDFX=  1.000000  1.000000  1.000000  1.000000
 Largest valence mixing into a core orbital is  1.37D-04
 Largest core mixing into a valence orbital is  4.62D-05
 Range of M.O.s used for correlation:     6    14
 NBasis=    14 NAE=     6 NBE=     6 NFC=     5 NFV=     0
 NROrb=      9 NOA=     1 NOB=     1 NVA=     8 NVB=     8
 Leave Link  801 at Mon Mar 28 14:20:20 2022, MaxMem=  9663676416 cpu:               1.8 elap:               0.1
 (Enter /nopt/nrel/apps/gaussian/g16C_1/g16/l804.exe)
 Closed-shell transformation, MDV=  9663676416 ITran=4 ISComp=2.
 Unit  1 TFree=          8118 TCopy=        116807.
 Semi-Direct transformation.
 ModeAB=           2 MOrb=             1 LenV=    9663552920
 LASXX=           88 LTotXX=          88 LenRXX=          88
 LTotAB=         141 MaxLAS=         945 LenRXY=         945
 NonZer=        1107 LenScr=      785920 LnRSAI=           0
 LnScr1=           0 LExtra=      220231 Total=      1007184
 MaxDsk= 34359738368 SrtSym=           F ITran=            4
 DoSDTr:  NPSUse= 36
 JobTyp=0 Pass  1:  I=   1 to   1.
 (rs|ai) integrals will be sorted in core.
 Complete sort for first half transformation.
 First half transformation complete.
 Complete sort for second half transformation.
 Second half transformation complete.
 Spin components of T(2) and E(2):
     alpha-alpha T2 =       0.0000000000D+00 E2=      0.0000000000D+00
     alpha-beta  T2 =       0.2050315267D-01 E2=     -0.1997885933D-01
     beta-beta   T2 =       0.0000000000D+00 E2=      0.0000000000D+00
 ANorm=    0.1010199561D+01
 E2 =    -0.1997885933D-01 EUMP2 =    -0.16235296022225D+03
 Leave Link  804 at Mon Mar 28 14:20:20 2022, MaxMem=  9663676416 cpu:               2.5 elap:               0.1
 (Enter /nopt/nrel/apps/gaussian/g16C_1/g16/l913.exe)
 CIDS:  MDV=  9663676416.
 Frozen-core window:  NFC=   5 NFV=   0.
 IFCWin=0 IBDFC=1 NFBD=     0     0 NFCmp=     0     0 NFFFC=     0     0
 Using DD3R+UMP44R for 1st iteration.
 Using DD4RQ for 2nd and later iterations.
 Keep R2 and R3 ints in memory in symmetry-blocked form, NReq=7225296.
 FoFCou: FMM=F IPFlag=           0 FMFlag=           0 FMFlg1=           0
         NFxFlg=           0 DoJE=F BraDBF=F KetDBF=F FulRan=T
         wScrn=  0.000000 ICntrl=       600 IOpCl=  0 I1Cent=           0 NGrid=           0
         NMat0=    1 NMatS0=    105 NMatT0=    0 NMatD0=    1 NMtDS0=    0 NMtDT0=    0
 Petite list used in FoFCou.
 CIDS: In Core Option IDoMem=           1.
 Coupled Cluster theory with single and double substitutions
 ===========================================================
 Iterations= 200 Convergence= 0.100D-06
 Produce multiple copies of IABC intergrals
 Iteration Nr.   1
 **********************
 DD1Dir will call FoFMem   1 times, MxPair=         2
 NAB=     1 NAA=     0 NBB=     0.
 MP4(R+Q)=  0.40962960D-03
 Maximum subspace dimension=  5
 A-vector RMS=  2.0677725D-02 Max=  3.3511639D-02 conv= 1.00D-05.
 RLE energy=       -0.0330081811
 E3=       -0.82989167D-02        EUMP3=      -0.16236125914D+03
 E4(DQ)=   -0.34254918D-02        UMP4(DQ)=   -0.16236468463D+03
 E4(SDQ)=  -0.36249340D-02        UMP4(SDQ)=  -0.16236488407D+03
 VARIATIONAL ENERGIES WITH THE FIRST-ORDER WAVEFUNCTION:
 DE(Corr)= -0.27865117E-01 E(Corr)=     -162.36084648    
 NORM(A)=   0.10286637D+01
 Iteration Nr.   2
 **********************
 DD1Dir will call FoFMem   1 times, MxPair=         2
 NAB=     1 NAA=     0 NBB=     0.
 A-vector RMS=  1.0313351D-02 Max=  1.2250620D-02 conv= 1.00D-05.
 RLE energy=       -0.0341599502
 DE(Corr)= -0.33562437E-01 E(CORR)=     -162.36654380     Delta=-5.70D-03
 NORM(A)=   0.10327463D+01
 Iteration Nr.   3
 **********************
 DD1Dir will call FoFMem   1 times, MxPair=         2
 NAB=     1 NAA=     0 NBB=     0.
 A-vector RMS=  8.5390780D-03 Max=  1.0154760D-02 conv= 1.00D-05.
 RLE energy=       -0.0347309457
 DE(Corr)= -0.34213589E-01 E(CORR)=     -162.36719495     Delta=-6.51D-04
 NORM(A)=   0.10384442D+01
 Iteration Nr.   4
 **********************
 DD1Dir will call FoFMem   1 times, MxPair=         2
 NAB=     1 NAA=     0 NBB=     0.
 A-vector RMS=  2.8297078D-03 Max=  4.5456103D-03 conv= 1.00D-05.
 RLE energy=       -0.0351795764
 DE(Corr)= -0.34834496E-01 E(CORR)=     -162.36781586     Delta=-6.21D-04
 NORM(A)=   0.10424165D+01
 Iteration Nr.   5
 **********************
 DD1Dir will call FoFMem   1 times, MxPair=         2
 NAB=     1 NAA=     0 NBB=     0.
 A-vector RMS=  4.3789496D-04 Max=  3.8586044D-04 conv= 1.00D-05.
 RLE energy=       -0.0350766098
 DE(Corr)= -0.35121629E-01 E(CORR)=     -162.36810299     Delta=-2.87D-04
 NORM(A)=   0.10422374D+01
 Iteration Nr.   6
 **********************
 DD1Dir will call FoFMem   1 times, MxPair=         2
 NAB=     1 NAA=     0 NBB=     0.
 A-vector RMS=  1.7106530D-04 Max=  1.3132157D-04 conv= 1.00D-05.
 RLE energy=       -0.0350802072
 DE(Corr)= -0.35077671E-01 E(CORR)=     -162.36805903     Delta= 4.40D-05
 NORM(A)=   0.10422780D+01
 Iteration Nr.   7
 **********************
 DD1Dir will call FoFMem   1 times, MxPair=         2
 NAB=     1 NAA=     0 NBB=     0.
 A-vector RMS=  8.0271780D-05 Max=  8.5417176D-05 conv= 1.00D-05.
 RLE energy=       -0.0350824850
 DE(Corr)= -0.35080858E-01 E(CORR)=     -162.36806222     Delta=-3.19D-06
 NORM(A)=   0.10422886D+01
 Iteration Nr.   8
 **********************
 DD1Dir will call FoFMem   1 times, MxPair=         2
 NAB=     1 NAA=     0 NBB=     0.
 A-vector RMS=  1.3989437D-05 Max=  1.3777561D-05 conv= 1.00D-05.
 RLE energy=       -0.0350807119
 DE(Corr)= -0.35081608E-01 E(CORR)=     -162.36806297     Delta=-7.50D-07
 NORM(A)=   0.10422790D+01
 Iteration Nr.   9
 **********************
 DD1Dir will call FoFMem   1 times, MxPair=         2
 NAB=     1 NAA=     0 NBB=     0.
 A-vector RMS=  2.3279398D-06 Max=  2.0085873D-06 conv= 1.00D-05.
 RLE energy=       -0.0350811169
 DE(Corr)= -0.35080924E-01 E(CORR)=     -162.36806229     Delta= 6.84D-07
 NORM(A)=   0.10422809D+01
 Iteration Nr.  10
 **********************
 DD1Dir will call FoFMem   1 times, MxPair=         2
 NAB=     1 NAA=     0 NBB=     0.
 A-vector RMS=  9.7512528D-07 Max=  8.1973957D-07 conv= 1.00D-05.
 RLE energy=       -0.0350811775
 DE(Corr)= -0.35081129E-01 E(CORR)=     -162.36806249     Delta=-2.05D-07
 NORM(A)=   0.10422818D+01
 Iteration Nr.  11
 **********************
 DD1Dir will call FoFMem   1 times, MxPair=         2
 NAB=     1 NAA=     0 NBB=     0.
 A-vector RMS=  1.5338729D-07 Max=  1.3538317D-07 conv= 1.00D-05.
 RLE energy=       -0.0350812074
 DE(Corr)= -0.35081187E-01 E(CORR)=     -162.36806255     Delta=-5.79D-08
 NORM(A)=   0.10422819D+01
 CI/CC converged in   11 iterations to DelEn=-5.79D-08 Conv= 1.00D-07 ErrA1= 1.53D-07 Conv= 1.00D-05
 Wavefunction amplitudes converged. E(Corr)=     -162.36806255    
 Dominant configurations:
 ***********************
 Spin Case        I    J    A    B          Value
   ABAB           6    6   14   14      -0.133478D+00
 Largest amplitude= 1.33D-01
 Discarding MO integrals.
 Leave Link  913 at Mon Mar 28 14:20:20 2022, MaxMem=  9663676416 cpu:               4.0 elap:               0.1
 (Enter /nopt/nrel/apps/gaussian/g16C_1/g16/l601.exe)
 Copying SCF densities to generalized density rwf, IOpCl= 0 IROHF=0.

 **********************************************************************

            Population analysis using the SCF Density.

 **********************************************************************

 Orbital symmetries:
       Occupied  (SG) (SG) (PI) (PI) (SG) (SG)
       Virtual   (SG) (PI) (PI) (SG) (SG) (PI) (PI) (SG)
 The electronic state is 1-SG.
 Alpha  occ. eigenvalues --  -40.49987  -2.81280  -1.53405  -1.53405  -1.53279
 Alpha  occ. eigenvalues --   -0.25360
 Alpha virt. eigenvalues --   -0.00297   0.04130   0.04130   0.13956   0.14854
 Alpha virt. eigenvalues --    0.20863   0.20863   0.35549
          Condensed to atoms (all electrons):
               1          2
     1  H    0.621959   0.305434
     2  Na   0.305434  10.767174
 Mulliken charges:
               1
     1  H    0.072608
     2  Na  -0.072608
 Sum of Mulliken charges =  -0.00000
 Mulliken charges with hydrogens summed into heavy atoms:
               1
     2  Na  -0.000000
 N-N= 2.530847530487D+00 E-N=-3.956078907082D+02  KE= 1.622145309284D+02
 Symmetry A1   KE= 1.387394743067D+02
 Symmetry A2   KE= 0.000000000000D+00
 Symmetry B1   KE= 1.173752831083D+01
 Symmetry B2   KE= 1.173752831083D+01

 Atomic contributions to Alpha molecular orbitals:
 Alpha occ 1 OE=-40.500 is Na2-s=1.0000
 Alpha occ 2 OE=-2.813 is Na2-s=0.9997
 Alpha occ 3 OE=-1.534 is Na2-p=1.0000
 Alpha occ 4 OE=-1.534 is Na2-p=1.0000
 Alpha occ 5 OE=-1.533 is Na2-p=0.9996
 Alpha occ 6 OE=-0.254 is H1-s=0.4635 Na2-s=0.3336 Na2-p=0.2028
 Alpha vir 7 OE=-0.003 is Na2-s=0.5068 Na2-p=0.4705
 Alpha vir 8 OE=0.041 is Na2-p=1.0000
 Alpha vir 9 OE=0.041 is Na2-p=1.0000
 Alpha vir 10 OE=0.140 is Na2-p=0.5140 Na2-s=0.4305
 Alpha vir 11 OE=0.149 is Na2-s=0.6216 Na2-p=0.3206
 Alpha vir 12 OE=0.209 is Na2-p=1.0000
 Alpha vir 13 OE=0.209 is Na2-p=1.0000
 Alpha vir 14 OE=0.355 is Na2-p=0.4922 H1-s=0.4004 Na2-s=0.1074
 
 Leave Link  601 at Mon Mar 28 14:20:20 2022, MaxMem=  9663676416 cpu:               1.0 elap:               0.1
 (Enter /nopt/nrel/apps/gaussian/g16C_1/g16/l9999.exe)

 Test job not archived.
 1\1\GINC-R102U34\SP\RCCSD-FC\Gen\H1Na1\USER\28-Mar-2022\0\\#P CCSD
 (MaxCyc=200,SaveAmplitudes,ReadAmplitudes)/GEN sp pop=AllOrbitals iop(
 3/33=1,3/36=-1)\\test\\0,1\H,0,0.,0.,0.\Na,0,0.,0.,2.3\\Version=ES64L-
 G16RevC.01\State=1-SG\HF=-162.3329814\MP2=-162.3529602\MP3=-162.361259
 1\MP4D=-162.3650943\MP4DQ=-162.3646846\MP4SDQ=-162.3648841\CCSD=-162.3
 680625\RMSD=1.407e-09\PG=C*V [C*(H1Na1)]\\@


  ON THE CHOICE OF THE CORRECT LANGUAGE -
 I SPEAK SPANISH TO GOD, ITALIAN TO WOMEN,
 FRENCH TO MEN, AND GERMAN TO MY HORSE.
          -- CHARLES V
 Job cpu time:       0 days  0 hours  0 minutes 33.2 seconds.
 Elapsed time:       0 days  0 hours  0 minutes  1.3 seconds.
 File lengths (MBytes):  RWF=     13 Int=      0 D2E=      0 Chk=      1 Scr=      1
 Normal termination of Gaussian 16 at Mon Mar 28 14:20:20 2022.
