 Entering Gaussian System, Link 0=g16
 Initial command:
 /nopt/nrel/apps/gaussian/g16C_1/g16/l1.exe "/lustre/eaglefs/scratch/user/qc/tih-dissc-sto3g/tih-4-ccsd-3.1-sto3g/Gau-12647.inp" -scrdir="/lustre/eaglefs/scratch/user/qc/tih-dissc-sto3g/tih-4-ccsd-3.1-sto3g/"
 Default is to use a total of  36 processors:
                               36 via shared-memory
                                1 via Linda
 Entering Link 1 = /nopt/nrel/apps/gaussian/g16C_1/g16/l1.exe PID=     12648.
  
 Copyright (c) 1988-2019, Gaussian, Inc.  All Rights Reserved.
  
 This is part of the Gaussian(R) 16 program.  It is based on
 the Gaussian(R) 09 system (copyright 2009, Gaussian, Inc.),
 the Gaussian(R) 03 system (copyright 2003, Gaussian, Inc.),
 the Gaussian(R) 98 system (copyright 1998, Gaussian, Inc.),
 the Gaussian(R) 94 system (copyright 1995, Gaussian, Inc.),
 the Gaussian 92(TM) system (copyright 1992, Gaussian, Inc.),
 the Gaussian 90(TM) system (copyright 1990, Gaussian, Inc.),
 the Gaussian 88(TM) system (copyright 1988, Gaussian, Inc.),
 the Gaussian 86(TM) system (copyright 1986, Carnegie Mellon
 University), and the Gaussian 82(TM) system (copyright 1983,
 Carnegie Mellon University). Gaussian is a federally registered
 trademark of Gaussian, Inc.
  
 This software contains proprietary and confidential information,
 including trade secrets, belonging to Gaussian, Inc.
  
 This software is provided under written license and may be
 used, copied, transmitted, or stored only in accord with that
 written license.
  
 The following legend is applicable only to US Government
 contracts under FAR:
  
                    RESTRICTED RIGHTS LEGEND
  
 Use, reproduction and disclosure by the US Government is
 subject to restrictions as set forth in subparagraphs (a)
 and (c) of the Commercial Computer Software - Restricted
 Rights clause in FAR 52.227-19.
  
 Gaussian, Inc.
 340 Quinnipiac St., Bldg. 40, Wallingford CT 06492
  
  
 ---------------------------------------------------------------
 Warning -- This program may not be used in any manner that
 competes with the business of Gaussian, Inc. or will provide
 assistance to any competitor of Gaussian, Inc.  The licensee
 of this program is prohibited from giving any competitor of
 Gaussian, Inc. access to this program.  By using this program,
 the user acknowledges that Gaussian, Inc. is engaged in the
 business of creating and licensing software in the field of
 computational chemistry and represents and warrants to the
 licensee that it is not a competitor of Gaussian, Inc. and that
 it will not use this program in any manner prohibited above.
 ---------------------------------------------------------------
  

 Cite this work as:
 Gaussian 16, Revision C.01,
 M. J. Frisch, G. W. Trucks, H. B. Schlegel, G. E. Scuseria, 
 M. A. Robb, J. R. Cheeseman, G. Scalmani, V. Barone, 
 G. A. Petersson, H. Nakatsuji, X. Li, M. Caricato, A. V. Marenich, 
 J. Bloino, B. G. Janesko, R. Gomperts, B. Mennucci, H. P. Hratchian, 
 J. V. Ortiz, A. F. Izmaylov, J. L. Sonnenberg, D. Williams-Young, 
 F. Ding, F. Lipparini, F. Egidi, J. Goings, B. Peng, A. Petrone, 
 T. Henderson, D. Ranasinghe, V. G. Zakrzewski, J. Gao, N. Rega, 
 G. Zheng, W. Liang, M. Hada, M. Ehara, K. Toyota, R. Fukuda, 
 J. Hasegawa, M. Ishida, T. Nakajima, Y. Honda, O. Kitao, H. Nakai, 
 T. Vreven, K. Throssell, J. A. Montgomery, Jr., J. E. Peralta, 
 F. Ogliaro, M. J. Bearpark, J. J. Heyd, E. N. Brothers, K. N. Kudin, 
 V. N. Staroverov, T. A. Keith, R. Kobayashi, J. Normand, 
 K. Raghavachari, A. P. Rendell, J. C. Burant, S. S. Iyengar, 
 J. Tomasi, M. Cossi, J. M. Millam, M. Klene, C. Adamo, R. Cammi, 
 J. W. Ochterski, R. L. Martin, K. Morokuma, O. Farkas, 
 J. B. Foresman, and D. J. Fox, Gaussian, Inc., Wallingford CT, 2019.
 
 ******************************************
 Gaussian 16:  ES64L-G16RevC.01  3-Jul-2019
                25-Mar-2022 
 ******************************************
 %chk=molecule
 Default route: CacheSize=180224 MaxDisk=256GB
 --------------------------------------------------
 #P CCSD/GEN sp pop=AllOrbitals iop(3/33=1,3/36=-1)
 --------------------------------------------------
 1/4=180224,38=1,172=1/1;
 2/4=180224,12=2,17=6,18=5,40=1/2;
 3/4=180224,5=7,11=9,25=1,30=1,33=1,36=-1/1,2,3;
 4/4=180224/1;
 5/4=180224,5=2,38=5/2;
 8/4=180224,6=4,9=120000,10=1/1,4;
 9/4=180224,5=7/13;
 6/4=180224,7=2,8=2,9=2,10=2,96=-1/1;
 99/4=180224,5=1,9=1/99;
 Leave Link    1 at Fri Mar 25 14:39:17 2022, MaxMem=           0 cpu:               2.3 elap:               0.1
 (Enter /nopt/nrel/apps/gaussian/g16C_1/g16/l101.exe)
 ----
 test
 ----
 Symbolic Z-matrix:
 Charge =  0 Multiplicity = 4
 H                     0.        0.        0. 
 Ti                    0.        0.        3.1 
 
 ITRead=  0  0
 MicOpt= -1 -1
 NAtoms=      2 NQM=        2 NQMF=       0 NMMI=      0 NMMIF=      0
                NMic=       0 NMicF=      0.
                    Isotopes and Nuclear Properties:
 (Nuclear quadrupole moments (NQMom) in fm**2, nuclear magnetic moments (NMagM)
  in nuclear magnetons)

  Atom         1           2
 IAtWgt=           1          48
 AtmWgt=   1.0078250  47.9479467
 NucSpn=           1           0
 AtZEff=  -0.0000000  -0.0000000
 NQMom=    0.0000000   0.0000000
 NMagM=    2.7928460   0.0000000
 AtZNuc=   1.0000000  22.0000000
 Leave Link  101 at Fri Mar 25 14:39:17 2022, MaxMem=  9663676416 cpu:               3.2 elap:               0.1
 (Enter /nopt/nrel/apps/gaussian/g16C_1/g16/l202.exe)
                          Input orientation:                          
 ---------------------------------------------------------------------
 Center     Atomic      Atomic             Coordinates (Angstroms)
 Number     Number       Type             X           Y           Z
 ---------------------------------------------------------------------
      1          1           0        0.000000    0.000000    0.000000
      2         22           0        0.000000    0.000000    3.100000
 ---------------------------------------------------------------------
 Stoichiometry    HTi(4)
 Framework group  C*V[C*(HTi)]
 Deg. of freedom     1
 Full point group                 C*V     NOp   4
 Largest Abelian subgroup         C2V     NOp   4
 Largest concise Abelian subgroup C1      NOp   1
                         Standard orientation:                         
 ---------------------------------------------------------------------
 Center     Atomic      Atomic             Coordinates (Angstroms)
 Number     Number       Type             X           Y           Z
 ---------------------------------------------------------------------
      1          1           0        0.000000    0.000000   -2.965217
      2         22           0        0.000000    0.000000    0.134783
 ---------------------------------------------------------------------
 Rotational constants (GHZ):           0.0000000          53.2773428          53.2773428
 Leave Link  202 at Fri Mar 25 14:39:17 2022, MaxMem=  9663676416 cpu:               1.5 elap:               0.1
 (Enter /nopt/nrel/apps/gaussian/g16C_1/g16/l301.exe)
 General basis read from cards:  (5D, 7F)
                         Coordinates in L301:                         
 ---------------------------------------------------------------------
 Center     Atomic      Atomic             Coordinates (Angstroms)
 Number     Number       Type             X           Y           Z
 ---------------------------------------------------------------------
      1          1           0        0.000000    0.000000   -2.965217
      2         22           0        0.000000    0.000000    0.134783
 ---------------------------------------------------------------------
 Centers:       1
 STO-3G
 ****
 Centers:       2
 STO-3G
 ****
 FixB: optimizing general contractions.
 Ernie: Thresh=  0.10000D-02 Tol=  0.10000D-05 Strict=F.
 IA=     1 ShT= 0 ShC= 0 NL=   1 NS=   0.
 IA=     1 L=0 SC=0 ISt=    0 NBk=    0 NP=    0 IndPr=    0.
 IA=     2 ShT= 0 ShC= 0 NL=   1 NS=   0.
 IA=     2 L=0 SC=0 ISt=    0 NBk=    0 NP=    0 IndPr=    0.
 IA=     2 ShT= 1 ShC= 0 NL=   3 NS=   0.
 IA=     2 L=1 SC=0 ISt=    1 NBk=    3 NP=    9 IndPr=    0.
 DoElim1:  L=1 select primitive    1 from    2 using    1 C=-1.00D-01
 DoElim1:  L=1 select primitive    1 from    3 using    1 C=-1.00D-01
 DoElim1:  L=1 select primitive    4 from    3 using    2 C=-2.28D-01
 DoElim2:  L=1 select primitive    9 from    2 using    3 C= 1.13D+00
 DoElim2:  L=1 select primitive    9 from    1 using    3 C= 1.13D+00
 DoElim2:  L=1 select primitive    7 from    1 using    2 C= 9.17D-01
 DoElim1:  L=1 select primitive    1 from    2 using    1 C= 1.56D-01
 DoElim1:  L=1 select primitive    1 from    3 using    1 C= 1.56D-01
 DoElim1:  L=1 select primitive    4 from    3 using    2 C= 4.95D-03
 DoElim2:  L=1 select primitive    8 from    2 using    3 C= 5.72D-01
 DoElim2:  L=1 select primitive    8 from    1 using    3 C= 5.72D-01
 DoElim2:  L=1 select primitive    5 from    1 using    2 C= 5.78D-01
 Delete L=1 primitive    7 from    3 C=  0.00D+00.
 Delete L=1 primitive    5 from    3 C=  0.00D+00.
 Delete L=1 primitive    4 from    3 C=  0.00D+00.
 Delete L=1 primitive    3 from    3 C=  0.00D+00.
 Delete L=1 primitive    2 from    3 C=  0.00D+00.
 Delete L=1 primitive    1 from    3 C=  0.00D+00.
 Delete L=1 primitive    9 from    2 C=  0.00D+00.
 Delete L=1 primitive    8 from    2 C=  0.00D+00.
 Delete L=1 primitive    6 from    2 C=  0.00D+00.
 Delete L=1 primitive    3 from    2 C=  0.00D+00.
 Delete L=1 primitive    2 from    2 C=  0.00D+00.
 Delete L=1 primitive    1 from    2 C=  0.00D+00.
 Delete L=1 primitive    9 from    1 C=  0.00D+00.
 Delete L=1 primitive    8 from    1 C=  0.00D+00.
 Delete L=1 primitive    7 from    1 C=  0.00D+00.
 Delete L=1 primitive    6 from    1 C=  0.00D+00.
 Delete L=1 primitive    5 from    1 C=  0.00D+00.
 Delete L=1 primitive    4 from    1 C=  0.00D+00.
 IA=     2 L=1 SC=0 ISt=    0 NBk=    0 NP=    0 IndPr=    9.
 IA=     2 ShT= 2 ShC= 2 NL=   1 NS=   0.
 IA=     2 L=2 SC=2 ISt=    0 NBk=    0 NP=    0 IndPr=    0.
 LdAtmC:  AtmChg=     1.000000    22.000000
 AtZEff=     -1.0000000    -23.9800000
 NEqShl: 
              1            2            3            4
     1            1            1            1            1
     2            2            2            2            2
     3            3            3            3            3
     4            4            4            4            4
     5            5            5            5            5
     6            6            6            6            6
 NEqBas: 
              1            2            3            4
     1            1            1            1            1
     2            2            2            2            2
     3            3            3            3            3
     4            4           -4           -4            4
     5            5           -5            5           -5
     6            6            6            6            6
     7            7            7            7            7
     8            8           -8           -8            8
     9            9           -9            9           -9
    10           10           10           10           10
    11           11           11           11           11
    12           12          -12          -12           12
    13           13          -13           13          -13
    14           14           14           14           14
    15           15           15           15           15
    16           16           16           16           16
    17           17           17           17           17
    18           18           18          -18          -18
    19           19          -19          -19           19
    20           20          -20           20          -20
 There are    11 symmetry adapted cartesian basis functions of A1  symmetry.
   1         1   1   1   1
   2         2   2   2   2
   3         3   3   3   3
   4         6   6   6   6
   5         7   7   7   7
   6        10  10  10  10
   7        11  11  11  11
   8        14  14  14  14
   9        15  15  15  15
  10        16  16  16  16
  11        17  17  17  17
 There are     1 symmetry adapted cartesian basis functions of A2  symmetry.
  12        18  18  18  18
 There are     4 symmetry adapted cartesian basis functions of B1  symmetry.
  13         4   4   4   4
  14         8   8   8   8
  15        12  12  12  12
  16        19  19  19  19
 There are     4 symmetry adapted cartesian basis functions of B2  symmetry.
  17         5   5   5   5
  18         9   9   9   9
  19        13  13  13  13
  20        20  20  20  20
 Order= 1 2 4 3
 Reordered character table:
              1            2            3            4            5
     1            1            1            1            1            1
     2            2            1            1           -1           -1
     3            4            1           -1           -1            1
     4            3            1           -1            1           -1
 NEqShl: 
              1            2            3            4
     1            1            1            1            1
     2            2            2            2            2
     3            3            3            3            3
     4            4            4            4            4
     5            5            5            5            5
     6            6            6            6            6
 NEqBas: 
              1            2            3            4
     1            1            1            1            1
     2            2            2            2            2
     3            3            3            3            3
     4            4           -4           -4            4
     5            5           -5            5           -5
     6            6            6            6            6
     7            7            7            7            7
     8            8           -8           -8            8
     9            9           -9            9           -9
    10           10           10           10           10
    11           11           11           11           11
    12           12          -12          -12           12
    13           13          -13           13          -13
    14           14           14           14           14
    15           15           15           15           15
    16           16          -16          -16           16
    17           17          -17           17          -17
    18           18           18           18           18
    19           19           19          -19          -19
 There are    10 symmetry adapted basis functions of A1  symmetry.
   1         1   1   1   1
   2         2   2   2   2
   3         3   3   3   3
   4         6   6   6   6
   5         7   7   7   7
   6        10  10  10  10
   7        11  11  11  11
   8        14  14  14  14
   9        15  15  15  15
  10        18  18  18  18
 There are     1 symmetry adapted basis functions of A2  symmetry.
  11        19  19  19  19
 There are     4 symmetry adapted basis functions of B1  symmetry.
  12         4   4   4   4
  13         8   8   8   8
  14        12  12  12  12
  15        16  16  16  16
 There are     4 symmetry adapted basis functions of B2  symmetry.
  16         5   5   5   5
  17         9   9   9   9
  18        13  13  13  13
  19        17  17  17  17
 Order= 1 2 4 3
 Reordered character table:
              1            2            3            4            5
     1            1            1            1            1            1
     2            2            1            1           -1           -1
     3            4            1           -1           -1            1
     4            3            1           -1            1           -1
    19 basis functions,    60 primitive gaussians,    20 cartesian basis functions
    13 alpha electrons       10 beta electrons
       nuclear repulsion energy         3.7554511743 Hartrees.
 IS=     1 IAt=     1 ISR=     1 T=0 IP=      1 IndIP=      1 IndIPD=      0 C=  2.769344D-01  0.000000D+00                             NZ=T
 IS=     1 IAt=     1 ISR=     1 T=0 IP=      2 IndIP=      2 IndIPD=      1 C=  2.678389D-01  0.000000D+00                             NZ=T
 IS=     1 IAt=     1 ISR=     1 T=0 IP=      3 IndIP=      3 IndIPD=      2 C=  8.347367D-02  0.000000D+00                             NZ=T
 IS=     2 IAt=     2 ISR=     1 T=0 IP=      1 IndIP=      4 IndIPD=      0 C=  2.004993D+01  0.000000D+00                             NZ=T
 IS=     2 IAt=     2 ISR=     1 T=0 IP=      2 IndIP=      5 IndIPD=      1 C=  1.939142D+01  0.000000D+00                             NZ=T
 IS=     2 IAt=     2 ISR=     1 T=0 IP=      3 IndIP=      6 IndIPD=      2 C=  6.043458D+00  0.000000D+00                             NZ=T
 IS=     3 IAt=     2 ISR=     2 T=1 IP=      1 IndIP=      7 IndIPD=      0 C= -1.820341D+00  4.925761D+01                             NZ=T
 IS=     3 IAt=     2 ISR=     2 T=1 IP=      2 IndIP=      8 IndIPD=      1 C=  2.434854D+00  3.097451D+01                             NZ=T
 IS=     3 IAt=     2 ISR=     2 T=1 IP=      3 IndIP=      9 IndIPD=      2 C=  1.837620D+00  4.906883D+00                             NZ=T
 IS=     4 IAt=     2 ISR=     3 T=1 IP=      1 IndIP=     10 IndIPD=      0 C= -5.746721D-01  5.803915D-02                             NZ=T
 IS=     4 IAt=     2 ISR=     3 T=1 IP=      2 IndIP=     11 IndIPD=      1 C=  2.252897D-01  1.535208D+00                             NZ=T
 IS=     4 IAt=     2 ISR=     3 T=1 IP=      3 IndIP=     12 IndIPD=      2 C=  4.647390D-01  3.915940D-01                             NZ=T
 IS=     5 IAt=     2 ISR=     4 T=1 IP=      1 IndIP=     13 IndIPD=      0 C= -1.706594D-01 -1.133666D-01                             NZ=T
 IS=     5 IAt=     2 ISR=     4 T=1 IP=      2 IndIP=     14 IndIPD=      1 C=  5.129963D-03  1.533382D-01                             NZ=T
 IS=     5 IAt=     2 ISR=     4 T=1 IP=      3 IndIP=     15 IndIPD=      2 C=  1.603140D-01  5.311239D-02                             NZ=T
 IS=     6 IAt=     2 ISR=     5 T=2 IP=      1 IndIP=     16 IndIPD=      1 C=  0.000000D+00  0.000000D+00  8.652016D-01  0.000000D+00 NZ=T
 IS=     6 IAt=     2 ISR=     5 T=2 IP=      2 IndIP=     17 IndIPD=      2 C=  0.000000D+00  0.000000D+00  3.231180D-01  0.000000D+00 NZ=T
 IS=     6 IAt=     2 ISR=     5 T=2 IP=      3 IndIP=     18 IndIPD=      3 C=  0.000000D+00  0.000000D+00  2.668013D-02  0.000000D+00 NZ=T
 IExCor=    0 DFT=F Ex=HF Corr=None ExCW=0 ScaHFX=  1.000000
 ScaDFX=  1.000000  1.000000  1.000000  1.000000 ScalE2=  1.000000  1.000000
 IRadAn=      5 IRanWt=     -1 IRanGd=            0 ICorTp=0 IEmpDi=  4
 NAtoms=    2 NActive=    2 NUniq=    2 SFac= 1.00D+00 NAtFMM=   60 NAOKFM=F Big=F
 Integral buffers will be    131072 words long.
 Raffenetti 2 integral format.
 Two-electron integral symmetry is turned on.
 Leave Link  301 at Fri Mar 25 14:39:18 2022, MaxMem=  9663676416 cpu:               2.2 elap:               0.1
 (Enter /nopt/nrel/apps/gaussian/g16C_1/g16/l302.exe)
 NPDir=0 NMtPBC=     1 NCelOv=     1 NCel=       1 NClECP=     1 NCelD=      1
         NCelK=      1 NCelE2=     1 NClLst=     1 CellRange=     0.0.
 One-electron integrals computed using PRISM.
 One-electron integral symmetry used in STVInt
 Entering OneElI...
 Calculate overlap and kinetic energy integrals
    NBasis =  19  MinDer = 0  MaxDer = 0
 Requested accuracy = 0.1000D-12
 Symmetry will be used
 PrmmSu-InSpLW:  IPartL=    0 NPrtUS=   36 NPrtUL=    1 DoSpLW=F IThBeg=    0 IThEnd=   35 NThAct=   36.
 PrSmSu:  IncTry=   512 NBBP=             21 NTPThr=   100 NPartT=   36 Incr=           1 LDynOK=F GPUOK=F.
 PrsmSu:  NPrtUS=  36 ThrOK=T IAlg=1 LenDen=           0 ISkipM=0 DoSpLW=F IThBeg=    0 IThEnd=   35.
 Prism:   IPart=     0 DynPar=F LinDyn=F Incr=           1.
 PRISM was handed   268432696 working-precision words and    21 shell-pairs
 PRISM was handed   268432696 working-precision words and    21 shell-pairs
 PRISM was handed   268432696 working-precision words and    21 shell-pairs
 PRISM was handed   268432696 working-precision words and    21 shell-pairs
 PRISM was handed   268432696 working-precision words and    21 shell-pairs
 PRISM was handed   268432696 working-precision words and    21 shell-pairs
 PRISM was handed   268432696 working-precision words and    21 shell-pairs
 PRISM was handed   268432696 working-precision words and    21 shell-pairs
 PRISM was handed   268432696 working-precision words and    21 shell-pairs
 PRISM was handed   268432696 working-precision words and    21 shell-pairs
 PRISM was handed   268432696 working-precision words and    21 shell-pairs
 PRISM was handed   268432696 working-precision words and    21 shell-pairs
 PRISM was handed   268432696 working-precision words and    21 shell-pairs
 PRISM was handed   268432696 working-precision words and    21 shell-pairs
 IPart= 32 NShTot=           0 NBatch=           0 AvBLen=         0.0
 IPart= 34 NShTot=           0 NBatch=           0 AvBLen=         0.0
 IPart= 16 NShTot=           0 NBatch=           0 AvBLen=         0.0
 IPart= 12 NShTot=           0 NBatch=           0 AvBLen=         0.0
 IPart= 30 NShTot=           0 NBatch=           0 AvBLen=         0.0
 IPart= 26 NShTot=           0 NBatch=           0 AvBLen=         0.0
 IPart= 13 NShTot=           0 NBatch=           0 AvBLen=         0.0
 IPart=  4 NShTot=           1 NBatch=           1 AvBLen=         1.0
 PRISM was handed   268432696 working-precision words and    21 shell-pairs
 PRISM was handed   268432696 working-precision words and    21 shell-pairs
 PRISM was handed   268432696 working-precision words and    21 shell-pairs
 PRISM was handed   268432696 working-precision words and    21 shell-pairs
 PRISM was handed   268432696 working-precision words and    21 shell-pairs
 IPart=  2 NShTot=           3 NBatch=           3 AvBLen=         1.0
 IPart= 33 NShTot=           0 NBatch=           0 AvBLen=         0.0
 IPart=  1 NShTot=           5 NBatch=           5 AvBLen=         1.0
 IPart= 35 NShTot=           0 NBatch=           0 AvBLen=         0.0
 IPart= 11 NShTot=           0 NBatch=           0 AvBLen=         0.0
 PRISM was handed   268432696 working-precision words and    21 shell-pairs
 IPart=  0 NShTot=           9 NBatch=           9 AvBLen=         1.0
 IPart=  8 NShTot=           0 NBatch=           0 AvBLen=         0.0
 IPart= 31 NShTot=           0 NBatch=           0 AvBLen=         0.0
 IPart= 27 NShTot=           0 NBatch=           0 AvBLen=         0.0
 PRISM was handed   268432696 working-precision words and    21 shell-pairs
 PRISM was handed   268432696 working-precision words and    21 shell-pairs
 PRISM was handed   268432696 working-precision words and    21 shell-pairs
 PRISM was handed   268432696 working-precision words and    21 shell-pairs
 PRISM was handed   268432696 working-precision words and    21 shell-pairs
 IPart= 29 NShTot=           0 NBatch=           0 AvBLen=         0.0
 IPart= 18 NShTot=           0 NBatch=           0 AvBLen=         0.0
 PRISM was handed   268432696 working-precision words and    21 shell-pairs
 IPart=  9 NShTot=           0 NBatch=           0 AvBLen=         0.0
 IPart= 20 NShTot=           0 NBatch=           0 AvBLen=         0.0
 IPart= 22 NShTot=           0 NBatch=           0 AvBLen=         0.0
 PRISM was handed   268432696 working-precision words and    21 shell-pairs
 PRISM was handed   268432696 working-precision words and    21 shell-pairs
 IPart= 28 NShTot=           0 NBatch=           0 AvBLen=         0.0
 IPart=  5 NShTot=           1 NBatch=           1 AvBLen=         1.0
 IPart=  3 NShTot=           2 NBatch=           2 AvBLen=         1.0
 IPart= 24 NShTot=           0 NBatch=           0 AvBLen=         0.0
 PRISM was handed   268432696 working-precision words and    21 shell-pairs
 PRISM was handed   268432696 working-precision words and    21 shell-pairs
 IPart= 14 NShTot=           0 NBatch=           0 AvBLen=         0.0
 IPart= 15 NShTot=           0 NBatch=           0 AvBLen=         0.0
 PRISM was handed   268432696 working-precision words and    21 shell-pairs
 PRISM was handed   268432696 working-precision words and    21 shell-pairs
 PRISM was handed   268432696 working-precision words and    21 shell-pairs
 PRISM was handed   268432696 working-precision words and    21 shell-pairs
 IPart= 19 NShTot=           0 NBatch=           0 AvBLen=         0.0
 PRISM was handed   268432696 working-precision words and    21 shell-pairs
 IPart= 25 NShTot=           0 NBatch=           0 AvBLen=         0.0
 PRISM was handed   268432696 working-precision words and    21 shell-pairs
 IPart=  7 NShTot=           0 NBatch=           0 AvBLen=         0.0
 IPart=  6 NShTot=           0 NBatch=           0 AvBLen=         0.0
 IPart= 17 NShTot=           0 NBatch=           0 AvBLen=         0.0
 IPart= 23 NShTot=           0 NBatch=           0 AvBLen=         0.0
 IPart= 21 NShTot=           0 NBatch=           0 AvBLen=         0.0
 IPart= 10 NShTot=           0 NBatch=           0 AvBLen=         0.0
 PrSmSu:  NxtVal=             37.
 *** Overlap *** 
                1             2             3             4             5 
      1  0.100000D+01
      2  0.353559D-04  0.100000D+01
      3  0.261886D-03  0.371775D+00  0.100000D+01
      4  0.000000D+00  0.000000D+00  0.000000D+00  0.100000D+01
      5  0.000000D+00  0.000000D+00  0.000000D+00  0.000000D+00  0.100000D+01
      6 -0.134175D-03  0.000000D+00  0.000000D+00  0.000000D+00  0.000000D+00
      7  0.324086D-02  0.223608D-01  0.300384D+00  0.000000D+00  0.000000D+00
      8  0.000000D+00  0.000000D+00  0.000000D+00  0.313309D+00  0.000000D+00
      9  0.000000D+00  0.000000D+00  0.000000D+00  0.000000D+00  0.313309D+00
     10 -0.405108D-02  0.000000D+00  0.000000D+00  0.000000D+00  0.000000D+00
     11  0.594425D-01 -0.412730D-03  0.136941D-01  0.000000D+00  0.000000D+00
     12  0.000000D+00  0.000000D+00  0.000000D+00  0.250808D-01  0.000000D+00
     13  0.000000D+00  0.000000D+00  0.000000D+00  0.000000D+00  0.250808D-01
     14 -0.942611D-01  0.000000D+00  0.000000D+00  0.000000D+00  0.000000D+00
     15  0.345304D-01  0.000000D+00  0.000000D+00  0.000000D+00  0.000000D+00
     16  0.000000D+00  0.000000D+00  0.000000D+00  0.000000D+00  0.000000D+00
     17  0.000000D+00  0.000000D+00  0.000000D+00  0.000000D+00  0.000000D+00
     18  0.000000D+00  0.000000D+00  0.000000D+00  0.000000D+00  0.000000D+00
     19  0.000000D+00  0.000000D+00  0.000000D+00  0.000000D+00  0.000000D+00
                6             7             8             9            10 
      6  0.100000D+01
      7  0.000000D+00  0.100000D+01
      8  0.000000D+00  0.000000D+00  0.100000D+01
      9  0.000000D+00  0.000000D+00  0.000000D+00  0.100000D+01
     10  0.313309D+00  0.000000D+00  0.000000D+00  0.000000D+00  0.100000D+01
     11  0.000000D+00  0.395149D+00  0.000000D+00  0.000000D+00  0.000000D+00
     12  0.000000D+00  0.000000D+00  0.407435D+00  0.000000D+00  0.000000D+00
     13  0.000000D+00  0.000000D+00  0.000000D+00  0.407435D+00  0.000000D+00
     14  0.250808D-01  0.000000D+00  0.000000D+00  0.000000D+00  0.407435D+00
     15  0.000000D+00  0.000000D+00  0.000000D+00  0.000000D+00  0.000000D+00
     16  0.000000D+00  0.000000D+00  0.000000D+00  0.000000D+00  0.000000D+00
     17  0.000000D+00  0.000000D+00  0.000000D+00  0.000000D+00  0.000000D+00
     18  0.000000D+00  0.000000D+00  0.000000D+00  0.000000D+00  0.000000D+00
     19  0.000000D+00  0.000000D+00  0.000000D+00  0.000000D+00  0.000000D+00
               11            12            13            14            15 
     11  0.100000D+01
     12  0.000000D+00  0.100000D+01
     13  0.000000D+00  0.000000D+00  0.100000D+01
     14  0.000000D+00  0.000000D+00  0.000000D+00  0.100000D+01
     15  0.000000D+00  0.000000D+00  0.000000D+00  0.000000D+00  0.100000D+01
     16  0.000000D+00  0.000000D+00  0.000000D+00  0.000000D+00  0.000000D+00
     17  0.000000D+00  0.000000D+00  0.000000D+00  0.000000D+00  0.000000D+00
     18  0.000000D+00  0.000000D+00  0.000000D+00  0.000000D+00  0.000000D+00
     19  0.000000D+00  0.000000D+00  0.000000D+00  0.000000D+00  0.000000D+00
               16            17            18            19 
     16  0.100000D+01
     17  0.000000D+00  0.100000D+01
     18  0.000000D+00  0.000000D+00  0.100000D+01
     19  0.000000D+00  0.000000D+00  0.000000D+00  0.100000D+01
 *** Kinetic Energy *** 
                1             2             3             4             5 
      1  0.760032D+00
      2 -0.509796D-04  0.229340D+03
      3 -0.357345D-03  0.137973D+01  0.120824D+02
      4  0.000000D+00  0.000000D+00  0.000000D+00  0.378073D+02
      5  0.000000D+00  0.000000D+00  0.000000D+00  0.000000D+00  0.378073D+02
      6  0.139790D-03  0.000000D+00  0.000000D+00  0.000000D+00  0.000000D+00
      7 -0.274599D-02 -0.798994D+00 -0.840664D+00  0.000000D+00  0.000000D+00
      8  0.000000D+00  0.000000D+00  0.000000D+00  0.187471D+01  0.000000D+00
      9  0.000000D+00  0.000000D+00  0.000000D+00  0.000000D+00  0.187471D+01
     10  0.260307D-02  0.000000D+00  0.000000D+00  0.000000D+00  0.000000D+00
     11 -0.999264D-02 -0.407071D-01 -0.207745D+00  0.000000D+00  0.000000D+00
     12  0.000000D+00  0.000000D+00  0.000000D+00 -0.209473D-01  0.000000D+00
     13  0.000000D+00  0.000000D+00  0.000000D+00  0.000000D+00 -0.209473D-01
     14  0.911746D-02  0.000000D+00  0.000000D+00  0.000000D+00  0.000000D+00
     15 -0.489502D-02  0.000000D+00  0.000000D+00  0.000000D+00  0.000000D+00
     16  0.000000D+00  0.000000D+00  0.000000D+00  0.000000D+00  0.000000D+00
     17  0.000000D+00  0.000000D+00  0.000000D+00  0.000000D+00  0.000000D+00
     18  0.000000D+00  0.000000D+00  0.000000D+00  0.000000D+00  0.000000D+00
     19  0.000000D+00  0.000000D+00  0.000000D+00  0.000000D+00  0.000000D+00
                6             7             8             9            10 
      6  0.378073D+02
      7  0.000000D+00  0.116813D+01
      8  0.000000D+00  0.000000D+00  0.275070D+01
      9  0.000000D+00  0.000000D+00  0.000000D+00  0.275070D+01
     10  0.187471D+01  0.000000D+00  0.000000D+00  0.000000D+00  0.275070D+01
     11  0.000000D+00 -0.927537D-01  0.000000D+00  0.000000D+00  0.000000D+00
     12  0.000000D+00  0.000000D+00  0.199329D+00  0.000000D+00  0.000000D+00
     13  0.000000D+00  0.000000D+00  0.000000D+00  0.199329D+00  0.000000D+00
     14 -0.209473D-01  0.000000D+00  0.000000D+00  0.000000D+00  0.199329D+00
     15  0.000000D+00  0.000000D+00  0.000000D+00  0.000000D+00  0.000000D+00
     16  0.000000D+00  0.000000D+00  0.000000D+00  0.000000D+00  0.000000D+00
     17  0.000000D+00  0.000000D+00  0.000000D+00  0.000000D+00  0.000000D+00
     18  0.000000D+00  0.000000D+00  0.000000D+00  0.000000D+00  0.000000D+00
     19  0.000000D+00  0.000000D+00  0.000000D+00  0.000000D+00  0.000000D+00
               11            12            13            14            15 
     11  0.207443D+00
     12  0.000000D+00  0.409500D+00
     13  0.000000D+00  0.000000D+00  0.409500D+00
     14  0.000000D+00  0.000000D+00  0.000000D+00  0.409500D+00
     15  0.000000D+00  0.000000D+00  0.000000D+00  0.000000D+00  0.180044D+01
     16  0.000000D+00  0.000000D+00  0.000000D+00  0.000000D+00  0.000000D+00
     17  0.000000D+00  0.000000D+00  0.000000D+00  0.000000D+00  0.000000D+00
     18  0.000000D+00  0.000000D+00  0.000000D+00  0.000000D+00  0.000000D+00
     19  0.000000D+00  0.000000D+00  0.000000D+00  0.000000D+00  0.000000D+00
               16            17            18            19 
     16  0.180044D+01
     17  0.000000D+00  0.180044D+01
     18  0.000000D+00  0.000000D+00  0.180044D+01
     19  0.000000D+00  0.000000D+00  0.000000D+00  0.180044D+01
 Entering OneElI...
 Calculate potential energy integrals
    NBasis =  19  MinDer = 0  MaxDer = 0
 Requested accuracy = 0.1000D-12
 Symmetry will be used
 PrmmSu-InSpLW:  IPartL=    0 NPrtUS=   36 NPrtUL=    1 DoSpLW=F IThBeg=    0 IThEnd=   35 NThAct=   36.
 PrSmSu:  IncTry=   512 NBBP=             42 NTPThr=   100 NPartT=   36 Incr=           1 LDynOK=F GPUOK=F.
 PrsmSu:  NPrtUS=  36 ThrOK=T IAlg=1 LenDen=           0 ISkipM=0 DoSpLW=F IThBeg=    0 IThEnd=   35.
 Prism:   IPart=     0 DynPar=F LinDyn=F Incr=           1.
 PRISM was handed   268432905 working-precision words and    21 shell-pairs
 PRISM was handed   268432905 working-precision words and    21 shell-pairs
 PRISM was handed   268432905 working-precision words and    21 shell-pairs
 PRISM was handed   268432905 working-precision words and    21 shell-pairs
 PRISM was handed   268432905 working-precision words and    21 shell-pairs
 PRISM was handed   268432905 working-precision words and    21 shell-pairs
 PRISM was handed   268432905 working-precision words and    21 shell-pairs
 PRISM was handed   268432905 working-precision words and    21 shell-pairs
 PRISM was handed   268432905 working-precision words and    21 shell-pairs
 PRISM was handed   268432905 working-precision words and    21 shell-pairs
 PRISM was handed   268432905 working-precision words and    21 shell-pairs
 PRISM was handed   268432905 working-precision words and    21 shell-pairs
 PRISM was handed   268432905 working-precision words and    21 shell-pairs
 PRISM was handed   268432905 working-precision words and    21 shell-pairs
 PRISM was handed   268432905 working-precision words and    21 shell-pairs
 PRISM was handed   268432905 working-precision words and    21 shell-pairs
 PRISM was handed   268432905 working-precision words and    21 shell-pairs
 PRISM was handed   268432905 working-precision words and    21 shell-pairs
 PRISM was handed   268432905 working-precision words and    21 shell-pairs
 PRISM was handed   268432905 working-precision words and    21 shell-pairs
 PRISM was handed   268432905 working-precision words and    21 shell-pairs
 PRISM was handed   268432905 working-precision words and    21 shell-pairs
 PRISM was handed   268432905 working-precision words and    21 shell-pairs
 PRISM was handed   268432905 working-precision words and    21 shell-pairs
 PRISM was handed   268432905 working-precision words and    21 shell-pairs
 PRISM was handed   268432905 working-precision words and    21 shell-pairs
 PRISM was handed   268432905 working-precision words and    21 shell-pairs
 PRISM was handed   268432905 working-precision words and    21 shell-pairs
 PRISM was handed   268432905 working-precision words and    21 shell-pairs
 PRISM was handed   268432905 working-precision words and    21 shell-pairs
 PRISM was handed   268432905 working-precision words and    21 shell-pairs
 PRISM was handed   268432905 working-precision words and    21 shell-pairs
 PRISM was handed   268432905 working-precision words and    21 shell-pairs
 PRISM was handed   268432905 working-precision words and    21 shell-pairs
 PRISM was handed   268432905 working-precision words and    21 shell-pairs
 PRISM was handed   268432905 working-precision words and    21 shell-pairs
 IPart= 10 NShTot=           0 NBatch=           0 AvBLen=         0.0
 IPart= 16 NShTot=           0 NBatch=           0 AvBLen=         0.0
 IPart= 15 NShTot=           0 NBatch=           0 AvBLen=         0.0
 IPart= 28 NShTot=           0 NBatch=           0 AvBLen=         0.0
 IPart= 17 NShTot=           0 NBatch=           0 AvBLen=         0.0
 IPart= 12 NShTot=           0 NBatch=           0 AvBLen=         0.0
 IPart= 30 NShTot=           0 NBatch=           0 AvBLen=         0.0
 IPart= 11 NShTot=           0 NBatch=           0 AvBLen=         0.0
 IPart= 29 NShTot=           0 NBatch=           0 AvBLen=         0.0
 IPart= 32 NShTot=           0 NBatch=           0 AvBLen=         0.0
 IPart= 31 NShTot=           0 NBatch=           0 AvBLen=         0.0
 IPart= 20 NShTot=           0 NBatch=           0 AvBLen=         0.0
 IPart=  0 NShTot=          20 NBatch=          10 AvBLen=         2.0
 IPart=  2 NShTot=           6 NBatch=           3 AvBLen=         2.0
 IPart= 19 NShTot=           0 NBatch=           0 AvBLen=         0.0
 IPart= 34 NShTot=           0 NBatch=           0 AvBLen=         0.0
 IPart= 35 NShTot=           0 NBatch=           0 AvBLen=         0.0
 IPart= 33 NShTot=           0 NBatch=           0 AvBLen=         0.0
 IPart= 21 NShTot=           0 NBatch=           0 AvBLen=         0.0
 IPart= 25 NShTot=           0 NBatch=           0 AvBLen=         0.0
 IPart= 14 NShTot=           0 NBatch=           0 AvBLen=         0.0
 IPart= 23 NShTot=           0 NBatch=           0 AvBLen=         0.0
 IPart=  8 NShTot=           0 NBatch=           0 AvBLen=         0.0
 IPart= 27 NShTot=           0 NBatch=           0 AvBLen=         0.0
 IPart=  6 NShTot=           0 NBatch=           0 AvBLen=         0.0
 IPart= 26 NShTot=           0 NBatch=           0 AvBLen=         0.0
 IPart= 22 NShTot=           0 NBatch=           0 AvBLen=         0.0
 IPart=  5 NShTot=           2 NBatch=           1 AvBLen=         2.0
 IPart= 18 NShTot=           0 NBatch=           0 AvBLen=         0.0
 IPart=  1 NShTot=           8 NBatch=           4 AvBLen=         2.0
 IPart= 24 NShTot=           0 NBatch=           0 AvBLen=         0.0
 IPart=  3 NShTot=           4 NBatch=           2 AvBLen=         2.0
 IPart=  4 NShTot=           2 NBatch=           1 AvBLen=         2.0
 IPart=  7 NShTot=           0 NBatch=           0 AvBLen=         0.0
 IPart= 13 NShTot=           0 NBatch=           0 AvBLen=         0.0
 IPart=  9 NShTot=           0 NBatch=           0 AvBLen=         0.0
 PrSmSu:  NxtVal=             37.
 ***** Potential Energy ***** 
                1             2             3             4             5 
      1  0.498206D+01
      2  0.851878D-02  0.468935D+03
      3  0.165500D-01  0.902094D+02  0.964228D+02
      4  0.000000D+00  0.000000D+00  0.000000D+00  0.956521D+02
      5  0.000000D+00  0.000000D+00  0.000000D+00  0.000000D+00  0.956521D+02
      6 -0.642360D-02 -0.793867D-03 -0.483189D-02  0.000000D+00  0.000000D+00
      7  0.515621D-01  0.472391D+01  0.170129D+02  0.000000D+00  0.000000D+00
      8  0.000000D+00  0.000000D+00  0.000000D+00  0.174396D+02  0.000000D+00
      9  0.000000D+00  0.000000D+00  0.000000D+00  0.000000D+00  0.174396D+02
     10 -0.562070D-01 -0.551375D-04 -0.241744D-02  0.000000D+00  0.000000D+00
     11  0.368866D+00 -0.133738D+00  0.483746D+00  0.000000D+00  0.000000D+00
     12  0.000000D+00  0.000000D+00  0.000000D+00  0.120262D+01  0.000000D+00
     13  0.000000D+00  0.000000D+00  0.000000D+00  0.000000D+00  0.120262D+01
     14 -0.568644D+00 -0.281225D-05 -0.213927D-03  0.000000D+00  0.000000D+00
     15  0.237662D+00  0.000000D+00  0.560401D-04  0.000000D+00  0.000000D+00
     16  0.000000D+00  0.000000D+00  0.000000D+00 -0.576976D-03  0.000000D+00
     17  0.000000D+00  0.000000D+00  0.000000D+00  0.000000D+00 -0.576976D-03
     18  0.000000D+00  0.000000D+00  0.000000D+00  0.000000D+00  0.000000D+00
     19  0.000000D+00  0.000000D+00  0.000000D+00  0.000000D+00  0.000000D+00
                6             7             8             9            10 
      6  0.956524D+02
      7 -0.252470D-02  0.254046D+02
      8  0.000000D+00  0.000000D+00  0.254473D+02
      9  0.000000D+00  0.000000D+00  0.000000D+00  0.254473D+02
     10  0.174398D+02 -0.171058D-01  0.000000D+00  0.000000D+00  0.254508D+02
     11 -0.170413D-03  0.650920D+01  0.000000D+00  0.000000D+00 -0.105427D-01
     12  0.000000D+00  0.000000D+00  0.682702D+01  0.000000D+00  0.000000D+00
     13  0.000000D+00  0.000000D+00  0.000000D+00  0.682702D+01  0.000000D+00
     14  0.120265D+01 -0.101138D-01  0.000000D+00  0.000000D+00  0.683026D+01
     15 -0.675915D-03  0.311475D-02  0.000000D+00  0.000000D+00 -0.152379D-01
     16  0.000000D+00  0.000000D+00 -0.122107D-01  0.000000D+00  0.000000D+00
     17  0.000000D+00  0.000000D+00  0.000000D+00 -0.122107D-01  0.000000D+00
     18  0.000000D+00  0.000000D+00  0.000000D+00  0.000000D+00  0.000000D+00
     19  0.000000D+00  0.000000D+00  0.000000D+00  0.000000D+00  0.000000D+00
               11            12            13            14            15 
     11  0.952599D+01
     12  0.000000D+00  0.951842D+01
     13  0.000000D+00  0.000000D+00  0.951842D+01
     14 -0.444905D-01  0.000000D+00  0.000000D+00  0.954161D+01
     15  0.108308D-01  0.000000D+00  0.000000D+00 -0.330748D-01  0.140748D+02
     16  0.000000D+00 -0.231280D-01  0.000000D+00  0.000000D+00  0.000000D+00
     17  0.000000D+00  0.000000D+00 -0.231280D-01  0.000000D+00  0.000000D+00
     18  0.000000D+00  0.000000D+00  0.000000D+00  0.000000D+00  0.000000D+00
     19  0.000000D+00  0.000000D+00  0.000000D+00  0.000000D+00  0.000000D+00
               16            17            18            19 
     16  0.140704D+02
     17  0.000000D+00  0.140704D+02
     18  0.000000D+00  0.000000D+00  0.140630D+02
     19  0.000000D+00  0.000000D+00  0.000000D+00  0.140630D+02
 ****** Core Hamiltonian ****** 
                1             2             3             4             5 
      1 -0.422203D+01
      2 -0.856976D-02 -0.239595D+03
      3 -0.169073D-01 -0.888296D+02 -0.843404D+02
      4  0.000000D+00  0.000000D+00  0.000000D+00 -0.578448D+02
      5  0.000000D+00  0.000000D+00  0.000000D+00  0.000000D+00 -0.578448D+02
      6  0.656339D-02  0.793867D-03  0.483189D-02  0.000000D+00  0.000000D+00
      7 -0.543081D-01 -0.552290D+01 -0.178536D+02  0.000000D+00  0.000000D+00
      8  0.000000D+00  0.000000D+00  0.000000D+00 -0.155649D+02  0.000000D+00
      9  0.000000D+00  0.000000D+00  0.000000D+00  0.000000D+00 -0.155649D+02
     10  0.588101D-01  0.551375D-04  0.241744D-02  0.000000D+00  0.000000D+00
     11 -0.378859D+00  0.930313D-01 -0.691491D+00  0.000000D+00  0.000000D+00
     12  0.000000D+00  0.000000D+00  0.000000D+00 -0.122357D+01  0.000000D+00
     13  0.000000D+00  0.000000D+00  0.000000D+00  0.000000D+00 -0.122357D+01
     14  0.577761D+00  0.281225D-05  0.213927D-03  0.000000D+00  0.000000D+00
     15 -0.242557D+00  0.000000D+00 -0.560401D-04  0.000000D+00  0.000000D+00
     16  0.000000D+00  0.000000D+00  0.000000D+00  0.576976D-03  0.000000D+00
     17  0.000000D+00  0.000000D+00  0.000000D+00  0.000000D+00  0.576976D-03
     18  0.000000D+00  0.000000D+00  0.000000D+00  0.000000D+00  0.000000D+00
     19  0.000000D+00  0.000000D+00  0.000000D+00  0.000000D+00  0.000000D+00
                6             7             8             9            10 
      6 -0.578451D+02
      7  0.252470D-02 -0.242365D+02
      8  0.000000D+00  0.000000D+00 -0.226966D+02
      9  0.000000D+00  0.000000D+00  0.000000D+00 -0.226966D+02
     10 -0.155651D+02  0.171058D-01  0.000000D+00  0.000000D+00 -0.227001D+02
     11  0.170413D-03 -0.660196D+01  0.000000D+00  0.000000D+00  0.105427D-01
     12  0.000000D+00  0.000000D+00 -0.662769D+01  0.000000D+00  0.000000D+00
     13  0.000000D+00  0.000000D+00  0.000000D+00 -0.662769D+01  0.000000D+00
     14 -0.122360D+01  0.101138D-01  0.000000D+00  0.000000D+00 -0.663093D+01
     15  0.675915D-03 -0.311475D-02  0.000000D+00  0.000000D+00  0.152379D-01
     16  0.000000D+00  0.000000D+00  0.122107D-01  0.000000D+00  0.000000D+00
     17  0.000000D+00  0.000000D+00  0.000000D+00  0.122107D-01  0.000000D+00
     18  0.000000D+00  0.000000D+00  0.000000D+00  0.000000D+00  0.000000D+00
     19  0.000000D+00  0.000000D+00  0.000000D+00  0.000000D+00  0.000000D+00
               11            12            13            14            15 
     11 -0.931854D+01
     12  0.000000D+00 -0.910892D+01
     13  0.000000D+00  0.000000D+00 -0.910892D+01
     14  0.444905D-01  0.000000D+00  0.000000D+00 -0.913211D+01
     15 -0.108308D-01  0.000000D+00  0.000000D+00  0.330748D-01 -0.122744D+02
     16  0.000000D+00  0.231280D-01  0.000000D+00  0.000000D+00  0.000000D+00
     17  0.000000D+00  0.000000D+00  0.231280D-01  0.000000D+00  0.000000D+00
     18  0.000000D+00  0.000000D+00  0.000000D+00  0.000000D+00  0.000000D+00
     19  0.000000D+00  0.000000D+00  0.000000D+00  0.000000D+00  0.000000D+00
               16            17            18            19 
     16 -0.122700D+02
     17  0.000000D+00 -0.122700D+02
     18  0.000000D+00  0.000000D+00 -0.122625D+02
     19  0.000000D+00  0.000000D+00  0.000000D+00 -0.122625D+02
 SVDSVc IOpt=   1 NormSV=T IR=1
 SVDSVc V= 1.58D+00 1.53D+00 1.25D+00 1.06D+00 1.00D+00 9.94D-01 9.23D-01 7.18D-01 4.93D-01 4.53D-01
 SVDSVc IOpt=   1 NormSV=T IR=2
 SVDSVc V= 1.00D+00
 SVDSVc IOpt=   1 NormSV=T IR=3
 SVDSVc V= 1.53D+00 1.00D+00 9.76D-01 4.98D-01
 SVDSVc IOpt=   1 NormSV=T IR=4
 SVDSVc V= 1.53D+00 1.00D+00 9.76D-01 4.98D-01
 TstOVc:  Largest diagonal error= 1.33D-15 IB=1 I=    2.
 TstOVc:  Largest same sym error= 6.11D-16 IB=1 I=    7 J=    3.
 TstOVc:  Largest diff sym error= 0.00D+00 IB=0 JB=0 I=    0 J=    0.
 Orthogonalized basis functions: 
                 1             2             3             4             5 
      1   0.421804D-01 -0.843610D-01 -0.130223D+00  0.694701D+00  0.000000D+00
      2   0.304502D+00  0.236458D-01  0.526711D+00  0.940043D-01  0.000000D+00
      3   0.447400D+00  0.322216D-01  0.372948D+00  0.207284D-01  0.000000D+00
      4   0.000000D+00  0.000000D+00  0.000000D+00  0.000000D+00  0.000000D+00
      5   0.000000D+00  0.000000D+00  0.000000D+00  0.000000D+00  0.000000D+00
      6  -0.168872D-01  0.349807D+00 -0.296355D-01  0.404412D+00  0.000000D+00
      7   0.472344D+00  0.273571D-01 -0.317801D+00 -0.111149D+00  0.000000D+00
      8   0.000000D+00  0.000000D+00  0.000000D+00  0.000000D+00  0.000000D+00
      9   0.000000D+00  0.000000D+00  0.000000D+00  0.000000D+00  0.000000D+00
     10  -0.290314D-01  0.557424D+00 -0.242456D-01  0.958519D-01  0.000000D+00
     11   0.336197D+00  0.117016D-01 -0.513424D+00 -0.425229D-01  0.000000D+00
     12   0.000000D+00  0.000000D+00  0.000000D+00  0.000000D+00  0.000000D+00
     13   0.000000D+00  0.000000D+00  0.000000D+00  0.000000D+00  0.000000D+00
     14  -0.279562D-01  0.458216D+00  0.660877D-02 -0.290906D+00  0.000000D+00
     15   0.250915D-02 -0.547407D-02 -0.179763D-01  0.428461D+00  0.000000D+00
     16   0.000000D+00  0.000000D+00  0.000000D+00  0.000000D+00  0.000000D+00
     17   0.000000D+00  0.000000D+00  0.000000D+00  0.000000D+00  0.000000D+00
     18   0.000000D+00  0.000000D+00  0.000000D+00  0.000000D+00  0.100000D+01
     19   0.000000D+00  0.000000D+00  0.000000D+00  0.000000D+00  0.000000D+00
                 6             7             8             9            10 
      1  -0.156789D+00  0.662551D+00 -0.137210D+00 -0.140606D+00  0.729079D-01
      2  -0.190088D-01  0.841694D-01  0.707993D+00  0.398124D-01  0.533179D+00
      3  -0.107441D-02 -0.112043D-01 -0.510296D+00 -0.572062D-01 -0.839112D+00
      4   0.000000D+00  0.000000D+00  0.000000D+00  0.000000D+00  0.000000D+00
      5   0.000000D+00  0.000000D+00  0.000000D+00  0.000000D+00  0.000000D+00
      6  -0.399326D+00 -0.580946D+00  0.330416D-01 -0.582006D+00  0.292149D-01
      7   0.235583D-01 -0.102725D+00 -0.427143D+00  0.482951D-01  0.896939D+00
      8   0.000000D+00  0.000000D+00  0.000000D+00  0.000000D+00  0.000000D+00
      9   0.000000D+00  0.000000D+00  0.000000D+00  0.000000D+00  0.000000D+00
     10  -0.164552D-01  0.107631D+00 -0.292587D-01  0.100627D+01 -0.551605D-01
     11   0.279996D-02  0.182313D-01  0.653637D+00 -0.195779D-01 -0.634476D+00
     12   0.000000D+00  0.000000D+00  0.000000D+00  0.000000D+00  0.000000D+00
     13   0.000000D+00  0.000000D+00  0.000000D+00  0.000000D+00  0.000000D+00
     14   0.305770D+00  0.433090D+00 -0.653302D-02 -0.806009D+00  0.523124D-01
     15   0.853025D+00 -0.298706D+00  0.168107D-01  0.957634D-02 -0.460260D-02
     16   0.000000D+00  0.000000D+00  0.000000D+00  0.000000D+00  0.000000D+00
     17   0.000000D+00  0.000000D+00  0.000000D+00  0.000000D+00  0.000000D+00
     18   0.000000D+00  0.000000D+00  0.000000D+00  0.000000D+00  0.000000D+00
     19   0.000000D+00  0.000000D+00  0.000000D+00  0.000000D+00  0.000000D+00
                11            12            13            14            15 
      1   0.000000D+00  0.000000D+00  0.000000D+00  0.000000D+00  0.000000D+00
      2   0.000000D+00  0.000000D+00  0.000000D+00  0.000000D+00  0.000000D+00
      3   0.000000D+00  0.000000D+00  0.000000D+00  0.000000D+00  0.000000D+00
      4   0.000000D+00  0.358362D+00  0.000000D+00  0.802807D+00 -0.593005D+00
      5   0.000000D+00  0.000000D+00  0.000000D+00  0.000000D+00  0.000000D+00
      6   0.000000D+00  0.000000D+00  0.000000D+00  0.000000D+00  0.000000D+00
      7   0.000000D+00  0.000000D+00  0.000000D+00  0.000000D+00  0.000000D+00
      8   0.000000D+00  0.565532D+00  0.000000D+00 -0.127423D-01  0.101370D+01
      9   0.000000D+00  0.000000D+00  0.000000D+00  0.000000D+00  0.000000D+00
     10   0.000000D+00  0.000000D+00  0.000000D+00  0.000000D+00  0.000000D+00
     11   0.000000D+00  0.000000D+00  0.000000D+00  0.000000D+00  0.000000D+00
     12   0.000000D+00  0.454909D+00  0.000000D+00 -0.616584D+00 -0.793056D+00
     13   0.000000D+00  0.000000D+00  0.000000D+00  0.000000D+00  0.000000D+00
     14   0.000000D+00  0.000000D+00  0.000000D+00  0.000000D+00  0.000000D+00
     15   0.000000D+00  0.000000D+00  0.000000D+00  0.000000D+00  0.000000D+00
     16   0.000000D+00  0.000000D+00  0.100000D+01  0.000000D+00  0.000000D+00
     17   0.000000D+00  0.000000D+00  0.000000D+00  0.000000D+00  0.000000D+00
     18   0.000000D+00  0.000000D+00  0.000000D+00  0.000000D+00  0.000000D+00
     19   0.100000D+01  0.000000D+00  0.000000D+00  0.000000D+00  0.000000D+00
                16            17            18            19 
      1   0.000000D+00  0.000000D+00  0.000000D+00  0.000000D+00
      2   0.000000D+00  0.000000D+00  0.000000D+00  0.000000D+00
      3   0.000000D+00  0.000000D+00  0.000000D+00  0.000000D+00
      4   0.000000D+00  0.000000D+00  0.000000D+00  0.000000D+00
      5   0.358362D+00  0.000000D+00  0.802807D+00 -0.593005D+00
      6   0.000000D+00  0.000000D+00  0.000000D+00  0.000000D+00
      7   0.000000D+00  0.000000D+00  0.000000D+00  0.000000D+00
      8   0.000000D+00  0.000000D+00  0.000000D+00  0.000000D+00
      9   0.565532D+00  0.000000D+00 -0.127423D-01  0.101370D+01
     10   0.000000D+00  0.000000D+00  0.000000D+00  0.000000D+00
     11   0.000000D+00  0.000000D+00  0.000000D+00  0.000000D+00
     12   0.000000D+00  0.000000D+00  0.000000D+00  0.000000D+00
     13   0.454909D+00  0.000000D+00 -0.616584D+00 -0.793056D+00
     14   0.000000D+00  0.000000D+00  0.000000D+00  0.000000D+00
     15   0.000000D+00  0.000000D+00  0.000000D+00  0.000000D+00
     16   0.000000D+00  0.000000D+00  0.000000D+00  0.000000D+00
     17   0.000000D+00  0.100000D+01  0.000000D+00  0.000000D+00
     18   0.000000D+00  0.000000D+00  0.000000D+00  0.000000D+00
     19   0.000000D+00  0.000000D+00  0.000000D+00  0.000000D+00
 NBasis=    19 RedAO= T EigKep=  4.53D-01  NBF=    10     1     4     4
 NBsUse=    19 1.00D-06 EigRej= -1.00D+00 NBFU=    10     1     4     4
 Leave Link  302 at Fri Mar 25 14:39:18 2022, MaxMem=  9663676416 cpu:               3.6 elap:               0.1
 (Enter /nopt/nrel/apps/gaussian/g16C_1/g16/l303.exe)
 DipDrv will not compute anything.
 Fermi contact integrals: 
                 1             2 
      1   0.628247D+00  0.254047D-03
      2   0.000000D+00  0.454848D+02
      3   0.000000D+00  0.245213D+01
      4   0.000000D+00  0.000000D+00
      5   0.000000D+00  0.000000D+00
      6   0.000000D+00  0.000000D+00
      7   0.000000D+00  0.115357D+00
      8   0.000000D+00  0.000000D+00
      9   0.000000D+00  0.000000D+00
     10   0.000000D+00  0.000000D+00
     11   0.298471D-02 -0.521539D-02
     12   0.000000D+00  0.000000D+00
     13   0.000000D+00  0.000000D+00
     14  -0.590011D-02  0.000000D+00
     15   0.118760D-02  0.000000D+00
     16   0.000000D+00  0.000000D+00
     17   0.000000D+00  0.000000D+00
     18   0.000000D+00  0.000000D+00
     19   0.000000D+00  0.000000D+00
 Leave Link  303 at Fri Mar 25 14:39:18 2022, MaxMem=  9663676416 cpu:               1.1 elap:               0.1
 (Enter /nopt/nrel/apps/gaussian/g16C_1/g16/l401.exe)
 ExpMin= 1.16D-01 ExpMax= 1.03D+03 ExpMxC= 1.03D+03 IAcc=3 IRadAn=         5 AccDes= 0.00D+00
 Harris functional with IExCor=  205 and IRadAn=       5 diagonalized for initial guess.
 HarFok:  IExCor=  205 AccDes= 0.00D+00 IRadAn=         5 IDoV= 1 UseB2=F ITyADJ=14
 ICtDFT=  3500011 ScaDFX=  1.000000  1.000000  1.000000  1.000000
 FoFCou: FMM=F IPFlag=           0 FMFlag=      100000 FMFlg1=           0
         NFxFlg=           0 DoJE=T BraDBF=F KetDBF=T FulRan=T
         wScrn=  0.000000 ICntrl=       500 IOpCl=  0 I1Cent=   200000004 NGrid=           0
         NMat0=    1 NMatS0=      1 NMatT0=    0 NMatD0=    1 NMtDS0=    0 NMtDT0=    0
 Petite list used in FoFCou.
 Harris En= -839.271098055126    
 JPrj=0 DoOrth=F DoCkMO=F.
 Initial guess orbital symmetries:
 Alpha Orbitals:
       Occupied  (SG) (SG) (SG) (PI) (PI) (SG) (SG) (PI) (PI) (SG)
                 (SG) (PI) (PI)
       Virtual   (DLTA) (DLTA) (SG) (PI) (PI) (SG)
 Beta  Orbitals:
       Occupied  (SG) (SG) (SG) (PI) (PI) (SG) (SG) (PI) (PI) (SG)
       Virtual   (SG) (PI) (PI) (DLTA) (DLTA) (SG) (PI) (PI) (SG)
 The electronic state of the initial guess is 4-SG.
 Initial guess <Sx>= 0.0000 <Sy>= 0.0000 <Sz>= 1.5000 <S**2>= 3.7500 S= 1.5000
 Leave Link  401 at Fri Mar 25 14:39:18 2022, MaxMem=  9663676416 cpu:               4.3 elap:               0.2
 (Enter /nopt/nrel/apps/gaussian/g16C_1/g16/l502.exe)
 Keep R1 and R2 ints in memory in symmetry-blocked form, NReq=7412976.
 FoFCou: FMM=F IPFlag=           0 FMFlag=           0 FMFlg1=           0
         NFxFlg=           0 DoJE=F BraDBF=F KetDBF=F FulRan=T
         wScrn=  0.000000 ICntrl=       600 IOpCl=  0 I1Cent=           0 NGrid=           0
         NMat0=    1 NMatS0=    190 NMatT0=    0 NMatD0=    1 NMtDS0=    0 NMtDT0=    0
 Petite list used in FoFCou.
 UHF open shell SCF:
 Using DIIS extrapolation, IDIIS=  1040.
 NGot=  9663676416 LenX=  9663662661 LenY=  9663661779
 Requested convergence on RMS density matrix=1.00D-08 within 128 cycles.
 Requested convergence on MAX density matrix=1.00D-06.
 Requested convergence on             energy=1.00D-06.
 No special actions if energy rises.

 Cycle   1  Pass 1  IDiag  1:
 E= -839.811734038104    
 DIIS: error= 7.15D-02 at cycle   1 NSaved=   1.
 NSaved= 1 IEnMin= 1 EnMin= -839.811734038104     IErMin= 1 ErrMin= 7.15D-02
 ErrMax= 7.15D-02  0.00D+00 EMaxC= 1.00D-01 BMatC= 3.66D-01 BMatP= 3.66D-01
 IDIUse=3 WtCom= 2.85D-01 WtEn= 7.15D-01
 Coeff-Com:  0.100D+01
 Coeff-En:   0.100D+01
 Coeff:      0.100D+01
 Gap=     0.375 Goal=   None    Shift=    0.000
 Gap=     0.067 Goal=   None    Shift=    0.000
 GapD=    0.067 DampG=0.500 DampE=0.250 DampFc=0.1250 IDamp=-1.
 Damping current iteration by 1.25D-01
 RMSDP=4.44D-02 MaxDP=7.00D-01              OVMax= 0.00D+00

 Cycle   2  Pass 1  IDiag  1:
 E= -839.829500860987     Delta-E=       -0.017766822883 Rises=F Damp=T
 DIIS: error= 6.19D-02 at cycle   2 NSaved=   2.
 NSaved= 2 IEnMin= 2 EnMin= -839.829500860987     IErMin= 2 ErrMin= 6.19D-02
 ErrMax= 6.19D-02  0.00D+00 EMaxC= 1.00D-01 BMatC= 2.75D-01 BMatP= 3.66D-01
 IDIUse=3 WtCom= 3.81D-01 WtEn= 6.19D-01
 Coeff-Com: -0.626D+01 0.726D+01
 Coeff-En:   0.000D+00 0.100D+01
 Coeff:     -0.239D+01 0.339D+01
 Gap=     0.341 Goal=   None    Shift=    0.000
 Gap=     0.234 Goal=   None    Shift=    0.000
 RMSDP=3.86D-02 MaxDP=6.54D-01 DE=-1.78D-02 OVMax= 0.00D+00

 Cycle   3  Pass 1  IDiag  1:
 E= -839.984843874247     Delta-E=       -0.155343013260 Rises=F Damp=F
 DIIS: error= 2.20D-02 at cycle   3 NSaved=   3.
 NSaved= 3 IEnMin= 3 EnMin= -839.984843874247     IErMin= 3 ErrMin= 2.20D-02
 ErrMax= 2.20D-02  0.00D+00 EMaxC= 1.00D-01 BMatC= 1.93D-02 BMatP= 2.75D-01
 IDIUse=3 WtCom= 7.80D-01 WtEn= 2.20D-01
 Large coefficients: NSaved=  3 BigCof=   10.00 CofMax=   10.00 Det=-8.37D-05
 Inversion failed.  Reducing to  2 matrices.
 Coeff-Com:  0.691D-01 0.931D+00
 Coeff-En:   0.000D+00 0.100D+01
 Coeff:      0.539D-01 0.946D+00
 Gap=     0.397 Goal=   None    Shift=    0.000
 Gap=     0.313 Goal=   None    Shift=    0.000
 RMSDP=1.17D-02 MaxDP=1.10D-01 DE=-1.55D-01 OVMax= 0.00D+00

 Cycle   4  Pass 1  IDiag  1:
 E= -840.012139181305     Delta-E=       -0.027295307058 Rises=F Damp=F
 DIIS: error= 1.14D-02 at cycle   4 NSaved=   3.
 NSaved= 3 IEnMin= 3 EnMin= -840.012139181305     IErMin= 3 ErrMin= 1.14D-02
 ErrMax= 1.14D-02  0.00D+00 EMaxC= 1.00D-01 BMatC= 6.39D-03 BMatP= 1.93D-02
 IDIUse=3 WtCom= 8.86D-01 WtEn= 1.14D-01
 Coeff-Com: -0.225D-01-0.108D+01 0.210D+01
 Coeff-En:   0.000D+00 0.000D+00 0.100D+01
 Coeff:     -0.200D-01-0.953D+00 0.197D+01
 Gap=     0.397 Goal=   None    Shift=    0.000
 Gap=     0.407 Goal=   None    Shift=    0.000
 RMSDP=1.22D-02 MaxDP=1.53D-01 DE=-2.73D-02 OVMax= 0.00D+00

 Cycle   5  Pass 1  IDiag  1:
 E= -840.023320135086     Delta-E=       -0.011180953781 Rises=F Damp=F
 DIIS: error= 1.43D-03 at cycle   5 NSaved=   4.
 NSaved= 4 IEnMin= 4 EnMin= -840.023320135086     IErMin= 4 ErrMin= 1.43D-03
 ErrMax= 1.43D-03  0.00D+00 EMaxC= 1.00D-01 BMatC= 1.71D-04 BMatP= 6.39D-03
 IDIUse=3 WtCom= 9.86D-01 WtEn= 1.43D-02
 Coeff-Com: -0.500D-03 0.132D+00-0.205D+00 0.107D+01
 Coeff-En:   0.000D+00 0.000D+00 0.000D+00 0.100D+01
 Coeff:     -0.493D-03 0.130D+00-0.202D+00 0.107D+01
 Gap=     0.396 Goal=   None    Shift=    0.000
 Gap=     0.397 Goal=   None    Shift=    0.000
 RMSDP=1.24D-03 MaxDP=1.02D-02 DE=-1.12D-02 OVMax= 0.00D+00

 Cycle   6  Pass 1  IDiag  1:
 E= -840.023585285321     Delta-E=       -0.000265150235 Rises=F Damp=F
 DIIS: error= 1.19D-03 at cycle   6 NSaved=   5.
 NSaved= 5 IEnMin= 5 EnMin= -840.023585285321     IErMin= 5 ErrMin= 1.19D-03
 ErrMax= 1.19D-03  0.00D+00 EMaxC= 1.00D-01 BMatC= 7.11D-05 BMatP= 1.71D-04
 IDIUse=3 WtCom= 9.88D-01 WtEn= 1.19D-02
 Coeff-Com: -0.423D-05-0.634D-01 0.299D-01-0.839D+00 0.187D+01
 Coeff-En:   0.000D+00 0.000D+00 0.000D+00 0.000D+00 0.100D+01
 Coeff:     -0.418D-05-0.626D-01 0.295D-01-0.829D+00 0.186D+01
 Gap=     0.397 Goal=   None    Shift=    0.000
 Gap=     0.403 Goal=   None    Shift=    0.000
 RMSDP=1.90D-03 MaxDP=1.73D-02 DE=-2.65D-04 OVMax= 0.00D+00

 Cycle   7  Pass 1  IDiag  1:
 E= -840.023825215278     Delta-E=       -0.000239929958 Rises=F Damp=F
 DIIS: error= 8.57D-04 at cycle   7 NSaved=   6.
 NSaved= 6 IEnMin= 6 EnMin= -840.023825215278     IErMin= 6 ErrMin= 8.57D-04
 ErrMax= 8.57D-04  0.00D+00 EMaxC= 1.00D-01 BMatC= 2.71D-05 BMatP= 7.11D-05
 IDIUse=3 WtCom= 9.91D-01 WtEn= 8.57D-03
 Coeff-Com: -0.191D-02-0.307D-01 0.150D+00 0.378D+00-0.166D+01 0.216D+01
 Coeff-En:   0.000D+00 0.000D+00 0.000D+00 0.000D+00 0.000D+00 0.100D+01
 Coeff:     -0.190D-02-0.304D-01 0.149D+00 0.375D+00-0.164D+01 0.215D+01
 Gap=     0.398 Goal=   None    Shift=    0.000
 Gap=     0.400 Goal=   None    Shift=    0.000
 RMSDP=1.57D-03 MaxDP=1.68D-02 DE=-2.40D-04 OVMax= 0.00D+00

 Cycle   8  Pass 1  IDiag  1:
 E= -840.023963748527     Delta-E=       -0.000138533249 Rises=F Damp=F
 DIIS: error= 6.11D-04 at cycle   8 NSaved=   7.
 NSaved= 7 IEnMin= 7 EnMin= -840.023963748527     IErMin= 7 ErrMin= 6.11D-04
 ErrMax= 6.11D-04  0.00D+00 EMaxC= 1.00D-01 BMatC= 1.56D-05 BMatP= 2.71D-05
 IDIUse=3 WtCom= 9.94D-01 WtEn= 6.11D-03
 Coeff-Com: -0.303D-04-0.400D-01-0.617D-01-0.704D+00 0.219D+01-0.251D+01
 Coeff-Com:  0.212D+01
 Coeff-En:   0.000D+00 0.000D+00 0.000D+00 0.000D+00 0.000D+00 0.000D+00
 Coeff-En:   0.100D+01
 Coeff:     -0.301D-04-0.397D-01-0.613D-01-0.700D+00 0.218D+01-0.250D+01
 Coeff:      0.212D+01
 Gap=     0.398 Goal=   None    Shift=    0.000
 Gap=     0.404 Goal=   None    Shift=    0.000
 RMSDP=1.04D-03 MaxDP=1.02D-02 DE=-1.39D-04 OVMax= 0.00D+00

 Cycle   9  Pass 1  IDiag  1:
 E= -840.024041538888     Delta-E=       -0.000077790361 Rises=F Damp=F
 DIIS: error= 5.60D-04 at cycle   9 NSaved=   8.
 NSaved= 8 IEnMin= 8 EnMin= -840.024041538888     IErMin= 8 ErrMin= 5.60D-04
 ErrMax= 5.60D-04  0.00D+00 EMaxC= 1.00D-01 BMatC= 1.61D-05 BMatP= 1.56D-05
 IDIUse=3 WtCom= 9.94D-01 WtEn= 5.60D-03
 Coeff-Com: -0.706D-03-0.931D-02-0.608D-01-0.661D+00 0.213D+01-0.221D+01
 Coeff-Com: -0.890D+00 0.270D+01
 Coeff-En:   0.000D+00 0.000D+00 0.000D+00 0.000D+00 0.000D+00 0.000D+00
 Coeff-En:   0.000D+00 0.100D+01
 Coeff:     -0.702D-03-0.926D-02-0.605D-01-0.658D+00 0.212D+01-0.220D+01
 Coeff:     -0.885D+00 0.269D+01
 Gap=     0.398 Goal=   None    Shift=    0.000
 Gap=     0.403 Goal=   None    Shift=    0.000
 RMSDP=2.20D-03 MaxDP=1.98D-02 DE=-7.78D-05 OVMax= 0.00D+00

 Cycle  10  Pass 1  IDiag  1:
 E= -840.024206603051     Delta-E=       -0.000165064163 Rises=F Damp=F
 DIIS: error= 5.01D-04 at cycle  10 NSaved=   9.
 NSaved= 9 IEnMin= 9 EnMin= -840.024206603051     IErMin= 9 ErrMin= 5.01D-04
 ErrMax= 5.01D-04  0.00D+00 EMaxC= 1.00D-01 BMatC= 1.27D-05 BMatP= 1.56D-05
 IDIUse=3 WtCom= 9.95D-01 WtEn= 5.01D-03
 Coeff-Com: -0.152D-02-0.135D+00 0.175D+00-0.694D-01-0.797D+00 0.141D+01
 Coeff-Com:  0.247D+01-0.992D+01 0.787D+01
 Coeff-En:   0.000D+00 0.000D+00 0.000D+00 0.000D+00 0.000D+00 0.000D+00
 Coeff-En:   0.000D+00 0.000D+00 0.100D+01
 Coeff:     -0.151D-02-0.134D+00 0.174D+00-0.691D-01-0.793D+00 0.140D+01
 Coeff:      0.246D+01-0.987D+01 0.784D+01
 Gap=     0.401 Goal=   None    Shift=    0.000
 Gap=     0.414 Goal=   None    Shift=    0.000
 RMSDP=1.20D-02 MaxDP=1.04D-01 DE=-1.65D-04 OVMax= 0.00D+00

 Cycle  11  Pass 1  IDiag  1:
 E= -840.024708604466     Delta-E=       -0.000502001415 Rises=F Damp=F
 DIIS: error= 5.45D-04 at cycle  11 NSaved=  10.
 NSaved=10 IEnMin=10 EnMin= -840.024708604466     IErMin= 9 ErrMin= 5.01D-04
 ErrMax= 5.45D-04  0.00D+00 EMaxC= 1.00D-01 BMatC= 1.76D-05 BMatP= 1.27D-05
 IDIUse=3 WtCom= 9.95D-01 WtEn= 5.01D-03
 Coeff-Com: -0.186D-02-0.419D-01 0.196D-01-0.228D+00 0.531D+00-0.442D+00
 Coeff-Com:  0.109D+01-0.413D+01 0.372D+01 0.490D+00
 Coeff-En:   0.000D+00 0.000D+00 0.000D+00 0.000D+00 0.000D+00 0.000D+00
 Coeff-En:   0.000D+00 0.000D+00 0.000D+00 0.100D+01
 Coeff:     -0.185D-02-0.417D-01 0.195D-01-0.227D+00 0.529D+00-0.440D+00
 Coeff:      0.108D+01-0.411D+01 0.370D+01 0.492D+00
 Gap=     0.405 Goal=   None    Shift=    0.000
 Gap=     0.415 Goal=   None    Shift=    0.000
 RMSDP=2.45D-04 MaxDP=2.88D-03 DE=-5.02D-04 OVMax= 0.00D+00

 Cycle  12  Pass 1  IDiag  1:
 E= -840.024720162059     Delta-E=       -0.000011557593 Rises=F Damp=F
 DIIS: error= 2.78D-04 at cycle  12 NSaved=  11.
 NSaved=11 IEnMin=11 EnMin= -840.024720162059     IErMin=11 ErrMin= 2.78D-04
 ErrMax= 2.78D-04  0.00D+00 EMaxC= 1.00D-01 BMatC= 4.98D-06 BMatP= 1.27D-05
 IDIUse=3 WtCom= 9.97D-01 WtEn= 2.78D-03
 Coeff-Com: -0.209D-03-0.331D-01 0.836D-01 0.150D+00-0.917D+00 0.133D+01
 Coeff-Com: -0.438D+00-0.166D+01 0.158D+01-0.150D+01 0.240D+01
 Coeff-En:   0.000D+00 0.000D+00 0.000D+00 0.000D+00 0.000D+00 0.000D+00
 Coeff-En:   0.000D+00 0.000D+00 0.000D+00 0.000D+00 0.100D+01
 Coeff:     -0.208D-03-0.330D-01 0.833D-01 0.149D+00-0.914D+00 0.133D+01
 Coeff:     -0.437D+00-0.165D+01 0.157D+01-0.149D+01 0.240D+01
 Gap=     0.404 Goal=   None    Shift=    0.000
 Gap=     0.414 Goal=   None    Shift=    0.000
 RMSDP=1.73D-03 MaxDP=1.41D-02 DE=-1.16D-05 OVMax= 0.00D+00

 Cycle  13  Pass 1  IDiag  1:
 E= -840.024722906925     Delta-E=       -0.000002744866 Rises=F Damp=F
 DIIS: error= 1.38D-04 at cycle  13 NSaved=  12.
 NSaved=12 IEnMin=12 EnMin= -840.024722906925     IErMin=12 ErrMin= 1.38D-04
 ErrMax= 1.38D-04  0.00D+00 EMaxC= 1.00D-01 BMatC= 2.10D-06 BMatP= 4.98D-06
 IDIUse=3 WtCom= 9.99D-01 WtEn= 1.38D-03
 Coeff-Com: -0.223D-03-0.120D-01 0.979D-02 0.194D-01-0.868D-01 0.111D+00
 Coeff-Com: -0.966D-01-0.126D+01 0.194D+01 0.605D+00-0.289D+01 0.266D+01
 Coeff-En:   0.000D+00 0.000D+00 0.000D+00 0.000D+00 0.000D+00 0.000D+00
 Coeff-En:   0.000D+00 0.000D+00 0.000D+00 0.000D+00 0.000D+00 0.100D+01
 Coeff:     -0.222D-03-0.120D-01 0.977D-02 0.193D-01-0.866D-01 0.111D+00
 Coeff:     -0.965D-01-0.126D+01 0.194D+01 0.604D+00-0.289D+01 0.266D+01
 Gap=     0.399 Goal=   None    Shift=    0.000
 Gap=     0.411 Goal=   None    Shift=    0.000
 RMSDP=1.80D-03 MaxDP=1.39D-02 DE=-2.74D-06 OVMax= 0.00D+00

 Cycle  14  Pass 1  IDiag  1:
 E= -840.024724318527     Delta-E=       -0.000001411601 Rises=F Damp=F
 DIIS: error= 4.47D-05 at cycle  14 NSaved=  13.
 NSaved=13 IEnMin=13 EnMin= -840.024724318527     IErMin=13 ErrMin= 4.47D-05
 ErrMax= 4.47D-05  0.00D+00 EMaxC= 1.00D-01 BMatC= 3.23D-07 BMatP= 2.10D-06
 IDIUse=1 WtCom= 1.00D+00 WtEn= 0.00D+00
 Coeff-Com:  0.370D-04 0.856D-03 0.107D-01 0.513D-02-0.493D-01 0.873D-01
 Coeff-Com:  0.123D-01 0.404D+00-0.832D+00-0.355D+00 0.143D+01-0.876D+00
 Coeff-Com:  0.116D+01
 Coeff:      0.370D-04 0.856D-03 0.107D-01 0.513D-02-0.493D-01 0.873D-01
 Coeff:      0.123D-01 0.404D+00-0.832D+00-0.355D+00 0.143D+01-0.876D+00
 Coeff:      0.116D+01
 Gap=     0.402 Goal=   None    Shift=    0.000
 Gap=     0.413 Goal=   None    Shift=    0.000
 RMSDP=1.68D-03 MaxDP=1.33D-02 DE=-1.41D-06 OVMax= 0.00D+00

 Cycle  15  Pass 1  IDiag  1:
 E= -840.024725668298     Delta-E=       -0.000001349771 Rises=F Damp=F
 DIIS: error= 5.12D-05 at cycle  15 NSaved=  14.
 NSaved=14 IEnMin=14 EnMin= -840.024725668298     IErMin=13 ErrMin= 4.47D-05
 ErrMax= 5.12D-05  0.00D+00 EMaxC= 1.00D-01 BMatC= 3.45D-07 BMatP= 3.23D-07
 IDIUse=1 WtCom= 1.00D+00 WtEn= 0.00D+00
 Coeff-Com:  0.231D-04 0.398D-03-0.351D-03-0.824D-04-0.101D-01 0.145D-01
 Coeff-Com:  0.219D-01 0.355D-01-0.115D+00-0.122D+00 0.445D+00-0.602D+00
 Coeff-Com:  0.362D+00 0.971D+00
 Coeff:      0.231D-04 0.398D-03-0.351D-03-0.824D-04-0.101D-01 0.145D-01
 Coeff:      0.219D-01 0.355D-01-0.115D+00-0.122D+00 0.445D+00-0.602D+00
 Coeff:      0.362D+00 0.971D+00
 Gap=     0.401 Goal=   None    Shift=    0.000
 Gap=     0.412 Goal=   None    Shift=    0.000
 RMSDP=6.16D-04 MaxDP=4.76D-03 DE=-1.35D-06 OVMax= 0.00D+00

 Cycle  16  Pass 1  IDiag  1:
 E= -840.024727976057     Delta-E=       -0.000002307759 Rises=F Damp=F
 DIIS: error= 8.17D-06 at cycle  16 NSaved=  15.
 NSaved=15 IEnMin=15 EnMin= -840.024727976057     IErMin=15 ErrMin= 8.17D-06
 ErrMax= 8.17D-06  0.00D+00 EMaxC= 1.00D-01 BMatC= 8.56D-09 BMatP= 3.23D-07
 IDIUse=1 WtCom= 1.00D+00 WtEn= 0.00D+00
 Coeff-Com: -0.580D-05-0.156D-03 0.148D-02 0.276D-02-0.116D-01 0.197D-01
 Coeff-Com: -0.247D-01 0.331D-01-0.250D-01-0.512D-02-0.281D-01 0.190D+00
 Coeff-Com: -0.227D+00-0.859D+00 0.193D+01
 Coeff:     -0.580D-05-0.156D-03 0.148D-02 0.276D-02-0.116D-01 0.197D-01
 Coeff:     -0.247D-01 0.331D-01-0.250D-01-0.512D-02-0.281D-01 0.190D+00
 Coeff:     -0.227D+00-0.859D+00 0.193D+01
 Gap=     0.401 Goal=   None    Shift=    0.000
 Gap=     0.412 Goal=   None    Shift=    0.000
 RMSDP=9.92D-05 MaxDP=7.68D-04 DE=-2.31D-06 OVMax= 0.00D+00

 Cycle  17  Pass 1  IDiag  1:
 E= -840.024728029160     Delta-E=       -0.000000053103 Rises=F Damp=F
 DIIS: error= 8.10D-07 at cycle  17 NSaved=  16.
 NSaved=16 IEnMin=16 EnMin= -840.024728029160     IErMin=16 ErrMin= 8.10D-07
 ErrMax= 8.10D-07  0.00D+00 EMaxC= 1.00D-01 BMatC= 4.93D-11 BMatP= 8.56D-09
 IDIUse=1 WtCom= 1.00D+00 WtEn= 0.00D+00
 Coeff-Com:  0.124D-05 0.494D-04-0.190D-03-0.202D-03 0.203D-02-0.382D-02
 Coeff-Com:  0.188D-02-0.284D-02 0.528D-02 0.837D-02-0.159D-01 0.524D-02
 Coeff-Com:  0.127D-01 0.275D-01-0.117D+00 0.108D+01
 Coeff:      0.124D-05 0.494D-04-0.190D-03-0.202D-03 0.203D-02-0.382D-02
 Coeff:      0.188D-02-0.284D-02 0.528D-02 0.837D-02-0.159D-01 0.524D-02
 Coeff:      0.127D-01 0.275D-01-0.117D+00 0.108D+01
 Gap=     0.401 Goal=   None    Shift=    0.000
 Gap=     0.412 Goal=   None    Shift=    0.000
 RMSDP=1.34D-05 MaxDP=1.04D-04 DE=-5.31D-08 OVMax= 0.00D+00

 Cycle  18  Pass 1  IDiag  1:
 E= -840.024728029453     Delta-E=       -0.000000000293 Rises=F Damp=F
 DIIS: error= 2.85D-07 at cycle  18 NSaved=  17.
 NSaved=17 IEnMin=17 EnMin= -840.024728029453     IErMin=17 ErrMin= 2.85D-07
 ErrMax= 2.85D-07  0.00D+00 EMaxC= 1.00D-01 BMatC= 1.11D-11 BMatP= 4.93D-11
 IDIUse=1 WtCom= 1.00D+00 WtEn= 0.00D+00
 Coeff-Com: -0.655D-07-0.250D-05-0.476D-05-0.253D-04 0.693D-04-0.582D-04
 Coeff-Com: -0.590D-04 0.305D-03-0.245D-03 0.379D-04-0.628D-04-0.713D-03
 Coeff-Com:  0.777D-04 0.101D-01-0.162D-01-0.674D-01 0.107D+01
 Coeff:     -0.655D-07-0.250D-05-0.476D-05-0.253D-04 0.693D-04-0.582D-04
 Coeff:     -0.590D-04 0.305D-03-0.245D-03 0.379D-04-0.628D-04-0.713D-03
 Coeff:      0.777D-04 0.101D-01-0.162D-01-0.674D-01 0.107D+01
 Gap=     0.401 Goal=   None    Shift=    0.000
 Gap=     0.412 Goal=   None    Shift=    0.000
 RMSDP=3.87D-06 MaxDP=3.04D-05 DE=-2.93D-10 OVMax= 0.00D+00

 Cycle  19  Pass 1  IDiag  1:
 E= -840.024728029530     Delta-E=       -0.000000000077 Rises=F Damp=F
 DIIS: error= 2.43D-08 at cycle  19 NSaved=  18.
 NSaved=18 IEnMin=18 EnMin= -840.024728029530     IErMin=18 ErrMin= 2.43D-08
 ErrMax= 2.43D-08  0.00D+00 EMaxC= 1.00D-01 BMatC= 6.93D-14 BMatP= 1.11D-11
 IDIUse=1 WtCom= 1.00D+00 WtEn= 0.00D+00
 Large coefficients: NSaved= 18 BigCof=    0.00 CofMax=   10.00 Det=-6.20D-15
 Inversion failed.  Reducing to 17 matrices.
 Large coefficients: NSaved= 17 BigCof=    0.00 CofMax=   10.00 Det=-6.54D-15
 Inversion failed.  Reducing to 16 matrices.
 Large coefficients: NSaved= 16 BigCof=    0.00 CofMax=   10.00 Det=-6.70D-15
 Inversion failed.  Reducing to 15 matrices.
 Coeff-Com:  0.267D-05-0.168D-04 0.230D-04 0.229D-04-0.118D-03 0.133D-03
 Coeff-Com: -0.712D-04-0.105D-04 0.194D-03-0.386D-03-0.176D-02 0.455D-02
 Coeff-Com: -0.238D-04-0.230D+00 0.123D+01
 Coeff:      0.267D-05-0.168D-04 0.230D-04 0.229D-04-0.118D-03 0.133D-03
 Coeff:     -0.712D-04-0.105D-04 0.194D-03-0.386D-03-0.176D-02 0.455D-02
 Coeff:     -0.238D-04-0.230D+00 0.123D+01
 Gap=     0.401 Goal=   None    Shift=    0.000
 Gap=     0.412 Goal=   None    Shift=    0.000
 RMSDP=2.80D-07 MaxDP=2.16D-06 DE=-7.69D-11 OVMax= 0.00D+00

 Cycle  20  Pass 1  IDiag  1:
 E= -840.024728029530     Delta-E=       -0.000000000000 Rises=F Damp=F
 DIIS: error= 4.05D-09 at cycle  20 NSaved=  16.
 NSaved=16 IEnMin=16 EnMin= -840.024728029530     IErMin=16 ErrMin= 4.05D-09
 ErrMax= 4.05D-09  0.00D+00 EMaxC= 1.00D-01 BMatC= 2.17D-15 BMatP= 6.93D-14
 IDIUse=1 WtCom= 1.00D+00 WtEn= 0.00D+00
 Large coefficients: NSaved= 16 BigCof=    0.00 CofMax=   10.00 Det=-6.53D-17
 Inversion failed.  Reducing to 15 matrices.
 Coeff-Com:  0.153D-05-0.313D-05-0.416D-05 0.108D-04-0.593D-05 0.169D-04
 Coeff-Com: -0.184D-04-0.105D-04 0.282D-04 0.214D-03-0.448D-03 0.326D-03
 Coeff-Com:  0.192D-01-0.162D+00 0.114D+01
 Coeff:      0.153D-05-0.313D-05-0.416D-05 0.108D-04-0.593D-05 0.169D-04
 Coeff:     -0.184D-04-0.105D-04 0.282D-04 0.214D-03-0.448D-03 0.326D-03
 Coeff:      0.192D-01-0.162D+00 0.114D+01
 Gap=     0.401 Goal=   None    Shift=    0.000
 Gap=     0.412 Goal=   None    Shift=    0.000
 RMSDP=4.65D-08 MaxDP=3.62D-07 DE=-4.55D-13 OVMax= 0.00D+00

 Cycle  21  Pass 1  IDiag  1:
 E= -840.024728029531     Delta-E=       -0.000000000000 Rises=F Damp=F
 DIIS: error= 2.19D-10 at cycle  21 NSaved=  16.
 NSaved=16 IEnMin=16 EnMin= -840.024728029531     IErMin=16 ErrMin= 2.19D-10
 ErrMax= 2.19D-10  0.00D+00 EMaxC= 1.00D-01 BMatC= 5.37D-18 BMatP= 2.17D-15
 IDIUse=1 WtCom= 1.00D+00 WtEn= 0.00D+00
 Large coefficients: NSaved= 16 BigCof=    0.00 CofMax=   10.00 Det=-8.12D-19
 Inversion failed.  Reducing to 15 matrices.
 Coeff-Com:  0.160D-06 0.755D-07-0.623D-07-0.505D-06-0.997D-06 0.838D-06
 Coeff-Com:  0.257D-05-0.163D-06-0.126D-04 0.793D-05 0.356D-04 0.128D-03
 Coeff-Com:  0.682D-02-0.186D+00 0.118D+01
 Coeff:      0.160D-06 0.755D-07-0.623D-07-0.505D-06-0.997D-06 0.838D-06
 Coeff:      0.257D-05-0.163D-06-0.126D-04 0.793D-05 0.356D-04 0.128D-03
 Coeff:      0.682D-02-0.186D+00 0.118D+01
 Gap=     0.401 Goal=   None    Shift=    0.000
 Gap=     0.412 Goal=   None    Shift=    0.000
 RMSDP=3.96D-09 MaxDP=3.04D-08 DE=-4.55D-13 OVMax= 0.00D+00

 SCF Done:  E(UHF) =  -840.024728030     A.U. after   21 cycles
            NFock= 21  Conv=0.40D-08     -V/T= 2.0042
 <Sx>= 0.0000 <Sy>= 0.0000 <Sz>= 1.5000 <S**2>= 3.8850 S= 1.5335
 <L.S>= 0.000000000000E+00
 KE= 8.364861135894D+02 PE=-1.992898579146D+03 EE= 3.126322863530D+02
 Annihilation of the first spin contaminant:
 S**2 before annihilation     3.8850,   after     3.7501
 Leave Link  502 at Fri Mar 25 14:39:18 2022, MaxMem=  9663676416 cpu:               6.3 elap:               0.2
 (Enter /nopt/nrel/apps/gaussian/g16C_1/g16/l801.exe)
 Windowed orbitals will be sorted by symmetry type.
 ExpMin= 1.16D-01 ExpMax= 1.03D+03 ExpMxC= 1.03D+03 IAcc=3 IRadAn=         5 AccDes= 0.00D+00
 HarFok:  IExCor=  205 AccDes= 0.00D+00 IRadAn=         5 IDoV=-2 UseB2=F ITyADJ=14
 ICtDFT= 12500011 ScaDFX=  1.000000  1.000000  1.000000  1.000000
 Largest valence mixing into a core orbital is  3.14D-04
 Largest core mixing into a valence orbital is  3.95D-04
 Largest valence mixing into a core orbital is  8.04D-04
 Largest core mixing into a valence orbital is  6.76D-04
 Range of M.O.s used for correlation:    10    19
 NBasis=    19 NAE=    13 NBE=    10 NFC=     9 NFV=     0
 NROrb=     10 NOA=     4 NOB=     1 NVA=     6 NVB=     9
 Leave Link  801 at Fri Mar 25 14:39:18 2022, MaxMem=  9663676416 cpu:               1.9 elap:               0.1
 (Enter /nopt/nrel/apps/gaussian/g16C_1/g16/l804.exe)
 Open-shell transformation, MDV=  9663676416 ITran=4 ISComp=2.
 Unit  1 TFree=         25012 TCopy=        222819.
 Semi-Direct transformation.
 ModeAB=           2 MOrb=             4 LenV=    9663501591
 LASXX=          307 LTotXX=         307 LenRXX=         307
 LTotAB=         523 MaxLAS=        8400 LenRXY=        8400
 NonZer=        9720 LenScr=      785920 LnRSAI=           0
 LnScr1=           0 LExtra=      224069 Total=      1018696
 MaxDsk= 34359738368 SrtSym=           F ITran=            4
 DoSDTr:  NPSUse= 36
 JobTyp=1 Pass  1:  I=   1 to   4.
 (rs|ai) integrals will be sorted in core.
 Complete sort for first half transformation.
 First half transformation complete.
 Complete sort for second half transformation.
 Second half transformation complete.
 ModeAB=           2 MOrb=             1 LenV=    9663501591
 LASXX=          105 LTotXX=         105 LenRXX=        2100
 LTotAB=          65 MaxLAS=        2100 LenRXY=          65
 NonZer=        2430 LenScr=      785920 LnRSAI=           0
 LnScr1=           0 LExtra=      232776 Total=      1020861
 MaxDsk= 34359738368 SrtSym=           F ITran=            4
 DoSDTr:  NPSUse= 36
 JobTyp=2 Pass  1:  I=   1 to   1.
 (rs|ai) integrals will be sorted in core.
 Complete sort for first half transformation.
 First half transformation complete.
 Complete sort for second half transformation.
 Second half transformation complete.
 Spin components of T(2) and E(2):
     alpha-alpha T2 =       0.1085673740D-02 E2=     -0.9507769818D-03
     alpha-beta  T2 =       0.2242576836D-01 E2=     -0.2108244980D-01
     beta-beta   T2 =       0.0000000000D+00 E2=      0.0000000000D+00
 ANorm=    0.1011687423D+01
 E2 =    -0.2203322678D-01 EUMP2 =    -0.84004676125631D+03
 (S**2,0)=  0.38850D+01           (S**2,1)=  0.38559D+01
 E(PUHF)=      -0.84002775899D+03        E(PMP2)=      -0.84004946543D+03
 Leave Link  804 at Fri Mar 25 14:39:19 2022, MaxMem=  9663676416 cpu:              11.7 elap:               0.4
 (Enter /nopt/nrel/apps/gaussian/g16C_1/g16/l913.exe)
 CIDS:  MDV=  9663676416.
 Frozen-core window:  NFC=   9 NFV=   0.
 IFCWin=0 IBDFC=1 NFBD=     0     0 NFCmp=     0     0 NFFFC=     0     0
 Using original routines for 1st iteration.
 Using DD4UQ or CC4UQ for 2nd and later iterations.
 Keep R2 and R3 ints in memory in symmetry-blocked form, NReq=7415434.
 FoFCou: FMM=F IPFlag=           0 FMFlag=           0 FMFlg1=           0
         NFxFlg=           0 DoJE=F BraDBF=F KetDBF=F FulRan=T
         wScrn=  0.000000 ICntrl=       600 IOpCl=  0 I1Cent=           0 NGrid=           0
         NMat0=    1 NMatS0=    190 NMatT0=    0 NMatD0=    1 NMtDS0=    0 NMtDT0=    0
 Petite list used in FoFCou.
 CIDS: In Core Option IDoMem=           1.
 Coupled Cluster theory with single and double substitutions
 ===========================================================
 Iterations=  50 Convergence= 0.100D-06
 Produce multiple copies of IABC intergrals
 Iteration Nr.   1
 **********************
 DD1Dir will call FoFMem   1 times, MxPair=        14
 NAB=     4 NAA=     6 NBB=     0.
 E(PMP3)=      -0.84006087110D+03
 MP4(R+Q)=  0.49789115D-03
 Maximum subspace dimension=  5
 A-vector RMS=  1.8587291D-02 Max=  3.3195017D-02 conv= 1.00D-05.
 RLE energy=       -0.0456976192
 E3=       -0.11882951D-01        EUMP3=      -0.84005864421D+03
 E4(DQ)=   -0.63285457D-02        UMP4(DQ)=   -0.84006497275D+03
 E4(SDQ)=  -0.66828706D-02        UMP4(SDQ)=  -0.84006532708D+03
 VARIATIONAL ENERGIES WITH THE FIRST-ORDER WAVEFUNCTION:
 DE(Corr)= -0.33443133E-01 E(Corr)=     -840.05817116    
 NORM(A)=   0.10520343D+01
 Iteration Nr.   2
 **********************
 DD1Dir will call FoFMem   1 times, MxPair=        14
 NAB=     4 NAA=     6 NBB=     0.
 A-vector RMS=  1.5850408D-02 Max=  1.9135726D-02 conv= 1.00D-05.
 RLE energy=       -0.0483616548
 DE(Corr)= -0.46260612E-01 E(CORR)=     -840.07098864     Delta=-1.28D-02
 NORM(A)=   0.10704830D+01
 Iteration Nr.   3
 **********************
 DD1Dir will call FoFMem   1 times, MxPair=        14
 NAB=     4 NAA=     6 NBB=     0.
 A-vector RMS=  6.7312735D-03 Max=  1.2286060D-02 conv= 1.00D-05.
 RLE energy=       -0.0686054409
 DE(Corr)= -0.49853660E-01 E(CORR)=     -840.07458169     Delta=-3.59D-03
 NORM(A)=   0.11604014D+01
 Iteration Nr.   4
 **********************
 DD1Dir will call FoFMem   1 times, MxPair=        14
 NAB=     4 NAA=     6 NBB=     0.
 A-vector RMS=  9.1373311D-03 Max=  1.9723678D-02 conv= 1.00D-05.
 RLE energy=       -0.0393735512
 DE(Corr)= -0.61563675E-01 E(CORR)=     -840.08629170     Delta=-1.17D-02
 NORM(A)=   0.10599901D+01
 Iteration Nr.   5
 **********************
 DD1Dir will call FoFMem   1 times, MxPair=        14
 NAB=     4 NAA=     6 NBB=     0.
 A-vector RMS=  7.9566755D-03 Max=  1.8863293D-02 conv= 1.00D-05.
 RLE energy=       -0.0732686714
 DE(Corr)= -0.45660604E-01 E(CORR)=     -840.07038863     Delta= 1.59D-02
 NORM(A)=   0.12596448D+01
 Iteration Nr.   6
 **********************
 DD1Dir will call FoFMem   1 times, MxPair=        14
 NAB=     4 NAA=     6 NBB=     0.
 A-vector RMS=  1.2941782D-02 Max=  1.6519327D-02 conv= 1.00D-05.
 RLE energy=       -0.0523537937
 DE(Corr)= -0.66270775E-01 E(CORR)=     -840.09099880     Delta=-2.06D-02
 NORM(A)=   0.11126439D+01
 Iteration Nr.   7
 **********************
 DD1Dir will call FoFMem   1 times, MxPair=        14
 NAB=     4 NAA=     6 NBB=     0.
 A-vector RMS=  2.3590629D-03 Max=  5.1330066D-03 conv= 1.00D-05.
 RLE energy=       -0.0535131900
 DE(Corr)= -0.53322353E-01 E(CORR)=     -840.07805038     Delta= 1.29D-02
 NORM(A)=   0.11326601D+01
 Iteration Nr.   8
 **********************
 DD1Dir will call FoFMem   1 times, MxPair=        14
 NAB=     4 NAA=     6 NBB=     0.
 A-vector RMS=  1.6607255D-03 Max=  2.3851541D-03 conv= 1.00D-05.
 RLE energy=       -0.0557126133
 DE(Corr)= -0.54427289E-01 E(CORR)=     -840.07915532     Delta=-1.10D-03
 NORM(A)=   0.11435650D+01
 Iteration Nr.   9
 **********************
 DD1Dir will call FoFMem   1 times, MxPair=        14
 NAB=     4 NAA=     6 NBB=     0.
 A-vector RMS=  8.0848866D-04 Max=  9.8595563D-04 conv= 1.00D-05.
 RLE energy=       -0.0558580077
 DE(Corr)= -0.55748189E-01 E(CORR)=     -840.08047622     Delta=-1.32D-03
 NORM(A)=   0.11435794D+01
 Iteration Nr.  10
 **********************
 DD1Dir will call FoFMem   1 times, MxPair=        14
 NAB=     4 NAA=     6 NBB=     0.
 A-vector RMS=  4.8895197D-04 Max=  5.8753271D-04 conv= 1.00D-05.
 RLE energy=       -0.0559453961
 DE(Corr)= -0.55834303E-01 E(CORR)=     -840.08056233     Delta=-8.61D-05
 NORM(A)=   0.11449483D+01
 Iteration Nr.  11
 **********************
 DD1Dir will call FoFMem   1 times, MxPair=        14
 NAB=     4 NAA=     6 NBB=     0.
 A-vector RMS=  3.3026134D-04 Max=  5.5163318D-04 conv= 1.00D-05.
 RLE energy=       -0.0557521805
 DE(Corr)= -0.55901550E-01 E(CORR)=     -840.08062958     Delta=-6.72D-05
 NORM(A)=   0.11432821D+01
 Iteration Nr.  12
 **********************
 DD1Dir will call FoFMem   1 times, MxPair=        14
 NAB=     4 NAA=     6 NBB=     0.
 A-vector RMS=  2.6329489D-04 Max=  3.5766559D-04 conv= 1.00D-05.
 RLE energy=       -0.0558160620
 DE(Corr)= -0.55778112E-01 E(CORR)=     -840.08050614     Delta= 1.23D-04
 NORM(A)=   0.11431500D+01
 Iteration Nr.  13
 **********************
 DD1Dir will call FoFMem   1 times, MxPair=        14
 NAB=     4 NAA=     6 NBB=     0.
 A-vector RMS=  1.4363329D-04 Max=  1.9820349D-04 conv= 1.00D-05.
 RLE energy=       -0.0557721674
 DE(Corr)= -0.55812156E-01 E(CORR)=     -840.08054019     Delta=-3.40D-05
 NORM(A)=   0.11430118D+01
 Iteration Nr.  14
 **********************
 DD1Dir will call FoFMem   1 times, MxPair=        14
 NAB=     4 NAA=     6 NBB=     0.
 A-vector RMS=  7.9924855D-05 Max=  1.0399882D-04 conv= 1.00D-05.
 RLE energy=       -0.0558817043
 DE(Corr)= -0.55795678E-01 E(CORR)=     -840.08052371     Delta= 1.65D-05
 NORM(A)=   0.11437416D+01
 Iteration Nr.  15
 **********************
 DD1Dir will call FoFMem   1 times, MxPair=        14
 NAB=     4 NAA=     6 NBB=     0.
 A-vector RMS=  7.5277204D-05 Max=  8.1604758D-05 conv= 1.00D-05.
 RLE energy=       -0.0556502963
 DE(Corr)= -0.55861722E-01 E(CORR)=     -840.08058975     Delta=-6.60D-05
 NORM(A)=   0.11421646D+01
 Iteration Nr.  16
 **********************
 DD1Dir will call FoFMem   1 times, MxPair=        14
 NAB=     4 NAA=     6 NBB=     0.
 A-vector RMS=  1.1731632D-04 Max=  1.6167316D-04 conv= 1.00D-05.
 RLE energy=       -0.0558571787
 DE(Corr)= -0.55715667E-01 E(CORR)=     -840.08044370     Delta= 1.46D-04
 NORM(A)=   0.11434509D+01
 Iteration Nr.  17
 **********************
 DD1Dir will call FoFMem   1 times, MxPair=        14
 NAB=     4 NAA=     6 NBB=     0.
 A-vector RMS=  3.5853693D-05 Max=  5.0917152D-05 conv= 1.00D-05.
 RLE energy=       -0.0558037739
 DE(Corr)= -0.55842674E-01 E(CORR)=     -840.08057070     Delta=-1.27D-04
 NORM(A)=   0.11430036D+01
 Iteration Nr.  18
 **********************
 DD1Dir will call FoFMem   1 times, MxPair=        14
 NAB=     4 NAA=     6 NBB=     0.
 A-vector RMS=  1.0471864D-05 Max=  2.2020076D-05 conv= 1.00D-05.
 RLE energy=       -0.0558284946
 DE(Corr)= -0.55808230E-01 E(CORR)=     -840.08053626     Delta= 3.44D-05
 NORM(A)=   0.11431574D+01
 Iteration Nr.  19
 **********************
 DD1Dir will call FoFMem   1 times, MxPair=        14
 NAB=     4 NAA=     6 NBB=     0.
 A-vector RMS=  1.3848885D-05 Max=  1.9251173D-05 conv= 1.00D-05.
 RLE energy=       -0.0558153247
 DE(Corr)= -0.55823578E-01 E(CORR)=     -840.08055161     Delta=-1.53D-05
 NORM(A)=   0.11430486D+01
 Iteration Nr.  20
 **********************
 DD1Dir will call FoFMem   1 times, MxPair=        14
 NAB=     4 NAA=     6 NBB=     0.
 A-vector RMS=  5.7487804D-06 Max=  7.3820667D-06 conv= 1.00D-05.
 RLE energy=       -0.0558122938
 DE(Corr)= -0.55814936E-01 E(CORR)=     -840.08054297     Delta= 8.64D-06
 NORM(A)=   0.11430327D+01
 Iteration Nr.  21
 **********************
 DD1Dir will call FoFMem   1 times, MxPair=        14
 NAB=     4 NAA=     6 NBB=     0.
 A-vector RMS=  2.5541938D-06 Max=  4.3249503D-06 conv= 1.00D-05.
 RLE energy=       -0.0558147287
 DE(Corr)= -0.55813172E-01 E(CORR)=     -840.08054120     Delta= 1.76D-06
 NORM(A)=   0.11430548D+01
 Iteration Nr.  22
 **********************
 DD1Dir will call FoFMem   1 times, MxPair=        14
 NAB=     4 NAA=     6 NBB=     0.
 A-vector RMS=  1.5737937D-06 Max=  1.6674759D-06 conv= 1.00D-05.
 RLE energy=       -0.0558150116
 DE(Corr)= -0.55814821E-01 E(CORR)=     -840.08054285     Delta=-1.65D-06
 NORM(A)=   0.11430600D+01
 Iteration Nr.  23
 **********************
 DD1Dir will call FoFMem   1 times, MxPair=        14
 NAB=     4 NAA=     6 NBB=     0.
 A-vector RMS=  6.1942217D-07 Max=  8.4943763D-07 conv= 1.00D-05.
 RLE energy=       -0.0558148422
 DE(Corr)= -0.55814987E-01 E(CORR)=     -840.08054302     Delta=-1.66D-07
 NORM(A)=   0.11430582D+01
 Iteration Nr.  24
 **********************
 DD1Dir will call FoFMem   1 times, MxPair=        14
 NAB=     4 NAA=     6 NBB=     0.
 A-vector RMS=  3.8236619D-07 Max=  5.1802275D-07 conv= 1.00D-05.
 RLE energy=       -0.0558147792
 DE(Corr)= -0.55814858E-01 E(CORR)=     -840.08054289     Delta= 1.29D-07
 NORM(A)=   0.11430568D+01
 Iteration Nr.  25
 **********************
 DD1Dir will call FoFMem   1 times, MxPair=        14
 NAB=     4 NAA=     6 NBB=     0.
 A-vector RMS=  1.4417260D-07 Max=  2.7997721D-07 conv= 1.00D-05.
 RLE energy=       -0.0558147922
 DE(Corr)= -0.55814799E-01 E(CORR)=     -840.08054283     Delta= 5.89D-08
 NORM(A)=   0.11430565D+01
 CI/CC converged in   25 iterations to DelEn= 5.89D-08 Conv= 1.00D-07 ErrA1= 1.44D-07 Conv= 1.00D-05
 Wavefunction amplitudes converged. E(Corr)=     -840.08054283    
 Dominant configurations:
 ***********************
 Spin Case        I    J    A    B          Value
    AA           12        15           -0.162667D+00
    AA           13        14           -0.162667D+00
   AAAA          12   13   18   17      -0.307562D+00
   ABAB          11   10   15   13      -0.140301D+00
   ABAB          11   10   14   12      -0.140301D+00
   ABAB          12   10   16   13      -0.131525D+00
   ABAB          13   10   16   12      -0.131525D+00
 Largest amplitude= 3.08D-01

 S**2, projected HF & approx projected MPn energies after annihilation of
 unwanted spin states (see manual for definitions):

 spins       (S**2,0) (S**2,1)    PUHF        PMP2        PMP3        PMP4
 annihilated
 s+1         3.74996  3.74998 -840.027759 -840.049465 -840.060871

 Discarding MO integrals.
 Leave Link  913 at Fri Mar 25 14:39:19 2022, MaxMem=  9663676416 cpu:               9.0 elap:               0.3
 (Enter /nopt/nrel/apps/gaussian/g16C_1/g16/l601.exe)
 Copying SCF densities to generalized density rwf, IOpCl= 1 IROHF=0.

 **********************************************************************

            Population analysis using the SCF Density.

 **********************************************************************

 Orbital symmetries:
 Alpha Orbitals:
       Occupied  (SG) (SG) (PI) (PI) (SG) (SG) (SG) (PI) (PI) (SG)
                 (SG) (PI) (PI)
       Virtual   (PI) (PI) (SG) (DLTA) (DLTA) (SG)
 Beta  Orbitals:
       Occupied  (SG) (SG) (PI) (PI) (SG) (SG) (PI) (PI) (SG) (SG)
       Virtual   (SG) (PI) (PI) (DLTA) (DLTA) (SG) (SG) (PI) (PI)
 The electronic state is 4-SG.
 Alpha  occ. eigenvalues -- -181.56249 -21.33156 -17.91536 -17.91536 -17.90937
 Alpha  occ. eigenvalues --   -2.94925  -1.90062  -1.88342  -1.88342  -0.46107
 Alpha  occ. eigenvalues --   -0.18419  -0.11424  -0.11424
 Alpha virt. eigenvalues --    0.28655   0.28655   0.29666   0.33667   0.33667
 Alpha virt. eigenvalues --    0.37620
  Beta  occ. eigenvalues -- -181.56258 -21.32857 -17.91313 -17.91313 -17.90720
  Beta  occ. eigenvalues --   -2.87399  -1.80688  -1.80688  -1.76680  -0.14413
  Beta virt. eigenvalues --    0.26754   0.31547   0.31547   0.38666   0.38666
  Beta virt. eigenvalues --    0.39584   0.42362   0.43787   0.43787
          Condensed to atoms (all electrons):
               1          2
     1  H    1.004784   0.013439
     2  Ti   0.013439  21.968337
          Atomic-Atomic Spin Densities.
               1          2
     1  H    0.974000  -0.007490
     2  Ti  -0.007490   2.040980
 Mulliken charges and spin densities:
               1          2
     1  H   -0.018224   0.966510
     2  Ti   0.018224   2.033490
 Sum of Mulliken charges =   0.00000   3.00000
 Mulliken charges and spin densities with hydrogens summed into heavy atoms:
               1          2
     2  Ti   0.000000   3.000000
 N-N= 3.755451174271D+00 E-N=-1.992898579052D+03  KE= 8.364861135894D+02
 Symmetry A1   KE= 6.596416282100D+02
 Symmetry A2   KE=-4.956253772041D-53
 Symmetry B1   KE= 8.842224268973D+01
 Symmetry B2   KE= 8.842224268973D+01
 Symmetry A1   SP= 1.000000000000D+00
 Symmetry A2   SP= 1.120589221957D-52
 Symmetry B1   SP= 1.000000000000D+00
 Symmetry B2   SP= 1.000000000000D+00

 Atomic contributions to Alpha molecular orbitals:
 Alpha occ 1 OE=-181.562 is Ti2-s=1.0000
 Alpha occ 2 OE=-21.332 is Ti2-s=1.0000
 Alpha occ 3 OE=-17.915 is Ti2-p=1.0000
 Alpha occ 4 OE=-17.915 is Ti2-p=1.0000
 Alpha occ 5 OE=-17.909 is Ti2-p=1.0000
 Alpha occ 6 OE=-2.949 is Ti2-s=1.0000
 Alpha occ 7 OE=-1.901 is Ti2-p=0.9999
 Alpha occ 8 OE=-1.883 is Ti2-p=1.0000
 Alpha occ 9 OE=-1.883 is Ti2-p=1.0000
 Alpha occ 10 OE=-0.461 is H1-s=0.9859
 Alpha occ 11 OE=-0.184 is Ti2-s=0.9693
 Alpha occ 12 OE=-0.114 is Ti2-d=0.9366
 Alpha occ 13 OE=-0.114 is Ti2-d=0.9366
 Alpha vir 14 OE=0.287 is Ti2-p=0.9366
 Alpha vir 15 OE=0.287 is Ti2-p=0.9366
 Alpha vir 16 OE=0.297 is Ti2-p=0.9696
 Alpha vir 17 OE=0.337 is Ti2-d=1.0000
 Alpha vir 18 OE=0.337 is Ti2-d=1.0000
 Alpha vir 19 OE=0.376 is Ti2-d=0.9967

 Atomic contributions to Beta  molecular orbitals:
 Beta  occ 1 OE=-181.563 is Ti2-s=1.0000
 Beta  occ 2 OE=-21.329 is Ti2-s=1.0000
 Beta  occ 3 OE=-17.913 is Ti2-p=1.0000
 Beta  occ 4 OE=-17.913 is Ti2-p=1.0000
 Beta  occ 5 OE=-17.907 is Ti2-p=1.0000
 Beta  occ 6 OE=-2.874 is Ti2-s=0.9999
 Beta  occ 7 OE=-1.807 is Ti2-p=1.0000
 Beta  occ 8 OE=-1.807 is Ti2-p=1.0000
 Beta  occ 9 OE=-1.767 is Ti2-p=0.9999
 Beta  occ 10 OE=-0.144 is Ti2-s=0.9129
 Beta  vir 11 OE=0.268 is H1-s=0.6336 Ti2-p=0.2341
 Beta  vir 12 OE=0.315 is Ti2-p=0.9334
 Beta  vir 13 OE=0.315 is Ti2-p=0.9334
 Beta  vir 14 OE=0.387 is Ti2-d=1.0000
 Beta  vir 15 OE=0.387 is Ti2-d=1.0000
 Beta  vir 16 OE=0.396 is Ti2-p=0.5953 H1-s=0.3364
 Beta  vir 17 OE=0.424 is Ti2-d=0.8736 Ti2-p=0.1097
 Beta  vir 18 OE=0.438 is Ti2-d=0.9333
 Beta  vir 19 OE=0.438 is Ti2-d=0.9333
 
 Leave Link  601 at Fri Mar 25 14:39:19 2022, MaxMem=  9663676416 cpu:               2.7 elap:               0.1
 (Enter /nopt/nrel/apps/gaussian/g16C_1/g16/l9999.exe)

 Test job not archived.
 1\1\GINC-R3I7N35\SP\UCCSD-FC\Gen\H1Ti1(4)\USER\25-Mar-2022\0\\#P C
 CSD/GEN sp pop=AllOrbitals iop(3/33=1,3/36=-1)\\test\\0,4\H,0,0.,0.,0.
 \Ti,0,0.,0.,3.1\\Version=ES64L-G16RevC.01\State=4-SG\HF=-840.024728\MP
 2=-840.0467613\MP3=-840.0586442\MP4D=-840.0654706\MP4DQ=-840.0649728\P
 UHF=-840.027759\PMP2-0=-840.0494654\PMP3-0=-840.0608711\MP4SDQ=-840.06
 53271\CCSD=-840.0805428\S2=3.884964\S2-1=3.855853\S2A=3.750057\RMSD=3.
 957e-09\PG=C*V [C*(H1Ti1)]\\@


 WE ARE REACHING THE STAGE WHERE THE PROBLEMS WE MUST SOLVE ARE 
 GOING TO BECOME INSOLUBLE WITHOUT COMPUTERS.
 I DO NOT FEAR COMPUTERS.  I FEAR THE LACK OF THEM.

                                   -- ISSAC ASIMOV
 Job cpu time:       0 days  0 hours  0 minutes 51.3 seconds.
 Elapsed time:       0 days  0 hours  0 minutes  1.8 seconds.
 File lengths (MBytes):  RWF=     13 Int=      0 D2E=      0 Chk=      1 Scr=      1
 Normal termination of Gaussian 16 at Fri Mar 25 14:39:19 2022.
