 Entering Gaussian System, Link 0=g16
 Initial command:
 /nopt/nrel/apps/gaussian/g16C_1/g16/l1.exe "/lustre/eaglefs/scratch/user/qc/kh-dissc/kh-1-ccsd-1.0-321g/Gau-309.inp" -scrdir="/lustre/eaglefs/scratch/user/qc/kh-dissc/kh-1-ccsd-1.0-321g/"
 Default is to use a total of  36 processors:
                               36 via shared-memory
                                1 via Linda
 Entering Link 1 = /nopt/nrel/apps/gaussian/g16C_1/g16/l1.exe PID=       310.
  
 Copyright (c) 1988-2019, Gaussian, Inc.  All Rights Reserved.
  
 This is part of the Gaussian(R) 16 program.  It is based on
 the Gaussian(R) 09 system (copyright 2009, Gaussian, Inc.),
 the Gaussian(R) 03 system (copyright 2003, Gaussian, Inc.),
 the Gaussian(R) 98 system (copyright 1998, Gaussian, Inc.),
 the Gaussian(R) 94 system (copyright 1995, Gaussian, Inc.),
 the Gaussian 92(TM) system (copyright 1992, Gaussian, Inc.),
 the Gaussian 90(TM) system (copyright 1990, Gaussian, Inc.),
 the Gaussian 88(TM) system (copyright 1988, Gaussian, Inc.),
 the Gaussian 86(TM) system (copyright 1986, Carnegie Mellon
 University), and the Gaussian 82(TM) system (copyright 1983,
 Carnegie Mellon University). Gaussian is a federally registered
 trademark of Gaussian, Inc.
  
 This software contains proprietary and confidential information,
 including trade secrets, belonging to Gaussian, Inc.
  
 This software is provided under written license and may be
 used, copied, transmitted, or stored only in accord with that
 written license.
  
 The following legend is applicable only to US Government
 contracts under FAR:
  
                    RESTRICTED RIGHTS LEGEND
  
 Use, reproduction and disclosure by the US Government is
 subject to restrictions as set forth in subparagraphs (a)
 and (c) of the Commercial Computer Software - Restricted
 Rights clause in FAR 52.227-19.
  
 Gaussian, Inc.
 340 Quinnipiac St., Bldg. 40, Wallingford CT 06492
  
  
 ---------------------------------------------------------------
 Warning -- This program may not be used in any manner that
 competes with the business of Gaussian, Inc. or will provide
 assistance to any competitor of Gaussian, Inc.  The licensee
 of this program is prohibited from giving any competitor of
 Gaussian, Inc. access to this program.  By using this program,
 the user acknowledges that Gaussian, Inc. is engaged in the
 business of creating and licensing software in the field of
 computational chemistry and represents and warrants to the
 licensee that it is not a competitor of Gaussian, Inc. and that
 it will not use this program in any manner prohibited above.
 ---------------------------------------------------------------
  

 Cite this work as:
 Gaussian 16, Revision C.01,
 M. J. Frisch, G. W. Trucks, H. B. Schlegel, G. E. Scuseria, 
 M. A. Robb, J. R. Cheeseman, G. Scalmani, V. Barone, 
 G. A. Petersson, H. Nakatsuji, X. Li, M. Caricato, A. V. Marenich, 
 J. Bloino, B. G. Janesko, R. Gomperts, B. Mennucci, H. P. Hratchian, 
 J. V. Ortiz, A. F. Izmaylov, J. L. Sonnenberg, D. Williams-Young, 
 F. Ding, F. Lipparini, F. Egidi, J. Goings, B. Peng, A. Petrone, 
 T. Henderson, D. Ranasinghe, V. G. Zakrzewski, J. Gao, N. Rega, 
 G. Zheng, W. Liang, M. Hada, M. Ehara, K. Toyota, R. Fukuda, 
 J. Hasegawa, M. Ishida, T. Nakajima, Y. Honda, O. Kitao, H. Nakai, 
 T. Vreven, K. Throssell, J. A. Montgomery, Jr., J. E. Peralta, 
 F. Ogliaro, M. J. Bearpark, J. J. Heyd, E. N. Brothers, K. N. Kudin, 
 V. N. Staroverov, T. A. Keith, R. Kobayashi, J. Normand, 
 K. Raghavachari, A. P. Rendell, J. C. Burant, S. S. Iyengar, 
 J. Tomasi, M. Cossi, J. M. Millam, M. Klene, C. Adamo, R. Cammi, 
 J. W. Ochterski, R. L. Martin, K. Morokuma, O. Farkas, 
 J. B. Foresman, and D. J. Fox, Gaussian, Inc., Wallingford CT, 2019.
 
 ******************************************
 Gaussian 16:  ES64L-G16RevC.01  3-Jul-2019
                28-Mar-2022 
 ******************************************
 %chk=molecule
 Default route: CacheSize=180224 MaxDisk=256GB
 ----------------------------------------------------------------------
 #P CCSD(MaxCyc=200,SaveAmplitudes,ReadAmplitudes)/GEN sp pop=AllOrbita
 ls iop(3/33=1,3/36=-1)
 ----------------------------------------------------------------------
 1/4=180224,38=1,172=1/1;
 2/4=180224,12=2,17=6,18=5,40=1/2;
 3/4=180224,5=7,11=9,25=1,30=1,33=1,36=-1/1,2,3;
 4/4=180224/1;
 5/4=180224,5=2,38=5/2;
 8/4=180224,6=4,9=120000,10=1,24=1/1,4;
 9/4=180224,5=7,6=200,77=1/13;
 6/4=180224,7=2,8=2,9=2,10=2,96=-1/1;
 99/4=180224,5=1,9=1/99;
 Leave Link    1 at Mon Mar 28 14:30:44 2022, MaxMem=           0 cpu:               2.3 elap:               0.1
 (Enter /nopt/nrel/apps/gaussian/g16C_1/g16/l101.exe)
 ----
 test
 ----
 Symbolic Z-matrix:
 Charge =  0 Multiplicity = 1
 H                     0.        0.        0. 
 K                     0.        0.        1. 
 
 ITRead=  0  0
 MicOpt= -1 -1
 NAtoms=      2 NQM=        2 NQMF=       0 NMMI=      0 NMMIF=      0
                NMic=       0 NMicF=      0.
                    Isotopes and Nuclear Properties:
 (Nuclear quadrupole moments (NQMom) in fm**2, nuclear magnetic moments (NMagM)
  in nuclear magnetons)

  Atom         1           2
 IAtWgt=           1          39
 AtmWgt=   1.0078250  38.9637079
 NucSpn=           1           3
 AtZEff=  -0.0000000  -0.0000000
 NQMom=    0.0000000   5.8500000
 NMagM=    2.7928460   0.3914660
 AtZNuc=   1.0000000  19.0000000
 Leave Link  101 at Mon Mar 28 14:30:45 2022, MaxMem=  9663676416 cpu:               3.2 elap:               0.1
 (Enter /nopt/nrel/apps/gaussian/g16C_1/g16/l202.exe)
                          Input orientation:                          
 ---------------------------------------------------------------------
 Center     Atomic      Atomic             Coordinates (Angstroms)
 Number     Number       Type             X           Y           Z
 ---------------------------------------------------------------------
      1          1           0        0.000000    0.000000    0.000000
      2         19           0        0.000000    0.000000    1.000000
 ---------------------------------------------------------------------
 Stoichiometry    HK
 Framework group  C*V[C*(HK)]
 Deg. of freedom     1
 Full point group                 C*V     NOp   4
 Largest Abelian subgroup         C2V     NOp   4
 Largest concise Abelian subgroup C1      NOp   1
                         Standard orientation:                         
 ---------------------------------------------------------------------
 Center     Atomic      Atomic             Coordinates (Angstroms)
 Number     Number       Type             X           Y           Z
 ---------------------------------------------------------------------
      1          1           0        0.000000    0.000000   -0.950000
      2         19           0        0.000000    0.000000    0.050000
 ---------------------------------------------------------------------
 Rotational constants (GHZ):           0.0000000         514.4256105         514.4256105
 Leave Link  202 at Mon Mar 28 14:30:45 2022, MaxMem=  9663676416 cpu:               1.0 elap:               0.0
 (Enter /nopt/nrel/apps/gaussian/g16C_1/g16/l301.exe)
 General basis read from cards:  (5D, 7F)
                         Coordinates in L301:                         
 ---------------------------------------------------------------------
 Center     Atomic      Atomic             Coordinates (Angstroms)
 Number     Number       Type             X           Y           Z
 ---------------------------------------------------------------------
      1          1           0        0.000000    0.000000   -0.950000
      2         19           0        0.000000    0.000000    0.050000
 ---------------------------------------------------------------------
 Centers:       1
 STO-3G
 ****
 Centers:       2
 3-21G
 ****
 FixB: optimizing general contractions.
 Ernie: Thresh=  0.10000D-02 Tol=  0.10000D-05 Strict=F.
 IA=     1 ShT= 0 ShC= 0 NL=   1 NS=   0.
 IA=     1 L=0 SC=0 ISt=    0 NBk=    0 NP=    0 IndPr=    0.
 IA=     2 ShT= 0 ShC= 0 NL=   1 NS=   0.
 IA=     2 L=0 SC=0 ISt=    0 NBk=    0 NP=    0 IndPr=    0.
 IA=     2 ShT= 1 ShC= 0 NL=   4 NS=   1.
 IA=     2 L=1 SC=0 ISt=    1 NBk=    3 NP=    8 IndPr=    0.
 DoElim1:  L=1 select primitive    1 from    2 using    1 C=-1.09D-01
 DoElim1:  L=1 select primitive    1 from    3 using    1 C=-1.09D-01
 DoElim1:  L=1 select primitive    4 from    3 using    2 C=-2.70D-01
 DoElim2:  L=1 select primitive    8 from    2 using    3 C= 1.13D+00
 DoElim2:  L=1 select primitive    8 from    1 using    3 C= 1.13D+00
 DoElim2:  L=1 select primitive    6 from    1 using    2 C= 8.11D-01
 DoElim1:  L=1 select primitive    1 from    2 using    1 C= 1.34D-01
 DoElim1:  L=1 select primitive    1 from    3 using    1 C= 1.34D-01
 DoElim1:  L=1 select primitive    4 from    3 using    2 C= 1.99D-02
 DoElim2:  L=1 select primitive    8 from    2 using    3 C= 1.00D+00
 DoElim2:  L=1 select primitive    8 from    1 using    3 C= 1.00D+00
 DoElim2:  L=1 select primitive    6 from    1 using    2 C= 6.45D-01
 Delete L=1 primitive    6 from    3 C=  0.00D+00.
 Delete L=1 primitive    5 from    3 C=  0.00D+00.
 Delete L=1 primitive    4 from    3 C=  0.00D+00.
 Delete L=1 primitive    3 from    3 C=  0.00D+00.
 Delete L=1 primitive    2 from    3 C=  0.00D+00.
 Delete L=1 primitive    1 from    3 C=  0.00D+00.
 Delete L=1 primitive    8 from    2 C=  0.00D+00.
 Delete L=1 primitive    7 from    2 C=  0.00D+00.
 Delete L=1 primitive    3 from    2 C=  0.00D+00.
 Delete L=1 primitive    2 from    2 C=  0.00D+00.
 Delete L=1 primitive    1 from    2 C=  0.00D+00.
 Delete L=1 primitive    8 from    1 C=  0.00D+00.
 Delete L=1 primitive    7 from    1 C=  0.00D+00.
 Delete L=1 primitive    6 from    1 C=  0.00D+00.
 Delete L=1 primitive    5 from    1 C=  0.00D+00.
 Delete L=1 primitive    4 from    1 C=  0.00D+00.
 IA=     2 L=1 SC=0 ISt=    0 NBk=    0 NP=    0 IndPr=    8.
 LdAtmC:  AtmChg=     1.000000    19.000000
 AtZEff=     -1.0000000    -22.4200000
 NEqShl: 
              1            2            3            4
     1            1            1            1            1
     2            2            2            2            2
     3            3            3            3            3
     4            4            4            4            4
     5            5            5            5            5
     6            6            6            6            6
 NEqBas: 
              1            2            3            4
     1            1            1            1            1
     2            2            2            2            2
     3            3            3            3            3
     4            4           -4           -4            4
     5            5           -5            5           -5
     6            6            6            6            6
     7            7            7            7            7
     8            8           -8           -8            8
     9            9           -9            9           -9
    10           10           10           10           10
    11           11           11           11           11
    12           12          -12          -12           12
    13           13          -13           13          -13
    14           14           14           14           14
    15           15           15           15           15
    16           16          -16          -16           16
    17           17          -17           17          -17
    18           18           18           18           18
 There are    10 symmetry adapted cartesian basis functions of A1  symmetry.
   1         1   1   1   1
   2         2   2   2   2
   3         3   3   3   3
   4         6   6   6   6
   5         7   7   7   7
   6        10  10  10  10
   7        11  11  11  11
   8        14  14  14  14
   9        15  15  15  15
  10        18  18  18  18
 There are     0 symmetry adapted cartesian basis functions of A2  symmetry.
 There are     4 symmetry adapted cartesian basis functions of B1  symmetry.
  11         4   4   4   4
  12         8   8   8   8
  13        12  12  12  12
  14        16  16  16  16
 There are     4 symmetry adapted cartesian basis functions of B2  symmetry.
  15         5   5   5   5
  16         9   9   9   9
  17        13  13  13  13
  18        17  17  17  17
 Order= 1 2 4 3
 Reordered character table:
              1            2            3            4            5
     1            1            1            1            1            1
     2            2            1            1           -1           -1
     3            4            1           -1           -1            1
     4            3            1           -1            1           -1
 NEqShl: 
              1            2            3            4
     1            1            1            1            1
     2            2            2            2            2
     3            3            3            3            3
     4            4            4            4            4
     5            5            5            5            5
     6            6            6            6            6
 NEqBas: 
              1            2            3            4
     1            1            1            1            1
     2            2            2            2            2
     3            3            3            3            3
     4            4           -4           -4            4
     5            5           -5            5           -5
     6            6            6            6            6
     7            7            7            7            7
     8            8           -8           -8            8
     9            9           -9            9           -9
    10           10           10           10           10
    11           11           11           11           11
    12           12          -12          -12           12
    13           13          -13           13          -13
    14           14           14           14           14
    15           15           15           15           15
    16           16          -16          -16           16
    17           17          -17           17          -17
    18           18           18           18           18
 There are    10 symmetry adapted basis functions of A1  symmetry.
   1         1   1   1   1
   2         2   2   2   2
   3         3   3   3   3
   4         6   6   6   6
   5         7   7   7   7
   6        10  10  10  10
   7        11  11  11  11
   8        14  14  14  14
   9        15  15  15  15
  10        18  18  18  18
 There are     0 symmetry adapted basis functions of A2  symmetry.
 There are     4 symmetry adapted basis functions of B1  symmetry.
  11         4   4   4   4
  12         8   8   8   8
  13        12  12  12  12
  14        16  16  16  16
 There are     4 symmetry adapted basis functions of B2  symmetry.
  15         5   5   5   5
  16         9   9   9   9
  17        13  13  13  13
  18        17  17  17  17
 Order= 1 2 4 3
 Reordered character table:
              1            2            3            4            5
     1            1            1            1            1            1
     2            2            1            1           -1           -1
     3            4            1           -1           -1            1
     4            3            1           -1            1           -1
    18 basis functions,    42 primitive gaussians,    18 cartesian basis functions
    10 alpha electrons       10 beta electrons
       nuclear repulsion energy        10.0543670075 Hartrees.
 IS=     1 IAt=     1 ISR=     1 T=0 IP=      1 IndIP=      1 IndIPD=      0 C=  2.769344D-01  0.000000D+00                             NZ=T
 IS=     1 IAt=     1 ISR=     1 T=0 IP=      2 IndIP=      2 IndIPD=      1 C=  2.678389D-01  0.000000D+00                             NZ=T
 IS=     1 IAt=     1 ISR=     1 T=0 IP=      3 IndIP=      3 IndIPD=      2 C=  8.347367D-02  0.000000D+00                             NZ=T
 IS=     2 IAt=     2 ISR=     1 T=0 IP=      1 IndIP=      4 IndIPD=      0 C=  1.235533D+01  0.000000D+00                             NZ=T
 IS=     2 IAt=     2 ISR=     1 T=0 IP=      2 IndIP=      5 IndIPD=      1 C=  1.757620D+01  0.000000D+00                             NZ=T
 IS=     2 IAt=     2 ISR=     1 T=0 IP=      3 IndIP=      6 IndIPD=      2 C=  9.965255D+00  0.000000D+00                             NZ=T
 IS=     3 IAt=     2 ISR=     2 T=1 IP=      1 IndIP=      7 IndIPD=      0 C= -1.917303D+00  3.974198D+01                             NZ=T
 IS=     3 IAt=     2 ISR=     2 T=1 IP=      2 IndIP=      8 IndIPD=      1 C=  6.276214D-01  2.313166D+01                             NZ=T
 IS=     3 IAt=     2 ISR=     2 T=1 IP=      3 IndIP=      9 IndIPD=      2 C=  2.074825D+00  4.747626D+00                             NZ=T
 IS=     4 IAt=     2 ISR=     3 T=1 IP=      1 IndIP=     10 IndIPD=      0 C= -5.565498D-01  1.669766D-01                             NZ=T
 IS=     4 IAt=     2 ISR=     3 T=1 IP=      2 IndIP=     11 IndIPD=      1 C=  2.958337D-01  7.678126D-01                             NZ=T
 IS=     4 IAt=     2 ISR=     3 T=1 IP=      3 IndIP=     12 IndIPD=      2 C=  2.772726D-01  2.705395D-01                             NZ=T
 IS=     5 IAt=     2 ISR=     4 T=1 IP=      1 IndIP=     13 IndIPD=      0 C= -6.663323D-02  7.553623D-05                             NZ=T
 IS=     5 IAt=     2 ISR=     4 T=1 IP=      2 IndIP=     14 IndIPD=      1 C=  7.057644D-02  2.467884D-02                             NZ=T
 IS=     6 IAt=     2 ISR=     5 T=1 IP=      1 IndIP=     15 IndIPD=      0 C=  3.215666D-02  8.150947D-03                             NZ=T
 IExCor=    0 DFT=F Ex=HF Corr=None ExCW=0 ScaHFX=  1.000000
 ScaDFX=  1.000000  1.000000  1.000000  1.000000 ScalE2=  1.000000  1.000000
 IRadAn=      5 IRanWt=     -1 IRanGd=            0 ICorTp=0 IEmpDi=  4
 NAtoms=    2 NActive=    2 NUniq=    2 SFac= 1.00D+00 NAtFMM=   60 NAOKFM=F Big=F
 Integral buffers will be    131072 words long.
 Raffenetti 1 integral format.
 Two-electron integral symmetry is turned on.
 Leave Link  301 at Mon Mar 28 14:30:45 2022, MaxMem=  9663676416 cpu:               2.1 elap:               0.1
 (Enter /nopt/nrel/apps/gaussian/g16C_1/g16/l302.exe)
 NPDir=0 NMtPBC=     1 NCelOv=     1 NCel=       1 NClECP=     1 NCelD=      1
         NCelK=      1 NCelE2=     1 NClLst=     1 CellRange=     0.0.
 One-electron integrals computed using PRISM.
 One-electron integral symmetry used in STVInt
 Entering OneElI...
 Calculate overlap and kinetic energy integrals
    NBasis =  18  MinDer = 0  MaxDer = 0
 Requested accuracy = 0.1000D-12
 Symmetry will be used
 PrmmSu-InSpLW:  IPartL=    0 NPrtUS=   36 NPrtUL=    1 DoSpLW=F IThBeg=    0 IThEnd=   35 NThAct=   36.
 PrSmSu:  IncTry=   512 NBBP=             21 NTPThr=   100 NPartT=   36 Incr=           1 LDynOK=F GPUOK=F.
 PrsmSu:  NPrtUS=  36 ThrOK=T IAlg=1 LenDen=           0 ISkipM=0 DoSpLW=F IThBeg=    0 IThEnd=   35.
 Prism:   IPart=     0 DynPar=F LinDyn=F Incr=           1.
 PRISM was handed   268433216 working-precision words and    21 shell-pairs
 PRISM was handed   268433216 working-precision words and    21 shell-pairs
 PRISM was handed   268433216 working-precision words and    21 shell-pairs
 PRISM was handed   268433216 working-precision words and    21 shell-pairs
 PRISM was handed   268433216 working-precision words and    21 shell-pairs
 PRISM was handed   268433216 working-precision words and    21 shell-pairs
 PRISM was handed   268433216 working-precision words and    21 shell-pairs
 PRISM was handed   268433216 working-precision words and    21 shell-pairs
 PRISM was handed   268433216 working-precision words and    21 shell-pairs
 IPart=  8 NShTot=           0 NBatch=           0 AvBLen=         0.0
 IPart=  4 NShTot=           0 NBatch=           0 AvBLen=         0.0
 IPart= 16 NShTot=           0 NBatch=           0 AvBLen=         0.0
 IPart= 26 NShTot=           0 NBatch=           0 AvBLen=         0.0
 IPart= 10 NShTot=           0 NBatch=           0 AvBLen=         0.0
 IPart=  5 NShTot=           0 NBatch=           0 AvBLen=         0.0
 PRISM was handed   268433216 working-precision words and    21 shell-pairs
 PRISM was handed   268433216 working-precision words and    21 shell-pairs
 IPart= 24 NShTot=           0 NBatch=           0 AvBLen=         0.0
 IPart= 25 NShTot=           0 NBatch=           0 AvBLen=         0.0
 PRISM was handed   268433216 working-precision words and    21 shell-pairs
 IPart=  2 NShTot=           3 NBatch=           3 AvBLen=         1.0
 IPart=  1 NShTot=           7 NBatch=           7 AvBLen=         1.0
 PRISM was handed   268433216 working-precision words and    21 shell-pairs
 IPart= 29 NShTot=           0 NBatch=           0 AvBLen=         0.0
 PRISM was handed   268433216 working-precision words and    21 shell-pairs
 PRISM was handed   268433216 working-precision words and    21 shell-pairs
 PRISM was handed   268433216 working-precision words and    21 shell-pairs
 IPart= 34 NShTot=           0 NBatch=           0 AvBLen=         0.0
 PRISM was handed   268433216 working-precision words and    21 shell-pairs
 IPart=  7 NShTot=           0 NBatch=           0 AvBLen=         0.0
 PRISM was handed   268433216 working-precision words and    21 shell-pairs
 IPart= 17 NShTot=           0 NBatch=           0 AvBLen=         0.0
 IPart= 28 NShTot=           0 NBatch=           0 AvBLen=         0.0
 PRISM was handed   268433216 working-precision words and    21 shell-pairs
 IPart= 35 NShTot=           0 NBatch=           0 AvBLen=         0.0
 IPart= 14 NShTot=           0 NBatch=           0 AvBLen=         0.0
 PRISM was handed   268433216 working-precision words and    21 shell-pairs
 PRISM was handed   268433216 working-precision words and    21 shell-pairs
 PRISM was handed   268433216 working-precision words and    21 shell-pairs
 PRISM was handed   268433216 working-precision words and    21 shell-pairs
 IPart= 22 NShTot=           0 NBatch=           0 AvBLen=         0.0
 PRISM was handed   268433216 working-precision words and    21 shell-pairs
 PRISM was handed   268433216 working-precision words and    21 shell-pairs
 PRISM was handed   268433216 working-precision words and    21 shell-pairs
 PRISM was handed   268433216 working-precision words and    21 shell-pairs
 PRISM was handed   268433216 working-precision words and    21 shell-pairs
 PRISM was handed   268433216 working-precision words and    21 shell-pairs
 PRISM was handed   268433216 working-precision words and    21 shell-pairs
 PRISM was handed   268433216 working-precision words and    21 shell-pairs
 IPart= 33 NShTot=           0 NBatch=           0 AvBLen=         0.0
 PRISM was handed   268433216 working-precision words and    21 shell-pairs
 PRISM was handed   268433216 working-precision words and    21 shell-pairs
 PRISM was handed   268433216 working-precision words and    21 shell-pairs
 IPart= 21 NShTot=           0 NBatch=           0 AvBLen=         0.0
 IPart= 18 NShTot=           0 NBatch=           0 AvBLen=         0.0
 IPart=  6 NShTot=           0 NBatch=           0 AvBLen=         0.0
 IPart= 27 NShTot=           0 NBatch=           0 AvBLen=         0.0
 IPart= 12 NShTot=           0 NBatch=           0 AvBLen=         0.0
 IPart= 32 NShTot=           0 NBatch=           0 AvBLen=         0.0
 PRISM was handed   268433216 working-precision words and    21 shell-pairs
 IPart= 11 NShTot=           0 NBatch=           0 AvBLen=         0.0
 IPart= 23 NShTot=           0 NBatch=           0 AvBLen=         0.0
 IPart=  9 NShTot=           0 NBatch=           0 AvBLen=         0.0
 PRISM was handed   268433216 working-precision words and    21 shell-pairs
 IPart= 20 NShTot=           0 NBatch=           0 AvBLen=         0.0
 IPart= 31 NShTot=           0 NBatch=           0 AvBLen=         0.0
 IPart= 19 NShTot=           0 NBatch=           0 AvBLen=         0.0
 IPart=  3 NShTot=           1 NBatch=           1 AvBLen=         1.0
 IPart= 30 NShTot=           0 NBatch=           0 AvBLen=         0.0
 IPart=  0 NShTot=          10 NBatch=          10 AvBLen=         1.0
 IPart= 15 NShTot=           0 NBatch=           0 AvBLen=         0.0
 IPart= 13 NShTot=           0 NBatch=           0 AvBLen=         0.0
 PrSmSu:  NxtVal=             37.
 *** Overlap *** 
                1             2             3             4             5 
      1  0.100000D+01
      2  0.115323D-01  0.100000D+01
      3  0.950838D-01  0.255104D+00  0.100000D+01
      4  0.000000D+00  0.000000D+00  0.000000D+00  0.100000D+01
      5  0.000000D+00  0.000000D+00  0.000000D+00  0.000000D+00  0.100000D+01
      6 -0.357072D-01  0.000000D+00  0.000000D+00  0.000000D+00  0.000000D+00
      7  0.475144D+00  0.851285D-02  0.305620D+00  0.000000D+00  0.000000D+00
      8  0.000000D+00  0.000000D+00  0.000000D+00  0.282859D+00  0.000000D+00
      9  0.000000D+00  0.000000D+00  0.000000D+00  0.000000D+00  0.282859D+00
     10 -0.466235D+00  0.000000D+00  0.000000D+00  0.000000D+00  0.000000D+00
     11  0.341436D+00  0.657633D-03  0.101668D-01  0.000000D+00  0.000000D+00
     12  0.000000D+00  0.000000D+00  0.000000D+00  0.931227D-02  0.000000D+00
     13  0.000000D+00  0.000000D+00  0.000000D+00  0.000000D+00  0.931227D-02
     14 -0.282217D+00  0.000000D+00  0.000000D+00  0.000000D+00  0.000000D+00
     15  0.274290D+00  0.496746D-02  0.403235D-01  0.000000D+00  0.000000D+00
     16  0.000000D+00  0.000000D+00  0.000000D+00  0.310109D-02  0.000000D+00
     17  0.000000D+00  0.000000D+00  0.000000D+00  0.000000D+00  0.310109D-02
     18 -0.122882D+00  0.000000D+00  0.000000D+00  0.000000D+00  0.000000D+00
                6             7             8             9            10 
      6  0.100000D+01
      7  0.000000D+00  0.100000D+01
      8  0.000000D+00  0.000000D+00  0.100000D+01
      9  0.000000D+00  0.000000D+00  0.000000D+00  0.100000D+01
     10  0.282859D+00  0.000000D+00  0.000000D+00  0.000000D+00  0.100000D+01
     11  0.000000D+00  0.215867D+00  0.000000D+00  0.000000D+00  0.000000D+00
     12  0.000000D+00  0.000000D+00  0.200079D+00  0.000000D+00  0.000000D+00
     13  0.000000D+00  0.000000D+00  0.000000D+00  0.200079D+00  0.000000D+00
     14  0.931227D-02  0.000000D+00  0.000000D+00  0.000000D+00  0.200079D+00
     15  0.000000D+00  0.230714D+00  0.000000D+00  0.000000D+00  0.000000D+00
     16  0.000000D+00  0.000000D+00  0.749696D-01  0.000000D+00  0.000000D+00
     17  0.000000D+00  0.000000D+00  0.000000D+00  0.749696D-01  0.000000D+00
     18  0.310109D-02  0.000000D+00  0.000000D+00  0.000000D+00  0.749696D-01
               11            12            13            14            15 
     11  0.100000D+01
     12  0.000000D+00  0.100000D+01
     13  0.000000D+00  0.000000D+00  0.100000D+01
     14  0.000000D+00  0.000000D+00  0.000000D+00  0.100000D+01
     15  0.889160D+00  0.000000D+00  0.000000D+00  0.000000D+00  0.100000D+01
     16  0.000000D+00  0.788263D+00  0.000000D+00  0.000000D+00  0.000000D+00
     17  0.000000D+00  0.000000D+00  0.788263D+00  0.000000D+00  0.000000D+00
     18  0.000000D+00  0.000000D+00  0.000000D+00  0.788263D+00  0.000000D+00
               16            17            18 
     16  0.100000D+01
     17  0.000000D+00  0.100000D+01
     18  0.000000D+00  0.000000D+00  0.100000D+01
 *** Kinetic Energy *** 
                1             2             3             4             5 
      1  0.760032D+00
      2 -0.181448D-02  0.176298D+03
      3 -0.616672D-02 -0.620687D+01  0.781415D+01
      4  0.000000D+00  0.000000D+00  0.000000D+00  0.280311D+02
      5  0.000000D+00  0.000000D+00  0.000000D+00  0.000000D+00  0.280311D+02
      6 -0.158084D-01  0.000000D+00  0.000000D+00  0.000000D+00  0.000000D+00
      7  0.124425D+00 -0.709406D+00 -0.685499D+00  0.000000D+00  0.000000D+00
      8  0.000000D+00  0.000000D+00  0.000000D+00  0.125035D+01  0.000000D+00
      9  0.000000D+00  0.000000D+00  0.000000D+00  0.000000D+00  0.125035D+01
     10 -0.315226D+00  0.000000D+00  0.000000D+00  0.000000D+00  0.000000D+00
     11  0.513427D-02 -0.621117D-02 -0.439131D-01  0.000000D+00  0.000000D+00
     12  0.000000D+00  0.000000D+00  0.000000D+00  0.182620D-02  0.000000D+00
     13  0.000000D+00  0.000000D+00  0.000000D+00  0.000000D+00  0.182620D-02
     14 -0.454438D-01  0.000000D+00  0.000000D+00  0.000000D+00  0.000000D+00
     15  0.119194D-01  0.239311D-03  0.193628D-02  0.000000D+00  0.000000D+00
     16  0.000000D+00  0.000000D+00  0.000000D+00  0.248286D-03  0.000000D+00
     17  0.000000D+00  0.000000D+00  0.000000D+00  0.000000D+00  0.248286D-03
     18 -0.904132D-02  0.000000D+00  0.000000D+00  0.000000D+00  0.000000D+00
                6             7             8             9            10 
      6  0.280311D+02
      7  0.000000D+00  0.856984D+00
      8  0.000000D+00  0.000000D+00  0.155517D+01
      9  0.000000D+00  0.000000D+00  0.000000D+00  0.155517D+01
     10  0.125035D+01  0.000000D+00  0.000000D+00  0.000000D+00  0.155517D+01
     11  0.000000D+00 -0.669248D-01  0.000000D+00  0.000000D+00  0.000000D+00
     12  0.000000D+00  0.000000D+00  0.358731D-01  0.000000D+00  0.000000D+00
     13  0.000000D+00  0.000000D+00  0.000000D+00  0.358731D-01  0.000000D+00
     14  0.182620D-02  0.000000D+00  0.000000D+00  0.000000D+00  0.358731D-01
     15  0.000000D+00  0.106939D-01  0.000000D+00  0.000000D+00  0.000000D+00
     16  0.000000D+00  0.000000D+00  0.579876D-02  0.000000D+00  0.000000D+00
     17  0.000000D+00  0.000000D+00  0.000000D+00  0.579876D-02  0.000000D+00
     18  0.248286D-03  0.000000D+00  0.000000D+00  0.000000D+00  0.579876D-02
               11            12            13            14            15 
     11  0.660420D-01
     12  0.000000D+00  0.974466D-01
     13  0.000000D+00  0.000000D+00  0.974466D-01
     14  0.000000D+00  0.000000D+00  0.000000D+00  0.974466D-01
     15  0.293463D-01  0.000000D+00  0.000000D+00  0.000000D+00  0.240938D-01
     16  0.000000D+00  0.448313D-01  0.000000D+00  0.000000D+00  0.000000D+00
     17  0.000000D+00  0.000000D+00  0.448313D-01  0.000000D+00  0.000000D+00
     18  0.000000D+00  0.000000D+00  0.000000D+00  0.448313D-01  0.000000D+00
               16            17            18 
     16  0.401564D-01
     17  0.000000D+00  0.401564D-01
     18  0.000000D+00  0.000000D+00  0.401564D-01
 Entering OneElI...
 Calculate potential energy integrals
    NBasis =  18  MinDer = 0  MaxDer = 0
 Requested accuracy = 0.1000D-12
 Symmetry will be used
 PrmmSu-InSpLW:  IPartL=    0 NPrtUS=   36 NPrtUL=    1 DoSpLW=F IThBeg=    0 IThEnd=   35 NThAct=   36.
 PrSmSu:  IncTry=   512 NBBP=             42 NTPThr=   100 NPartT=   36 Incr=           1 LDynOK=F GPUOK=F.
 PrsmSu:  NPrtUS=  36 ThrOK=T IAlg=1 LenDen=           0 ISkipM=0 DoSpLW=F IThBeg=    0 IThEnd=   35.
 Prism:   IPart=     0 DynPar=F LinDyn=F Incr=           1.
 PRISM was handed   268433370 working-precision words and    21 shell-pairs
 PRISM was handed   268433370 working-precision words and    21 shell-pairs
 PRISM was handed   268433370 working-precision words and    21 shell-pairs
 PRISM was handed   268433370 working-precision words and    21 shell-pairs
 PRISM was handed   268433370 working-precision words and    21 shell-pairs
 PRISM was handed   268433370 working-precision words and    21 shell-pairs
 PRISM was handed   268433370 working-precision words and    21 shell-pairs
 PRISM was handed   268433370 working-precision words and    21 shell-pairs
 PRISM was handed   268433370 working-precision words and    21 shell-pairs
 PRISM was handed   268433370 working-precision words and    21 shell-pairs
 PRISM was handed   268433370 working-precision words and    21 shell-pairs
 PRISM was handed   268433370 working-precision words and    21 shell-pairs
 PRISM was handed   268433370 working-precision words and    21 shell-pairs
 PRISM was handed   268433370 working-precision words and    21 shell-pairs
 PRISM was handed   268433370 working-precision words and    21 shell-pairs
 PRISM was handed   268433370 working-precision words and    21 shell-pairs
 PRISM was handed   268433370 working-precision words and    21 shell-pairs
 PRISM was handed   268433370 working-precision words and    21 shell-pairs
 PRISM was handed   268433370 working-precision words and    21 shell-pairs
 PRISM was handed   268433370 working-precision words and    21 shell-pairs
 PRISM was handed   268433370 working-precision words and    21 shell-pairs
 PRISM was handed   268433370 working-precision words and    21 shell-pairs
 PRISM was handed   268433370 working-precision words and    21 shell-pairs
 PRISM was handed   268433370 working-precision words and    21 shell-pairs
 PRISM was handed   268433370 working-precision words and    21 shell-pairs
 PRISM was handed   268433370 working-precision words and    21 shell-pairs
 PRISM was handed   268433370 working-precision words and    21 shell-pairs
 PRISM was handed   268433370 working-precision words and    21 shell-pairs
 PRISM was handed   268433370 working-precision words and    21 shell-pairs
 PRISM was handed   268433370 working-precision words and    21 shell-pairs
 PRISM was handed   268433370 working-precision words and    21 shell-pairs
 PRISM was handed   268433370 working-precision words and    21 shell-pairs
 PRISM was handed   268433370 working-precision words and    21 shell-pairs
 PRISM was handed   268433370 working-precision words and    21 shell-pairs
 PRISM was handed   268433370 working-precision words and    21 shell-pairs
 PRISM was handed   268433370 working-precision words and    21 shell-pairs
 IPart= 27 NShTot=           0 NBatch=           0 AvBLen=         0.0
 IPart= 35 NShTot=           0 NBatch=           0 AvBLen=         0.0
 IPart= 22 NShTot=           0 NBatch=           0 AvBLen=         0.0
 IPart= 29 NShTot=           0 NBatch=           0 AvBLen=         0.0
 IPart=  6 NShTot=           0 NBatch=           0 AvBLen=         0.0
 IPart= 28 NShTot=           0 NBatch=           0 AvBLen=         0.0
 IPart= 25 NShTot=           0 NBatch=           0 AvBLen=         0.0
 IPart= 21 NShTot=           0 NBatch=           0 AvBLen=         0.0
 IPart= 24 NShTot=           0 NBatch=           0 AvBLen=         0.0
 IPart= 34 NShTot=           0 NBatch=           0 AvBLen=         0.0
 IPart=  4 NShTot=           0 NBatch=           0 AvBLen=         0.0
 IPart= 33 NShTot=           0 NBatch=           0 AvBLen=         0.0
 IPart= 32 NShTot=           0 NBatch=           0 AvBLen=         0.0
 IPart= 30 NShTot=           0 NBatch=           0 AvBLen=         0.0
 IPart= 19 NShTot=           0 NBatch=           0 AvBLen=         0.0
 IPart=  7 NShTot=           0 NBatch=           0 AvBLen=         0.0
 IPart= 17 NShTot=           0 NBatch=           0 AvBLen=         0.0
 IPart= 31 NShTot=           0 NBatch=           0 AvBLen=         0.0
 IPart= 23 NShTot=           0 NBatch=           0 AvBLen=         0.0
 IPart= 20 NShTot=           0 NBatch=           0 AvBLen=         0.0
 IPart= 18 NShTot=           0 NBatch=           0 AvBLen=         0.0
 IPart= 26 NShTot=           0 NBatch=           0 AvBLen=         0.0
 IPart=  2 NShTot=           6 NBatch=           3 AvBLen=         2.0
 IPart=  1 NShTot=          14 NBatch=           7 AvBLen=         2.0
 IPart=  0 NShTot=          20 NBatch=          10 AvBLen=         2.0
 IPart= 13 NShTot=           0 NBatch=           0 AvBLen=         0.0
 IPart= 12 NShTot=           0 NBatch=           0 AvBLen=         0.0
 IPart= 14 NShTot=           0 NBatch=           0 AvBLen=         0.0
 IPart= 15 NShTot=           0 NBatch=           0 AvBLen=         0.0
 IPart=  9 NShTot=           0 NBatch=           0 AvBLen=         0.0
 IPart=  8 NShTot=           0 NBatch=           0 AvBLen=         0.0
 IPart= 10 NShTot=           0 NBatch=           0 AvBLen=         0.0
 IPart= 11 NShTot=           0 NBatch=           0 AvBLen=         0.0
 IPart=  3 NShTot=           2 NBatch=           1 AvBLen=         2.0
 IPart=  5 NShTot=           0 NBatch=           0 AvBLen=         0.0
 IPart= 16 NShTot=           0 NBatch=           0 AvBLen=         0.0
 PrSmSu:  NxtVal=             37.
 ***** Potential Energy ***** 
                1             2             3             4             5 
      1  0.109720D+02
      2  0.223899D+01  0.356202D+03
      3  0.434107D+01  0.429372D+02  0.623642D+02
      4  0.000000D+00  0.000000D+00  0.000000D+00  0.714312D+02
      5  0.000000D+00  0.000000D+00  0.000000D+00  0.000000D+00  0.714312D+02
      6 -0.131220D+01 -0.758647D-02 -0.573282D-01  0.000000D+00  0.000000D+00
      7  0.737096D+01  0.118416D+01  0.116084D+02  0.000000D+00  0.000000D+00
      8  0.000000D+00  0.000000D+00  0.000000D+00  0.115811D+02  0.000000D+00
      9  0.000000D+00  0.000000D+00  0.000000D+00  0.000000D+00  0.115811D+02
     10 -0.621943D+01 -0.380571D-03 -0.264425D-01  0.000000D+00  0.000000D+00
     11  0.275601D+01  0.123820D+00  0.391194D+00  0.000000D+00  0.000000D+00
     12  0.000000D+00  0.000000D+00  0.000000D+00  0.337047D+00  0.000000D+00
     13  0.000000D+00  0.000000D+00  0.000000D+00  0.000000D+00  0.337047D+00
     14 -0.217742D+01 -0.827029D-05 -0.936912D-03  0.000000D+00  0.000000D+00
     15  0.252203D+01  0.965070D+00  0.184810D+01  0.000000D+00  0.000000D+00
     16  0.000000D+00  0.000000D+00  0.000000D+00  0.111888D+00  0.000000D+00
     17  0.000000D+00  0.000000D+00  0.000000D+00  0.000000D+00  0.111888D+00
     18 -0.885028D+00 -0.272593D-05 -0.312514D-03  0.000000D+00  0.000000D+00
                6             7             8             9            10 
      6  0.714439D+02
      7 -0.285286D-01  0.185416D+02
      8  0.000000D+00  0.000000D+00  0.170882D+02
      9  0.000000D+00  0.000000D+00  0.000000D+00  0.170882D+02
     10  0.115907D+02 -0.189286D+00  0.000000D+00  0.000000D+00  0.172349D+02
     11 -0.105779D-02  0.245308D+01  0.000000D+00  0.000000D+00 -0.533237D-01
     12  0.000000D+00  0.000000D+00  0.213670D+01  0.000000D+00  0.000000D+00
     13  0.000000D+00  0.000000D+00  0.000000D+00  0.213670D+01  0.000000D+00
     14  0.337443D+00 -0.320710D-01  0.000000D+00  0.000000D+00  0.216827D+01
     15 -0.342593D-02  0.325539D+01  0.000000D+00  0.000000D+00 -0.524675D-01
     16  0.000000D+00  0.000000D+00  0.775437D+00  0.000000D+00  0.000000D+00
     17  0.000000D+00  0.000000D+00  0.000000D+00  0.775437D+00  0.000000D+00
     18  0.112021D+00 -0.116069D-01  0.000000D+00  0.000000D+00  0.786959D+00
               11            12            13            14            15 
     11  0.500070D+01
     12  0.000000D+00  0.419022D+01
     13  0.000000D+00  0.000000D+00  0.419022D+01
     14 -0.621059D-01  0.000000D+00  0.000000D+00  0.421904D+01
     15  0.414541D+01  0.000000D+00  0.000000D+00 -0.508127D-01  0.403742D+01
     16  0.000000D+00  0.277712D+01  0.000000D+00  0.000000D+00  0.000000D+00
     17  0.000000D+00  0.000000D+00  0.277712D+01  0.000000D+00  0.000000D+00
     18 -0.319541D-01  0.000000D+00  0.000000D+00  0.279139D+01 -0.301575D-01
               16            17            18 
     16  0.269358D+01
     17  0.000000D+00  0.269358D+01
     18  0.000000D+00  0.000000D+00  0.270213D+01
 ****** Core Hamiltonian ****** 
                1             2             3             4             5 
      1 -0.102120D+02
      2 -0.224081D+01 -0.179904D+03
      3 -0.434723D+01 -0.491440D+02 -0.545500D+02
      4  0.000000D+00  0.000000D+00  0.000000D+00 -0.434001D+02
      5  0.000000D+00  0.000000D+00  0.000000D+00  0.000000D+00 -0.434001D+02
      6  0.129639D+01  0.758647D-02  0.573282D-01  0.000000D+00  0.000000D+00
      7 -0.724653D+01 -0.189356D+01 -0.122939D+02  0.000000D+00  0.000000D+00
      8  0.000000D+00  0.000000D+00  0.000000D+00 -0.103308D+02  0.000000D+00
      9  0.000000D+00  0.000000D+00  0.000000D+00  0.000000D+00 -0.103308D+02
     10  0.590421D+01  0.380571D-03  0.264425D-01  0.000000D+00  0.000000D+00
     11 -0.275088D+01 -0.130031D+00 -0.435107D+00  0.000000D+00  0.000000D+00
     12  0.000000D+00  0.000000D+00  0.000000D+00 -0.335221D+00  0.000000D+00
     13  0.000000D+00  0.000000D+00  0.000000D+00  0.000000D+00 -0.335221D+00
     14  0.213197D+01  0.827029D-05  0.936912D-03  0.000000D+00  0.000000D+00
     15 -0.251011D+01 -0.964831D+00 -0.184616D+01  0.000000D+00  0.000000D+00
     16  0.000000D+00  0.000000D+00  0.000000D+00 -0.111640D+00  0.000000D+00
     17  0.000000D+00  0.000000D+00  0.000000D+00  0.000000D+00 -0.111640D+00
     18  0.875986D+00  0.272593D-05  0.312514D-03  0.000000D+00  0.000000D+00
                6             7             8             9            10 
      6 -0.434128D+02
      7  0.285286D-01 -0.176846D+02
      8  0.000000D+00  0.000000D+00 -0.155330D+02
      9  0.000000D+00  0.000000D+00  0.000000D+00 -0.155330D+02
     10 -0.103403D+02  0.189286D+00  0.000000D+00  0.000000D+00 -0.156797D+02
     11  0.105779D-02 -0.252001D+01  0.000000D+00  0.000000D+00  0.533237D-01
     12  0.000000D+00  0.000000D+00 -0.210083D+01  0.000000D+00  0.000000D+00
     13  0.000000D+00  0.000000D+00  0.000000D+00 -0.210083D+01  0.000000D+00
     14 -0.335617D+00  0.320710D-01  0.000000D+00  0.000000D+00 -0.213240D+01
     15  0.342593D-02 -0.324469D+01  0.000000D+00  0.000000D+00  0.524675D-01
     16  0.000000D+00  0.000000D+00 -0.769638D+00  0.000000D+00  0.000000D+00
     17  0.000000D+00  0.000000D+00  0.000000D+00 -0.769638D+00  0.000000D+00
     18 -0.111773D+00  0.116069D-01  0.000000D+00  0.000000D+00 -0.781161D+00
               11            12            13            14            15 
     11 -0.493465D+01
     12  0.000000D+00 -0.409277D+01
     13  0.000000D+00  0.000000D+00 -0.409277D+01
     14  0.621059D-01  0.000000D+00  0.000000D+00 -0.412159D+01
     15 -0.411606D+01  0.000000D+00  0.000000D+00  0.508127D-01 -0.401333D+01
     16  0.000000D+00 -0.273228D+01  0.000000D+00  0.000000D+00  0.000000D+00
     17  0.000000D+00  0.000000D+00 -0.273228D+01  0.000000D+00  0.000000D+00
     18  0.319541D-01  0.000000D+00  0.000000D+00 -0.274656D+01  0.301575D-01
               16            17            18 
     16 -0.265342D+01
     17  0.000000D+00 -0.265342D+01
     18  0.000000D+00  0.000000D+00 -0.266197D+01
 SVDSVc IOpt=   1 NormSV=T IR=1
 SVDSVc V= 2.38D+00 1.89D+00 1.38D+00 1.31D+00 1.02D+00 8.26D-01 6.13D-01 2.98D-01 1.84D-01 1.01D-01
 SVDSVc IOpt=   1 NormSV=T IR=3
 SVDSVc V= 1.84D+00 1.25D+00 7.08D-01 2.01D-01
 SVDSVc IOpt=   1 NormSV=T IR=4
 SVDSVc V= 1.84D+00 1.25D+00 7.08D-01 2.01D-01
 TstOVc:  Largest diagonal error= 1.89D-15 IB=1 I=   10.
 TstOVc:  Largest same sym error= 1.14D-15 IB=1 I=    8 J=    5.
 TstOVc:  Largest diff sym error= 0.00D+00 IB=0 JB=0 I=    0 J=    0.
 Orthogonalized basis functions: 
                 1             2             3             4             5 
      1   0.318944D+00 -0.743556D-01  0.191066D+00 -0.143071D+00 -0.284974D+00
      2   0.216887D-01  0.138578D-01  0.301986D+00  0.313604D+00  0.624005D+00
      3   0.883214D-01  0.430343D-01  0.441332D+00  0.376734D+00  0.764514D-01
      4   0.000000D+00  0.000000D+00  0.000000D+00  0.000000D+00  0.000000D+00
      5   0.000000D+00  0.000000D+00  0.000000D+00  0.000000D+00  0.000000D+00
      6  -0.396187D-01  0.704572D-01 -0.201835D+00  0.434508D+00 -0.425950D+00
      7   0.230129D+00  0.965544D-01  0.285626D+00  0.158949D+00 -0.463426D+00
      8   0.000000D+00  0.000000D+00  0.000000D+00  0.000000D+00  0.000000D+00
      9   0.000000D+00  0.000000D+00  0.000000D+00  0.000000D+00  0.000000D+00
     10  -0.146161D+00  0.193189D+00 -0.256904D+00  0.459163D+00 -0.664585D-01
     11   0.313667D+00  0.239193D+00 -0.268400D+00 -0.134782D-01  0.206705D+00
     12   0.000000D+00  0.000000D+00  0.000000D+00  0.000000D+00  0.000000D+00
     13   0.000000D+00  0.000000D+00  0.000000D+00  0.000000D+00  0.000000D+00
     14  -0.159908D+00  0.431358D+00  0.158630D+00 -0.158542D+00 -0.386611D-01
     15   0.306946D+00  0.243572D+00 -0.263667D+00  0.717814D-02  0.225643D+00
     16   0.000000D+00  0.000000D+00  0.000000D+00  0.000000D+00  0.000000D+00
     17   0.000000D+00  0.000000D+00  0.000000D+00  0.000000D+00  0.000000D+00
     18  -0.127903D+00  0.409614D+00  0.213122D+00 -0.234365D+00 -0.811902D-01
                 6             7             8             9            10 
      1   0.330826D+00 -0.175735D+00  0.113103D+01  0.595716D+00 -0.554671D+00
      2   0.457686D+00 -0.526973D+00 -0.961078D-01 -0.279415D-01  0.663660D-02
      3  -0.316791D+00  0.822773D+00  0.245905D+00  0.799369D-01  0.271269D-01
      4   0.000000D+00  0.000000D+00  0.000000D+00  0.000000D+00  0.000000D+00
      5   0.000000D+00  0.000000D+00  0.000000D+00  0.000000D+00  0.000000D+00
      6   0.707218D+00  0.303653D+00 -0.310425D+00 -0.168840D-01  0.613566D-01
      7  -0.297439D+00 -0.570334D+00 -0.796708D+00 -0.336018D+00  0.290243D+00
      8   0.000000D+00  0.000000D+00  0.000000D+00  0.000000D+00  0.000000D+00
      9   0.000000D+00  0.000000D+00  0.000000D+00  0.000000D+00  0.000000D+00
     10  -0.397691D+00 -0.437595D+00  0.918329D+00  0.870541D-01 -0.257407D+00
     11  -0.307969D-02  0.101339D+00  0.104677D+00  0.225333D+00  0.221479D+01
     12   0.000000D+00  0.000000D+00  0.000000D+00  0.000000D+00  0.000000D+00
     13   0.000000D+00  0.000000D+00  0.000000D+00  0.000000D+00  0.000000D+00
     14   0.419973D-01 -0.116445D-01 -0.318235D+00  0.160941D+01 -0.301208D+00
     15  -0.509381D-01  0.152842D+00 -0.326243D+00 -0.354749D+00 -0.209707D+01
     16   0.000000D+00  0.000000D+00  0.000000D+00  0.000000D+00  0.000000D+00
     17   0.000000D+00  0.000000D+00  0.000000D+00  0.000000D+00  0.000000D+00
     18   0.201743D+00  0.502808D-01  0.458805D+00 -0.147374D+01  0.209545D+00
                11            12            13            14            15 
      1   0.000000D+00  0.000000D+00  0.000000D+00  0.000000D+00  0.000000D+00
      2   0.000000D+00  0.000000D+00  0.000000D+00  0.000000D+00  0.000000D+00
      3   0.000000D+00  0.000000D+00  0.000000D+00  0.000000D+00  0.000000D+00
      4   0.709850D-01  0.645112D+00 -0.813656D+00  0.880868D-01  0.000000D+00
      5   0.000000D+00  0.000000D+00  0.000000D+00  0.000000D+00  0.709850D-01
      6   0.000000D+00  0.000000D+00  0.000000D+00  0.000000D+00  0.000000D+00
      7   0.000000D+00  0.000000D+00  0.000000D+00  0.000000D+00  0.000000D+00
      8   0.188890D+00  0.576969D+00  0.841851D+00 -0.284389D+00  0.000000D+00
      9   0.000000D+00  0.000000D+00  0.000000D+00  0.000000D+00  0.188890D+00
     10   0.000000D+00  0.000000D+00  0.000000D+00  0.000000D+00  0.000000D+00
     11   0.000000D+00  0.000000D+00  0.000000D+00  0.000000D+00  0.000000D+00
     12   0.508568D+00 -0.118274D+00 -0.151283D-02  0.158900D+01  0.000000D+00
     13   0.000000D+00  0.000000D+00  0.000000D+00  0.000000D+00  0.508568D+00
     14   0.000000D+00  0.000000D+00  0.000000D+00  0.000000D+00  0.000000D+00
     15   0.000000D+00  0.000000D+00  0.000000D+00  0.000000D+00  0.000000D+00
     16   0.493792D+00 -0.191632D+00 -0.203508D+00 -0.154043D+01  0.000000D+00
     17   0.000000D+00  0.000000D+00  0.000000D+00  0.000000D+00  0.493792D+00
     18   0.000000D+00  0.000000D+00  0.000000D+00  0.000000D+00  0.000000D+00
                16            17            18 
      1   0.000000D+00  0.000000D+00  0.000000D+00
      2   0.000000D+00  0.000000D+00  0.000000D+00
      3   0.000000D+00  0.000000D+00  0.000000D+00
      4   0.000000D+00  0.000000D+00  0.000000D+00
      5   0.645112D+00 -0.813656D+00  0.880868D-01
      6   0.000000D+00  0.000000D+00  0.000000D+00
      7   0.000000D+00  0.000000D+00  0.000000D+00
      8   0.000000D+00  0.000000D+00  0.000000D+00
      9   0.576969D+00  0.841851D+00 -0.284389D+00
     10   0.000000D+00  0.000000D+00  0.000000D+00
     11   0.000000D+00  0.000000D+00  0.000000D+00
     12   0.000000D+00  0.000000D+00  0.000000D+00
     13  -0.118274D+00 -0.151283D-02  0.158900D+01
     14   0.000000D+00  0.000000D+00  0.000000D+00
     15   0.000000D+00  0.000000D+00  0.000000D+00
     16   0.000000D+00  0.000000D+00  0.000000D+00
     17  -0.191632D+00 -0.203508D+00 -0.154043D+01
     18   0.000000D+00  0.000000D+00  0.000000D+00
 NBasis=    18 RedAO= T EigKep=  1.01D-01  NBF=    10     0     4     4
 NBsUse=    18 1.00D-06 EigRej= -1.00D+00 NBFU=    10     0     4     4
 Leave Link  302 at Mon Mar 28 14:30:45 2022, MaxMem=  9663676416 cpu:               5.1 elap:               0.2
 (Enter /nopt/nrel/apps/gaussian/g16C_1/g16/l303.exe)
 DipDrv will not compute anything.
 Fermi contact integrals: 
                 1             2 
      1   0.628247D+00  0.745326D-01
      2   0.000000D+00  0.398968D+02
      3   0.000000D+00  0.785144D+00
      4   0.000000D+00  0.000000D+00
      5   0.000000D+00  0.000000D+00
      6  -0.103115D-05  0.000000D+00
      7   0.767321D-01  0.165565D-01
      8   0.000000D+00  0.000000D+00
      9   0.000000D+00  0.000000D+00
     10  -0.154467D+00  0.000000D+00
     11   0.335857D-01  0.394321D-02
     12   0.000000D+00  0.000000D+00
     13   0.000000D+00  0.000000D+00
     14  -0.406368D-01  0.000000D+00
     15   0.303640D-01  0.321567D-01
     16   0.000000D+00  0.000000D+00
     17   0.000000D+00  0.000000D+00
     18  -0.145444D-01  0.000000D+00
 Leave Link  303 at Mon Mar 28 14:30:45 2022, MaxMem=  9663676416 cpu:               0.9 elap:               0.0
 (Enter /nopt/nrel/apps/gaussian/g16C_1/g16/l401.exe)
 ExpMin= 1.61D-02 ExpMax= 1.72D+03 ExpMxC= 1.72D+03 IAcc=3 IRadAn=         5 AccDes= 0.00D+00
 Harris functional with IExCor=  205 and IRadAn=       5 diagonalized for initial guess.
 HarFok:  IExCor=  205 AccDes= 0.00D+00 IRadAn=         5 IDoV= 1 UseB2=F ITyADJ=14
 ICtDFT=  3500011 ScaDFX=  1.000000  1.000000  1.000000  1.000000
 FoFCou: FMM=F IPFlag=           0 FMFlag=      100000 FMFlg1=           0
         NFxFlg=           0 DoJE=T BraDBF=F KetDBF=T FulRan=T
         wScrn=  0.000000 ICntrl=       500 IOpCl=  0 I1Cent=   200000004 NGrid=           0
         NMat0=    1 NMatS0=      1 NMatT0=    0 NMatD0=    1 NMtDS0=    0 NMtDT0=    0
 Petite list used in FoFCou.
 Harris En= -595.609222800429    
 JPrj=0 DoOrth=F DoCkMO=F.
 Initial guess orbital symmetries:
       Occupied  (SG) (SG) (SG) (PI) (PI) (SG) (SG) (PI) (PI) (SG)
       Virtual   (SG) (PI) (PI) (SG) (SG) (PI) (PI) (SG)
 The electronic state of the initial guess is 1-SG.
 Leave Link  401 at Mon Mar 28 14:30:45 2022, MaxMem=  9663676416 cpu:               3.9 elap:               0.2
 (Enter /nopt/nrel/apps/gaussian/g16C_1/g16/l502.exe)
 Keep R1 ints in memory in symmetry-blocked form, NReq=7226195.
 FoFCou: FMM=F IPFlag=           0 FMFlag=           0 FMFlg1=           0
         NFxFlg=           0 DoJE=F BraDBF=F KetDBF=F FulRan=T
         wScrn=  0.000000 ICntrl=       600 IOpCl=  0 I1Cent=           0 NGrid=           0
         NMat0=    1 NMatS0=    171 NMatT0=    0 NMatD0=    1 NMtDS0=    0 NMtDT0=    0
 Petite list used in FoFCou.
 Closed shell SCF:
 Using DIIS extrapolation, IDIIS=  1040.
 NGot=  9663676416 LenX=  9663668636 LenY=  9663667754
 Requested convergence on RMS density matrix=1.00D-08 within 128 cycles.
 Requested convergence on MAX density matrix=1.00D-06.
 Requested convergence on             energy=1.00D-06.
 No special actions if energy rises.

 Cycle   1  Pass 1  IDiag  1:
 E= -596.114273465566    
 DIIS: error= 3.90D-02 at cycle   1 NSaved=   1.
 NSaved= 1 IEnMin= 1 EnMin= -596.114273465566     IErMin= 1 ErrMin= 3.90D-02
 ErrMax= 3.90D-02  0.00D+00 EMaxC= 1.00D-01 BMatC= 2.01D-02 BMatP= 2.01D-02
 IDIUse=3 WtCom= 6.10D-01 WtEn= 3.90D-01
 Coeff-Com:  0.100D+01
 Coeff-En:   0.100D+01
 Coeff:      0.100D+01
 Gap=     0.232 Goal=   None    Shift=    0.000
 GapD=    0.232 DampG=1.000 DampE=0.500 DampFc=0.5000 IDamp=-1.
 Damping current iteration by 5.00D-01
 RMSDP=1.73D-02 MaxDP=9.05D-02              OVMax= 0.00D+00

 Cycle   2  Pass 1  IDiag  1:
 E= -596.123776115669     Delta-E=       -0.009502650103 Rises=F Damp=T
 DIIS: error= 2.03D-02 at cycle   2 NSaved=   2.
 NSaved= 2 IEnMin= 2 EnMin= -596.123776115669     IErMin= 2 ErrMin= 2.03D-02
 ErrMax= 2.03D-02  0.00D+00 EMaxC= 1.00D-01 BMatC= 5.35D-03 BMatP= 2.01D-02
 IDIUse=3 WtCom= 7.97D-01 WtEn= 2.03D-01
 Coeff-Com: -0.105D+01 0.205D+01
 Coeff-En:   0.000D+00 0.100D+01
 Coeff:     -0.838D+00 0.184D+01
 Gap=     0.219 Goal=   None    Shift=    0.000
 RMSDP=1.04D-02 MaxDP=5.61D-02 DE=-9.50D-03 OVMax= 0.00D+00

 Cycle   3  Pass 1  IDiag  1:
 E= -596.134286675900     Delta-E=       -0.010510560231 Rises=F Damp=F
 DIIS: error= 7.09D-04 at cycle   3 NSaved=   3.
 NSaved= 3 IEnMin= 3 EnMin= -596.134286675900     IErMin= 3 ErrMin= 7.09D-04
 ErrMax= 7.09D-04  0.00D+00 EMaxC= 1.00D-01 BMatC= 1.42D-05 BMatP= 5.35D-03
 IDIUse=3 WtCom= 9.93D-01 WtEn= 7.09D-03
 Coeff-Com:  0.520D+00-0.103D+01 0.151D+01
 Coeff-En:   0.000D+00 0.000D+00 0.100D+01
 Coeff:      0.516D+00-0.102D+01 0.151D+01
 Gap=     0.216 Goal=   None    Shift=    0.000
 RMSDP=1.19D-03 MaxDP=6.81D-03 DE=-1.05D-02 OVMax= 0.00D+00

 Cycle   4  Pass 1  IDiag  1:
 E= -596.134341349497     Delta-E=       -0.000054673597 Rises=F Damp=F
 DIIS: error= 9.93D-05 at cycle   4 NSaved=   4.
 NSaved= 4 IEnMin= 4 EnMin= -596.134341349497     IErMin= 4 ErrMin= 9.93D-05
 ErrMax= 9.93D-05  0.00D+00 EMaxC= 1.00D-01 BMatC= 2.34D-07 BMatP= 1.42D-05
 IDIUse=1 WtCom= 1.00D+00 WtEn= 0.00D+00
 Coeff-Com: -0.109D+00 0.217D+00-0.415D+00 0.131D+01
 Coeff:     -0.109D+00 0.217D+00-0.415D+00 0.131D+01
 Gap=     0.216 Goal=   None    Shift=    0.000
 RMSDP=1.74D-04 MaxDP=1.18D-03 DE=-5.47D-05 OVMax= 0.00D+00

 Cycle   5  Pass 1  IDiag  1:
 E= -596.134342843241     Delta-E=       -0.000001493744 Rises=F Damp=F
 DIIS: error= 1.31D-05 at cycle   5 NSaved=   5.
 NSaved= 5 IEnMin= 5 EnMin= -596.134342843241     IErMin= 5 ErrMin= 1.31D-05
 ErrMax= 1.31D-05  0.00D+00 EMaxC= 1.00D-01 BMatC= 4.99D-09 BMatP= 2.34D-07
 IDIUse=1 WtCom= 1.00D+00 WtEn= 0.00D+00
 Coeff-Com:  0.206D-02-0.439D-02 0.173D-01-0.159D+00 0.114D+01
 Coeff:      0.206D-02-0.439D-02 0.173D-01-0.159D+00 0.114D+01
 Gap=     0.216 Goal=   None    Shift=    0.000
 RMSDP=2.37D-05 MaxDP=1.49D-04 DE=-1.49D-06 OVMax= 0.00D+00

 Cycle   6  Pass 1  IDiag  1:
 E= -596.134342889321     Delta-E=       -0.000000046080 Rises=F Damp=F
 DIIS: error= 3.71D-06 at cycle   6 NSaved=   6.
 NSaved= 6 IEnMin= 6 EnMin= -596.134342889321     IErMin= 6 ErrMin= 3.71D-06
 ErrMax= 3.71D-06  0.00D+00 EMaxC= 1.00D-01 BMatC= 3.50D-10 BMatP= 4.99D-09
 IDIUse=1 WtCom= 1.00D+00 WtEn= 0.00D+00
 Coeff-Com: -0.137D-02 0.277D-02-0.552D-02 0.344D-01-0.433D+00 0.140D+01
 Coeff:     -0.137D-02 0.277D-02-0.552D-02 0.344D-01-0.433D+00 0.140D+01
 Gap=     0.216 Goal=   None    Shift=    0.000
 RMSDP=9.39D-06 MaxDP=7.47D-05 DE=-4.61D-08 OVMax= 0.00D+00

 Cycle   7  Pass 1  IDiag  1:
 E= -596.134342893230     Delta-E=       -0.000000003909 Rises=F Damp=F
 DIIS: error= 4.55D-07 at cycle   7 NSaved=   7.
 NSaved= 7 IEnMin= 7 EnMin= -596.134342893230     IErMin= 7 ErrMin= 4.55D-07
 ErrMax= 4.55D-07  0.00D+00 EMaxC= 1.00D-01 BMatC= 4.06D-12 BMatP= 3.50D-10
 IDIUse=1 WtCom= 1.00D+00 WtEn= 0.00D+00
 Coeff-Com:  0.403D-03-0.810D-03 0.139D-02-0.823D-02 0.112D+00-0.446D+00
 Coeff-Com:  0.134D+01
 Coeff:      0.403D-03-0.810D-03 0.139D-02-0.823D-02 0.112D+00-0.446D+00
 Coeff:      0.134D+01
 Gap=     0.216 Goal=   None    Shift=    0.000
 RMSDP=1.59D-06 MaxDP=1.35D-05 DE=-3.91D-09 OVMax= 0.00D+00

 Cycle   8  Pass 1  IDiag  1:
 E= -596.134342893283     Delta-E=       -0.000000000053 Rises=F Damp=F
 DIIS: error= 5.75D-08 at cycle   8 NSaved=   8.
 NSaved= 8 IEnMin= 8 EnMin= -596.134342893283     IErMin= 8 ErrMin= 5.75D-08
 ErrMax= 5.75D-08  0.00D+00 EMaxC= 1.00D-01 BMatC= 6.04D-14 BMatP= 4.06D-12
 IDIUse=1 WtCom= 1.00D+00 WtEn= 0.00D+00
 Coeff-Com:  0.148D-04-0.282D-04 0.929D-04 0.258D-03-0.146D-01 0.780D-01
 Coeff-Com: -0.325D+00 0.126D+01
 Coeff:      0.148D-04-0.282D-04 0.929D-04 0.258D-03-0.146D-01 0.780D-01
 Coeff:     -0.325D+00 0.126D+01
 Gap=     0.216 Goal=   None    Shift=    0.000
 RMSDP=1.94D-07 MaxDP=1.28D-06 DE=-5.32D-11 OVMax= 0.00D+00

 Cycle   9  Pass 1  IDiag  1:
 E= -596.134342893282     Delta-E=        0.000000000001 Rises=F Damp=F
 DIIS: error= 5.36D-09 at cycle   9 NSaved=   9.
 NSaved= 9 IEnMin= 8 EnMin= -596.134342893283     IErMin= 9 ErrMin= 5.36D-09
 ErrMax= 5.36D-09  0.00D+00 EMaxC= 1.00D-01 BMatC= 6.55D-16 BMatP= 6.04D-14
 IDIUse=1 WtCom= 1.00D+00 WtEn= 0.00D+00
 Coeff-Com:  0.292D-05-0.592D-05 0.466D-05-0.635D-04 0.168D-02-0.896D-02
 Coeff-Com:  0.381D-01-0.226D+00 0.120D+01
 Coeff:      0.292D-05-0.592D-05 0.466D-05-0.635D-04 0.168D-02-0.896D-02
 Coeff:      0.381D-01-0.226D+00 0.120D+01
 Gap=     0.216 Goal=   None    Shift=    0.000
 RMSDP=2.35D-08 MaxDP=1.73D-07 DE= 1.02D-12 OVMax= 0.00D+00

 Cycle  10  Pass 1  IDiag  1:
 E= -596.134342893283     Delta-E=       -0.000000000001 Rises=F Damp=F
 DIIS: error= 6.35D-10 at cycle  10 NSaved=  10.
 NSaved=10 IEnMin= 8 EnMin= -596.134342893283     IErMin=10 ErrMin= 6.35D-10
 ErrMax= 6.35D-10  0.00D+00 EMaxC= 1.00D-01 BMatC= 4.15D-18 BMatP= 6.55D-16
 IDIUse=1 WtCom= 1.00D+00 WtEn= 0.00D+00
 Coeff-Com:  0.659D-08-0.355D-09 0.114D-05 0.276D-05-0.227D-03 0.140D-02
 Coeff-Com: -0.640D-02 0.441D-01-0.278D+00 0.124D+01
 Coeff:      0.659D-08-0.355D-09 0.114D-05 0.276D-05-0.227D-03 0.140D-02
 Coeff:     -0.640D-02 0.441D-01-0.278D+00 0.124D+01
 Gap=     0.216 Goal=   None    Shift=    0.000
 RMSDP=2.52D-09 MaxDP=2.79D-08 DE=-1.02D-12 OVMax= 0.00D+00

 SCF Done:  E(RHF) =  -596.134342893     A.U. after   10 cycles
            NFock= 10  Conv=0.25D-08     -V/T= 2.0004
 KE= 5.958877211621D+02 PE=-1.432209657509D+03 EE= 2.301332264463D+02
 Leave Link  502 at Mon Mar 28 14:30:45 2022, MaxMem=  9663676416 cpu:               2.9 elap:               0.1
 (Enter /nopt/nrel/apps/gaussian/g16C_1/g16/l801.exe)
 Windowed orbitals will be sorted by symmetry type.
 ExpMin= 1.61D-02 ExpMax= 1.72D+03 ExpMxC= 1.72D+03 IAcc=3 IRadAn=         5 AccDes= 0.00D+00
 HarFok:  IExCor=  205 AccDes= 0.00D+00 IRadAn=         5 IDoV=-2 UseB2=F ITyADJ=14
 ICtDFT= 12500011 ScaDFX=  1.000000  1.000000  1.000000  1.000000
 Largest valence mixing into a core orbital is  3.12D-02
 Largest core mixing into a valence orbital is  6.06D-03
 Range of M.O.s used for correlation:    10    18
 NBasis=    18 NAE=    10 NBE=    10 NFC=     9 NFV=     0
 NROrb=      9 NOA=     1 NOB=     1 NVA=     8 NVB=     8
 Leave Link  801 at Mon Mar 28 14:30:45 2022, MaxMem=  9663676416 cpu:               2.1 elap:               0.1
 (Enter /nopt/nrel/apps/gaussian/g16C_1/g16/l804.exe)
 Closed-shell transformation, MDV=  9663676416 ITran=4 ISComp=2.
 Unit  1 TFree=         12474 TCopy=        220948.
 Semi-Direct transformation.
 ModeAB=           2 MOrb=             1 LenV=    9663554723
 LASXX=           88 LTotXX=          88 LenRXX=          88
 LTotAB=         141 MaxLAS=        1539 LenRXY=        1539
 NonZer=        1755 LenScr=      785920 LnRSAI=           0
 LnScr1=           0 LExtra=      221969 Total=      1009516
 MaxDsk= 34359738368 SrtSym=           F ITran=            4
 DoSDTr:  NPSUse= 36
 JobTyp=0 Pass  1:  I=   1 to   1.
 (rs|ai) integrals will be sorted in core.
 Complete sort for first half transformation.
 First half transformation complete.
 Complete sort for second half transformation.
 Second half transformation complete.
 Spin components of T(2) and E(2):
     alpha-alpha T2 =       0.0000000000D+00 E2=      0.0000000000D+00
     alpha-beta  T2 =       0.1867057120D-01 E2=     -0.1205476126D-01
     beta-beta   T2 =       0.0000000000D+00 E2=      0.0000000000D+00
 ANorm=    0.1009292114D+01
 E2 =    -0.1205476126D-01 EUMP2 =    -0.59614639765454D+03
 Leave Link  804 at Mon Mar 28 14:30:45 2022, MaxMem=  9663676416 cpu:               1.3 elap:               0.1
 (Enter /nopt/nrel/apps/gaussian/g16C_1/g16/l913.exe)
 CIDS:  MDV=  9663676416.
 Frozen-core window:  NFC=   9 NFV=   0.
 IFCWin=0 IBDFC=1 NFBD=     0     0 NFCmp=     0     0 NFFFC=     0     0
 Using DD3R+UMP44R for 1st iteration.
 Using DD4RQ for 2nd and later iterations.
 Keep R2 and R3 ints in memory in symmetry-blocked form, NReq=7228601.
 FoFCou: FMM=F IPFlag=           0 FMFlag=           0 FMFlg1=           0
         NFxFlg=           0 DoJE=F BraDBF=F KetDBF=F FulRan=T
         wScrn=  0.000000 ICntrl=       600 IOpCl=  0 I1Cent=           0 NGrid=           0
         NMat0=    1 NMatS0=    171 NMatT0=    0 NMatD0=    1 NMtDS0=    0 NMtDT0=    0
 Petite list used in FoFCou.
 CIDS: In Core Option IDoMem=           1.
 Coupled Cluster theory with single and double substitutions
 ===========================================================
 Iterations= 200 Convergence= 0.100D-06
 Produce multiple copies of IABC intergrals
 Iteration Nr.   1
 **********************
 DD1Dir will call FoFMem   1 times, MxPair=         2
 NAB=     1 NAA=     0 NBB=     0.
 MP4(R+Q)=  0.22506928D-03
 Maximum subspace dimension=  5
 A-vector RMS=  1.8294618D-02 Max=  1.4882234D-02 conv= 1.00D-05.
 RLE energy=       -0.0185640648
 E3=       -0.44611155D-02        EUMP3=      -0.59615085877D+03
 E4(DQ)=   -0.15162669D-02        UMP4(DQ)=   -0.59615237504D+03
 E4(SDQ)=  -0.17238530D-02        UMP4(SDQ)=  -0.59615258262D+03
 VARIATIONAL ENERGIES WITH THE FIRST-ORDER WAVEFUNCTION:
 DE(Corr)= -0.16281653E-01 E(Corr)=     -596.15062455    
 NORM(A)=   0.10232416D+01
 Iteration Nr.   2
 **********************
 DD1Dir will call FoFMem   1 times, MxPair=         2
 NAB=     1 NAA=     0 NBB=     0.
 A-vector RMS=  9.6594277D-03 Max=  9.1590381D-03 conv= 1.00D-05.
 RLE energy=       -0.0193044230
 DE(Corr)= -0.18832155E-01 E(CORR)=     -596.15317505     Delta=-2.55D-03
 NORM(A)=   0.10272887D+01
 Iteration Nr.   3
 **********************
 DD1Dir will call FoFMem   1 times, MxPair=         2
 NAB=     1 NAA=     0 NBB=     0.
 A-vector RMS=  2.5405361D-03 Max=  2.8513107D-03 conv= 1.00D-05.
 RLE energy=       -0.0197540564
 DE(Corr)= -0.19421938E-01 E(CORR)=     -596.15376483     Delta=-5.90D-04
 NORM(A)=   0.10297676D+01
 Iteration Nr.   4
 **********************
 DD1Dir will call FoFMem   1 times, MxPair=         2
 NAB=     1 NAA=     0 NBB=     0.
 A-vector RMS=  5.4446349D-04 Max=  5.8988867D-04 conv= 1.00D-05.
 RLE energy=       -0.0196293262
 DE(Corr)= -0.19686468E-01 E(CORR)=     -596.15402936     Delta=-2.65D-04
 NORM(A)=   0.10295919D+01
 Iteration Nr.   5
 **********************
 DD1Dir will call FoFMem   1 times, MxPair=         2
 NAB=     1 NAA=     0 NBB=     0.
 A-vector RMS=  3.0230182D-04 Max=  2.8098363D-04 conv= 1.00D-05.
 RLE energy=       -0.0197025415
 DE(Corr)= -0.19648644E-01 E(CORR)=     -596.15399154     Delta= 3.78D-05
 NORM(A)=   0.10299472D+01
 Iteration Nr.   6
 **********************
 DD1Dir will call FoFMem   1 times, MxPair=         2
 NAB=     1 NAA=     0 NBB=     0.
 A-vector RMS=  8.9400085D-05 Max=  9.5503400D-05 conv= 1.00D-05.
 RLE energy=       -0.0196608393
 DE(Corr)= -0.19680262E-01 E(CORR)=     -596.15402316     Delta=-3.16D-05
 NORM(A)=   0.10297858D+01
 Iteration Nr.   7
 **********************
 DD1Dir will call FoFMem   1 times, MxPair=         2
 NAB=     1 NAA=     0 NBB=     0.
 A-vector RMS=  1.8539934D-05 Max=  1.4644389D-05 conv= 1.00D-05.
 RLE energy=       -0.0196635537
 DE(Corr)= -0.19662228E-01 E(CORR)=     -596.15400512     Delta= 1.80D-05
 NORM(A)=   0.10297990D+01
 Iteration Nr.   8
 **********************
 DD1Dir will call FoFMem   1 times, MxPair=         2
 NAB=     1 NAA=     0 NBB=     0.
 A-vector RMS=  4.7272744D-06 Max=  3.5502950D-06 conv= 1.00D-05.
 RLE energy=       -0.0196636432
 DE(Corr)= -0.19663562E-01 E(CORR)=     -596.15400646     Delta=-1.33D-06
 NORM(A)=   0.10297996D+01
 Iteration Nr.   9
 **********************
 DD1Dir will call FoFMem   1 times, MxPair=         2
 NAB=     1 NAA=     0 NBB=     0.
 A-vector RMS=  1.5703748D-06 Max=  1.4034600D-06 conv= 1.00D-05.
 RLE energy=       -0.0196635619
 DE(Corr)= -0.19663616E-01 E(CORR)=     -596.15400651     Delta=-5.36D-08
 NORM(A)=   0.10297991D+01
 CI/CC converged in    9 iterations to DelEn=-5.36D-08 Conv= 1.00D-07 ErrA1= 1.57D-06 Conv= 1.00D-05
 Wavefunction amplitudes converged. E(Corr)=     -596.15400651    
 Largest amplitude= 7.89D-02
 Discarding MO integrals.
 Leave Link  913 at Mon Mar 28 14:30:46 2022, MaxMem=  9663676416 cpu:               4.1 elap:               0.1
 (Enter /nopt/nrel/apps/gaussian/g16C_1/g16/l601.exe)
 Copying SCF densities to generalized density rwf, IOpCl= 0 IROHF=0.

 **********************************************************************

            Population analysis using the SCF Density.

 **********************************************************************

 Orbital symmetries:
       Occupied  (SG) (SG) (SG) (PI) (PI) (SG) (SG) (PI) (PI) (SG)
       Virtual   (SG) (PI) (PI) (SG) (SG) (PI) (PI) (SG)
 The electronic state is 1-SG.
 Alpha  occ. eigenvalues -- -132.85290 -14.63597 -11.65679 -11.64721 -11.64721
 Alpha  occ. eigenvalues --   -1.96531  -1.23032  -1.09498  -1.09498  -0.20206
 Alpha virt. eigenvalues --    0.01365   0.02372   0.02372   0.05729   0.08787
 Alpha virt. eigenvalues --    0.09810   0.09810   0.31248
          Condensed to atoms (all electrons):
               1          2
     1  H    0.562539   0.205850
     2  K    0.205850  19.025760
 Mulliken charges:
               1
     1  H    0.231611
     2  K   -0.231611
 Sum of Mulliken charges =  -0.00000
 Mulliken charges with hydrogens summed into heavy atoms:
               1
     2  K   -0.000000
 N-N= 1.005436700748D+01 E-N=-1.432209657491D+03  KE= 5.958877211621D+02
 Symmetry A1   KE= 4.705642615267D+02
 Symmetry A2   KE= 0.000000000000D+00
 Symmetry B1   KE= 6.266172981772D+01
 Symmetry B2   KE= 6.266172981772D+01

 Atomic contributions to Alpha molecular orbitals:
 Alpha occ 1 OE=-132.853 is K2-s=0.9999
 Alpha occ 2 OE=-14.636 is K2-s=1.0011
 Alpha occ 3 OE=-11.657 is K2-p=1.0006
 Alpha occ 4 OE=-11.647 is K2-p=1.0000
 Alpha occ 5 OE=-11.647 is K2-p=1.0000
 Alpha occ 6 OE=-1.965 is K2-s=0.9204
 Alpha occ 7 OE=-1.230 is K2-p=0.8141 H1-s=0.1353
 Alpha occ 8 OE=-1.095 is K2-p=1.0000
 Alpha occ 9 OE=-1.095 is K2-p=1.0000
 Alpha occ 10 OE=-0.202 is K2-s=0.7408 H1-s=0.1897
 Alpha vir 11 OE=0.014 is K2-p=0.7865 K2-s=0.1964
 Alpha vir 12 OE=0.024 is K2-p=1.0000
 Alpha vir 13 OE=0.024 is K2-p=1.0000
 Alpha vir 14 OE=0.057 is K2-s=0.7126 K2-p=0.2522
 Alpha vir 15 OE=0.088 is K2-p=0.8494 K2-s=0.1466
 Alpha vir 16 OE=0.098 is K2-p=1.0000
 Alpha vir 17 OE=0.098 is K2-p=1.0000
 Alpha vir 18 OE=0.312 is H1-s=0.5595 K2-s=0.2313 K2-p=0.2092
 
 Leave Link  601 at Mon Mar 28 14:30:46 2022, MaxMem=  9663676416 cpu:               2.3 elap:               0.1
 (Enter /nopt/nrel/apps/gaussian/g16C_1/g16/l9999.exe)

 Test job not archived.
 1\1\GINC-R102U34\SP\RCCSD-FC\Gen\H1K1\USER\28-Mar-2022\0\\#P CCSD(
 MaxCyc=200,SaveAmplitudes,ReadAmplitudes)/GEN sp pop=AllOrbitals iop(3
 /33=1,3/36=-1)\\test\\0,1\H,0,0.,0.,0.\K,0,0.,0.,1.\\Version=ES64L-G16
 RevC.01\State=1-SG\HF=-596.1343429\MP2=-596.1463977\MP3=-596.1508588\M
 P4D=-596.1526001\MP4DQ=-596.152375\MP4SDQ=-596.1525826\CCSD=-596.15400
 65\RMSD=2.516e-09\PG=C*V [C*(H1K1)]\\@


 ROSE IS A RED
 TY COBB IS BLUE
 'CAUSE PETE JUST HIT
 NO. 4592.
 Job cpu time:       0 days  0 hours  0 minutes 32.6 seconds.
 Elapsed time:       0 days  0 hours  0 minutes  1.2 seconds.
 File lengths (MBytes):  RWF=     13 Int=      0 D2E=      0 Chk=      1 Scr=      1
 Normal termination of Gaussian 16 at Mon Mar 28 14:30:46 2022.
