 Entering Gaussian System, Link 0=g16
 Initial command:
 /nopt/nrel/apps/gaussian/g16C_1/g16/l1.exe "/lustre/eaglefs/scratch/user/qc/nah-dissc/nah-1-ccsd-2.8-321g/Gau-4619.inp" -scrdir="/lustre/eaglefs/scratch/user/qc/nah-dissc/nah-1-ccsd-2.8-321g/"
 Default is to use a total of  36 processors:
                               36 via shared-memory
                                1 via Linda
 Entering Link 1 = /nopt/nrel/apps/gaussian/g16C_1/g16/l1.exe PID=      4620.
  
 Copyright (c) 1988-2019, Gaussian, Inc.  All Rights Reserved.
  
 This is part of the Gaussian(R) 16 program.  It is based on
 the Gaussian(R) 09 system (copyright 2009, Gaussian, Inc.),
 the Gaussian(R) 03 system (copyright 2003, Gaussian, Inc.),
 the Gaussian(R) 98 system (copyright 1998, Gaussian, Inc.),
 the Gaussian(R) 94 system (copyright 1995, Gaussian, Inc.),
 the Gaussian 92(TM) system (copyright 1992, Gaussian, Inc.),
 the Gaussian 90(TM) system (copyright 1990, Gaussian, Inc.),
 the Gaussian 88(TM) system (copyright 1988, Gaussian, Inc.),
 the Gaussian 86(TM) system (copyright 1986, Carnegie Mellon
 University), and the Gaussian 82(TM) system (copyright 1983,
 Carnegie Mellon University). Gaussian is a federally registered
 trademark of Gaussian, Inc.
  
 This software contains proprietary and confidential information,
 including trade secrets, belonging to Gaussian, Inc.
  
 This software is provided under written license and may be
 used, copied, transmitted, or stored only in accord with that
 written license.
  
 The following legend is applicable only to US Government
 contracts under FAR:
  
                    RESTRICTED RIGHTS LEGEND
  
 Use, reproduction and disclosure by the US Government is
 subject to restrictions as set forth in subparagraphs (a)
 and (c) of the Commercial Computer Software - Restricted
 Rights clause in FAR 52.227-19.
  
 Gaussian, Inc.
 340 Quinnipiac St., Bldg. 40, Wallingford CT 06492
  
  
 ---------------------------------------------------------------
 Warning -- This program may not be used in any manner that
 competes with the business of Gaussian, Inc. or will provide
 assistance to any competitor of Gaussian, Inc.  The licensee
 of this program is prohibited from giving any competitor of
 Gaussian, Inc. access to this program.  By using this program,
 the user acknowledges that Gaussian, Inc. is engaged in the
 business of creating and licensing software in the field of
 computational chemistry and represents and warrants to the
 licensee that it is not a competitor of Gaussian, Inc. and that
 it will not use this program in any manner prohibited above.
 ---------------------------------------------------------------
  

 Cite this work as:
 Gaussian 16, Revision C.01,
 M. J. Frisch, G. W. Trucks, H. B. Schlegel, G. E. Scuseria, 
 M. A. Robb, J. R. Cheeseman, G. Scalmani, V. Barone, 
 G. A. Petersson, H. Nakatsuji, X. Li, M. Caricato, A. V. Marenich, 
 J. Bloino, B. G. Janesko, R. Gomperts, B. Mennucci, H. P. Hratchian, 
 J. V. Ortiz, A. F. Izmaylov, J. L. Sonnenberg, D. Williams-Young, 
 F. Ding, F. Lipparini, F. Egidi, J. Goings, B. Peng, A. Petrone, 
 T. Henderson, D. Ranasinghe, V. G. Zakrzewski, J. Gao, N. Rega, 
 G. Zheng, W. Liang, M. Hada, M. Ehara, K. Toyota, R. Fukuda, 
 J. Hasegawa, M. Ishida, T. Nakajima, Y. Honda, O. Kitao, H. Nakai, 
 T. Vreven, K. Throssell, J. A. Montgomery, Jr., J. E. Peralta, 
 F. Ogliaro, M. J. Bearpark, J. J. Heyd, E. N. Brothers, K. N. Kudin, 
 V. N. Staroverov, T. A. Keith, R. Kobayashi, J. Normand, 
 K. Raghavachari, A. P. Rendell, J. C. Burant, S. S. Iyengar, 
 J. Tomasi, M. Cossi, J. M. Millam, M. Klene, C. Adamo, R. Cammi, 
 J. W. Ochterski, R. L. Martin, K. Morokuma, O. Farkas, 
 J. B. Foresman, and D. J. Fox, Gaussian, Inc., Wallingford CT, 2019.
 
 ******************************************
 Gaussian 16:  ES64L-G16RevC.01  3-Jul-2019
                28-Mar-2022 
 ******************************************
 %chk=molecule
 Default route: CacheSize=180224 MaxDisk=256GB
 ----------------------------------------------------------------------
 #P CCSD(MaxCyc=200,SaveAmplitudes,ReadAmplitudes)/GEN sp pop=AllOrbita
 ls iop(3/33=1,3/36=-1)
 ----------------------------------------------------------------------
 1/4=180224,38=1,172=1/1;
 2/4=180224,12=2,17=6,18=5,40=1/2;
 3/4=180224,5=7,11=9,25=1,30=1,33=1,36=-1/1,2,3;
 4/4=180224/1;
 5/4=180224,5=2,38=5/2;
 8/4=180224,6=4,9=120000,10=1,24=1/1,4;
 9/4=180224,5=7,6=200,77=1/13;
 6/4=180224,7=2,8=2,9=2,10=2,96=-1/1;
 99/4=180224,5=1,9=1/99;
 Leave Link    1 at Mon Mar 28 14:19:37 2022, MaxMem=           0 cpu:               2.4 elap:               0.1
 (Enter /nopt/nrel/apps/gaussian/g16C_1/g16/l101.exe)
 ----
 test
 ----
 Symbolic Z-matrix:
 Charge =  0 Multiplicity = 1
 H                     0.        0.        0. 
 Na                    0.        0.        2.8 
 
 ITRead=  0  0
 MicOpt= -1 -1
 NAtoms=      2 NQM=        2 NQMF=       0 NMMI=      0 NMMIF=      0
                NMic=       0 NMicF=      0.
                    Isotopes and Nuclear Properties:
 (Nuclear quadrupole moments (NQMom) in fm**2, nuclear magnetic moments (NMagM)
  in nuclear magnetons)

  Atom         1           2
 IAtWgt=           1          23
 AtmWgt=   1.0078250  22.9897697
 NucSpn=           1           3
 AtZEff=  -0.0000000  -0.0000000
 NQMom=    0.0000000  10.4000000
 NMagM=    2.7928460   2.2175200
 AtZNuc=   1.0000000  11.0000000
 Leave Link  101 at Mon Mar 28 14:19:37 2022, MaxMem=  9663676416 cpu:               3.0 elap:               0.1
 (Enter /nopt/nrel/apps/gaussian/g16C_1/g16/l202.exe)
                          Input orientation:                          
 ---------------------------------------------------------------------
 Center     Atomic      Atomic             Coordinates (Angstroms)
 Number     Number       Type             X           Y           Z
 ---------------------------------------------------------------------
      1          1           0        0.000000    0.000000    0.000000
      2         11           0        0.000000    0.000000    2.800000
 ---------------------------------------------------------------------
 Stoichiometry    HNa
 Framework group  C*V[C*(HNa)]
 Deg. of freedom     1
 Full point group                 C*V     NOp   4
 Largest Abelian subgroup         C2V     NOp   4
 Largest concise Abelian subgroup C1      NOp   1
                         Standard orientation:                         
 ---------------------------------------------------------------------
 Center     Atomic      Atomic             Coordinates (Angstroms)
 Number     Number       Type             X           Y           Z
 ---------------------------------------------------------------------
      1          1           0        0.000000    0.000000   -2.566667
      2         11           0        0.000000    0.000000    0.233333
 ---------------------------------------------------------------------
 Rotational constants (GHZ):           0.0000000          66.7650361          66.7650361
 Leave Link  202 at Mon Mar 28 14:19:37 2022, MaxMem=  9663676416 cpu:               1.0 elap:               0.0
 (Enter /nopt/nrel/apps/gaussian/g16C_1/g16/l301.exe)
 General basis read from cards:  (5D, 7F)
                         Coordinates in L301:                         
 ---------------------------------------------------------------------
 Center     Atomic      Atomic             Coordinates (Angstroms)
 Number     Number       Type             X           Y           Z
 ---------------------------------------------------------------------
      1          1           0        0.000000    0.000000   -2.566667
      2         11           0        0.000000    0.000000    0.233333
 ---------------------------------------------------------------------
 Centers:       1
 STO-3G
 ****
 Centers:       2
 3-21G
 ****
 FixB: optimizing general contractions.
 Ernie: Thresh=  0.10000D-02 Tol=  0.10000D-05 Strict=F.
 IA=     1 ShT= 0 ShC= 0 NL=   1 NS=   0.
 IA=     1 L=0 SC=0 ISt=    0 NBk=    0 NP=    0 IndPr=    0.
 IA=     2 ShT= 0 ShC= 0 NL=   1 NS=   0.
 IA=     2 L=0 SC=0 ISt=    0 NBk=    0 NP=    0 IndPr=    0.
 IA=     2 ShT= 1 ShC= 0 NL=   3 NS=   1.
 IA=     2 L=1 SC=0 ISt=    1 NBk=    2 NP=    5 IndPr=    0.
 DoElim1:  L=1 select primitive    1 from    2 using    1 C=-1.12D-01
 DoElim2:  L=1 select primitive    5 from    1 using    2 C= 1.09D+00
 DoElim1:  L=1 select primitive    1 from    2 using    1 C= 1.28D-01
 DoElim2:  L=1 select primitive    5 from    1 using    2 C= 9.97D-01
 Delete L=1 primitive    3 from    2 C=  0.00D+00.
 Delete L=1 primitive    2 from    2 C=  0.00D+00.
 Delete L=1 primitive    1 from    2 C=  0.00D+00.
 Delete L=1 primitive    5 from    1 C=  0.00D+00.
 Delete L=1 primitive    4 from    1 C=  0.00D+00.
 IA=     2 L=1 SC=0 ISt=    0 NBk=    0 NP=    0 IndPr=    5.
 LdAtmC:  AtmChg=     1.000000    11.000000
 AtZEff=     -1.0000000    -10.0400000
 NEqShl: 
              1            2            3            4
     1            1            1            1            1
     2            2            2            2            2
     3            3            3            3            3
     4            4            4            4            4
     5            5            5            5            5
 NEqBas: 
              1            2            3            4
     1            1            1            1            1
     2            2            2            2            2
     3            3            3            3            3
     4            4           -4           -4            4
     5            5           -5            5           -5
     6            6            6            6            6
     7            7            7            7            7
     8            8           -8           -8            8
     9            9           -9            9           -9
    10           10           10           10           10
    11           11           11           11           11
    12           12          -12          -12           12
    13           13          -13           13          -13
    14           14           14           14           14
 There are     8 symmetry adapted cartesian basis functions of A1  symmetry.
   1         1   1   1   1
   2         2   2   2   2
   3         3   3   3   3
   4         6   6   6   6
   5         7   7   7   7
   6        10  10  10  10
   7        11  11  11  11
   8        14  14  14  14
 There are     0 symmetry adapted cartesian basis functions of A2  symmetry.
 There are     3 symmetry adapted cartesian basis functions of B1  symmetry.
   9         4   4   4   4
  10         8   8   8   8
  11        12  12  12  12
 There are     3 symmetry adapted cartesian basis functions of B2  symmetry.
  12         5   5   5   5
  13         9   9   9   9
  14        13  13  13  13
 Order= 1 2 4 3
 Reordered character table:
              1            2            3            4            5
     1            1            1            1            1            1
     2            2            1            1           -1           -1
     3            4            1           -1           -1            1
     4            3            1           -1            1           -1
 NEqShl: 
              1            2            3            4
     1            1            1            1            1
     2            2            2            2            2
     3            3            3            3            3
     4            4            4            4            4
     5            5            5            5            5
 NEqBas: 
              1            2            3            4
     1            1            1            1            1
     2            2            2            2            2
     3            3            3            3            3
     4            4           -4           -4            4
     5            5           -5            5           -5
     6            6            6            6            6
     7            7            7            7            7
     8            8           -8           -8            8
     9            9           -9            9           -9
    10           10           10           10           10
    11           11           11           11           11
    12           12          -12          -12           12
    13           13          -13           13          -13
    14           14           14           14           14
 There are     8 symmetry adapted basis functions of A1  symmetry.
   1         1   1   1   1
   2         2   2   2   2
   3         3   3   3   3
   4         6   6   6   6
   5         7   7   7   7
   6        10  10  10  10
   7        11  11  11  11
   8        14  14  14  14
 There are     0 symmetry adapted basis functions of A2  symmetry.
 There are     3 symmetry adapted basis functions of B1  symmetry.
   9         4   4   4   4
  10         8   8   8   8
  11        12  12  12  12
 There are     3 symmetry adapted basis functions of B2  symmetry.
  12         5   5   5   5
  13         9   9   9   9
  14        13  13  13  13
 Order= 1 2 4 3
 Reordered character table:
              1            2            3            4            5
     1            1            1            1            1            1
     2            2            1            1           -1           -1
     3            4            1           -1           -1            1
     4            3            1           -1            1           -1
    14 basis functions,    30 primitive gaussians,    14 cartesian basis functions
     6 alpha electrons        6 beta electrons
       nuclear repulsion energy         2.0789104715 Hartrees.
 IS=     1 IAt=     1 ISR=     1 T=0 IP=      1 IndIP=      1 IndIPD=      0 C=  2.769344D-01  0.000000D+00                             NZ=T
 IS=     1 IAt=     1 ISR=     1 T=0 IP=      2 IndIP=      2 IndIPD=      1 C=  2.678389D-01  0.000000D+00                             NZ=T
 IS=     1 IAt=     1 ISR=     1 T=0 IP=      3 IndIP=      3 IndIPD=      2 C=  8.347367D-02  0.000000D+00                             NZ=T
 IS=     2 IAt=     2 ISR=     1 T=0 IP=      1 IndIP=      4 IndIPD=      0 C=  5.445177D+00  0.000000D+00                             NZ=T
 IS=     2 IAt=     2 ISR=     1 T=0 IP=      2 IndIP=      5 IndIPD=      1 C=  7.646982D+00  0.000000D+00                             NZ=T
 IS=     2 IAt=     2 ISR=     1 T=0 IP=      3 IndIP=      6 IndIPD=      2 C=  4.092173D+00  0.000000D+00                             NZ=T
 IS=     3 IAt=     2 ISR=     2 T=1 IP=      1 IndIP=      7 IndIPD=      0 C= -6.837842D-01  6.561431D+00                             NZ=T
 IS=     3 IAt=     2 ISR=     2 T=1 IP=      2 IndIP=      8 IndIPD=      1 C=  4.933805D-01  3.558943D+00                             NZ=T
 IS=     3 IAt=     2 ISR=     2 T=1 IP=      3 IndIP=      9 IndIPD=      2 C=  5.590773D-01  7.618119D-01                             NZ=T
 IS=     4 IAt=     2 ISR=     3 T=1 IP=      1 IndIP=     10 IndIPD=      0 C= -9.334168D-02  5.458439D-03                             NZ=T
 IS=     4 IAt=     2 ISR=     3 T=1 IP=      2 IndIP=     11 IndIPD=      1 C=  9.521265D-02  4.304303D-02                             NZ=T
 IS=     5 IAt=     2 ISR=     4 T=1 IP=      1 IndIP=     12 IndIPD=      0 C=  4.404717D-02  1.377061D-02                             NZ=T
 IExCor=    0 DFT=F Ex=HF Corr=None ExCW=0 ScaHFX=  1.000000
 ScaDFX=  1.000000  1.000000  1.000000  1.000000 ScalE2=  1.000000  1.000000
 IRadAn=      5 IRanWt=     -1 IRanGd=            0 ICorTp=0 IEmpDi=  4
 NAtoms=    2 NActive=    2 NUniq=    2 SFac= 1.00D+00 NAtFMM=   60 NAOKFM=F Big=F
 Integral buffers will be    131072 words long.
 Raffenetti 1 integral format.
 Two-electron integral symmetry is turned on.
 Leave Link  301 at Mon Mar 28 14:19:37 2022, MaxMem=  9663676416 cpu:               2.0 elap:               0.1
 (Enter /nopt/nrel/apps/gaussian/g16C_1/g16/l302.exe)
 NPDir=0 NMtPBC=     1 NCelOv=     1 NCel=       1 NClECP=     1 NCelD=      1
         NCelK=      1 NCelE2=     1 NClLst=     1 CellRange=     0.0.
 One-electron integrals computed using PRISM.
 One-electron integral symmetry used in STVInt
 Entering OneElI...
 Calculate overlap and kinetic energy integrals
    NBasis =  14  MinDer = 0  MaxDer = 0
 Requested accuracy = 0.1000D-12
 Symmetry will be used
 PrmmSu-InSpLW:  IPartL=    0 NPrtUS=   36 NPrtUL=    1 DoSpLW=F IThBeg=    0 IThEnd=   35 NThAct=   36.
 PrSmSu:  IncTry=   512 NBBP=             15 NTPThr=   100 NPartT=   36 Incr=           1 LDynOK=F GPUOK=F.
 PrsmSu:  NPrtUS=  36 ThrOK=T IAlg=1 LenDen=           0 ISkipM=0 DoSpLW=F IThBeg=    0 IThEnd=   35.
 Prism:   IPart=     0 DynPar=F LinDyn=F Incr=           1.
 PRISM was handed   268433858 working-precision words and    15 shell-pairs
 PRISM was handed   268433858 working-precision words and    15 shell-pairs
 PRISM was handed   268433858 working-precision words and    15 shell-pairs
 PRISM was handed   268433858 working-precision words and    15 shell-pairs
 PRISM was handed   268433858 working-precision words and    15 shell-pairs
 PRISM was handed   268433858 working-precision words and    15 shell-pairs
 PRISM was handed   268433858 working-precision words and    15 shell-pairs
 IPart=  8 NShTot=           0 NBatch=           0 AvBLen=         0.0
 IPart= 13 NShTot=           0 NBatch=           0 AvBLen=         0.0
 IPart= 17 NShTot=           0 NBatch=           0 AvBLen=         0.0
 IPart= 32 NShTot=           0 NBatch=           0 AvBLen=         0.0
 IPart= 15 NShTot=           0 NBatch=           0 AvBLen=         0.0
 PRISM was handed   268433858 working-precision words and    15 shell-pairs
 PRISM was handed   268433858 working-precision words and    15 shell-pairs
 PRISM was handed   268433858 working-precision words and    15 shell-pairs
 PRISM was handed   268433858 working-precision words and    15 shell-pairs
 IPart= 25 NShTot=           0 NBatch=           0 AvBLen=         0.0
 IPart= 27 NShTot=           0 NBatch=           0 AvBLen=         0.0
 IPart= 18 NShTot=           0 NBatch=           0 AvBLen=         0.0
 PRISM was handed   268433858 working-precision words and    15 shell-pairs
 PRISM was handed   268433858 working-precision words and    15 shell-pairs
 IPart= 23 NShTot=           0 NBatch=           0 AvBLen=         0.0
 IPart=  1 NShTot=           3 NBatch=           3 AvBLen=         1.0
 IPart= 20 NShTot=           0 NBatch=           0 AvBLen=         0.0
 PRISM was handed   268433858 working-precision words and    15 shell-pairs
 PRISM was handed   268433858 working-precision words and    15 shell-pairs
 PRISM was handed   268433858 working-precision words and    15 shell-pairs
 PRISM was handed   268433858 working-precision words and    15 shell-pairs
 IPart= 35 NShTot=           0 NBatch=           0 AvBLen=         0.0
 PRISM was handed   268433858 working-precision words and    15 shell-pairs
 PRISM was handed   268433858 working-precision words and    15 shell-pairs
 IPart= 29 NShTot=           0 NBatch=           0 AvBLen=         0.0
 IPart= 21 NShTot=           0 NBatch=           0 AvBLen=         0.0
 IPart= 10 NShTot=           0 NBatch=           0 AvBLen=         0.0
 PRISM was handed   268433858 working-precision words and    15 shell-pairs
 PRISM was handed   268433858 working-precision words and    15 shell-pairs
 IPart= 22 NShTot=           0 NBatch=           0 AvBLen=         0.0
 PRISM was handed   268433858 working-precision words and    15 shell-pairs
 IPart=  2 NShTot=           0 NBatch=           0 AvBLen=         0.0
 IPart= 11 NShTot=           0 NBatch=           0 AvBLen=         0.0
 PRISM was handed   268433858 working-precision words and    15 shell-pairs
 PRISM was handed   268433858 working-precision words and    15 shell-pairs
 PRISM was handed   268433858 working-precision words and    15 shell-pairs
 PRISM was handed   268433858 working-precision words and    15 shell-pairs
 PRISM was handed   268433858 working-precision words and    15 shell-pairs
 IPart=  7 NShTot=           0 NBatch=           0 AvBLen=         0.0
 IPart= 24 NShTot=           0 NBatch=           0 AvBLen=         0.0
 IPart= 19 NShTot=           0 NBatch=           0 AvBLen=         0.0
 IPart= 33 NShTot=           0 NBatch=           0 AvBLen=         0.0
 IPart=  9 NShTot=           0 NBatch=           0 AvBLen=         0.0
 PRISM was handed   268433858 working-precision words and    15 shell-pairs
 PRISM was handed   268433858 working-precision words and    15 shell-pairs
 IPart= 14 NShTot=           0 NBatch=           0 AvBLen=         0.0
 IPart= 16 NShTot=           0 NBatch=           0 AvBLen=         0.0
 PRISM was handed   268433858 working-precision words and    15 shell-pairs
 IPart= 34 NShTot=           0 NBatch=           0 AvBLen=         0.0
 IPart=  0 NShTot=          12 NBatch=          12 AvBLen=         1.0
 IPart=  6 NShTot=           0 NBatch=           0 AvBLen=         0.0
 IPart=  3 NShTot=           0 NBatch=           0 AvBLen=         0.0
 PRISM was handed   268433858 working-precision words and    15 shell-pairs
 IPart= 12 NShTot=           0 NBatch=           0 AvBLen=         0.0
 PRISM was handed   268433858 working-precision words and    15 shell-pairs
 PRISM was handed   268433858 working-precision words and    15 shell-pairs
 PRISM was handed   268433858 working-precision words and    15 shell-pairs
 PRISM was handed   268433858 working-precision words and    15 shell-pairs
 PRISM was handed   268433858 working-precision words and    15 shell-pairs
 IPart= 31 NShTot=           0 NBatch=           0 AvBLen=         0.0
 IPart=  4 NShTot=           0 NBatch=           0 AvBLen=         0.0
 IPart= 28 NShTot=           0 NBatch=           0 AvBLen=         0.0
 IPart=  5 NShTot=           0 NBatch=           0 AvBLen=         0.0
 IPart= 26 NShTot=           0 NBatch=           0 AvBLen=         0.0
 IPart= 30 NShTot=           0 NBatch=           0 AvBLen=         0.0
 PrSmSu:  NxtVal=             37.
 *** Overlap *** 
                1             2             3             4             5 
      1  0.100000D+01
      2  0.277515D-03  0.100000D+01
      3  0.462188D-02  0.226762D+00  0.100000D+01
      4  0.000000D+00  0.000000D+00  0.000000D+00  0.100000D+01
      5  0.000000D+00  0.000000D+00  0.000000D+00  0.000000D+00  0.100000D+01
      6 -0.547779D-02  0.000000D+00  0.000000D+00  0.000000D+00  0.000000D+00
      7  0.169479D+00  0.175172D-02  0.143132D+00  0.000000D+00  0.000000D+00
      8  0.000000D+00  0.000000D+00  0.000000D+00  0.120813D+00  0.000000D+00
      9  0.000000D+00  0.000000D+00  0.000000D+00  0.000000D+00  0.120813D+00
     10 -0.327009D+00  0.000000D+00  0.000000D+00  0.000000D+00  0.000000D+00
     11  0.203057D+00  0.160858D-01  0.166618D+00  0.000000D+00  0.000000D+00
     12  0.000000D+00  0.000000D+00  0.000000D+00  0.399192D-01  0.000000D+00
     13  0.000000D+00  0.000000D+00  0.000000D+00  0.000000D+00  0.399192D-01
     14 -0.304061D+00  0.000000D+00  0.000000D+00  0.000000D+00  0.000000D+00
                6             7             8             9            10 
      6  0.100000D+01
      7  0.000000D+00  0.100000D+01
      8  0.000000D+00  0.000000D+00  0.100000D+01
      9  0.000000D+00  0.000000D+00  0.000000D+00  0.100000D+01
     10  0.120813D+00  0.000000D+00  0.000000D+00  0.000000D+00  0.100000D+01
     11  0.000000D+00  0.876080D+00  0.000000D+00  0.000000D+00  0.000000D+00
     12  0.000000D+00  0.000000D+00  0.775774D+00  0.000000D+00  0.000000D+00
     13  0.000000D+00  0.000000D+00  0.000000D+00  0.775774D+00  0.000000D+00
     14  0.399192D-01  0.000000D+00  0.000000D+00  0.000000D+00  0.775774D+00
               11            12            13            14 
     11  0.100000D+01
     12  0.000000D+00  0.100000D+01
     13  0.000000D+00  0.000000D+00  0.100000D+01
     14  0.000000D+00  0.000000D+00  0.000000D+00  0.100000D+01
 *** Kinetic Energy *** 
                1             2             3             4             5 
      1  0.760032D+00
      2 -0.296425D-03  0.570648D+02
      3 -0.342373D-02 -0.145971D+01  0.183414D+01
      4  0.000000D+00  0.000000D+00  0.000000D+00  0.585712D+01
      5  0.000000D+00  0.000000D+00  0.000000D+00  0.000000D+00  0.585712D+01
      6  0.266588D-02  0.000000D+00  0.000000D+00  0.000000D+00  0.000000D+00
      7  0.347245D-02 -0.420609D-01 -0.141303D+00  0.000000D+00  0.000000D+00
      8  0.000000D+00  0.000000D+00  0.000000D+00  0.441422D-01  0.000000D+00
      9  0.000000D+00  0.000000D+00  0.000000D+00  0.000000D+00  0.441422D-01
     10 -0.355148D-01  0.000000D+00  0.000000D+00  0.000000D+00  0.000000D+00
     11  0.789853D-02  0.117775D-02  0.119127D-01  0.000000D+00  0.000000D+00
     12  0.000000D+00  0.000000D+00  0.000000D+00  0.476129D-02  0.000000D+00
     13  0.000000D+00  0.000000D+00  0.000000D+00  0.000000D+00  0.476129D-02
     14 -0.253170D-01  0.000000D+00  0.000000D+00  0.000000D+00  0.000000D+00
                6             7             8             9            10 
      6  0.585712D+01
      7  0.000000D+00  0.106538D+00
      8  0.000000D+00  0.000000D+00  0.153112D+00
      9  0.000000D+00  0.000000D+00  0.000000D+00  0.153112D+00
     10  0.441422D-01  0.000000D+00  0.000000D+00  0.000000D+00  0.153112D+00
     11  0.000000D+00  0.447876D-01  0.000000D+00  0.000000D+00  0.000000D+00
     12  0.000000D+00  0.000000D+00  0.676855D-01  0.000000D+00  0.000000D+00
     13  0.000000D+00  0.000000D+00  0.000000D+00  0.676855D-01  0.000000D+00
     14  0.476129D-02  0.000000D+00  0.000000D+00  0.000000D+00  0.676855D-01
               11            12            13            14 
     11  0.366524D-01
     12  0.000000D+00  0.610873D-01
     13  0.000000D+00  0.000000D+00  0.610873D-01
     14  0.000000D+00  0.000000D+00  0.000000D+00  0.610873D-01
 Entering OneElI...
 Calculate potential energy integrals
    NBasis =  14  MinDer = 0  MaxDer = 0
 Requested accuracy = 0.1000D-12
 Symmetry will be used
 PrmmSu-InSpLW:  IPartL=    0 NPrtUS=   36 NPrtUL=    1 DoSpLW=F IThBeg=    0 IThEnd=   35 NThAct=   36.
 PrSmSu:  IncTry=   512 NBBP=             30 NTPThr=   100 NPartT=   36 Incr=           1 LDynOK=F GPUOK=F.
 PrsmSu:  NPrtUS=  36 ThrOK=T IAlg=1 LenDen=           0 ISkipM=0 DoSpLW=F IThBeg=    0 IThEnd=   35.
 Prism:   IPart=     0 DynPar=F LinDyn=F Incr=           1.
 PRISM was handed   268433958 working-precision words and    15 shell-pairs
 PRISM was handed   268433958 working-precision words and    15 shell-pairs
 PRISM was handed   268433958 working-precision words and    15 shell-pairs
 PRISM was handed   268433958 working-precision words and    15 shell-pairs
 PRISM was handed   268433958 working-precision words and    15 shell-pairs
 PRISM was handed   268433958 working-precision words and    15 shell-pairs
 PRISM was handed   268433958 working-precision words and    15 shell-pairs
 PRISM was handed   268433958 working-precision words and    15 shell-pairs
 PRISM was handed   268433958 working-precision words and    15 shell-pairs
 PRISM was handed   268433958 working-precision words and    15 shell-pairs
 PRISM was handed   268433958 working-precision words and    15 shell-pairs
 PRISM was handed   268433958 working-precision words and    15 shell-pairs
 PRISM was handed   268433958 working-precision words and    15 shell-pairs
 PRISM was handed   268433958 working-precision words and    15 shell-pairs
 PRISM was handed   268433958 working-precision words and    15 shell-pairs
 PRISM was handed   268433958 working-precision words and    15 shell-pairs
 PRISM was handed   268433958 working-precision words and    15 shell-pairs
 PRISM was handed   268433958 working-precision words and    15 shell-pairs
 PRISM was handed   268433958 working-precision words and    15 shell-pairs
 PRISM was handed   268433958 working-precision words and    15 shell-pairs
 PRISM was handed   268433958 working-precision words and    15 shell-pairs
 PRISM was handed   268433958 working-precision words and    15 shell-pairs
 PRISM was handed   268433958 working-precision words and    15 shell-pairs
 PRISM was handed   268433958 working-precision words and    15 shell-pairs
 PRISM was handed   268433958 working-precision words and    15 shell-pairs
 PRISM was handed   268433958 working-precision words and    15 shell-pairs
 PRISM was handed   268433958 working-precision words and    15 shell-pairs
 PRISM was handed   268433958 working-precision words and    15 shell-pairs
 PRISM was handed   268433958 working-precision words and    15 shell-pairs
 PRISM was handed   268433958 working-precision words and    15 shell-pairs
 PRISM was handed   268433958 working-precision words and    15 shell-pairs
 PRISM was handed   268433958 working-precision words and    15 shell-pairs
 PRISM was handed   268433958 working-precision words and    15 shell-pairs
 PRISM was handed   268433958 working-precision words and    15 shell-pairs
 PRISM was handed   268433958 working-precision words and    15 shell-pairs
 PRISM was handed   268433958 working-precision words and    15 shell-pairs
 IPart=  1 NShTot=           6 NBatch=           3 AvBLen=         2.0
 IPart=  0 NShTot=          24 NBatch=          12 AvBLen=         2.0
 IPart= 21 NShTot=           0 NBatch=           0 AvBLen=         0.0
 IPart= 13 NShTot=           0 NBatch=           0 AvBLen=         0.0
 IPart= 34 NShTot=           0 NBatch=           0 AvBLen=         0.0
 IPart=  5 NShTot=           0 NBatch=           0 AvBLen=         0.0
 IPart=  7 NShTot=           0 NBatch=           0 AvBLen=         0.0
 IPart= 23 NShTot=           0 NBatch=           0 AvBLen=         0.0
 IPart=  8 NShTot=           0 NBatch=           0 AvBLen=         0.0
 IPart= 22 NShTot=           0 NBatch=           0 AvBLen=         0.0
 IPart= 30 NShTot=           0 NBatch=           0 AvBLen=         0.0
 IPart= 33 NShTot=           0 NBatch=           0 AvBLen=         0.0
 IPart=  9 NShTot=           0 NBatch=           0 AvBLen=         0.0
 IPart= 16 NShTot=           0 NBatch=           0 AvBLen=         0.0
 IPart= 10 NShTot=           0 NBatch=           0 AvBLen=         0.0
 IPart= 29 NShTot=           0 NBatch=           0 AvBLen=         0.0
 IPart=  3 NShTot=           0 NBatch=           0 AvBLen=         0.0
 IPart= 12 NShTot=           0 NBatch=           0 AvBLen=         0.0
 IPart=  4 NShTot=           0 NBatch=           0 AvBLen=         0.0
 IPart= 35 NShTot=           0 NBatch=           0 AvBLen=         0.0
 IPart= 11 NShTot=           0 NBatch=           0 AvBLen=         0.0
 IPart= 17 NShTot=           0 NBatch=           0 AvBLen=         0.0
 IPart= 25 NShTot=           0 NBatch=           0 AvBLen=         0.0
 IPart= 15 NShTot=           0 NBatch=           0 AvBLen=         0.0
 IPart= 26 NShTot=           0 NBatch=           0 AvBLen=         0.0
 IPart=  2 NShTot=           0 NBatch=           0 AvBLen=         0.0
 IPart=  6 NShTot=           0 NBatch=           0 AvBLen=         0.0
 IPart= 28 NShTot=           0 NBatch=           0 AvBLen=         0.0
 IPart= 19 NShTot=           0 NBatch=           0 AvBLen=         0.0
 IPart= 14 NShTot=           0 NBatch=           0 AvBLen=         0.0
 IPart= 27 NShTot=           0 NBatch=           0 AvBLen=         0.0
 IPart= 32 NShTot=           0 NBatch=           0 AvBLen=         0.0
 IPart= 18 NShTot=           0 NBatch=           0 AvBLen=         0.0
 IPart= 24 NShTot=           0 NBatch=           0 AvBLen=         0.0
 IPart= 20 NShTot=           0 NBatch=           0 AvBLen=         0.0
 IPart= 31 NShTot=           0 NBatch=           0 AvBLen=         0.0
 PrSmSu:  NxtVal=             37.
 ***** Potential Energy ***** 
                1             2             3             4             5 
      1  0.330552D+01
      2  0.173907D-01  0.117343D+03
      3  0.509188D-01  0.127856D+02  0.183052D+02
      4  0.000000D+00  0.000000D+00  0.000000D+00  0.188252D+02
      5  0.000000D+00  0.000000D+00  0.000000D+00  0.000000D+00  0.188252D+02
      6 -0.470430D-01 -0.134710D-02 -0.157744D-01  0.000000D+00  0.000000D+00
      7  0.543664D+00  0.827599D-01  0.135915D+01  0.000000D+00  0.000000D+00
      8  0.000000D+00  0.000000D+00  0.000000D+00  0.116328D+01  0.000000D+00
      9  0.000000D+00  0.000000D+00  0.000000D+00  0.000000D+00  0.116328D+01
     10 -0.997498D+00 -0.153706D-04 -0.280570D-02  0.000000D+00  0.000000D+00
     11  0.599949D+00  0.102009D+01  0.213474D+01  0.000000D+00  0.000000D+00
     12  0.000000D+00  0.000000D+00  0.000000D+00  0.370512D+00  0.000000D+00
     13  0.000000D+00  0.000000D+00  0.000000D+00  0.000000D+00  0.370512D+00
     14 -0.846621D+00 -0.441452D-05 -0.938740D-03  0.000000D+00  0.000000D+00
                6             7             8             9            10 
      6  0.188283D+02
      7 -0.512684D-02  0.374432D+01
      8  0.000000D+00  0.000000D+00  0.306956D+01
      9  0.000000D+00  0.000000D+00  0.000000D+00  0.306956D+01
     10  0.116440D+01 -0.709501D-01  0.000000D+00  0.000000D+00  0.313294D+01
     11 -0.456071D-02  0.301540D+01  0.000000D+00  0.000000D+00 -0.719406D-01
     12  0.000000D+00  0.000000D+00  0.199701D+01  0.000000D+00  0.000000D+00
     13  0.000000D+00  0.000000D+00  0.000000D+00  0.199701D+01  0.000000D+00
     14  0.370905D+00 -0.490324D-01  0.000000D+00  0.000000D+00  0.204819D+01
               11            12            13            14 
     11  0.291435D+01
     12  0.000000D+00  0.196063D+01
     13  0.000000D+00  0.000000D+00  0.196063D+01
     14 -0.646565D-01  0.000000D+00  0.000000D+00  0.201439D+01
 ****** Core Hamiltonian ****** 
                1             2             3             4             5 
      1 -0.254549D+01
      2 -0.176871D-01 -0.602785D+02
      3 -0.543425D-01 -0.142453D+02 -0.164711D+02
      4  0.000000D+00  0.000000D+00  0.000000D+00 -0.129681D+02
      5  0.000000D+00  0.000000D+00  0.000000D+00  0.000000D+00 -0.129681D+02
      6  0.497089D-01  0.134710D-02  0.157744D-01  0.000000D+00  0.000000D+00
      7 -0.540191D+00 -0.124821D+00 -0.150045D+01  0.000000D+00  0.000000D+00
      8  0.000000D+00  0.000000D+00  0.000000D+00 -0.111914D+01  0.000000D+00
      9  0.000000D+00  0.000000D+00  0.000000D+00  0.000000D+00 -0.111914D+01
     10  0.961983D+00  0.153706D-04  0.280570D-02  0.000000D+00  0.000000D+00
     11 -0.592051D+00 -0.101891D+01 -0.212282D+01  0.000000D+00  0.000000D+00
     12  0.000000D+00  0.000000D+00  0.000000D+00 -0.365751D+00  0.000000D+00
     13  0.000000D+00  0.000000D+00  0.000000D+00  0.000000D+00 -0.365751D+00
     14  0.821304D+00  0.441452D-05  0.938740D-03  0.000000D+00  0.000000D+00
                6             7             8             9            10 
      6 -0.129711D+02
      7  0.512684D-02 -0.363778D+01
      8  0.000000D+00  0.000000D+00 -0.291645D+01
      9  0.000000D+00  0.000000D+00  0.000000D+00 -0.291645D+01
     10 -0.112025D+01  0.709501D-01  0.000000D+00  0.000000D+00 -0.297983D+01
     11  0.456071D-02 -0.297062D+01  0.000000D+00  0.000000D+00  0.719406D-01
     12  0.000000D+00  0.000000D+00 -0.192933D+01  0.000000D+00  0.000000D+00
     13  0.000000D+00  0.000000D+00  0.000000D+00 -0.192933D+01  0.000000D+00
     14 -0.366144D+00  0.490324D-01  0.000000D+00  0.000000D+00 -0.198050D+01
               11            12            13            14 
     11 -0.287770D+01
     12  0.000000D+00 -0.189955D+01
     13  0.000000D+00  0.000000D+00 -0.189955D+01
     14  0.646565D-01  0.000000D+00  0.000000D+00 -0.195331D+01
 SVDSVc IOpt=   1 NormSV=T IR=1
 SVDSVc V= 2.09D+00 1.88D+00 1.20D+00 9.98D-01 7.76D-01 7.18D-01 2.19D-01 1.23D-01
 SVDSVc IOpt=   1 NormSV=T IR=3
 SVDSVc V= 1.79D+00 9.88D-01 2.20D-01
 SVDSVc IOpt=   1 NormSV=T IR=4
 SVDSVc V= 1.79D+00 9.88D-01 2.20D-01
 TstOVc:  Largest diagonal error= 1.78D-15 IB=3 I=   11.
 TstOVc:  Largest same sym error= 3.16D-15 IB=1 I=    8 J=    7.
 TstOVc:  Largest diff sym error= 0.00D+00 IB=0 JB=0 I=    0 J=    0.
 Orthogonalized basis functions: 
                 1             2             3             4             5 
      1   0.284118D+00 -0.102030D+00 -0.818136D-01  0.171991D+00  0.619231D+00
      2   0.258753D-01  0.416179D-01  0.671553D+00  0.470687D-01  0.637657D+00
      3   0.983178D-01  0.134232D+00  0.587838D+00  0.205258D-02 -0.629850D+00
      4   0.000000D+00  0.000000D+00  0.000000D+00  0.000000D+00  0.000000D+00
      5   0.000000D+00  0.000000D+00  0.000000D+00  0.000000D+00  0.000000D+00
      6  -0.457165D-01  0.649002D-01 -0.309002D-01  0.980190D+00 -0.124281D+00
      7   0.318942D+00  0.353252D+00 -0.129827D+00 -0.410378D-01 -0.329550D-01
      8   0.000000D+00  0.000000D+00  0.000000D+00  0.000000D+00  0.000000D+00
      9   0.000000D+00  0.000000D+00  0.000000D+00  0.000000D+00  0.000000D+00
     10  -0.301250D+00  0.353866D+00 -0.405266D-01  0.171911D-01  0.183423D+00
     11   0.325163D+00  0.353436D+00 -0.110523D+00 -0.336027D-01 -0.973445D-02
     12   0.000000D+00  0.000000D+00  0.000000D+00  0.000000D+00  0.000000D+00
     13   0.000000D+00  0.000000D+00  0.000000D+00  0.000000D+00  0.000000D+00
     14  -0.295768D+00  0.349287D+00 -0.398861D-01 -0.801948D-01  0.227402D+00
                 6             7             8             9            10 
      1   0.813181D+00  0.631154D-01 -0.971217D-01  0.000000D+00  0.000000D+00
      2  -0.439130D+00 -0.763794D-03 -0.193111D-01  0.000000D+00  0.000000D+00
      3   0.559341D+00  0.241120D-02 -0.538427D-01  0.000000D+00  0.000000D+00
      4   0.000000D+00  0.000000D+00  0.000000D+00  0.106366D+00  0.993078D+00
      5   0.000000D+00  0.000000D+00  0.000000D+00  0.000000D+00  0.000000D+00
      6  -0.119363D+00 -0.159796D+00  0.398455D-02  0.000000D+00  0.000000D+00
      7  -0.230945D+00 -0.186496D-01 -0.200148D+01  0.000000D+00  0.000000D+00
      8   0.000000D+00  0.000000D+00  0.000000D+00  0.525558D+00 -0.486986D-01
      9   0.000000D+00  0.000000D+00  0.000000D+00  0.000000D+00  0.000000D+00
     10   0.222945D+00  0.152539D+01 -0.313001D-01  0.000000D+00  0.000000D+00
     11  -0.173458D+00  0.401389D-02  0.203183D+01  0.000000D+00  0.000000D+00
     12   0.000000D+00  0.000000D+00  0.000000D+00  0.520070D+00 -0.153894D+00
     13   0.000000D+00  0.000000D+00  0.000000D+00  0.000000D+00  0.000000D+00
     14   0.280302D+00 -0.148330D+01 -0.616474D-02  0.000000D+00  0.000000D+00
                11            12            13            14 
      1   0.000000D+00  0.000000D+00  0.000000D+00  0.000000D+00
      2   0.000000D+00  0.000000D+00  0.000000D+00  0.000000D+00
      3   0.000000D+00  0.000000D+00  0.000000D+00  0.000000D+00
      4  -0.157598D+00  0.000000D+00  0.000000D+00  0.000000D+00
      5   0.000000D+00  0.106366D+00  0.993078D+00 -0.157598D+00
      6   0.000000D+00  0.000000D+00  0.000000D+00  0.000000D+00
      7   0.000000D+00  0.000000D+00  0.000000D+00  0.000000D+00
      8   0.151160D+01  0.000000D+00  0.000000D+00  0.000000D+00
      9   0.000000D+00  0.525558D+00 -0.486986D-01  0.151160D+01
     10   0.000000D+00  0.000000D+00  0.000000D+00  0.000000D+00
     11   0.000000D+00  0.000000D+00  0.000000D+00  0.000000D+00
     12  -0.149532D+01  0.000000D+00  0.000000D+00  0.000000D+00
     13   0.000000D+00  0.520070D+00 -0.153894D+00 -0.149532D+01
     14   0.000000D+00  0.000000D+00  0.000000D+00  0.000000D+00
 NBasis=    14 RedAO= T EigKep=  1.23D-01  NBF=     8     0     3     3
 NBsUse=    14 1.00D-06 EigRej= -1.00D+00 NBFU=     8     0     3     3
 Leave Link  302 at Mon Mar 28 14:19:37 2022, MaxMem=  9663676416 cpu:               3.6 elap:               0.1
 (Enter /nopt/nrel/apps/gaussian/g16C_1/g16/l303.exe)
 DipDrv will not compute anything.
 Fermi contact integrals: 
                 1             2 
      1   0.628247D+00  0.738651D-03
      2   0.000000D+00  0.171843D+02
      3   0.000000D+00  0.368674D+00
      4   0.000000D+00  0.000000D+00
      5   0.000000D+00  0.000000D+00
      6   0.000000D+00  0.000000D+00
      7   0.172843D-01  0.187097D-02
      8   0.000000D+00  0.000000D+00
      9   0.000000D+00  0.000000D+00
     10  -0.413447D-01  0.000000D+00
     11   0.222236D-01  0.440472D-01
     12   0.000000D+00  0.000000D+00
     13   0.000000D+00  0.000000D+00
     14  -0.367626D-01  0.000000D+00
 Leave Link  303 at Mon Mar 28 14:19:37 2022, MaxMem=  9663676416 cpu:               0.8 elap:               0.0
 (Enter /nopt/nrel/apps/gaussian/g16C_1/g16/l401.exe)
 ExpMin= 2.44D-02 ExpMax= 5.48D+02 ExpMxC= 5.48D+02 IAcc=3 IRadAn=         5 AccDes= 0.00D+00
 Harris functional with IExCor=  205 and IRadAn=       5 diagonalized for initial guess.
 HarFok:  IExCor=  205 AccDes= 0.00D+00 IRadAn=         5 IDoV= 1 UseB2=F ITyADJ=14
 ICtDFT=  3500011 ScaDFX=  1.000000  1.000000  1.000000  1.000000
 FoFCou: FMM=F IPFlag=           0 FMFlag=      100000 FMFlg1=           0
         NFxFlg=           0 DoJE=T BraDBF=F KetDBF=T FulRan=T
         wScrn=  0.000000 ICntrl=       500 IOpCl=  0 I1Cent=   200000004 NGrid=           0
         NMat0=    1 NMatS0=      1 NMatT0=    0 NMatD0=    1 NMtDS0=    0 NMtDT0=    0
 Petite list used in FoFCou.
 Harris En= -161.174757088623    
 JPrj=0 DoOrth=F DoCkMO=F.
 Initial guess orbital symmetries:
       Occupied  (SG) (SG) (SG) (PI) (PI) (SG)
       Virtual   (SG) (PI) (PI) (SG) (SG) (PI) (PI) (SG)
 The electronic state of the initial guess is 1-SG.
 Leave Link  401 at Mon Mar 28 14:19:37 2022, MaxMem=  9663676416 cpu:               3.8 elap:               0.1
 (Enter /nopt/nrel/apps/gaussian/g16C_1/g16/l502.exe)
 Keep R1 ints in memory in symmetry-blocked form, NReq=7213017.
 FoFCou: FMM=F IPFlag=           0 FMFlag=           0 FMFlg1=           0
         NFxFlg=           0 DoJE=F BraDBF=F KetDBF=F FulRan=T
         wScrn=  0.000000 ICntrl=       600 IOpCl=  0 I1Cent=           0 NGrid=           0
         NMat0=    1 NMatS0=    105 NMatT0=    0 NMatD0=    1 NMtDS0=    0 NMtDT0=    0
 Petite list used in FoFCou.
 Closed shell SCF:
 Using DIIS extrapolation, IDIIS=  1040.
 NGot=  9663676416 LenX=  9663671753 LenY=  9663670871
 Requested convergence on RMS density matrix=1.00D-08 within 128 cycles.
 Requested convergence on MAX density matrix=1.00D-06.
 Requested convergence on             energy=1.00D-06.
 No special actions if energy rises.

 Cycle   1  Pass 1  IDiag  1:
 E= -161.257775701944    
 DIIS: error= 3.28D-02 at cycle   1 NSaved=   1.
 NSaved= 1 IEnMin= 1 EnMin= -161.257775701944     IErMin= 1 ErrMin= 3.28D-02
 ErrMax= 3.28D-02  0.00D+00 EMaxC= 1.00D-01 BMatC= 1.92D-02 BMatP= 1.92D-02
 IDIUse=3 WtCom= 6.72D-01 WtEn= 3.28D-01
 Coeff-Com:  0.100D+01
 Coeff-En:   0.100D+01
 Coeff:      0.100D+01
 Gap=     0.133 Goal=   None    Shift=    0.000
 GapD=    0.133 DampG=1.000 DampE=0.500 DampFc=0.5000 IDamp=-1.
 Damping current iteration by 5.00D-01
 RMSDP=2.56D-02 MaxDP=2.83D-01              OVMax= 1.36D-02

 Cycle   2  Pass 1  IDiag  1:
 E= -161.286886279921     Delta-E=       -0.029110577976 Rises=F Damp=T
 DIIS: error= 1.41D-02 at cycle   2 NSaved=   2.
 NSaved= 2 IEnMin= 2 EnMin= -161.286886279921     IErMin= 2 ErrMin= 1.41D-02
 ErrMax= 1.41D-02  0.00D+00 EMaxC= 1.00D-01 BMatC= 4.14D-03 BMatP= 1.92D-02
 IDIUse=3 WtCom= 8.59D-01 WtEn= 1.41D-01
 Coeff-Com: -0.847D+00 0.185D+01
 Coeff-En:   0.000D+00 0.100D+01
 Coeff:     -0.728D+00 0.173D+01
 Gap=     0.218 Goal=   None    Shift=    0.000
 RMSDP=9.97D-03 MaxDP=1.05D-01 DE=-2.91D-02 OVMax= 5.82D-04

 Cycle   3  Pass 1  IDiag  1:
 E= -161.313620240256     Delta-E=       -0.026733960336 Rises=F Damp=F
 DIIS: error= 2.65D-04 at cycle   3 NSaved=   3.
 NSaved= 3 IEnMin= 3 EnMin= -161.313620240256     IErMin= 3 ErrMin= 2.65D-04
 ErrMax= 2.65D-04  0.00D+00 EMaxC= 1.00D-01 BMatC= 1.82D-06 BMatP= 4.14D-03
 IDIUse=3 WtCom= 9.97D-01 WtEn= 2.65D-03
 Coeff-Com:  0.630D-01-0.149D+00 0.109D+01
 Coeff-En:   0.000D+00 0.000D+00 0.100D+01
 Coeff:      0.628D-01-0.149D+00 0.109D+01
 Gap=     0.219 Goal=   None    Shift=    0.000
 RMSDP=1.78D-04 MaxDP=6.99D-04 DE=-2.67D-02 OVMax= 2.53D-04

 Cycle   4  Pass 1  IDiag  1:
 E= -161.313622698856     Delta-E=       -0.000002458600 Rises=F Damp=F
 DIIS: error= 2.41D-05 at cycle   4 NSaved=   4.
 NSaved= 4 IEnMin= 4 EnMin= -161.313622698856     IErMin= 4 ErrMin= 2.41D-05
 ErrMax= 2.41D-05  0.00D+00 EMaxC= 1.00D-01 BMatC= 6.21D-09 BMatP= 1.82D-06
 IDIUse=1 WtCom= 1.00D+00 WtEn= 0.00D+00
 Coeff-Com: -0.452D-02 0.106D-01-0.865D-01 0.108D+01
 Coeff:     -0.452D-02 0.106D-01-0.865D-01 0.108D+01
 Gap=     0.219 Goal=   None    Shift=    0.000
 RMSDP=4.11D-05 MaxDP=2.14D-04 DE=-2.46D-06 OVMax= 1.39D-05

 Cycle   5  Pass 1  IDiag  1:
 E= -161.313622737953     Delta-E=       -0.000000039097 Rises=F Damp=F
 DIIS: error= 6.97D-06 at cycle   5 NSaved=   5.
 NSaved= 5 IEnMin= 5 EnMin= -161.313622737953     IErMin= 5 ErrMin= 6.97D-06
 ErrMax= 6.97D-06  0.00D+00 EMaxC= 1.00D-01 BMatC= 4.43D-10 BMatP= 6.21D-09
 IDIUse=1 WtCom= 1.00D+00 WtEn= 0.00D+00
 Coeff-Com: -0.412D-03 0.786D-03 0.614D-02-0.349D+00 0.134D+01
 Coeff:     -0.412D-03 0.786D-03 0.614D-02-0.349D+00 0.134D+01
 Gap=     0.219 Goal=   None    Shift=    0.000
 RMSDP=1.49D-05 MaxDP=7.70D-05 DE=-3.91D-08 OVMax= 1.07D-06

 Cycle   6  Pass 1  IDiag  1:
 E= -161.313622741697     Delta-E=       -0.000000003744 Rises=F Damp=F
 DIIS: error= 1.22D-06 at cycle   6 NSaved=   6.
 NSaved= 6 IEnMin= 6 EnMin= -161.313622741697     IErMin= 6 ErrMin= 1.22D-06
 ErrMax= 1.22D-06  0.00D+00 EMaxC= 1.00D-01 BMatC= 1.33D-11 BMatP= 4.43D-10
 IDIUse=1 WtCom= 1.00D+00 WtEn= 0.00D+00
 Coeff-Com: -0.171D-03 0.407D-03-0.437D-02 0.103D+00-0.427D+00 0.133D+01
 Coeff:     -0.171D-03 0.407D-03-0.437D-02 0.103D+00-0.427D+00 0.133D+01
 Gap=     0.219 Goal=   None    Shift=    0.000
 RMSDP=1.46D-06 MaxDP=8.71D-06 DE=-3.74D-09 OVMax= 1.79D-07

 Cycle   7  Pass 1  IDiag  1:
 E= -161.313622741851     Delta-E=       -0.000000000154 Rises=F Damp=F
 DIIS: error= 4.19D-07 at cycle   7 NSaved=   7.
 NSaved= 7 IEnMin= 7 EnMin= -161.313622741851     IErMin= 7 ErrMin= 4.19D-07
 ErrMax= 4.19D-07  0.00D+00 EMaxC= 1.00D-01 BMatC= 1.22D-12 BMatP= 1.33D-11
 IDIUse=1 WtCom= 1.00D+00 WtEn= 0.00D+00
 Coeff-Com: -0.178D-04 0.307D-04 0.695D-03-0.349D-01 0.167D+00-0.797D+00
 Coeff-Com:  0.166D+01
 Coeff:     -0.178D-04 0.307D-04 0.695D-03-0.349D-01 0.167D+00-0.797D+00
 Coeff:      0.166D+01
 Gap=     0.219 Goal=   None    Shift=    0.000
 RMSDP=5.08D-07 MaxDP=2.40D-06 DE=-1.54D-10 OVMax= 4.65D-08

 Cycle   8  Pass 1  IDiag  1:
 E= -161.313622741869     Delta-E=       -0.000000000018 Rises=F Damp=F
 DIIS: error= 3.12D-08 at cycle   8 NSaved=   8.
 NSaved= 8 IEnMin= 8 EnMin= -161.313622741869     IErMin= 8 ErrMin= 3.12D-08
 ErrMax= 3.12D-08  0.00D+00 EMaxC= 1.00D-01 BMatC= 8.32D-15 BMatP= 1.22D-12
 IDIUse=1 WtCom= 1.00D+00 WtEn= 0.00D+00
 Coeff-Com:  0.468D-06 0.835D-06-0.187D-03 0.777D-02-0.373D-01 0.182D+00
 Coeff-Com: -0.445D+00 0.129D+01
 Coeff:      0.468D-06 0.835D-06-0.187D-03 0.777D-02-0.373D-01 0.182D+00
 Coeff:     -0.445D+00 0.129D+01
 Gap=     0.219 Goal=   None    Shift=    0.000
 RMSDP=4.11D-08 MaxDP=2.22D-07 DE=-1.83D-11 OVMax= 4.90D-09

 Cycle   9  Pass 1  IDiag  1:
 E= -161.313622741869     Delta-E=       -0.000000000000 Rises=F Damp=F
 DIIS: error= 1.35D-09 at cycle   9 NSaved=   9.
 NSaved= 9 IEnMin= 9 EnMin= -161.313622741869     IErMin= 9 ErrMin= 1.35D-09
 ErrMax= 1.35D-09  0.00D+00 EMaxC= 1.00D-01 BMatC= 2.06D-17 BMatP= 8.32D-15
 IDIUse=1 WtCom= 1.00D+00 WtEn= 0.00D+00
 Coeff-Com: -0.418D-06 0.619D-06 0.292D-04-0.134D-02 0.656D-02-0.322D-01
 Coeff-Com:  0.830D-01-0.255D+00 0.120D+01
 Coeff:     -0.418D-06 0.619D-06 0.292D-04-0.134D-02 0.656D-02-0.322D-01
 Coeff:      0.830D-01-0.255D+00 0.120D+01
 Gap=     0.219 Goal=   None    Shift=    0.000
 RMSDP=2.82D-09 MaxDP=1.43D-08 DE=-1.14D-13 OVMax= 3.67D-10

 SCF Done:  E(RHF) =  -161.313622742     A.U. after    9 cycles
            NFock=  9  Conv=0.28D-08     -V/T= 2.0036
 KE= 1.607319904685D+02 PE=-3.917857169723D+02 EE= 6.766119329051D+01
 Leave Link  502 at Mon Mar 28 14:19:37 2022, MaxMem=  9663676416 cpu:               3.3 elap:               0.1
 (Enter /nopt/nrel/apps/gaussian/g16C_1/g16/l801.exe)
 Windowed orbitals will be sorted by symmetry type.
 ExpMin= 2.44D-02 ExpMax= 5.48D+02 ExpMxC= 5.48D+02 IAcc=3 IRadAn=         5 AccDes= 0.00D+00
 HarFok:  IExCor=  205 AccDes= 0.00D+00 IRadAn=         5 IDoV=-2 UseB2=F ITyADJ=14
 ICtDFT= 12500011 ScaDFX=  1.000000  1.000000  1.000000  1.000000
 Largest valence mixing into a core orbital is  2.88D-04
 Largest core mixing into a valence orbital is  1.46D-04
 Range of M.O.s used for correlation:     6    14
 NBasis=    14 NAE=     6 NBE=     6 NFC=     5 NFV=     0
 NROrb=      9 NOA=     1 NOB=     1 NVA=     8 NVB=     8
 Leave Link  801 at Mon Mar 28 14:19:37 2022, MaxMem=  9663676416 cpu:               2.4 elap:               0.1
 (Enter /nopt/nrel/apps/gaussian/g16C_1/g16/l804.exe)
 Closed-shell transformation, MDV=  9663676416 ITran=4 ISComp=2.
 Unit  1 TFree=          8118 TCopy=        116765.
 Semi-Direct transformation.
 ModeAB=           2 MOrb=             1 LenV=    9663555891
 LASXX=           88 LTotXX=          88 LenRXX=          88
 LTotAB=         141 MaxLAS=         945 LenRXY=         945
 NonZer=        1107 LenScr=      785920 LnRSAI=           0
 LnScr1=           0 LExtra=      220189 Total=      1007142
 MaxDsk= 34359738368 SrtSym=           F ITran=            4
 DoSDTr:  NPSUse= 36
 JobTyp=0 Pass  1:  I=   1 to   1.
 (rs|ai) integrals will be sorted in core.
 Complete sort for first half transformation.
 First half transformation complete.
 Complete sort for second half transformation.
 Second half transformation complete.
 Spin components of T(2) and E(2):
     alpha-alpha T2 =       0.0000000000D+00 E2=      0.0000000000D+00
     alpha-beta  T2 =       0.3023885998D-01 E2=     -0.2496984923D-01
     beta-beta   T2 =       0.0000000000D+00 E2=      0.0000000000D+00
 ANorm=    0.1015006828D+01
 E2 =    -0.2496984923D-01 EUMP2 =    -0.16133859259110D+03
 Leave Link  804 at Mon Mar 28 14:19:38 2022, MaxMem=  9663676416 cpu:               3.0 elap:               0.1
 (Enter /nopt/nrel/apps/gaussian/g16C_1/g16/l913.exe)
 CIDS:  MDV=  9663676416.
 Frozen-core window:  NFC=   5 NFV=   0.
 IFCWin=0 IBDFC=1 NFBD=     0     0 NFCmp=     0     0 NFFFC=     0     0
 Using DD3R+UMP44R for 1st iteration.
 Using DD4RQ for 2nd and later iterations.
 Keep R2 and R3 ints in memory in symmetry-blocked form, NReq=7215411.
 FoFCou: FMM=F IPFlag=           0 FMFlag=           0 FMFlg1=           0
         NFxFlg=           0 DoJE=F BraDBF=F KetDBF=F FulRan=T
         wScrn=  0.000000 ICntrl=       600 IOpCl=  0 I1Cent=           0 NGrid=           0
         NMat0=    1 NMatS0=    105 NMatT0=    0 NMatD0=    1 NMtDS0=    0 NMtDT0=    0
 Petite list used in FoFCou.
 CIDS: In Core Option IDoMem=           1.
 Coupled Cluster theory with single and double substitutions
 ===========================================================
 Iterations= 200 Convergence= 0.100D-06
 Produce multiple copies of IABC intergrals
 Iteration Nr.   1
 **********************
 DD1Dir will call FoFMem   1 times, MxPair=         2
 NAB=     1 NAA=     0 NBB=     0.
 MP4(R+Q)=  0.75505977D-03
 Maximum subspace dimension=  5
 A-vector RMS=  2.7414629D-02 Max=  4.9818047D-02 conv= 1.00D-05.
 RLE energy=       -0.0435929006
 E3=       -0.11425671D-01        EUMP3=      -0.16135001826D+03
 E4(DQ)=   -0.49997105D-02        UMP4(DQ)=   -0.16135501797D+03
 E4(SDQ)=  -0.53094874D-02        UMP4(SDQ)=  -0.16135532775D+03
 VARIATIONAL ENERGIES WITH THE FIRST-ORDER WAVEFUNCTION:
 DE(Corr)= -0.35637064E-01 E(Corr)=     -161.34925981    
 NORM(A)=   0.10474216D+01
 Iteration Nr.   2
 **********************
 DD1Dir will call FoFMem   1 times, MxPair=         2
 NAB=     1 NAA=     0 NBB=     0.
 A-vector RMS=  1.4656267D-02 Max=  2.0400676D-02 conv= 1.00D-05.
 RLE energy=       -0.0446973274
 DE(Corr)= -0.44108055E-01 E(CORR)=     -161.35773080     Delta=-8.47D-03
 NORM(A)=   0.10536864D+01
 Iteration Nr.   3
 **********************
 DD1Dir will call FoFMem   1 times, MxPair=         2
 NAB=     1 NAA=     0 NBB=     0.
 A-vector RMS=  1.4144631D-02 Max=  1.6863840D-02 conv= 1.00D-05.
 RLE energy=       -0.0457360489
 DE(Corr)= -0.44822277E-01 E(CORR)=     -161.35844502     Delta=-7.14D-04
 NORM(A)=   0.10683995D+01
 Iteration Nr.   4
 **********************
 DD1Dir will call FoFMem   1 times, MxPair=         2
 NAB=     1 NAA=     0 NBB=     0.
 A-vector RMS=  4.5236638D-03 Max=  1.1549258D-02 conv= 1.00D-05.
 RLE energy=       -0.0472082727
 DE(Corr)= -0.46101319E-01 E(CORR)=     -161.35972406     Delta=-1.28D-03
 NORM(A)=   0.10831699D+01
 Iteration Nr.   5
 **********************
 DD1Dir will call FoFMem   1 times, MxPair=         2
 NAB=     1 NAA=     0 NBB=     0.
 A-vector RMS=  1.2264845D-03 Max=  1.0841119D-03 conv= 1.00D-05.
 RLE energy=       -0.0467293586
 DE(Corr)= -0.47012902E-01 E(CORR)=     -161.36063564     Delta=-9.12D-04
 NORM(A)=   0.10806916D+01
 Iteration Nr.   6
 **********************
 DD1Dir will call FoFMem   1 times, MxPair=         2
 NAB=     1 NAA=     0 NBB=     0.
 A-vector RMS=  6.5970529D-04 Max=  6.6198757D-04 conv= 1.00D-05.
 RLE energy=       -0.0468243669
 DE(Corr)= -0.46754213E-01 E(CORR)=     -161.36037695     Delta= 2.59D-04
 NORM(A)=   0.10816042D+01
 Iteration Nr.   7
 **********************
 DD1Dir will call FoFMem   1 times, MxPair=         2
 NAB=     1 NAA=     0 NBB=     0.
 A-vector RMS=  2.6023774D-04 Max=  2.1737510D-04 conv= 1.00D-05.
 RLE energy=       -0.0468199932
 DE(Corr)= -0.46820097E-01 E(CORR)=     -161.36044284     Delta=-6.59D-05
 NORM(A)=   0.10816390D+01
 Iteration Nr.   8
 **********************
 DD1Dir will call FoFMem   1 times, MxPair=         2
 NAB=     1 NAA=     0 NBB=     0.
 A-vector RMS=  4.0724877D-05 Max=  4.3068152D-05 conv= 1.00D-05.
 RLE energy=       -0.0468100281
 DE(Corr)= -0.46815848E-01 E(CORR)=     -161.36043859     Delta= 4.25D-06
 NORM(A)=   0.10815739D+01
 Iteration Nr.   9
 **********************
 DD1Dir will call FoFMem   1 times, MxPair=         2
 NAB=     1 NAA=     0 NBB=     0.
 A-vector RMS=  1.3881393D-05 Max=  4.2846902D-05 conv= 1.00D-05.
 RLE energy=       -0.0468106506
 DE(Corr)= -0.46810483E-01 E(CORR)=     -161.36043322     Delta= 5.37D-06
 NORM(A)=   0.10815751D+01
 Iteration Nr.  10
 **********************
 DD1Dir will call FoFMem   1 times, MxPair=         2
 NAB=     1 NAA=     0 NBB=     0.
 A-vector RMS=  6.5407007D-06 Max=  1.5031898D-05 conv= 1.00D-05.
 RLE energy=       -0.0468112963
 DE(Corr)= -0.46811156E-01 E(CORR)=     -161.36043390     Delta=-6.73D-07
 NORM(A)=   0.10815751D+01
 Iteration Nr.  11
 **********************
 DD1Dir will call FoFMem   1 times, MxPair=         2
 NAB=     1 NAA=     0 NBB=     0.
 A-vector RMS=  1.3582389D-06 Max=  1.0318411D-06 conv= 1.00D-05.
 RLE energy=       -0.0468109107
 DE(Corr)= -0.46811207E-01 E(CORR)=     -161.36043395     Delta=-5.15D-08
 NORM(A)=   0.10815722D+01
 CI/CC converged in   11 iterations to DelEn=-5.15D-08 Conv= 1.00D-07 ErrA1= 1.36D-06 Conv= 1.00D-05
 Wavefunction amplitudes converged. E(Corr)=     -161.36043395    
 Dominant configurations:
 ***********************
 Spin Case        I    J    A    B          Value
    AA            6         7            0.130777D+00
   ABAB           6    6    7    7      -0.116375D+00
   ABAB           6    6    7   14       0.143059D+00
   ABAB           6    6   14    7       0.143059D+00
   ABAB           6    6   14   14      -0.186452D+00
 Largest amplitude= 1.86D-01
 Discarding MO integrals.
 Leave Link  913 at Mon Mar 28 14:19:38 2022, MaxMem=  9663676416 cpu:               3.6 elap:               0.1
 (Enter /nopt/nrel/apps/gaussian/g16C_1/g16/l601.exe)
 Copying SCF densities to generalized density rwf, IOpCl= 0 IROHF=0.

 **********************************************************************

            Population analysis using the SCF Density.

 **********************************************************************

 Orbital symmetries:
       Occupied  (SG) (SG) (PI) (PI) (SG) (SG)
       Virtual   (SG) (PI) (PI) (SG) (SG) (PI) (PI) (SG)
 The electronic state is 1-SG.
 Alpha  occ. eigenvalues --  -40.25517  -2.80616  -1.52455  -1.52455  -1.52334
 Alpha  occ. eigenvalues --   -0.23190
 Alpha virt. eigenvalues --   -0.01301   0.03383   0.03383   0.10837   0.14618
 Alpha virt. eigenvalues --    0.15803   0.15803   0.25156
          Condensed to atoms (all electrons):
               1          2
     1  H    0.650632   0.263667
     2  Na   0.263667  10.822033
 Mulliken charges:
               1
     1  H    0.085700
     2  Na  -0.085700
 Sum of Mulliken charges =   0.00000
 Mulliken charges with hydrogens summed into heavy atoms:
               1
     2  Na   0.000000
 N-N= 2.078910471471D+00 E-N=-3.917857170088D+02  KE= 1.607319904685D+02
 Symmetry A1   KE= 1.376528693747D+02
 Symmetry A2   KE= 0.000000000000D+00
 Symmetry B1   KE= 1.153956054691D+01
 Symmetry B2   KE= 1.153956054691D+01

 Atomic contributions to Alpha molecular orbitals:
 Alpha occ 1 OE=-40.255 is Na2-s=1.0000
 Alpha occ 2 OE=-2.806 is Na2-s=0.9998
 Alpha occ 3 OE=-1.525 is Na2-p=1.0000
 Alpha occ 4 OE=-1.525 is Na2-p=1.0000
 Alpha occ 5 OE=-1.523 is Na2-p=0.9999
 Alpha occ 6 OE=-0.232 is H1-s=0.4572 Na2-s=0.3207 Na2-p=0.2221
 Alpha vir 7 OE=-0.013 is Na2-s=0.5449 Na2-p=0.4267
 Alpha vir 8 OE=0.034 is Na2-p=1.0000
 Alpha vir 9 OE=0.034 is Na2-p=1.0000
 Alpha vir 10 OE=0.108 is Na2-s=0.5041 Na2-p=0.4510
 Alpha vir 11 OE=0.146 is Na2-s=0.5440 Na2-p=0.4135
 Alpha vir 12 OE=0.158 is Na2-p=1.0000
 Alpha vir 13 OE=0.158 is Na2-p=1.0000
 Alpha vir 14 OE=0.252 is Na2-p=0.4867 H1-s=0.4270
 
 Leave Link  601 at Mon Mar 28 14:19:38 2022, MaxMem=  9663676416 cpu:               2.3 elap:               0.1
 (Enter /nopt/nrel/apps/gaussian/g16C_1/g16/l9999.exe)

 Test job not archived.
 1\1\GINC-R102U34\SP\RCCSD-FC\Gen\H1Na1\USER\28-Mar-2022\0\\#P CCSD
 (MaxCyc=200,SaveAmplitudes,ReadAmplitudes)/GEN sp pop=AllOrbitals iop(
 3/33=1,3/36=-1)\\test\\0,1\H,0,0.,0.,0.\Na,0,0.,0.,2.8\\Version=ES64L-
 G16RevC.01\State=1-SG\HF=-161.3136227\MP2=-161.3385926\MP3=-161.350018
 3\MP4D=-161.355773\MP4DQ=-161.355018\MP4SDQ=-161.3553277\CCSD=-161.360
 4339\RMSD=2.820e-09\PG=C*V [C*(H1Na1)]\\@


 Everywhere is walking distance if you have the time.
                                    -- Steven Wright
 Job cpu time:       0 days  0 hours  0 minutes 32.5 seconds.
 Elapsed time:       0 days  0 hours  0 minutes  1.3 seconds.
 File lengths (MBytes):  RWF=     13 Int=      0 D2E=      0 Chk=      1 Scr=      1
 Normal termination of Gaussian 16 at Mon Mar 28 14:19:38 2022.
