 Entering Gaussian System, Link 0=g16
 Initial command:
 /nopt/nrel/apps/gaussian/g16C_1/g16/l1.exe "/lustre/eaglefs/scratch/user/qc/nah-dissc/nah-3-ccsd-1.6-ccd/Gau-30949.inp" -scrdir="/lustre/eaglefs/scratch/user/qc/nah-dissc/nah-3-ccsd-1.6-ccd/"
 Default is to use a total of  36 processors:
                               36 via shared-memory
                                1 via Linda
 Entering Link 1 = /nopt/nrel/apps/gaussian/g16C_1/g16/l1.exe PID=     30950.
  
 Copyright (c) 1988-2019, Gaussian, Inc.  All Rights Reserved.
  
 This is part of the Gaussian(R) 16 program.  It is based on
 the Gaussian(R) 09 system (copyright 2009, Gaussian, Inc.),
 the Gaussian(R) 03 system (copyright 2003, Gaussian, Inc.),
 the Gaussian(R) 98 system (copyright 1998, Gaussian, Inc.),
 the Gaussian(R) 94 system (copyright 1995, Gaussian, Inc.),
 the Gaussian 92(TM) system (copyright 1992, Gaussian, Inc.),
 the Gaussian 90(TM) system (copyright 1990, Gaussian, Inc.),
 the Gaussian 88(TM) system (copyright 1988, Gaussian, Inc.),
 the Gaussian 86(TM) system (copyright 1986, Carnegie Mellon
 University), and the Gaussian 82(TM) system (copyright 1983,
 Carnegie Mellon University). Gaussian is a federally registered
 trademark of Gaussian, Inc.
  
 This software contains proprietary and confidential information,
 including trade secrets, belonging to Gaussian, Inc.
  
 This software is provided under written license and may be
 used, copied, transmitted, or stored only in accord with that
 written license.
  
 The following legend is applicable only to US Government
 contracts under FAR:
  
                    RESTRICTED RIGHTS LEGEND
  
 Use, reproduction and disclosure by the US Government is
 subject to restrictions as set forth in subparagraphs (a)
 and (c) of the Commercial Computer Software - Restricted
 Rights clause in FAR 52.227-19.
  
 Gaussian, Inc.
 340 Quinnipiac St., Bldg. 40, Wallingford CT 06492
  
  
 ---------------------------------------------------------------
 Warning -- This program may not be used in any manner that
 competes with the business of Gaussian, Inc. or will provide
 assistance to any competitor of Gaussian, Inc.  The licensee
 of this program is prohibited from giving any competitor of
 Gaussian, Inc. access to this program.  By using this program,
 the user acknowledges that Gaussian, Inc. is engaged in the
 business of creating and licensing software in the field of
 computational chemistry and represents and warrants to the
 licensee that it is not a competitor of Gaussian, Inc. and that
 it will not use this program in any manner prohibited above.
 ---------------------------------------------------------------
  

 Cite this work as:
 Gaussian 16, Revision C.01,
 M. J. Frisch, G. W. Trucks, H. B. Schlegel, G. E. Scuseria, 
 M. A. Robb, J. R. Cheeseman, G. Scalmani, V. Barone, 
 G. A. Petersson, H. Nakatsuji, X. Li, M. Caricato, A. V. Marenich, 
 J. Bloino, B. G. Janesko, R. Gomperts, B. Mennucci, H. P. Hratchian, 
 J. V. Ortiz, A. F. Izmaylov, J. L. Sonnenberg, D. Williams-Young, 
 F. Ding, F. Lipparini, F. Egidi, J. Goings, B. Peng, A. Petrone, 
 T. Henderson, D. Ranasinghe, V. G. Zakrzewski, J. Gao, N. Rega, 
 G. Zheng, W. Liang, M. Hada, M. Ehara, K. Toyota, R. Fukuda, 
 J. Hasegawa, M. Ishida, T. Nakajima, Y. Honda, O. Kitao, H. Nakai, 
 T. Vreven, K. Throssell, J. A. Montgomery, Jr., J. E. Peralta, 
 F. Ogliaro, M. J. Bearpark, J. J. Heyd, E. N. Brothers, K. N. Kudin, 
 V. N. Staroverov, T. A. Keith, R. Kobayashi, J. Normand, 
 K. Raghavachari, A. P. Rendell, J. C. Burant, S. S. Iyengar, 
 J. Tomasi, M. Cossi, J. M. Millam, M. Klene, C. Adamo, R. Cammi, 
 J. W. Ochterski, R. L. Martin, K. Morokuma, O. Farkas, 
 J. B. Foresman, and D. J. Fox, Gaussian, Inc., Wallingford CT, 2019.
 
 ******************************************
 Gaussian 16:  ES64L-G16RevC.01  3-Jul-2019
                28-Mar-2022 
 ******************************************
 %chk=molecule
 Default route: CacheSize=180224 MaxDisk=256GB
 ----------------------------------------------------------------------
 #P CCSD(MaxCyc=200,SaveAmplitudes,ReadAmplitudes)/GEN sp pop=AllOrbita
 ls iop(3/33=1,3/36=-1)
 ----------------------------------------------------------------------
 1/4=180224,38=1,172=1/1;
 2/4=180224,12=2,17=6,18=5,40=1/2;
 3/4=180224,5=7,11=9,25=1,30=1,33=1,36=-1/1,2,3;
 4/4=180224/1;
 5/4=180224,5=2,38=5/2;
 8/4=180224,6=4,9=120000,10=1,24=1/1,4;
 9/4=180224,5=7,6=200,77=1/13;
 6/4=180224,7=2,8=2,9=2,10=2,96=-1/1;
 99/4=180224,5=1,9=1/99;
 Leave Link    1 at Mon Mar 28 14:26:11 2022, MaxMem=           0 cpu:               2.1 elap:               0.1
 (Enter /nopt/nrel/apps/gaussian/g16C_1/g16/l101.exe)
 ----
 test
 ----
 Symbolic Z-matrix:
 Charge =  0 Multiplicity = 3
 H                     0.        0.        0. 
 Na                    0.        0.        1.6 
 
 ITRead=  0  0
 MicOpt= -1 -1
 NAtoms=      2 NQM=        2 NQMF=       0 NMMI=      0 NMMIF=      0
                NMic=       0 NMicF=      0.
                    Isotopes and Nuclear Properties:
 (Nuclear quadrupole moments (NQMom) in fm**2, nuclear magnetic moments (NMagM)
  in nuclear magnetons)

  Atom         1           2
 IAtWgt=           1          23
 AtmWgt=   1.0078250  22.9897697
 NucSpn=           1           3
 AtZEff=  -0.0000000  -0.0000000
 NQMom=    0.0000000  10.4000000
 NMagM=    2.7928460   2.2175200
 AtZNuc=   1.0000000  11.0000000
 Leave Link  101 at Mon Mar 28 14:26:11 2022, MaxMem=  9663676416 cpu:               2.8 elap:               0.1
 (Enter /nopt/nrel/apps/gaussian/g16C_1/g16/l202.exe)
                          Input orientation:                          
 ---------------------------------------------------------------------
 Center     Atomic      Atomic             Coordinates (Angstroms)
 Number     Number       Type             X           Y           Z
 ---------------------------------------------------------------------
      1          1           0        0.000000    0.000000    0.000000
      2         11           0        0.000000    0.000000    1.600000
 ---------------------------------------------------------------------
 Stoichiometry    HNa(3)
 Framework group  C*V[C*(HNa)]
 Deg. of freedom     1
 Full point group                 C*V     NOp   4
 Largest Abelian subgroup         C2V     NOp   4
 Largest concise Abelian subgroup C1      NOp   1
                         Standard orientation:                         
 ---------------------------------------------------------------------
 Center     Atomic      Atomic             Coordinates (Angstroms)
 Number     Number       Type             X           Y           Z
 ---------------------------------------------------------------------
      1          1           0        0.000000    0.000000   -1.466667
      2         11           0        0.000000    0.000000    0.133333
 ---------------------------------------------------------------------
 Rotational constants (GHZ):           0.0000000         204.4679229         204.4679229
 Leave Link  202 at Mon Mar 28 14:26:11 2022, MaxMem=  9663676416 cpu:               0.9 elap:               0.1
 (Enter /nopt/nrel/apps/gaussian/g16C_1/g16/l301.exe)
 General basis read from cards:  (5D, 7F)
                         Coordinates in L301:                         
 ---------------------------------------------------------------------
 Center     Atomic      Atomic             Coordinates (Angstroms)
 Number     Number       Type             X           Y           Z
 ---------------------------------------------------------------------
      1          1           0        0.000000    0.000000   -1.466667
      2         11           0        0.000000    0.000000    0.133333
 ---------------------------------------------------------------------
 Centers:       1
 STO-3G
 ****
 Centers:       2
 cc-pVDZ
 ****
 FixB: optimizing general contractions.
 Ernie: Thresh=  0.10000D-02 Tol=  0.10000D-05 Strict=F.
 IA=     1 ShT= 0 ShC= 0 NL=   1 NS=   0.
 IA=     1 L=0 SC=0 ISt=    0 NBk=    0 NP=    0 IndPr=    0.
 IA=     2 ShT= 0 ShC= 0 NL=   4 NS=   1.
 IA=     2 L=0 SC=0 ISt=    1 NBk=    3 NP=   11 IndPr=    0.
 DoElim1:  L=0 select primitive    2 from    2 using    1 C= 3.55D-03
 DoElim1:  L=0 select primitive    2 from    3 using    1 C= 3.55D-03
 DoElim1:  L=0 select primitive    5 from    3 using    2 C=-6.14D-03
 DoElim2:  L=0 select primitive   11 from    2 using    3 C= 6.58D-01
 DoElim2:  L=0 select primitive   11 from    1 using    3 C= 6.58D-01
 DoElim2:  L=0 select primitive    9 from    1 using    2 C= 6.03D-01
 Delete L=0 primitive    5 from    3 C=  6.52D-20.
 Delete L=0 primitive    2 from    3 C=  2.06D-20.
 Delete L=0 primitive    1 from    3 C=  1.41D-07.
 Delete L=0 primitive   11 from    2 C=  1.18D-19.
 Delete L=0 primitive    2 from    2 C=  4.53D-20.
 Delete L=0 primitive    1 from    2 C=  7.82D-08.
 Delete L=0 primitive   11 from    1 C=  5.55D-21.
 Delete L=0 primitive    9 from    1 C=  4.94D-19.
 IA=     2 L=0 SC=0 ISt=    0 NBk=    0 NP=    0 IndPr=   25.
 IA=     2 ShT= 1 ShC= 1 NL=   3 NS=   1.
 IA=     2 L=1 SC=1 ISt=    1 NBk=    2 NP=    7 IndPr=    0.
 DoElim1:  L=1 select primitive    1 from    2 using    1 C= 5.80D-03
 DoElim2:  L=1 select primitive    7 from    1 using    2 C= 4.35D-01
 Delete L=1 primitive    1 from    2 C=  1.56D-20.
 Delete L=1 primitive    7 from    1 C=  1.56D-19.
 IA=     2 L=1 SC=1 ISt=    0 NBk=    0 NP=    0 IndPr=   12.
 IA=     2 ShT= 2 ShC= 2 NL=   1 NS=   1.
 IA=     2 L=2 SC=2 ISt=    0 NBk=    0 NP=    0 IndPr=    0.
 Ernie:  10 primitive shells out of 53 were deleted.
 LdAtmC:  AtmChg=     1.000000    11.000000
 AtZEff=     -1.0000000    -10.0400000
 NEqShl: 
              1            2            3            4
     1            1            1            1            1
     2            2            2            2            2
     3            3            3            3            3
     4            4            4            4            4
     5            5            5            5            5
     6            6            6            6            6
     7            7            7            7            7
     8            8            8            8            8
     9            9            9            9            9
 NEqBas: 
              1            2            3            4
     1            1            1            1            1
     2            2            2            2            2
     3            3            3            3            3
     4            4            4            4            4
     5            5            5            5            5
     6            6           -6           -6            6
     7            7           -7            7           -7
     8            8            8            8            8
     9            9           -9           -9            9
    10           10          -10           10          -10
    11           11           11           11           11
    12           12          -12          -12           12
    13           13          -13           13          -13
    14           14           14           14           14
    15           15           15           15           15
    16           16           16           16           16
    17           17           17           17           17
    18           18           18          -18          -18
    19           19          -19          -19           19
    20           20          -20           20          -20
 There are    11 symmetry adapted cartesian basis functions of A1  symmetry.
   1         1   1   1   1
   2         2   2   2   2
   3         3   3   3   3
   4         4   4   4   4
   5         5   5   5   5
   6         8   8   8   8
   7        11  11  11  11
   8        14  14  14  14
   9        15  15  15  15
  10        16  16  16  16
  11        17  17  17  17
 There are     1 symmetry adapted cartesian basis functions of A2  symmetry.
  12        18  18  18  18
 There are     4 symmetry adapted cartesian basis functions of B1  symmetry.
  13         6   6   6   6
  14         9   9   9   9
  15        12  12  12  12
  16        19  19  19  19
 There are     4 symmetry adapted cartesian basis functions of B2  symmetry.
  17         7   7   7   7
  18        10  10  10  10
  19        13  13  13  13
  20        20  20  20  20
 Order= 1 2 4 3
 Reordered character table:
              1            2            3            4            5
     1            1            1            1            1            1
     2            2            1            1           -1           -1
     3            4            1           -1           -1            1
     4            3            1           -1            1           -1
 NEqShl: 
              1            2            3            4
     1            1            1            1            1
     2            2            2            2            2
     3            3            3            3            3
     4            4            4            4            4
     5            5            5            5            5
     6            6            6            6            6
     7            7            7            7            7
     8            8            8            8            8
     9            9            9            9            9
 NEqBas: 
              1            2            3            4
     1            1            1            1            1
     2            2            2            2            2
     3            3            3            3            3
     4            4            4            4            4
     5            5            5            5            5
     6            6           -6           -6            6
     7            7           -7            7           -7
     8            8            8            8            8
     9            9           -9           -9            9
    10           10          -10           10          -10
    11           11           11           11           11
    12           12          -12          -12           12
    13           13          -13           13          -13
    14           14           14           14           14
    15           15           15           15           15
    16           16          -16          -16           16
    17           17          -17           17          -17
    18           18           18           18           18
    19           19           19          -19          -19
 There are    10 symmetry adapted basis functions of A1  symmetry.
   1         1   1   1   1
   2         2   2   2   2
   3         3   3   3   3
   4         4   4   4   4
   5         5   5   5   5
   6         8   8   8   8
   7        11  11  11  11
   8        14  14  14  14
   9        15  15  15  15
  10        18  18  18  18
 There are     1 symmetry adapted basis functions of A2  symmetry.
  11        19  19  19  19
 There are     4 symmetry adapted basis functions of B1  symmetry.
  12         6   6   6   6
  13         9   9   9   9
  14        12  12  12  12
  15        16  16  16  16
 There are     4 symmetry adapted basis functions of B2  symmetry.
  16         7   7   7   7
  17        10  10  10  10
  18        13  13  13  13
  19        17  17  17  17
 Order= 1 2 4 3
 Reordered character table:
              1            2            3            4            5
     1            1            1            1            1            1
     2            2            1            1           -1           -1
     3            4            1           -1           -1            1
     4            3            1           -1            1           -1
    19 basis functions,    74 primitive gaussians,    20 cartesian basis functions
     7 alpha electrons        5 beta electrons
       nuclear repulsion energy         3.6380933251 Hartrees.
 IS=     1 IAt=     1 ISR=     1 T=0 IP=      1 IndIP=      1 IndIPD=      0 C=  2.769344D-01  0.000000D+00                             NZ=T
 IS=     1 IAt=     1 ISR=     1 T=0 IP=      2 IndIP=      2 IndIPD=      1 C=  2.678389D-01  0.000000D+00                             NZ=T
 IS=     1 IAt=     1 ISR=     1 T=0 IP=      3 IndIP=      3 IndIPD=      2 C=  8.347367D-02  0.000000D+00                             NZ=T
 IS=     2 IAt=     2 ISR=     1 T=0 IP=      1 IndIP=      4 IndIPD=      0 C=  7.749657D-01  0.000000D+00                             NZ=T
 IS=     2 IAt=     2 ISR=     1 T=0 IP=      2 IndIP=      5 IndIPD=      1 C=  1.445329D+00  0.000000D+00                             NZ=T
 IS=     2 IAt=     2 ISR=     1 T=0 IP=      3 IndIP=      6 IndIPD=      2 C=  2.449022D+00  0.000000D+00                             NZ=T
 IS=     2 IAt=     2 ISR=     1 T=0 IP=      4 IndIP=      7 IndIPD=      3 C=  3.730568D+00  0.000000D+00                             NZ=T
 IS=     2 IAt=     2 ISR=     1 T=0 IP=      5 IndIP=      8 IndIPD=      4 C=  4.755208D+00  0.000000D+00                             NZ=T
 IS=     2 IAt=     2 ISR=     1 T=0 IP=      6 IndIP=      9 IndIPD=      5 C=  4.291841D+00  0.000000D+00                             NZ=T
 IS=     2 IAt=     2 ISR=     1 T=0 IP=      7 IndIP=     10 IndIPD=      6 C=  1.841498D+00  0.000000D+00                             NZ=T
 IS=     2 IAt=     2 ISR=     1 T=0 IP=      8 IndIP=     11 IndIPD=      7 C=  1.370586D-01  0.000000D+00                             NZ=T
 IS=     2 IAt=     2 ISR=     1 T=0 IP=      9 IndIP=     12 IndIPD=      8 C=  3.324917D-03  0.000000D+00                             NZ=T
 IS=     3 IAt=     2 ISR=     2 T=0 IP=      1 IndIP=     13 IndIPD=      0 C= -6.085686D-03  0.000000D+00                             NZ=T
 IS=     3 IAt=     2 ISR=     2 T=0 IP=      2 IndIP=     14 IndIPD=      1 C= -3.114138D-02  0.000000D+00                             NZ=T
 IS=     3 IAt=     2 ISR=     2 T=0 IP=      3 IndIP=     15 IndIPD=      2 C= -1.340760D-01  0.000000D+00                             NZ=T
 IS=     3 IAt=     2 ISR=     2 T=0 IP=      4 IndIP=     16 IndIPD=      3 C= -3.604805D-01  0.000000D+00                             NZ=T
 IS=     3 IAt=     2 ISR=     2 T=0 IP=      5 IndIP=     17 IndIPD=      4 C= -4.954545D-01  0.000000D+00                             NZ=T
 IS=     3 IAt=     2 ISR=     2 T=0 IP=      6 IndIP=     18 IndIPD=      5 C=  2.126614D-01  0.000000D+00                             NZ=T
 IS=     3 IAt=     2 ISR=     2 T=0 IP=      7 IndIP=     19 IndIPD=      6 C=  6.152727D-01  0.000000D+00                             NZ=T
 IS=     3 IAt=     2 ISR=     2 T=0 IP=      8 IndIP=     20 IndIPD=      7 C=  2.071440D-01  0.000000D+00                             NZ=T
 IS=     4 IAt=     2 ISR=     3 T=0 IP=      1 IndIP=     21 IndIPD=      0 C=  1.521098D-03  0.000000D+00                             NZ=T
 IS=     4 IAt=     2 ISR=     3 T=0 IP=      2 IndIP=     22 IndIPD=      1 C= -2.379509D-03  0.000000D+00                             NZ=T
 IS=     4 IAt=     2 ISR=     3 T=0 IP=      3 IndIP=     23 IndIPD=      2 C= -1.988937D-02  0.000000D+00                             NZ=T
 IS=     4 IAt=     2 ISR=     3 T=0 IP=      4 IndIP=     24 IndIPD=      3 C= -6.775799D-03  0.000000D+00                             NZ=T
 IS=     4 IAt=     2 ISR=     3 T=0 IP=      5 IndIP=     25 IndIPD=      4 C= -9.360493D-03  0.000000D+00                             NZ=T
 IS=     4 IAt=     2 ISR=     3 T=0 IP=      6 IndIP=     26 IndIPD=      5 C=  1.615288D-02  0.000000D+00                             NZ=T
 IS=     4 IAt=     2 ISR=     3 T=0 IP=      7 IndIP=     27 IndIPD=      6 C= -9.059148D-02  0.000000D+00                             NZ=T
 IS=     4 IAt=     2 ISR=     3 T=0 IP=      8 IndIP=     28 IndIPD=      7 C=  8.779692D-02  0.000000D+00                             NZ=T
 IS=     5 IAt=     2 ISR=     4 T=0 IP=      1 IndIP=     29 IndIPD=      0 C=  4.218867D-02  0.000000D+00                             NZ=T
 IS=     6 IAt=     2 ISR=     5 T=1 IP=      1 IndIP=     30 IndIPD=      0 C=  0.000000D+00  3.916140D+00                             NZ=T
 IS=     6 IAt=     2 ISR=     5 T=1 IP=      2 IndIP=     31 IndIPD=      1 C=  0.000000D+00  4.557958D+00                             NZ=T
 IS=     6 IAt=     2 ISR=     5 T=1 IP=      3 IndIP=     32 IndIPD=      2 C=  0.000000D+00  4.125852D+00                             NZ=T
 IS=     6 IAt=     2 ISR=     5 T=1 IP=      4 IndIP=     33 IndIPD=      3 C=  0.000000D+00  2.441280D+00                             NZ=T
 IS=     6 IAt=     2 ISR=     5 T=1 IP=      5 IndIP=     34 IndIPD=      4 C=  0.000000D+00  8.329269D-01                             NZ=T
 IS=     6 IAt=     2 ISR=     5 T=1 IP=      6 IndIP=     35 IndIPD=      5 C=  0.000000D+00  1.089733D-01                             NZ=T
 IS=     7 IAt=     2 ISR=     6 T=1 IP=      1 IndIP=     36 IndIPD=      0 C=  0.000000D+00  2.457740D-02                             NZ=T
 IS=     7 IAt=     2 ISR=     6 T=1 IP=      2 IndIP=     37 IndIPD=      1 C=  0.000000D+00 -2.625009D-02                             NZ=T
 IS=     7 IAt=     2 ISR=     6 T=1 IP=      3 IndIP=     38 IndIPD=      2 C=  0.000000D+00  1.134429D-02                             NZ=T
 IS=     7 IAt=     2 ISR=     6 T=1 IP=      4 IndIP=     39 IndIPD=      3 C=  0.000000D+00 -2.983152D-02                             NZ=T
 IS=     7 IAt=     2 ISR=     6 T=1 IP=      5 IndIP=     40 IndIPD=      4 C=  0.000000D+00  6.561456D-03                             NZ=T
 IS=     7 IAt=     2 ISR=     6 T=1 IP=      6 IndIP=     41 IndIPD=      5 C=  0.000000D+00  4.674178D-02                             NZ=T
 IS=     8 IAt=     2 ISR=     7 T=1 IP=      1 IndIP=     42 IndIPD=      0 C=  0.000000D+00  1.107711D-02                             NZ=T
 IS=     9 IAt=     2 ISR=     8 T=2 IP=      1 IndIP=     43 IndIPD=      1 C=  0.000000D+00  0.000000D+00  2.790017D-02  0.000000D+00 NZ=T
 IExCor=    0 DFT=F Ex=HF Corr=None ExCW=0 ScaHFX=  1.000000
 ScaDFX=  1.000000  1.000000  1.000000  1.000000 ScalE2=  1.000000  1.000000
 IRadAn=      5 IRanWt=     -1 IRanGd=            0 ICorTp=0 IEmpDi=  4
 NAtoms=    2 NActive=    2 NUniq=    2 SFac= 1.00D+00 NAtFMM=   60 NAOKFM=F Big=F
 Integral buffers will be    131072 words long.
 Raffenetti 2 integral format.
 Two-electron integral symmetry is turned on.
 Leave Link  301 at Mon Mar 28 14:26:12 2022, MaxMem=  9663676416 cpu:               2.1 elap:               0.1
 (Enter /nopt/nrel/apps/gaussian/g16C_1/g16/l302.exe)
 NPDir=0 NMtPBC=     1 NCelOv=     1 NCel=       1 NClECP=     1 NCelD=      1
         NCelK=      1 NCelE2=     1 NClLst=     1 CellRange=     0.0.
 One-electron integrals computed using PRISM.
 One-electron integral symmetry used in STVInt
 Entering OneElI...
 Calculate overlap and kinetic energy integrals
    NBasis =  19  MinDer = 0  MaxDer = 0
 Requested accuracy = 0.1000D-12
 Symmetry will be used
 PrmmSu-InSpLW:  IPartL=    0 NPrtUS=   36 NPrtUL=    1 DoSpLW=F IThBeg=    0 IThEnd=   35 NThAct=   36.
 PrSmSu:  IncTry=   512 NBBP=             45 NTPThr=   100 NPartT=   36 Incr=           1 LDynOK=F GPUOK=F.
 PrsmSu:  NPrtUS=  36 ThrOK=T IAlg=1 LenDen=           0 ISkipM=0 DoSpLW=F IThBeg=    0 IThEnd=   35.
 Prism:   IPart=     0 DynPar=F LinDyn=F Incr=           1.
 PRISM was handed   268425507 working-precision words and    45 shell-pairs
 PRISM was handed   268425507 working-precision words and    45 shell-pairs
 PRISM was handed   268425507 working-precision words and    45 shell-pairs
 PRISM was handed   268425507 working-precision words and    45 shell-pairs
 PRISM was handed   268425507 working-precision words and    45 shell-pairs
 PRISM was handed   268425507 working-precision words and    45 shell-pairs
 PRISM was handed   268425507 working-precision words and    45 shell-pairs
 PRISM was handed   268425507 working-precision words and    45 shell-pairs
 PRISM was handed   268425507 working-precision words and    45 shell-pairs
 PRISM was handed   268425507 working-precision words and    45 shell-pairs
 IPart= 13 NShTot=           0 NBatch=           0 AvBLen=         0.0
 IPart=  5 NShTot=           0 NBatch=           0 AvBLen=         0.0
 IPart= 23 NShTot=           0 NBatch=           0 AvBLen=         0.0
 IPart=  8 NShTot=           0 NBatch=           0 AvBLen=         0.0
 IPart= 31 NShTot=           0 NBatch=           0 AvBLen=         0.0
 IPart= 16 NShTot=           0 NBatch=           0 AvBLen=         0.0
 IPart= 17 NShTot=           0 NBatch=           0 AvBLen=         0.0
 PRISM was handed   268425507 working-precision words and    45 shell-pairs
 PRISM was handed   268425507 working-precision words and    45 shell-pairs
 PRISM was handed   268425507 working-precision words and    45 shell-pairs
 PRISM was handed   268425507 working-precision words and    45 shell-pairs
 IPart= 27 NShTot=           0 NBatch=           0 AvBLen=         0.0
 PRISM was handed   268425507 working-precision words and    45 shell-pairs
 PRISM was handed   268425507 working-precision words and    45 shell-pairs
 PRISM was handed   268425507 working-precision words and    45 shell-pairs
 PRISM was handed   268425507 working-precision words and    45 shell-pairs
 IPart=  4 NShTot=           0 NBatch=           0 AvBLen=         0.0
 PRISM was handed   268425507 working-precision words and    45 shell-pairs
 PRISM was handed   268425507 working-precision words and    45 shell-pairs
 IPart= 25 NShTot=           0 NBatch=           0 AvBLen=         0.0
 IPart= 14 NShTot=           0 NBatch=           0 AvBLen=         0.0
 IPart= 29 NShTot=           0 NBatch=           0 AvBLen=         0.0
 IPart=  1 NShTot=          14 NBatch=          14 AvBLen=         1.0
 PRISM was handed   268425507 working-precision words and    45 shell-pairs
 PRISM was handed   268425507 working-precision words and    45 shell-pairs
 IPart= 22 NShTot=           0 NBatch=           0 AvBLen=         0.0
 IPart= 19 NShTot=           0 NBatch=           0 AvBLen=         0.0
 IPart=  6 NShTot=           0 NBatch=           0 AvBLen=         0.0
 IPart= 12 NShTot=           0 NBatch=           0 AvBLen=         0.0
 IPart= 26 NShTot=           0 NBatch=           0 AvBLen=         0.0
 IPart= 15 NShTot=           0 NBatch=           0 AvBLen=         0.0
 PRISM was handed   268425507 working-precision words and    45 shell-pairs
 PRISM was handed   268425507 working-precision words and    45 shell-pairs
 PRISM was handed   268425507 working-precision words and    45 shell-pairs
 IPart= 21 NShTot=           0 NBatch=           0 AvBLen=         0.0
 IPart= 30 NShTot=           0 NBatch=           0 AvBLen=         0.0
 PRISM was handed   268425507 working-precision words and    45 shell-pairs
 IPart= 34 NShTot=           0 NBatch=           0 AvBLen=         0.0
 PRISM was handed   268425507 working-precision words and    45 shell-pairs
 IPart= 35 NShTot=           0 NBatch=           0 AvBLen=         0.0
 PRISM was handed   268425507 working-precision words and    45 shell-pairs
 PRISM was handed   268425507 working-precision words and    45 shell-pairs
 PRISM was handed   268425507 working-precision words and    45 shell-pairs
 IPart=  3 NShTot=           1 NBatch=           1 AvBLen=         1.0
 IPart=  9 NShTot=           0 NBatch=           0 AvBLen=         0.0
 PRISM was handed   268425507 working-precision words and    45 shell-pairs
 PRISM was handed   268425507 working-precision words and    45 shell-pairs
 IPart= 11 NShTot=           0 NBatch=           0 AvBLen=         0.0
 PRISM was handed   268425507 working-precision words and    45 shell-pairs
 PRISM was handed   268425507 working-precision words and    45 shell-pairs
 PRISM was handed   268425507 working-precision words and    45 shell-pairs
 PRISM was handed   268425507 working-precision words and    45 shell-pairs
 IPart=  0 NShTot=          27 NBatch=          27 AvBLen=         1.0
 IPart= 10 NShTot=           0 NBatch=           0 AvBLen=         0.0
 IPart= 32 NShTot=           0 NBatch=           0 AvBLen=         0.0
 IPart= 28 NShTot=           0 NBatch=           0 AvBLen=         0.0
 IPart= 33 NShTot=           0 NBatch=           0 AvBLen=         0.0
 IPart=  2 NShTot=           3 NBatch=           3 AvBLen=         1.0
 IPart= 20 NShTot=           0 NBatch=           0 AvBLen=         0.0
 IPart= 18 NShTot=           0 NBatch=           0 AvBLen=         0.0
 IPart= 24 NShTot=           0 NBatch=           0 AvBLen=         0.0
 IPart=  7 NShTot=           0 NBatch=           0 AvBLen=         0.0
 PrSmSu:  NxtVal=             37.
 *** Overlap *** 
                1             2             3             4             5 
      1  0.100000D+01
      2  0.925675D-02  0.100000D+01
      3  0.922981D-01  0.247971D+00  0.100000D+01
      4  0.392288D+00  0.318917D-02  0.166761D+00  0.100000D+01
      5  0.300622D+00  0.200816D-01  0.169469D+00  0.877618D+00  0.100000D+01
      6  0.000000D+00  0.000000D+00  0.000000D+00  0.000000D+00  0.000000D+00
      7  0.000000D+00  0.000000D+00  0.000000D+00  0.000000D+00  0.000000D+00
      8 -0.103820D+00  0.000000D+00  0.000000D+00  0.000000D+00  0.000000D+00
      9  0.000000D+00  0.000000D+00  0.000000D+00  0.000000D+00  0.000000D+00
     10  0.000000D+00  0.000000D+00  0.000000D+00  0.000000D+00  0.000000D+00
     11 -0.488060D+00  0.000000D+00  0.000000D+00  0.000000D+00  0.000000D+00
     12  0.000000D+00  0.000000D+00  0.000000D+00  0.000000D+00  0.000000D+00
     13  0.000000D+00  0.000000D+00  0.000000D+00  0.000000D+00  0.000000D+00
     14 -0.227066D+00  0.000000D+00  0.000000D+00  0.000000D+00  0.000000D+00
     15  0.436650D+00  0.000000D+00  0.000000D+00  0.000000D+00  0.000000D+00
     16  0.000000D+00  0.000000D+00  0.000000D+00  0.000000D+00  0.000000D+00
     17  0.000000D+00  0.000000D+00  0.000000D+00  0.000000D+00  0.000000D+00
     18  0.000000D+00  0.000000D+00  0.000000D+00  0.000000D+00  0.000000D+00
     19  0.000000D+00  0.000000D+00  0.000000D+00  0.000000D+00  0.000000D+00
                6             7             8             9            10 
      6  0.100000D+01
      7  0.000000D+00  0.100000D+01
      8  0.000000D+00  0.000000D+00  0.100000D+01
      9  0.154548D+00  0.000000D+00  0.000000D+00  0.100000D+01
     10  0.000000D+00  0.154548D+00  0.000000D+00  0.000000D+00  0.100000D+01
     11  0.000000D+00  0.000000D+00  0.154548D+00  0.000000D+00  0.000000D+00
     12  0.447959D-01  0.000000D+00  0.000000D+00  0.672325D+00  0.000000D+00
     13  0.000000D+00  0.447959D-01  0.000000D+00  0.000000D+00  0.672325D+00
     14  0.000000D+00  0.000000D+00  0.447959D-01  0.000000D+00  0.000000D+00
     15  0.000000D+00  0.000000D+00  0.000000D+00  0.000000D+00  0.000000D+00
     16  0.000000D+00  0.000000D+00  0.000000D+00  0.000000D+00  0.000000D+00
     17  0.000000D+00  0.000000D+00  0.000000D+00  0.000000D+00  0.000000D+00
     18  0.000000D+00  0.000000D+00  0.000000D+00  0.000000D+00  0.000000D+00
     19  0.000000D+00  0.000000D+00  0.000000D+00  0.000000D+00  0.000000D+00
               11            12            13            14            15 
     11  0.100000D+01
     12  0.000000D+00  0.100000D+01
     13  0.000000D+00  0.000000D+00  0.100000D+01
     14  0.672325D+00  0.000000D+00  0.000000D+00  0.100000D+01
     15  0.000000D+00  0.000000D+00  0.000000D+00  0.000000D+00  0.100000D+01
     16  0.000000D+00  0.000000D+00  0.000000D+00  0.000000D+00  0.000000D+00
     17  0.000000D+00  0.000000D+00  0.000000D+00  0.000000D+00  0.000000D+00
     18  0.000000D+00  0.000000D+00  0.000000D+00  0.000000D+00  0.000000D+00
     19  0.000000D+00  0.000000D+00  0.000000D+00  0.000000D+00  0.000000D+00
               16            17            18            19 
     16  0.100000D+01
     17  0.000000D+00  0.100000D+01
     18  0.000000D+00  0.000000D+00  0.100000D+01
     19  0.000000D+00  0.000000D+00  0.000000D+00  0.100000D+01
 *** Kinetic Energy *** 
                1             2             3             4             5 
      1  0.760032D+00
      2 -0.243562D-02  0.559245D+02
      3 -0.184770D-01 -0.270711D+01  0.198850D+01
      4  0.449599D-01 -0.186861D+00 -0.113978D+00  0.981361D-01
      5  0.165160D-01  0.138303D-02  0.114008D-01  0.423571D-01  0.346050D-01
      6  0.000000D+00  0.000000D+00  0.000000D+00  0.000000D+00  0.000000D+00
      7  0.000000D+00  0.000000D+00  0.000000D+00  0.000000D+00  0.000000D+00
      8 -0.474818D-02  0.000000D+00  0.000000D+00  0.000000D+00  0.000000D+00
      9  0.000000D+00  0.000000D+00  0.000000D+00  0.000000D+00  0.000000D+00
     10  0.000000D+00  0.000000D+00  0.000000D+00  0.000000D+00  0.000000D+00
     11 -0.103477D+00  0.000000D+00  0.000000D+00  0.000000D+00  0.000000D+00
     12  0.000000D+00  0.000000D+00  0.000000D+00  0.000000D+00  0.000000D+00
     13  0.000000D+00  0.000000D+00  0.000000D+00  0.000000D+00  0.000000D+00
     14 -0.199777D-01  0.000000D+00  0.000000D+00  0.000000D+00  0.000000D+00
     15  0.182419D+00  0.000000D+00  0.000000D+00  0.000000D+00  0.000000D+00
     16  0.000000D+00  0.000000D+00  0.000000D+00  0.000000D+00  0.000000D+00
     17  0.000000D+00  0.000000D+00  0.000000D+00  0.000000D+00  0.000000D+00
     18  0.000000D+00  0.000000D+00  0.000000D+00  0.000000D+00  0.000000D+00
     19  0.000000D+00  0.000000D+00  0.000000D+00  0.000000D+00  0.000000D+00
                6             7             8             9            10 
      6  0.590429D+01
      7  0.000000D+00  0.590429D+01
      8  0.000000D+00  0.000000D+00  0.590429D+01
      9  0.132596D-01  0.000000D+00  0.000000D+00  0.163902D+00
     10  0.000000D+00  0.132596D-01  0.000000D+00  0.000000D+00  0.163902D+00
     11  0.000000D+00  0.000000D+00  0.132596D-01  0.000000D+00  0.000000D+00
     12  0.444443D-02  0.000000D+00  0.000000D+00  0.524934D-01  0.000000D+00
     13  0.000000D+00  0.444443D-02  0.000000D+00  0.000000D+00  0.524934D-01
     14  0.000000D+00  0.000000D+00  0.444443D-02  0.000000D+00  0.000000D+00
     15  0.000000D+00  0.000000D+00  0.000000D+00  0.000000D+00  0.000000D+00
     16  0.000000D+00  0.000000D+00  0.000000D+00  0.000000D+00  0.000000D+00
     17  0.000000D+00  0.000000D+00  0.000000D+00  0.000000D+00  0.000000D+00
     18  0.000000D+00  0.000000D+00  0.000000D+00  0.000000D+00  0.000000D+00
     19  0.000000D+00  0.000000D+00  0.000000D+00  0.000000D+00  0.000000D+00
               11            12            13            14            15 
     11  0.163902D+00
     12  0.000000D+00  0.513250D-01
     13  0.000000D+00  0.000000D+00  0.513250D-01
     14  0.524934D-01  0.000000D+00  0.000000D+00  0.513250D-01
     15  0.000000D+00  0.000000D+00  0.000000D+00  0.000000D+00  0.340550D+00
     16  0.000000D+00  0.000000D+00  0.000000D+00  0.000000D+00  0.000000D+00
     17  0.000000D+00  0.000000D+00  0.000000D+00  0.000000D+00  0.000000D+00
     18  0.000000D+00  0.000000D+00  0.000000D+00  0.000000D+00  0.000000D+00
     19  0.000000D+00  0.000000D+00  0.000000D+00  0.000000D+00  0.000000D+00
               16            17            18            19 
     16  0.340550D+00
     17  0.000000D+00  0.340550D+00
     18  0.000000D+00  0.000000D+00  0.340550D+00
     19  0.000000D+00  0.000000D+00  0.000000D+00  0.340550D+00
 Entering OneElI...
 Calculate potential energy integrals
    NBasis =  19  MinDer = 0  MaxDer = 0
 Requested accuracy = 0.1000D-12
 Symmetry will be used
 PrmmSu-InSpLW:  IPartL=    0 NPrtUS=   36 NPrtUL=    1 DoSpLW=F IThBeg=    0 IThEnd=   35 NThAct=   36.
 PrSmSu:  IncTry=   512 NBBP=             90 NTPThr=   100 NPartT=   36 Incr=           1 LDynOK=F GPUOK=F.
 PrsmSu:  NPrtUS=  36 ThrOK=T IAlg=1 LenDen=           0 ISkipM=0 DoSpLW=F IThBeg=    0 IThEnd=   35.
 Prism:   IPart=     0 DynPar=F LinDyn=F Incr=           1.
 PRISM was handed   268425822 working-precision words and    45 shell-pairs
 PRISM was handed   268425822 working-precision words and    45 shell-pairs
 PRISM was handed   268425822 working-precision words and    45 shell-pairs
 PRISM was handed   268425822 working-precision words and    45 shell-pairs
 PRISM was handed   268425822 working-precision words and    45 shell-pairs
 PRISM was handed   268425822 working-precision words and    45 shell-pairs
 PRISM was handed   268425822 working-precision words and    45 shell-pairs
 PRISM was handed   268425822 working-precision words and    45 shell-pairs
 PRISM was handed   268425822 working-precision words and    45 shell-pairs
 PRISM was handed   268425822 working-precision words and    45 shell-pairs
 PRISM was handed   268425822 working-precision words and    45 shell-pairs
 PRISM was handed   268425822 working-precision words and    45 shell-pairs
 PRISM was handed   268425822 working-precision words and    45 shell-pairs
 PRISM was handed   268425822 working-precision words and    45 shell-pairs
 PRISM was handed   268425822 working-precision words and    45 shell-pairs
 PRISM was handed   268425822 working-precision words and    45 shell-pairs
 PRISM was handed   268425822 working-precision words and    45 shell-pairs
 PRISM was handed   268425822 working-precision words and    45 shell-pairs
 PRISM was handed   268425822 working-precision words and    45 shell-pairs
 PRISM was handed   268425822 working-precision words and    45 shell-pairs
 PRISM was handed   268425822 working-precision words and    45 shell-pairs
 PRISM was handed   268425822 working-precision words and    45 shell-pairs
 PRISM was handed   268425822 working-precision words and    45 shell-pairs
 PRISM was handed   268425822 working-precision words and    45 shell-pairs
 PRISM was handed   268425822 working-precision words and    45 shell-pairs
 PRISM was handed   268425822 working-precision words and    45 shell-pairs
 PRISM was handed   268425822 working-precision words and    45 shell-pairs
 PRISM was handed   268425822 working-precision words and    45 shell-pairs
 PRISM was handed   268425822 working-precision words and    45 shell-pairs
 PRISM was handed   268425822 working-precision words and    45 shell-pairs
 PRISM was handed   268425822 working-precision words and    45 shell-pairs
 PRISM was handed   268425822 working-precision words and    45 shell-pairs
 PRISM was handed   268425822 working-precision words and    45 shell-pairs
 PRISM was handed   268425822 working-precision words and    45 shell-pairs
 PRISM was handed   268425822 working-precision words and    45 shell-pairs
 PRISM was handed   268425822 working-precision words and    45 shell-pairs
 IPart=  3 NShTot=           2 NBatch=           1 AvBLen=         2.0
 IPart=  2 NShTot=           6 NBatch=           3 AvBLen=         2.0
 IPart=  1 NShTot=          28 NBatch=          14 AvBLen=         2.0
 IPart=  0 NShTot=          54 NBatch=          27 AvBLen=         2.0
 IPart= 10 NShTot=           0 NBatch=           0 AvBLen=         0.0
 IPart= 22 NShTot=           0 NBatch=           0 AvBLen=         0.0
 IPart= 11 NShTot=           0 NBatch=           0 AvBLen=         0.0
 IPart= 32 NShTot=           0 NBatch=           0 AvBLen=         0.0
 IPart= 28 NShTot=           0 NBatch=           0 AvBLen=         0.0
 IPart= 25 NShTot=           0 NBatch=           0 AvBLen=         0.0
 IPart= 30 NShTot=           0 NBatch=           0 AvBLen=         0.0
 IPart=  4 NShTot=           0 NBatch=           0 AvBLen=         0.0
 IPart= 14 NShTot=           0 NBatch=           0 AvBLen=         0.0
 IPart=  6 NShTot=           0 NBatch=           0 AvBLen=         0.0
 IPart=  9 NShTot=           0 NBatch=           0 AvBLen=         0.0
 IPart= 21 NShTot=           0 NBatch=           0 AvBLen=         0.0
 IPart= 27 NShTot=           0 NBatch=           0 AvBLen=         0.0
 IPart= 26 NShTot=           0 NBatch=           0 AvBLen=         0.0
 IPart=  5 NShTot=           0 NBatch=           0 AvBLen=         0.0
 IPart= 18 NShTot=           0 NBatch=           0 AvBLen=         0.0
 IPart= 19 NShTot=           0 NBatch=           0 AvBLen=         0.0
 IPart=  8 NShTot=           0 NBatch=           0 AvBLen=         0.0
 IPart= 12 NShTot=           0 NBatch=           0 AvBLen=         0.0
 IPart= 24 NShTot=           0 NBatch=           0 AvBLen=         0.0
 IPart= 35 NShTot=           0 NBatch=           0 AvBLen=         0.0
 IPart= 15 NShTot=           0 NBatch=           0 AvBLen=         0.0
 IPart= 31 NShTot=           0 NBatch=           0 AvBLen=         0.0
 IPart= 16 NShTot=           0 NBatch=           0 AvBLen=         0.0
 IPart= 33 NShTot=           0 NBatch=           0 AvBLen=         0.0
 IPart= 13 NShTot=           0 NBatch=           0 AvBLen=         0.0
 IPart= 17 NShTot=           0 NBatch=           0 AvBLen=         0.0
 IPart=  7 NShTot=           0 NBatch=           0 AvBLen=         0.0
 IPart= 23 NShTot=           0 NBatch=           0 AvBLen=         0.0
 IPart= 29 NShTot=           0 NBatch=           0 AvBLen=         0.0
 IPart= 34 NShTot=           0 NBatch=           0 AvBLen=         0.0
 IPart= 20 NShTot=           0 NBatch=           0 AvBLen=         0.0
 PrSmSu:  NxtVal=             37.
 ***** Potential Energy ***** 
                1             2             3             4             5 
      1  0.485520D+01
      2  0.471546D+00  0.116633D+03
      3  0.107339D+01  0.108282D+02  0.181719D+02
      4  0.177830D+01 -0.126942D+00  0.155710D+01  0.379945D+01
      5  0.132508D+01  0.105145D+01  0.209703D+01  0.302899D+01  0.287837D+01
      6  0.000000D+00  0.000000D+00  0.000000D+00  0.000000D+00  0.000000D+00
      7  0.000000D+00  0.000000D+00  0.000000D+00  0.000000D+00  0.000000D+00
      8 -0.843367D+00 -0.588709D-02 -0.485598D-01 -0.232218D-01 -0.179844D-01
      9  0.000000D+00  0.000000D+00  0.000000D+00  0.000000D+00  0.000000D+00
     10  0.000000D+00  0.000000D+00  0.000000D+00  0.000000D+00  0.000000D+00
     11 -0.206350D+01 -0.202925D-03 -0.105331D-01 -0.111694D+00 -0.896969D-01
     12  0.000000D+00  0.000000D+00  0.000000D+00  0.000000D+00  0.000000D+00
     13  0.000000D+00  0.000000D+00  0.000000D+00  0.000000D+00  0.000000D+00
     14 -0.852680D+00 -0.612657D-04 -0.295216D-02 -0.523814D-01 -0.537331D-01
     15  0.184576D+01  0.548631D-04  0.352464D-02  0.690237D-01  0.526937D-01
     16  0.000000D+00  0.000000D+00  0.000000D+00  0.000000D+00  0.000000D+00
     17  0.000000D+00  0.000000D+00  0.000000D+00  0.000000D+00  0.000000D+00
     18  0.000000D+00  0.000000D+00  0.000000D+00  0.000000D+00  0.000000D+00
     19  0.000000D+00  0.000000D+00  0.000000D+00  0.000000D+00  0.000000D+00
                6             7             8             9            10 
      6  0.190098D+02
      7  0.000000D+00  0.190098D+02
      8  0.000000D+00  0.000000D+00  0.190275D+02
      9  0.123416D+01  0.000000D+00  0.000000D+00  0.321218D+01
     10  0.000000D+00  0.123416D+01  0.000000D+00  0.000000D+00  0.321218D+01
     11  0.000000D+00  0.000000D+00  0.124553D+01  0.000000D+00  0.000000D+00
     12  0.356434D+00  0.000000D+00  0.000000D+00  0.175801D+01  0.000000D+00
     13  0.000000D+00  0.356434D+00  0.000000D+00  0.000000D+00  0.175801D+01
     14  0.000000D+00  0.000000D+00  0.359886D+00  0.000000D+00  0.000000D+00
     15  0.000000D+00  0.000000D+00 -0.156980D-01  0.000000D+00  0.000000D+00
     16 -0.781531D-02  0.000000D+00  0.000000D+00 -0.610744D-01  0.000000D+00
     17  0.000000D+00 -0.781531D-02  0.000000D+00  0.000000D+00 -0.610744D-01
     18  0.000000D+00  0.000000D+00  0.000000D+00  0.000000D+00  0.000000D+00
     19  0.000000D+00  0.000000D+00  0.000000D+00  0.000000D+00  0.000000D+00
               11            12            13            14            15 
     11  0.329823D+01
     12  0.000000D+00  0.181859D+01
     13  0.000000D+00  0.000000D+00  0.181859D+01
     14  0.179842D+01  0.000000D+00  0.000000D+00  0.184493D+01
     15 -0.136015D+00  0.000000D+00  0.000000D+00 -0.653548D-01  0.324455D+01
     16  0.000000D+00 -0.317391D-01  0.000000D+00  0.000000D+00  0.000000D+00
     17  0.000000D+00  0.000000D+00 -0.317391D-01  0.000000D+00  0.000000D+00
     18  0.000000D+00  0.000000D+00  0.000000D+00  0.000000D+00  0.000000D+00
     19  0.000000D+00  0.000000D+00  0.000000D+00  0.000000D+00  0.000000D+00
               16            17            18            19 
     16  0.317439D+01
     17  0.000000D+00  0.317439D+01
     18  0.000000D+00  0.000000D+00  0.313392D+01
     19  0.000000D+00  0.000000D+00  0.000000D+00  0.313392D+01
 ****** Core Hamiltonian ****** 
                1             2             3             4             5 
      1 -0.409517D+01
      2 -0.473982D+00 -0.607081D+02
      3 -0.109186D+01 -0.135353D+02 -0.161834D+02
      4 -0.173334D+01 -0.599187D-01 -0.167108D+01 -0.370131D+01
      5 -0.130856D+01 -0.105007D+01 -0.208563D+01 -0.298663D+01 -0.284377D+01
      6  0.000000D+00  0.000000D+00  0.000000D+00  0.000000D+00  0.000000D+00
      7  0.000000D+00  0.000000D+00  0.000000D+00  0.000000D+00  0.000000D+00
      8  0.838619D+00  0.588709D-02  0.485598D-01  0.232218D-01  0.179844D-01
      9  0.000000D+00  0.000000D+00  0.000000D+00  0.000000D+00  0.000000D+00
     10  0.000000D+00  0.000000D+00  0.000000D+00  0.000000D+00  0.000000D+00
     11  0.196002D+01  0.202925D-03  0.105331D-01  0.111694D+00  0.896969D-01
     12  0.000000D+00  0.000000D+00  0.000000D+00  0.000000D+00  0.000000D+00
     13  0.000000D+00  0.000000D+00  0.000000D+00  0.000000D+00  0.000000D+00
     14  0.832703D+00  0.612657D-04  0.295216D-02  0.523814D-01  0.537331D-01
     15 -0.166334D+01 -0.548631D-04 -0.352464D-02 -0.690237D-01 -0.526937D-01
     16  0.000000D+00  0.000000D+00  0.000000D+00  0.000000D+00  0.000000D+00
     17  0.000000D+00  0.000000D+00  0.000000D+00  0.000000D+00  0.000000D+00
     18  0.000000D+00  0.000000D+00  0.000000D+00  0.000000D+00  0.000000D+00
     19  0.000000D+00  0.000000D+00  0.000000D+00  0.000000D+00  0.000000D+00
                6             7             8             9            10 
      6 -0.131055D+02
      7  0.000000D+00 -0.131055D+02
      8  0.000000D+00  0.000000D+00 -0.131232D+02
      9 -0.122090D+01  0.000000D+00  0.000000D+00 -0.304828D+01
     10  0.000000D+00 -0.122090D+01  0.000000D+00  0.000000D+00 -0.304828D+01
     11  0.000000D+00  0.000000D+00 -0.123227D+01  0.000000D+00  0.000000D+00
     12 -0.351989D+00  0.000000D+00  0.000000D+00 -0.170551D+01  0.000000D+00
     13  0.000000D+00 -0.351989D+00  0.000000D+00  0.000000D+00 -0.170551D+01
     14  0.000000D+00  0.000000D+00 -0.355442D+00  0.000000D+00  0.000000D+00
     15  0.000000D+00  0.000000D+00  0.156980D-01  0.000000D+00  0.000000D+00
     16  0.781531D-02  0.000000D+00  0.000000D+00  0.610744D-01  0.000000D+00
     17  0.000000D+00  0.781531D-02  0.000000D+00  0.000000D+00  0.610744D-01
     18  0.000000D+00  0.000000D+00  0.000000D+00  0.000000D+00  0.000000D+00
     19  0.000000D+00  0.000000D+00  0.000000D+00  0.000000D+00  0.000000D+00
               11            12            13            14            15 
     11 -0.313433D+01
     12  0.000000D+00 -0.176726D+01
     13  0.000000D+00  0.000000D+00 -0.176726D+01
     14 -0.174592D+01  0.000000D+00  0.000000D+00 -0.179361D+01
     15  0.136015D+00  0.000000D+00  0.000000D+00  0.653548D-01 -0.290400D+01
     16  0.000000D+00  0.317391D-01  0.000000D+00  0.000000D+00  0.000000D+00
     17  0.000000D+00  0.000000D+00  0.317391D-01  0.000000D+00  0.000000D+00
     18  0.000000D+00  0.000000D+00  0.000000D+00  0.000000D+00  0.000000D+00
     19  0.000000D+00  0.000000D+00  0.000000D+00  0.000000D+00  0.000000D+00
               16            17            18            19 
     16 -0.283384D+01
     17  0.000000D+00 -0.283384D+01
     18  0.000000D+00  0.000000D+00 -0.279337D+01
     19  0.000000D+00  0.000000D+00  0.000000D+00 -0.279337D+01
 SVDSVc IOpt=   1 NormSV=T IR=1
 SVDSVc V= 2.30D+00 1.81D+00 1.22D+00 1.18D+00 1.00D+00 9.81D-01 7.30D-01 4.70D-01 2.06D-01 1.04D-01
 SVDSVc IOpt=   1 NormSV=T IR=2
 SVDSVc V= 1.00D+00
 SVDSVc IOpt=   1 NormSV=T IR=3
 SVDSVc V= 1.70D+00 1.00D+00 9.81D-01 3.19D-01
 SVDSVc IOpt=   1 NormSV=T IR=4
 SVDSVc V= 1.70D+00 1.00D+00 9.81D-01 3.19D-01
 TstOVc:  Largest diagonal error= 2.66D-15 IB=1 I=    1.
 TstOVc:  Largest same sym error= 1.06D-15 IB=1 I=   10 J=    7.
 TstOVc:  Largest diff sym error= 0.00D+00 IB=0 JB=0 I=    0 J=    0.
 Orthogonalized basis functions: 
                 1             2             3             4             5 
      1   0.338462D+00 -0.122147D+00 -0.200289D+00  0.259804D+00  0.000000D+00
      2   0.295415D-01  0.467467D-01  0.561872D+00  0.377861D+00  0.000000D+00
      3   0.112731D+00  0.128428D+00  0.503569D+00  0.280161D+00  0.000000D+00
      4   0.328791D+00  0.305670D+00 -0.463872D-01 -0.194193D+00  0.000000D+00
      5   0.314925D+00  0.312969D+00 -0.197217D-01 -0.209997D+00  0.000000D+00
      6   0.000000D+00  0.000000D+00  0.000000D+00  0.000000D+00  0.000000D+00
      7   0.000000D+00  0.000000D+00  0.000000D+00  0.000000D+00  0.000000D+00
      8  -0.599029D-01  0.114085D+00 -0.290461D-01  0.288211D-01  0.000000D+00
      9   0.000000D+00  0.000000D+00  0.000000D+00  0.000000D+00  0.000000D+00
     10   0.000000D+00  0.000000D+00  0.000000D+00  0.000000D+00  0.000000D+00
     11  -0.225750D+00  0.408024D+00 -0.123683D+00  0.143864D+00  0.000000D+00
     12   0.000000D+00  0.000000D+00  0.000000D+00  0.000000D+00  0.000000D+00
     13   0.000000D+00  0.000000D+00  0.000000D+00  0.000000D+00  0.000000D+00
     14  -0.177674D+00  0.378118D+00 -0.178817D+00  0.219939D+00  0.000000D+00
     15   0.113519D+00 -0.656543D-01 -0.401225D+00  0.639403D+00  0.000000D+00
     16   0.000000D+00  0.000000D+00  0.000000D+00  0.000000D+00  0.000000D+00
     17   0.000000D+00  0.000000D+00  0.000000D+00  0.000000D+00  0.000000D+00
     18   0.000000D+00  0.000000D+00  0.000000D+00  0.000000D+00  0.100000D+01
     19   0.000000D+00  0.000000D+00  0.000000D+00  0.000000D+00  0.000000D+00
                 6             7             8             9            10 
      1  -0.215129D-02 -0.104973D-01  0.792877D+00  0.102869D+01 -0.804244D+00
      2  -0.329234D-03 -0.777614D+00  0.641415D-02  0.167490D-01  0.368600D-01
      3   0.205086D-04  0.859619D+00 -0.180737D-01 -0.340068D-01  0.206542D-01
      4   0.719586D-03 -0.106727D+00 -0.886300D-01  0.352682D+00  0.218575D+01
      5   0.942962D-03 -0.122942D+00 -0.297483D+00 -0.772486D+00 -0.187594D+01
      6   0.000000D+00  0.000000D+00  0.000000D+00  0.000000D+00  0.000000D+00
      7   0.000000D+00  0.000000D+00  0.000000D+00  0.000000D+00  0.000000D+00
      8   0.981388D+00 -0.253575D-02  0.207037D+00 -0.879862D-01  0.533500D-02
      9   0.000000D+00  0.000000D+00  0.000000D+00  0.000000D+00  0.000000D+00
     10   0.000000D+00  0.000000D+00  0.000000D+00  0.000000D+00  0.000000D+00
     11  -0.595942D-01 -0.651524D-03 -0.428086D+00  0.139995D+01 -0.654363D+00
     12   0.000000D+00  0.000000D+00  0.000000D+00  0.000000D+00  0.000000D+00
     13   0.000000D+00  0.000000D+00  0.000000D+00  0.000000D+00  0.000000D+00
     14  -0.225431D+00 -0.677536D-02  0.865385D+00 -0.886294D+00  0.286950D+00
     15   0.483032D-01  0.169523D-01 -0.653340D+00 -0.565727D+00  0.391962D+00
     16   0.000000D+00  0.000000D+00  0.000000D+00  0.000000D+00  0.000000D+00
     17   0.000000D+00  0.000000D+00  0.000000D+00  0.000000D+00  0.000000D+00
     18   0.000000D+00  0.000000D+00  0.000000D+00  0.000000D+00  0.000000D+00
     19   0.000000D+00  0.000000D+00  0.000000D+00  0.000000D+00  0.000000D+00
                11            12            13            14            15 
      1   0.000000D+00  0.000000D+00  0.000000D+00  0.000000D+00  0.000000D+00
      2   0.000000D+00  0.000000D+00  0.000000D+00  0.000000D+00  0.000000D+00
      3   0.000000D+00  0.000000D+00  0.000000D+00  0.000000D+00  0.000000D+00
      4   0.000000D+00  0.000000D+00  0.000000D+00  0.000000D+00  0.000000D+00
      5   0.000000D+00  0.000000D+00  0.000000D+00  0.000000D+00  0.000000D+00
      6   0.000000D+00  0.152093D+00  0.000000D+00  0.982915D+00 -0.204821D+00
      7   0.000000D+00  0.000000D+00  0.000000D+00  0.000000D+00  0.000000D+00
      8   0.000000D+00  0.000000D+00  0.000000D+00  0.000000D+00  0.000000D+00
      9   0.000000D+00  0.537460D+00  0.000000D+00 -0.589883D-01  0.125925D+01
     10   0.000000D+00  0.000000D+00  0.000000D+00  0.000000D+00  0.000000D+00
     11   0.000000D+00  0.000000D+00  0.000000D+00  0.000000D+00  0.000000D+00
     12   0.000000D+00  0.525304D+00  0.000000D+00 -0.224234D+00 -0.122909D+01
     13   0.000000D+00  0.000000D+00  0.000000D+00  0.000000D+00  0.000000D+00
     14   0.000000D+00  0.000000D+00  0.000000D+00  0.000000D+00  0.000000D+00
     15   0.000000D+00  0.000000D+00  0.000000D+00  0.000000D+00  0.000000D+00
     16   0.000000D+00  0.000000D+00  0.100000D+01  0.000000D+00  0.000000D+00
     17   0.000000D+00  0.000000D+00  0.000000D+00  0.000000D+00  0.000000D+00
     18   0.000000D+00  0.000000D+00  0.000000D+00  0.000000D+00  0.000000D+00
     19   0.100000D+01  0.000000D+00  0.000000D+00  0.000000D+00  0.000000D+00
                16            17            18            19 
      1   0.000000D+00  0.000000D+00  0.000000D+00  0.000000D+00
      2   0.000000D+00  0.000000D+00  0.000000D+00  0.000000D+00
      3   0.000000D+00  0.000000D+00  0.000000D+00  0.000000D+00
      4   0.000000D+00  0.000000D+00  0.000000D+00  0.000000D+00
      5   0.000000D+00  0.000000D+00  0.000000D+00  0.000000D+00
      6   0.000000D+00  0.000000D+00  0.000000D+00  0.000000D+00
      7   0.152093D+00  0.000000D+00  0.982915D+00 -0.204821D+00
      8   0.000000D+00  0.000000D+00  0.000000D+00  0.000000D+00
      9   0.000000D+00  0.000000D+00  0.000000D+00  0.000000D+00
     10   0.537460D+00  0.000000D+00 -0.589883D-01  0.125925D+01
     11   0.000000D+00  0.000000D+00  0.000000D+00  0.000000D+00
     12   0.000000D+00  0.000000D+00  0.000000D+00  0.000000D+00
     13   0.525304D+00  0.000000D+00 -0.224234D+00 -0.122909D+01
     14   0.000000D+00  0.000000D+00  0.000000D+00  0.000000D+00
     15   0.000000D+00  0.000000D+00  0.000000D+00  0.000000D+00
     16   0.000000D+00  0.000000D+00  0.000000D+00  0.000000D+00
     17   0.000000D+00  0.100000D+01  0.000000D+00  0.000000D+00
     18   0.000000D+00  0.000000D+00  0.000000D+00  0.000000D+00
     19   0.000000D+00  0.000000D+00  0.000000D+00  0.000000D+00
 NBasis=    19 RedAO= T EigKep=  1.04D-01  NBF=    10     1     4     4
 NBsUse=    19 1.00D-06 EigRej= -1.00D+00 NBFU=    10     1     4     4
 Leave Link  302 at Mon Mar 28 14:26:12 2022, MaxMem=  9663676416 cpu:               3.3 elap:               0.1
 (Enter /nopt/nrel/apps/gaussian/g16C_1/g16/l303.exe)
 DipDrv will not compute anything.
 Fermi contact integrals: 
                 1             2 
      1   0.628247D+00  0.187225D-01
      2   0.152643D-04  0.194288D+02
      3   0.951113D-03  0.784000D-02
      4   0.520111D-01 -0.235257D-01
      5   0.341666D-01  0.421887D-01
      6   0.000000D+00  0.000000D+00
      7   0.000000D+00  0.000000D+00
      8  -0.726782D-02  0.000000D+00
      9   0.000000D+00  0.000000D+00
     10   0.000000D+00  0.000000D+00
     11  -0.783527D-01  0.000000D+00
     12   0.000000D+00  0.000000D+00
     13   0.000000D+00  0.000000D+00
     14  -0.277610D-01  0.000000D+00
     15   0.104794D+00  0.000000D+00
     16   0.000000D+00  0.000000D+00
     17   0.000000D+00  0.000000D+00
     18   0.000000D+00  0.000000D+00
     19   0.000000D+00  0.000000D+00
 Leave Link  303 at Mon Mar 28 14:26:12 2022, MaxMem=  9663676416 cpu:               1.3 elap:               0.1
 (Enter /nopt/nrel/apps/gaussian/g16C_1/g16/l401.exe)
 ExpMin= 2.05D-02 ExpMax= 3.17D+04 ExpMxC= 1.08D+03 IAcc=3 IRadAn=         5 AccDes= 0.00D+00
 Harris functional with IExCor=  205 and IRadAn=       5 diagonalized for initial guess.
 HarFok:  IExCor=  205 AccDes= 0.00D+00 IRadAn=         5 IDoV= 1 UseB2=F ITyADJ=14
 ICtDFT=  3500011 ScaDFX=  1.000000  1.000000  1.000000  1.000000
 FoFCou: FMM=F IPFlag=           0 FMFlag=      100000 FMFlg1=           0
         NFxFlg=           0 DoJE=T BraDBF=F KetDBF=T FulRan=T
         wScrn=  0.000000 ICntrl=       500 IOpCl=  0 I1Cent=   200000004 NGrid=           0
         NMat0=    1 NMatS0=      1 NMatT0=    0 NMatD0=    1 NMtDS0=    0 NMtDT0=    0
 Petite list used in FoFCou.
 Harris En= -162.031479514742    
 JPrj=0 DoOrth=F DoCkMO=F.
 Initial guess orbital symmetries:
 Alpha Orbitals:
       Occupied  (SG) (SG) (SG) (PI) (PI) (SG) (SG)
       Virtual   (PI) (PI) (SG) (SG) (PI) (PI) (SG) (PI) (PI) (DLTA)
                 (DLTA) (SG)
 Beta  Orbitals:
       Occupied  (SG) (SG) (SG) (PI) (PI)
       Virtual   (SG) (SG) (PI) (PI) (SG) (SG) (PI) (PI) (SG) (PI)
                 (PI) (DLTA) (DLTA) (SG)
 The electronic state of the initial guess is 3-SG.
 Initial guess <Sx>= 0.0000 <Sy>= 0.0000 <Sz>= 1.0000 <S**2>= 2.0000 S= 1.0000
 Leave Link  401 at Mon Mar 28 14:26:12 2022, MaxMem=  9663676416 cpu:               5.9 elap:               0.2
 (Enter /nopt/nrel/apps/gaussian/g16C_1/g16/l502.exe)
 Keep R1 and R2 ints in memory in symmetry-blocked form, NReq=7463451.
 FoFCou: FMM=F IPFlag=           0 FMFlag=           0 FMFlg1=           0
         NFxFlg=           0 DoJE=F BraDBF=F KetDBF=F FulRan=T
         wScrn=  0.000000 ICntrl=       600 IOpCl=  0 I1Cent=           0 NGrid=           0
         NMat0=    1 NMatS0=    190 NMatT0=    0 NMatD0=    1 NMtDS0=    0 NMtDT0=    0
 Petite list used in FoFCou.
 UHF open shell SCF:
 Using DIIS extrapolation, IDIIS=  1040.
 NGot=  9663676416 LenX=  9663662649 LenY=  9663661767
 Requested convergence on RMS density matrix=1.00D-08 within 128 cycles.
 Requested convergence on MAX density matrix=1.00D-06.
 Requested convergence on             energy=1.00D-06.
 No special actions if energy rises.

 Cycle   1  Pass 1  IDiag  1:
 E= -162.274378151532    
 DIIS: error= 1.86D-02 at cycle   1 NSaved=   1.
 NSaved= 1 IEnMin= 1 EnMin= -162.274378151532     IErMin= 1 ErrMin= 1.86D-02
 ErrMax= 1.86D-02  0.00D+00 EMaxC= 1.00D-01 BMatC= 2.93D-02 BMatP= 2.93D-02
 IDIUse=3 WtCom= 8.14D-01 WtEn= 1.86D-01
 Coeff-Com:  0.100D+01
 Coeff-En:   0.100D+01
 Coeff:      0.100D+01
 Gap=     0.188 Goal=   None    Shift=    0.000
 Gap=     1.527 Goal=   None    Shift=    0.000
 GapD=    0.188 DampG=1.000 DampE=0.500 DampFc=0.5000 IDamp=-1.
 Damping current iteration by 5.00D-01
 RMSDP=7.75D-03 MaxDP=1.35D-01              OVMax= 2.71D-02

 Cycle   2  Pass 1  IDiag  1:
 E= -162.280243651793     Delta-E=       -0.005865500261 Rises=F Damp=T
 DIIS: error= 1.22D-02 at cycle   2 NSaved=   2.
 NSaved= 2 IEnMin= 2 EnMin= -162.280243651793     IErMin= 2 ErrMin= 1.22D-02
 ErrMax= 1.22D-02  0.00D+00 EMaxC= 1.00D-01 BMatC= 1.06D-02 BMatP= 2.93D-02
 IDIUse=3 WtCom= 8.78D-01 WtEn= 1.22D-01
 Coeff-Com: -0.141D+01 0.241D+01
 Coeff-En:   0.000D+00 0.100D+01
 Coeff:     -0.123D+01 0.223D+01
 Gap=     0.180 Goal=   None    Shift=    0.000
 Gap=     1.495 Goal=   None    Shift=    0.000
 RMSDP=6.49D-03 MaxDP=1.24D-01 DE=-5.87D-03 OVMax= 5.96D-03

 Cycle   3  Pass 1  IDiag  1:
 E= -162.288585254475     Delta-E=       -0.008341602681 Rises=F Damp=F
 DIIS: error= 1.90D-03 at cycle   3 NSaved=   3.
 NSaved= 3 IEnMin= 3 EnMin= -162.288585254475     IErMin= 3 ErrMin= 1.90D-03
 ErrMax= 1.90D-03  0.00D+00 EMaxC= 1.00D-01 BMatC= 1.18D-04 BMatP= 1.06D-02
 IDIUse=3 WtCom= 9.81D-01 WtEn= 1.90D-02
 Coeff-Com:  0.505D+00-0.944D+00 0.144D+01
 Coeff-En:   0.000D+00 0.000D+00 0.100D+01
 Coeff:      0.495D+00-0.926D+00 0.143D+01
 Gap=     0.180 Goal=   None    Shift=    0.000
 Gap=     1.498 Goal=   None    Shift=    0.000
 RMSDP=1.13D-03 MaxDP=2.18D-02 DE=-8.34D-03 OVMax= 1.40D-03

 Cycle   4  Pass 1  IDiag  1:
 E= -162.288688184358     Delta-E=       -0.000102929883 Rises=F Damp=F
 DIIS: error= 1.84D-04 at cycle   4 NSaved=   4.
 NSaved= 4 IEnMin= 4 EnMin= -162.288688184358     IErMin= 4 ErrMin= 1.84D-04
 ErrMax= 1.84D-04  0.00D+00 EMaxC= 1.00D-01 BMatC= 8.62D-07 BMatP= 1.18D-04
 IDIUse=3 WtCom= 9.98D-01 WtEn= 1.84D-03
 Coeff-Com: -0.796D-01 0.151D+00-0.278D+00 0.121D+01
 Coeff-En:   0.000D+00 0.000D+00 0.000D+00 0.100D+01
 Coeff:     -0.795D-01 0.151D+00-0.277D+00 0.121D+01
 Gap=     0.179 Goal=   None    Shift=    0.000
 Gap=     1.498 Goal=   None    Shift=    0.000
 RMSDP=2.06D-04 MaxDP=3.27D-03 DE=-1.03D-04 OVMax= 6.70D-05

 Cycle   5  Pass 1  IDiag  1:
 E= -162.288691097882     Delta-E=       -0.000002913524 Rises=F Damp=F
 DIIS: error= 9.53D-05 at cycle   5 NSaved=   5.
 NSaved= 5 IEnMin= 5 EnMin= -162.288691097882     IErMin= 5 ErrMin= 9.53D-05
 ErrMax= 9.53D-05  0.00D+00 EMaxC= 1.00D-01 BMatC= 1.74D-07 BMatP= 8.62D-07
 IDIUse=1 WtCom= 1.00D+00 WtEn= 0.00D+00
 Coeff-Com:  0.467D-01-0.898D-01 0.180D+00-0.117D+01 0.204D+01
 Coeff:      0.467D-01-0.898D-01 0.180D+00-0.117D+01 0.204D+01
 Gap=     0.179 Goal=   None    Shift=    0.000
 Gap=     1.499 Goal=   None    Shift=    0.000
 RMSDP=1.74D-04 MaxDP=2.77D-03 DE=-2.91D-06 OVMax= 2.07D-05

 Cycle   6  Pass 1  IDiag  1:
 E= -162.288692043615     Delta-E=       -0.000000945733 Rises=F Damp=F
 DIIS: error= 1.59D-05 at cycle   6 NSaved=   6.
 NSaved= 6 IEnMin= 6 EnMin= -162.288692043615     IErMin= 6 ErrMin= 1.59D-05
 ErrMax= 1.59D-05  0.00D+00 EMaxC= 1.00D-01 BMatC= 4.38D-09 BMatP= 1.74D-07
 IDIUse=1 WtCom= 1.00D+00 WtEn= 0.00D+00
 Coeff-Com: -0.730D-02 0.143D-01-0.318D-01 0.257D+00-0.592D+00 0.136D+01
 Coeff:     -0.730D-02 0.143D-01-0.318D-01 0.257D+00-0.592D+00 0.136D+01
 Gap=     0.179 Goal=   None    Shift=    0.000
 Gap=     1.499 Goal=   None    Shift=    0.000
 RMSDP=2.13D-05 MaxDP=3.02D-04 DE=-9.46D-07 OVMax= 1.05D-05

 Cycle   7  Pass 1  IDiag  1:
 E= -162.288692060888     Delta-E=       -0.000000017274 Rises=F Damp=F
 DIIS: error= 1.90D-06 at cycle   7 NSaved=   7.
 NSaved= 7 IEnMin= 7 EnMin= -162.288692060888     IErMin= 7 ErrMin= 1.90D-06
 ErrMax= 1.90D-06  0.00D+00 EMaxC= 1.00D-01 BMatC= 1.21D-10 BMatP= 4.38D-09
 IDIUse=1 WtCom= 1.00D+00 WtEn= 0.00D+00
 Coeff-Com:  0.244D-02-0.480D-02 0.110D-01-0.916D-01 0.228D+00-0.611D+00
 Coeff-Com:  0.147D+01
 Coeff:      0.244D-02-0.480D-02 0.110D-01-0.916D-01 0.228D+00-0.611D+00
 Coeff:      0.147D+01
 Gap=     0.179 Goal=   None    Shift=    0.000
 Gap=     1.499 Goal=   None    Shift=    0.000
 RMSDP=3.91D-06 MaxDP=6.37D-05 DE=-1.73D-08 OVMax= 7.68D-07

 Cycle   8  Pass 1  IDiag  1:
 E= -162.288692061235     Delta-E=       -0.000000000346 Rises=F Damp=F
 DIIS: error= 5.87D-07 at cycle   8 NSaved=   8.
 NSaved= 8 IEnMin= 8 EnMin= -162.288692061235     IErMin= 8 ErrMin= 5.87D-07
 ErrMax= 5.87D-07  0.00D+00 EMaxC= 1.00D-01 BMatC= 7.39D-12 BMatP= 1.21D-10
 IDIUse=1 WtCom= 1.00D+00 WtEn= 0.00D+00
 Coeff-Com: -0.507D-03 0.100D-02-0.232D-02 0.194D-01-0.514D-01 0.151D+00
 Coeff-Com: -0.605D+00 0.149D+01
 Coeff:     -0.507D-03 0.100D-02-0.232D-02 0.194D-01-0.514D-01 0.151D+00
 Coeff:     -0.605D+00 0.149D+01
 Gap=     0.179 Goal=   None    Shift=    0.000
 Gap=     1.499 Goal=   None    Shift=    0.000
 RMSDP=1.31D-06 MaxDP=2.14D-05 DE=-3.46D-10 OVMax= 2.69D-07

 Cycle   9  Pass 1  IDiag  1:
 E= -162.288692061259     Delta-E=       -0.000000000024 Rises=F Damp=F
 DIIS: error= 5.42D-08 at cycle   9 NSaved=   9.
 NSaved= 9 IEnMin= 9 EnMin= -162.288692061259     IErMin= 9 ErrMin= 5.42D-08
 ErrMax= 5.42D-08  0.00D+00 EMaxC= 1.00D-01 BMatC= 9.09D-14 BMatP= 7.39D-12
 IDIUse=1 WtCom= 1.00D+00 WtEn= 0.00D+00
 Coeff-Com:  0.974D-04-0.192D-03 0.440D-03-0.357D-02 0.966D-02-0.283D-01
 Coeff-Com:  0.125D+00-0.358D+00 0.126D+01
 Coeff:      0.974D-04-0.192D-03 0.440D-03-0.357D-02 0.966D-02-0.283D-01
 Coeff:      0.125D+00-0.358D+00 0.126D+01
 Gap=     0.179 Goal=   None    Shift=    0.000
 Gap=     1.499 Goal=   None    Shift=    0.000
 RMSDP=1.18D-07 MaxDP=1.93D-06 DE=-2.41D-11 OVMax= 3.47D-08

 Cycle  10  Pass 1  IDiag  1:
 E= -162.288692061259     Delta-E=       -0.000000000000 Rises=F Damp=F
 DIIS: error= 2.08D-08 at cycle  10 NSaved=  10.
 NSaved=10 IEnMin=10 EnMin= -162.288692061259     IErMin=10 ErrMin= 2.08D-08
 ErrMax= 2.08D-08  0.00D+00 EMaxC= 1.00D-01 BMatC= 9.77D-15 BMatP= 9.09D-14
 IDIUse=1 WtCom= 1.00D+00 WtEn= 0.00D+00
 Coeff-Com: -0.174D-04 0.344D-04-0.770D-04 0.568D-03-0.167D-02 0.483D-02
 Coeff-Com: -0.274D-01 0.957D-01-0.668D+00 0.160D+01
 Coeff:     -0.174D-04 0.344D-04-0.770D-04 0.568D-03-0.167D-02 0.483D-02
 Coeff:     -0.274D-01 0.957D-01-0.668D+00 0.160D+01
 Gap=     0.179 Goal=   None    Shift=    0.000
 Gap=     1.499 Goal=   None    Shift=    0.000
 RMSDP=3.87D-08 MaxDP=3.97D-07 DE=-2.84D-13 OVMax= 8.10D-09

 Cycle  11  Pass 1  IDiag  1:
 E= -162.288692061259     Delta-E=        0.000000000000 Rises=F Damp=F
 DIIS: error= 2.27D-09 at cycle  11 NSaved=  11.
 NSaved=11 IEnMin=10 EnMin= -162.288692061259     IErMin=11 ErrMin= 2.27D-09
 ErrMax= 2.27D-09  0.00D+00 EMaxC= 1.00D-01 BMatC= 1.53D-16 BMatP= 9.77D-15
 IDIUse=1 WtCom= 1.00D+00 WtEn= 0.00D+00
 Coeff-Com:  0.433D-06-0.874D-06 0.154D-05 0.390D-05 0.267D-04-0.536D-04
 Coeff-Com:  0.193D-02-0.980D-02 0.126D+00-0.422D+00 0.130D+01
 Coeff:      0.433D-06-0.874D-06 0.154D-05 0.390D-05 0.267D-04-0.536D-04
 Coeff:      0.193D-02-0.980D-02 0.126D+00-0.422D+00 0.130D+01
 Gap=     0.179 Goal=   None    Shift=    0.000
 Gap=     1.499 Goal=   None    Shift=    0.000
 RMSDP=3.85D-09 MaxDP=3.58D-08 DE= 5.68D-14 OVMax= 1.08D-09

 SCF Done:  E(UHF) =  -162.288692061     A.U. after   11 cycles
            NFock= 11  Conv=0.38D-08     -V/T= 1.9984
 <Sx>= 0.0000 <Sy>= 0.0000 <Sz>= 1.0000 <S**2>= 2.0001 S= 1.0000
 <L.S>= 0.000000000000E+00
 KE= 1.625566485374D+02 PE=-3.977607271264D+02 EE= 6.927729320266D+01
 Annihilation of the first spin contaminant:
 S**2 before annihilation     2.0001,   after     2.0000
 Leave Link  502 at Mon Mar 28 14:26:12 2022, MaxMem=  9663676416 cpu:               6.0 elap:               0.2
 (Enter /nopt/nrel/apps/gaussian/g16C_1/g16/l801.exe)
 Windowed orbitals will be sorted by symmetry type.
 ExpMin= 2.05D-02 ExpMax= 3.17D+04 ExpMxC= 1.08D+03 IAcc=3 IRadAn=         5 AccDes= 0.00D+00
 HarFok:  IExCor=  205 AccDes= 0.00D+00 IRadAn=         5 IDoV=-2 UseB2=F ITyADJ=14
 ICtDFT= 12500011 ScaDFX=  1.000000  1.000000  1.000000  1.000000
 Largest valence mixing into a core orbital is  1.08D-03
 Largest core mixing into a valence orbital is  8.66D-04
 Range of M.O.s used for correlation:     6    19
 NBasis=    19 NAE=     7 NBE=     5 NFC=     5 NFV=     0
 NROrb=     14 NOA=     2 NOB=     0 NVA=    12 NVB=    14
 Leave Link  801 at Mon Mar 28 14:26:12 2022, MaxMem=  9663676416 cpu:               2.0 elap:               0.1
 (Enter /nopt/nrel/apps/gaussian/g16C_1/g16/l804.exe)
 Open-shell transformation, MDV=  9663676416 ITran=4 ISComp=2.
 Unit  1 TFree=         24747 TCopy=        223312.
 Semi-Direct transformation.
 ModeAB=           2 MOrb=             2 LenV=    9663482924
 LASXX=          607 LTotXX=         607 LenRXX=         607
 LTotAB=         853 MaxLAS=        5880 LenRXY=        5880
 NonZer=        6552 LenScr=      785920 LnRSAI=           0
 LnScr1=           0 LExtra=      224307 Total=      1016714
 MaxDsk= 34359738368 SrtSym=           F ITran=            4
 DoSDTr:  NPSUse= 36
 JobTyp=1 Pass  1:  I=   1 to   2.
 (rs|ai) integrals will be sorted in core.
 Complete sort for first half transformation.
 First half transformation complete.
 Complete sort for second half transformation.
 Second half transformation complete.
 Spin components of T(2) and E(2):
     alpha-alpha T2 =       0.1618114915D-03 E2=     -0.1738422416D-03
     alpha-beta  T2 =       0.0000000000D+00 E2=      0.0000000000D+00
     beta-beta   T2 =       0.0000000000D+00 E2=      0.0000000000D+00
 ANorm=    0.1000080902D+01
 E2 =    -0.1738422416D-03 EUMP2 =    -0.16228886590350D+03
 Leave Link  804 at Mon Mar 28 14:26:12 2022, MaxMem=  9663676416 cpu:               3.3 elap:               0.1
 (Enter /nopt/nrel/apps/gaussian/g16C_1/g16/l913.exe)
 CIDS:  MDV=  9663676416.
 Frozen-core window:  NFC=   5 NFV=   0.
 IFCWin=0 IBDFC=1 NFBD=     0     0 NFCmp=     0     0 NFFFC=     0     0
 Using original routines for 1st iteration.
 Using DD4UQ or CC4UQ for 2nd and later iterations.
 Keep R2 and R3 ints in memory in symmetry-blocked form, NReq=7465903.
 FoFCou: FMM=F IPFlag=           0 FMFlag=           0 FMFlg1=           0
         NFxFlg=           0 DoJE=F BraDBF=F KetDBF=F FulRan=T
         wScrn=  0.000000 ICntrl=       600 IOpCl=  0 I1Cent=           0 NGrid=           0
         NMat0=    1 NMatS0=    190 NMatT0=    0 NMatD0=    1 NMtDS0=    0 NMtDT0=    0
 Petite list used in FoFCou.
 CIDS: In Core Option IDoMem=           1.
 Coupled Cluster theory with single and double substitutions
 ===========================================================
 Iterations= 200 Convergence= 0.100D-06
 Produce multiple copies of IABC intergrals
 Iteration Nr.   1
 **********************
 DD1Dir will call FoFMem   1 times, MxPair=         2
 NAB=     0 NAA=     1 NBB=     0.
 MP4(R+Q)=  0.28129672D-07
 Maximum subspace dimension=  5
 A-vector RMS=  7.3744068D-04 Max=  2.4379912D-03 conv= 1.00D-05.
 RLE energy=       -0.0002866939
 E3=       -0.68457762D-04        EUMP3=      -0.16228893436D+03
 E4(DQ)=   -0.27120437D-04        UMP4(DQ)=   -0.16228896148D+03
 E4(SDQ)=  -0.27354847D-04        UMP4(SDQ)=  -0.16228896172D+03
 VARIATIONAL ENERGIES WITH THE FIRST-ORDER WAVEFUNCTION:
 DE(Corr)= -0.24227196E-03 E(Corr)=     -162.28893433    
 NORM(A)=   0.10002209D+01
 Iteration Nr.   2
 **********************
 DD1Dir will call FoFMem   1 times, MxPair=         2
 NAB=     0 NAA=     1 NBB=     0.
 A-vector RMS=  9.3850148D-05 Max=  1.7481486D-04 conv= 1.00D-05.
 RLE energy=       -0.0002882932
 DE(Corr)= -0.28736434E-03 E(CORR)=     -162.28897943     Delta=-4.51D-05
 NORM(A)=   0.10002242D+01
 Iteration Nr.   3
 **********************
 DD1Dir will call FoFMem   1 times, MxPair=         2
 NAB=     0 NAA=     1 NBB=     0.
 A-vector RMS=  1.7885646D-05 Max=  5.3719160D-05 conv= 1.00D-05.
 RLE energy=       -0.0002883510
 DE(Corr)= -0.28830613E-03 E(CORR)=     -162.28898037     Delta=-9.42D-07
 NORM(A)=   0.10002244D+01
 Iteration Nr.   4
 **********************
 DD1Dir will call FoFMem   1 times, MxPair=         2
 NAB=     0 NAA=     1 NBB=     0.
 A-vector RMS=  5.5160922D-06 Max=  1.6274728D-05 conv= 1.00D-05.
 RLE energy=       -0.0002883367
 DE(Corr)= -0.28834511E-03 E(CORR)=     -162.28898041     Delta=-3.90D-08
 NORM(A)=   0.10002244D+01
 Iteration Nr.   5
 **********************
 DD1Dir will call FoFMem   1 times, MxPair=         2
 NAB=     0 NAA=     1 NBB=     0.
 A-vector RMS=  9.8254822D-07 Max=  4.2190321D-06 conv= 1.00D-05.
 RLE energy=       -0.0002883461
 DE(Corr)= -0.28834046E-03 E(CORR)=     -162.28898040     Delta= 4.65D-09
 NORM(A)=   0.10002244D+01
 CI/CC converged in    5 iterations to DelEn= 4.65D-09 Conv= 1.00D-07 ErrA1= 9.83D-07 Conv= 1.00D-05
 Wavefunction amplitudes converged. E(Corr)=     -162.28898040    
 Largest amplitude= 1.01D-02
 Discarding MO integrals.
 Leave Link  913 at Mon Mar 28 14:26:13 2022, MaxMem=  9663676416 cpu:               4.6 elap:               0.2
 (Enter /nopt/nrel/apps/gaussian/g16C_1/g16/l601.exe)
 Copying SCF densities to generalized density rwf, IOpCl= 1 IROHF=0.

 **********************************************************************

            Population analysis using the SCF Density.

 **********************************************************************

 Orbital symmetries:
 Alpha Orbitals:
       Occupied  (SG) (SG) (SG) (PI) (PI) (SG) (SG)
       Virtual   (PI) (PI) (SG) (SG) (PI) (PI) (SG) (PI) (PI) (DLTA)
                 (DLTA) (SG)
 Beta  Orbitals:
       Occupied  (SG) (SG) (SG) (PI) (PI)
       Virtual   (SG) (PI) (PI) (SG) (SG) (PI) (PI) (SG) (SG) (DLTA)
                 (DLTA) (PI) (PI) (SG)
 The electronic state is 3-SG.
 Alpha  occ. eigenvalues --  -40.49534  -2.82502  -1.55420  -1.54063  -1.54063
 Alpha  occ. eigenvalues --   -0.61230  -0.16011
 Alpha virt. eigenvalues --    0.01926   0.01926   0.03730   0.11333   0.13471
 Alpha virt. eigenvalues --    0.13471   0.20355   0.23933   0.23933   0.25734
 Alpha virt. eigenvalues --    0.25734   0.53927
  Beta  occ. eigenvalues --  -40.49164  -2.81559  -1.53928  -1.53738  -1.53738
  Beta virt. eigenvalues --   -0.03881   0.04130   0.04130   0.05063   0.07330
  Beta virt. eigenvalues --    0.16487   0.16487   0.16522   0.26169   0.28073
  Beta virt. eigenvalues --    0.28073   0.28191   0.28191   0.70559
          Condensed to atoms (all electrons):
               1          2
     1  H    0.689862   0.119641
     2  Na   0.119641  11.070856
          Atomic-Atomic Spin Densities.
               1          2
     1  H    0.689520   0.116408
     2  Na   0.116408   1.077664
 Mulliken charges and spin densities:
               1          2
     1  H    0.190497   0.805928
     2  Na  -0.190497   1.194072
 Sum of Mulliken charges =  -0.00000   2.00000
 Mulliken charges and spin densities with hydrogens summed into heavy atoms:
               1          2
     2  Na  -0.000000   2.000000
 N-N= 3.638093325075D+00 E-N=-3.977607271801D+02  KE= 1.625566485374D+02
 Symmetry A1   KE= 1.389955371439D+02
 Symmetry A2   KE=-1.491595951631D-51
 Symmetry B1   KE= 1.178055569678D+01
 Symmetry B2   KE= 1.178055569678D+01
 Symmetry A1   SP= 2.000000000000D+00
 Symmetry A2   SP=-4.379931796123D-51
 Symmetry B1   SP=-2.871165989562D-15
 Symmetry B2   SP= 1.572436614370D-15

 Atomic contributions to Alpha molecular orbitals:
 Alpha occ 1 OE=-40.495 is Na2-s=1.0000
 Alpha occ 2 OE=-2.825 is Na2-s=0.9992
 Alpha occ 3 OE=-1.554 is Na2-p=0.9942
 Alpha occ 4 OE=-1.541 is Na2-p=1.0000
 Alpha occ 5 OE=-1.541 is Na2-p=1.0000
 Alpha occ 6 OE=-0.612 is H1-s=0.7933
 Alpha occ 7 OE=-0.160 is Na2-s=0.7796 Na2-p=0.1972
 Alpha vir 8 OE=0.019 is Na2-p=0.9984
 Alpha vir 9 OE=0.019 is Na2-p=0.9984
 Alpha vir 10 OE=0.037 is Na2-p=0.7862 Na2-s=0.1937
 Alpha vir 11 OE=0.113 is Na2-s=0.7962 Na2-p=0.1849
 Alpha vir 12 OE=0.135 is Na2-p=0.9755
 Alpha vir 13 OE=0.135 is Na2-p=0.9755
 Alpha vir 14 OE=0.204 is Na2-p=0.5000 Na2-d=0.4507
 Alpha vir 15 OE=0.239 is Na2-d=0.9738
 Alpha vir 16 OE=0.239 is Na2-d=0.9738
 Alpha vir 17 OE=0.257 is Na2-d=1.0000
 Alpha vir 18 OE=0.257 is Na2-d=1.0000
 Alpha vir 19 OE=0.539 is Na2-d=0.4586 Na2-p=0.2519 H1-s=0.1741 Na2-s=0.1154

 Atomic contributions to Beta  molecular orbitals:
 Beta  occ 1 OE=-40.492 is Na2-s=1.0000
 Beta  occ 2 OE=-2.816 is Na2-s=0.9995
 Beta  occ 3 OE=-1.539 is Na2-p=0.9983
 Beta  occ 4 OE=-1.537 is Na2-p=1.0000
 Beta  occ 5 OE=-1.537 is Na2-p=1.0000
 Beta  vir 6 OE=-0.039 is Na2-s=0.5353 Na2-p=0.2319 H1-s=0.2083
 Beta  vir 7 OE=0.041 is Na2-p=0.9963
 Beta  vir 8 OE=0.041 is Na2-p=0.9963
 Beta  vir 9 OE=0.051 is Na2-p=0.7493 Na2-s=0.2445
 Beta  vir 10 OE=0.073 is Na2-s=0.5383 Na2-p=0.2953 H1-s=0.1171
 Beta  vir 11 OE=0.165 is Na2-p=0.9517
 Beta  vir 12 OE=0.165 is Na2-p=0.9517
 Beta  vir 13 OE=0.165 is Na2-s=0.6108 Na2-p=0.3036
 Beta  vir 14 OE=0.262 is Na2-d=0.6582 Na2-p=0.3003
 Beta  vir 15 OE=0.281 is Na2-d=1.0000
 Beta  vir 16 OE=0.281 is Na2-d=1.0000
 Beta  vir 17 OE=0.282 is Na2-d=0.9480
 Beta  vir 18 OE=0.282 is Na2-d=0.9480
 Beta  vir 19 OE=0.706 is H1-s=0.6142 Na2-d=0.1955 Na2-p=0.1211
 
 Leave Link  601 at Mon Mar 28 14:26:13 2022, MaxMem=  9663676416 cpu:               2.5 elap:               0.1
 (Enter /nopt/nrel/apps/gaussian/g16C_1/g16/l9999.exe)

 Test job not archived.
 1\1\GINC-R102U34\SP\UCCSD-FC\Gen\H1Na1(3)\USER\28-Mar-2022\0\\#P C
 CSD(MaxCyc=200,SaveAmplitudes,ReadAmplitudes)/GEN sp pop=AllOrbitals i
 op(3/33=1,3/36=-1)\\test\\0,3\H,0,0.,0.,0.\Na,0,0.,0.,1.6\\Version=ES6
 4L-G16RevC.01\State=3-SG\HF=-162.2886921\MP2=-162.2888659\MP3=-162.288
 9344\MP4D=-162.2889615\MP4DQ=-162.2889615\MP4SDQ=-162.2889617\CCSD=-16
 2.2889804\S2=2.000054\S2-1=0.\S2A=2.\RMSD=3.847e-09\PG=C*V [C*(H1Na1)]
 \\@


 SI MONUMENTUM REQUIRIS, CIRCUMSPICE
     -- FROM SIR CHRISTOPHER WREN'S TOMBSTONE
 Job cpu time:       0 days  0 hours  0 minutes 38.2 seconds.
 Elapsed time:       0 days  0 hours  0 minutes  1.4 seconds.
 File lengths (MBytes):  RWF=     13 Int=      0 D2E=      0 Chk=      1 Scr=      1
 Normal termination of Gaussian 16 at Mon Mar 28 14:26:13 2022.
