 Entering Gaussian System, Link 0=g16
 Initial command:
 /nopt/nrel/apps/gaussian/g16C_1/g16/l1.exe "/lustre/eaglefs/scratch/user/qc/lih-dissc/lih-1-ccsd-0.6-augccq/Gau-34379.inp" -scrdir="/lustre/eaglefs/scratch/user/qc/lih-dissc/lih-1-ccsd-0.6-augccq/"
 Default is to use a total of  36 processors:
                               36 via shared-memory
                                1 via Linda
 Entering Link 1 = /nopt/nrel/apps/gaussian/g16C_1/g16/l1.exe PID=     34380.
  
 Copyright (c) 1988-2019, Gaussian, Inc.  All Rights Reserved.
  
 This is part of the Gaussian(R) 16 program.  It is based on
 the Gaussian(R) 09 system (copyright 2009, Gaussian, Inc.),
 the Gaussian(R) 03 system (copyright 2003, Gaussian, Inc.),
 the Gaussian(R) 98 system (copyright 1998, Gaussian, Inc.),
 the Gaussian(R) 94 system (copyright 1995, Gaussian, Inc.),
 the Gaussian 92(TM) system (copyright 1992, Gaussian, Inc.),
 the Gaussian 90(TM) system (copyright 1990, Gaussian, Inc.),
 the Gaussian 88(TM) system (copyright 1988, Gaussian, Inc.),
 the Gaussian 86(TM) system (copyright 1986, Carnegie Mellon
 University), and the Gaussian 82(TM) system (copyright 1983,
 Carnegie Mellon University). Gaussian is a federally registered
 trademark of Gaussian, Inc.
  
 This software contains proprietary and confidential information,
 including trade secrets, belonging to Gaussian, Inc.
  
 This software is provided under written license and may be
 used, copied, transmitted, or stored only in accord with that
 written license.
  
 The following legend is applicable only to US Government
 contracts under FAR:
  
                    RESTRICTED RIGHTS LEGEND
  
 Use, reproduction and disclosure by the US Government is
 subject to restrictions as set forth in subparagraphs (a)
 and (c) of the Commercial Computer Software - Restricted
 Rights clause in FAR 52.227-19.
  
 Gaussian, Inc.
 340 Quinnipiac St., Bldg. 40, Wallingford CT 06492
  
  
 ---------------------------------------------------------------
 Warning -- This program may not be used in any manner that
 competes with the business of Gaussian, Inc. or will provide
 assistance to any competitor of Gaussian, Inc.  The licensee
 of this program is prohibited from giving any competitor of
 Gaussian, Inc. access to this program.  By using this program,
 the user acknowledges that Gaussian, Inc. is engaged in the
 business of creating and licensing software in the field of
 computational chemistry and represents and warrants to the
 licensee that it is not a competitor of Gaussian, Inc. and that
 it will not use this program in any manner prohibited above.
 ---------------------------------------------------------------
  

 Cite this work as:
 Gaussian 16, Revision C.01,
 M. J. Frisch, G. W. Trucks, H. B. Schlegel, G. E. Scuseria, 
 M. A. Robb, J. R. Cheeseman, G. Scalmani, V. Barone, 
 G. A. Petersson, H. Nakatsuji, X. Li, M. Caricato, A. V. Marenich, 
 J. Bloino, B. G. Janesko, R. Gomperts, B. Mennucci, H. P. Hratchian, 
 J. V. Ortiz, A. F. Izmaylov, J. L. Sonnenberg, D. Williams-Young, 
 F. Ding, F. Lipparini, F. Egidi, J. Goings, B. Peng, A. Petrone, 
 T. Henderson, D. Ranasinghe, V. G. Zakrzewski, J. Gao, N. Rega, 
 G. Zheng, W. Liang, M. Hada, M. Ehara, K. Toyota, R. Fukuda, 
 J. Hasegawa, M. Ishida, T. Nakajima, Y. Honda, O. Kitao, H. Nakai, 
 T. Vreven, K. Throssell, J. A. Montgomery, Jr., J. E. Peralta, 
 F. Ogliaro, M. J. Bearpark, J. J. Heyd, E. N. Brothers, K. N. Kudin, 
 V. N. Staroverov, T. A. Keith, R. Kobayashi, J. Normand, 
 K. Raghavachari, A. P. Rendell, J. C. Burant, S. S. Iyengar, 
 J. Tomasi, M. Cossi, J. M. Millam, M. Klene, C. Adamo, R. Cammi, 
 J. W. Ochterski, R. L. Martin, K. Morokuma, O. Farkas, 
 J. B. Foresman, and D. J. Fox, Gaussian, Inc., Wallingford CT, 2019.
 
 ******************************************
 Gaussian 16:  ES64L-G16RevC.01  3-Jul-2019
                28-Mar-2022 
 ******************************************
 %chk=molecule
 Default route: CacheSize=180224 MaxDisk=256GB
 ----------------------------------------------------------------------
 #P CCSD(MaxCyc=200,SaveAmplitudes,ReadAmplitudes)/GEN sp pop=AllOrbita
 ls iop(3/33=1,3/36=-1)
 ----------------------------------------------------------------------
 1/4=180224,38=1,172=1/1;
 2/4=180224,12=2,17=6,18=5,40=1/2;
 3/4=180224,5=7,11=9,25=1,30=1,33=1,36=-1/1,2,3;
 4/4=180224/1;
 5/4=180224,5=2,38=5/2;
 8/4=180224,6=4,9=120000,10=1,24=1/1,4;
 9/4=180224,5=7,6=200,77=1/13;
 6/4=180224,7=2,8=2,9=2,10=2,96=-1/1;
 99/4=180224,5=1,9=1/99;
 Leave Link    1 at Mon Mar 28 14:02:12 2022, MaxMem=           0 cpu:               2.0 elap:               0.1
 (Enter /nopt/nrel/apps/gaussian/g16C_1/g16/l101.exe)
 ----
 test
 ----
 Symbolic Z-matrix:
 Charge =  0 Multiplicity = 1
 H                     0.        0.        0. 
 Li                    0.        0.        0.6 
 
 ITRead=  0  0
 MicOpt= -1 -1
 NAtoms=      2 NQM=        2 NQMF=       0 NMMI=      0 NMMIF=      0
                NMic=       0 NMicF=      0.
                    Isotopes and Nuclear Properties:
 (Nuclear quadrupole moments (NQMom) in fm**2, nuclear magnetic moments (NMagM)
  in nuclear magnetons)

  Atom         1           2
 IAtWgt=           1           7
 AtmWgt=   1.0078250   7.0160045
 NucSpn=           1           3
 AtZEff=  -0.0000000  -0.0000000
 NQMom=    0.0000000  -4.0100000
 NMagM=    2.7928460   3.2564240
 AtZNuc=   1.0000000   3.0000000
 Leave Link  101 at Mon Mar 28 14:02:12 2022, MaxMem=  9663676416 cpu:               3.2 elap:               0.1
 (Enter /nopt/nrel/apps/gaussian/g16C_1/g16/l202.exe)
                          Input orientation:                          
 ---------------------------------------------------------------------
 Center     Atomic      Atomic             Coordinates (Angstroms)
 Number     Number       Type             X           Y           Z
 ---------------------------------------------------------------------
      1          1           0        0.000000    0.000000    0.000000
      2          3           0        0.000000    0.000000    0.600000
 ---------------------------------------------------------------------
 Stoichiometry    HLi
 Framework group  C*V[C*(HLi)]
 Deg. of freedom     1
 Full point group                 C*V     NOp   4
 Largest Abelian subgroup         C2V     NOp   4
 Largest concise Abelian subgroup C1      NOp   1
                         Standard orientation:                         
 ---------------------------------------------------------------------
 Center     Atomic      Atomic             Coordinates (Angstroms)
 Number     Number       Type             X           Y           Z
 ---------------------------------------------------------------------
      1          1           0        0.000000    0.000000   -0.450000
      2          3           0        0.000000    0.000000    0.150000
 ---------------------------------------------------------------------
 Rotational constants (GHZ):           0.0000000        1593.0205950        1593.0205950
 Leave Link  202 at Mon Mar 28 14:02:12 2022, MaxMem=  9663676416 cpu:               1.2 elap:               0.1
 (Enter /nopt/nrel/apps/gaussian/g16C_1/g16/l301.exe)
 General basis read from cards:  (5D, 7F)
                         Coordinates in L301:                         
 ---------------------------------------------------------------------
 Center     Atomic      Atomic             Coordinates (Angstroms)
 Number     Number       Type             X           Y           Z
 ---------------------------------------------------------------------
      1          1           0        0.000000    0.000000   -0.450000
      2          3           0        0.000000    0.000000    0.150000
 ---------------------------------------------------------------------
 Centers:       1
 STO-3G
 ****
 Centers:       2
 aug-cc-pVQZ
 ****
 FixB: optimizing general contractions.
 Ernie: Thresh=  0.10000D-02 Tol=  0.10000D-05 Strict=F.
 IA=     1 ShT= 0 ShC= 0 NL=   1 NS=   0.
 IA=     1 L=0 SC=0 ISt=    0 NBk=    0 NP=    0 IndPr=    0.
 IA=     2 ShT= 0 ShC= 0 NL=   6 NS=   4.
 IA=     2 L=0 SC=0 ISt=    1 NBk=    2 NP=    9 IndPr=    0.
 DoElim1:  L=0 select primitive    3 from    2 using    1 C= 4.73D-03
 DoElim2:  L=0 select primitive    9 from    1 using    2 C=-9.02D-02
 Delete L=0 primitive    3 from    2 C=  2.13D-20.
 Delete L=0 primitive    2 from    2 C=  7.77D-07.
 Delete L=0 primitive    1 from    2 C=  3.37D-07.
 Delete L=0 primitive    9 from    1 C=  1.56D-17.
 IA=     2 L=0 SC=0 ISt=    0 NBk=    0 NP=    0 IndPr=   14.
 IA=     2 ShT= 1 ShC= 1 NL=   5 NS=   4.
 IA=     2 L=1 SC=1 ISt=    0 NBk=    0 NP=    0 IndPr=    0.
 IA=     2 ShT= 2 ShC= 2 NL=   4 NS=   4.
 IA=     2 L=2 SC=2 ISt=    0 NBk=    0 NP=    0 IndPr=    0.
 IA=     2 ShT= 3 ShC= 3 NL=   3 NS=   3.
 IA=     2 L=3 SC=3 ISt=    0 NBk=    0 NP=    0 IndPr=    0.
 IA=     2 ShT= 4 ShC= 4 NL=   2 NS=   2.
 IA=     2 L=4 SC=4 ISt=    0 NBk=    0 NP=    0 IndPr=    0.
 Ernie:  4 primitive shells out of 41 were deleted.
 LdAtmC:  AtmChg=     1.000000     3.000000
 AtZEff=     -1.0000000     -1.3500000
 NEqShl: 
              1            2            3            4
     1            1            1            1            1
     2            2            2            2            2
     3            3            3            3            3
     4            4            4            4            4
     5            5            5            5            5
     6            6            6            6            6
     7            7            7            7            7
     8            8            8            8            8
     9            9            9            9            9
    10           10           10           10           10
    11           11           11           11           11
    12           12           12           12           12
    13           13           13           13           13
    14           14           14           14           14
    15           15           15           15           15
    16           16           16           16           16
    17           17           17           17           17
    18           18           18           18           18
    19           19           19           19           19
    20           20           20           20           20
    21           21           21           21           21
 NEqBas: 
              1            2            3            4
     1            1            1            1            1
     2            2            2            2            2
     3            3            3            3            3
     4            4            4            4            4
     5            5            5            5            5
     6            6            6            6            6
     7            7            7            7            7
     8            8           -8           -8            8
     9            9           -9            9           -9
    10           10           10           10           10
    11           11          -11          -11           11
    12           12          -12           12          -12
    13           13           13           13           13
    14           14          -14          -14           14
    15           15          -15           15          -15
    16           16           16           16           16
    17           17          -17          -17           17
    18           18          -18           18          -18
    19           19           19           19           19
    20           20          -20          -20           20
    21           21          -21           21          -21
    22           22           22           22           22
    23           23           23           23           23
    24           24           24           24           24
    25           25           25           25           25
    26           26           26          -26          -26
    27           27          -27          -27           27
    28           28          -28           28          -28
    29           29           29           29           29
    30           30           30           30           30
    31           31           31           31           31
    32           32           32          -32          -32
    33           33          -33          -33           33
    34           34          -34           34          -34
    35           35           35           35           35
    36           36           36           36           36
    37           37           37           37           37
    38           38           38          -38          -38
    39           39          -39          -39           39
    40           40          -40           40          -40
    41           41           41           41           41
    42           42           42           42           42
    43           43           43           43           43
    44           44           44          -44          -44
    45           45          -45          -45           45
    46           46          -46           46          -46
    47           47          -47          -47           47
    48           48          -48           48          -48
    49           49           49           49           49
    50           50          -50          -50           50
    51           51          -51           51          -51
    52           52           52           52           52
    53           53          -53          -53           53
    54           54          -54           54          -54
    55           55           55           55           55
    56           56           56          -56          -56
    57           57          -57          -57           57
    58           58          -58           58          -58
    59           59           59           59           59
    60           60          -60          -60           60
    61           61          -61           61          -61
    62           62           62           62           62
    63           63          -63          -63           63
    64           64          -64           64          -64
    65           65           65           65           65
    66           66           66          -66          -66
    67           67          -67          -67           67
    68           68          -68           68          -68
    69           69           69           69           69
    70           70          -70          -70           70
    71           71          -71           71          -71
    72           72           72           72           72
    73           73          -73          -73           73
    74           74          -74           74          -74
    75           75           75           75           75
    76           76           76          -76          -76
    77           77           77           77           77
    78           78          -78           78          -78
    79           79           79           79           79
    80           80          -80           80          -80
    81           81           81           81           81
    82           82          -82          -82           82
    83           83           83          -83          -83
    84           84          -84          -84           84
    85           85           85          -85          -85
    86           86           86           86           86
    87           87          -87           87          -87
    88           88           88           88           88
    89           89          -89          -89           89
    90           90           90          -90          -90
    91           91           91           91           91
    92           92           92           92           92
    93           93          -93           93          -93
    94           94           94           94           94
    95           95          -95           95          -95
    96           96           96           96           96
    97           97          -97          -97           97
    98           98           98          -98          -98
    99           99          -99          -99           99
   100          100          100         -100         -100
   101          101          101          101          101
   102          102         -102          102         -102
   103          103          103          103          103
   104          104         -104         -104          104
   105          105          105         -105         -105
   106          106          106          106          106
 There are    45 symmetry adapted cartesian basis functions of A1  symmetry.
   1         1   1   1   1
   2         2   2   2   2
   3         3   3   3   3
   4         4   4   4   4
   5         5   5   5   5
   6         6   6   6   6
   7         7   7   7   7
   8        10  10  10  10
   9        13  13  13  13
  10        16  16  16  16
  11        19  19  19  19
  12        22  22  22  22
  13        23  23  23  23
  14        24  24  24  24
  15        25  25  25  25
  16        29  29  29  29
  17        30  30  30  30
  18        31  31  31  31
  19        35  35  35  35
  20        36  36  36  36
  21        37  37  37  37
  22        41  41  41  41
  23        42  42  42  42
  24        43  43  43  43
  25        49  49  49  49
  26        52  52  52  52
  27        55  55  55  55
  28        59  59  59  59
  29        62  62  62  62
  30        65  65  65  65
  31        69  69  69  69
  32        72  72  72  72
  33        75  75  75  75
  34        77  77  77  77
  35        79  79  79  79
  36        81  81  81  81
  37        86  86  86  86
  38        88  88  88  88
  39        91  91  91  91
  40        92  92  92  92
  41        94  94  94  94
  42        96  96  96  96
  43       101 101 101 101
  44       103 103 103 103
  45       106 106 106 106
 There are    13 symmetry adapted cartesian basis functions of A2  symmetry.
  46        26  26  26  26
  47        32  32  32  32
  48        38  38  38  38
  49        44  44  44  44
  50        56  56  56  56
  51        66  66  66  66
  52        76  76  76  76
  53        83  83  83  83
  54        85  85  85  85
  55        90  90  90  90
  56        98  98  98  98
  57       100 100 100 100
  58       105 105 105 105
 There are    24 symmetry adapted cartesian basis functions of B1  symmetry.
  59         8   8   8   8
  60        11  11  11  11
  61        14  14  14  14
  62        17  17  17  17
  63        20  20  20  20
  64        27  27  27  27
  65        33  33  33  33
  66        39  39  39  39
  67        45  45  45  45
  68        47  47  47  47
  69        50  50  50  50
  70        53  53  53  53
  71        57  57  57  57
  72        60  60  60  60
  73        63  63  63  63
  74        67  67  67  67
  75        70  70  70  70
  76        73  73  73  73
  77        82  82  82  82
  78        84  84  84  84
  79        89  89  89  89
  80        97  97  97  97
  81        99  99  99  99
  82       104 104 104 104
 There are    24 symmetry adapted cartesian basis functions of B2  symmetry.
  83         9   9   9   9
  84        12  12  12  12
  85        15  15  15  15
  86        18  18  18  18
  87        21  21  21  21
  88        28  28  28  28
  89        34  34  34  34
  90        40  40  40  40
  91        46  46  46  46
  92        48  48  48  48
  93        51  51  51  51
  94        54  54  54  54
  95        58  58  58  58
  96        61  61  61  61
  97        64  64  64  64
  98        68  68  68  68
  99        71  71  71  71
 100        74  74  74  74
 101        78  78  78  78
 102        80  80  80  80
 103        87  87  87  87
 104        93  93  93  93
 105        95  95  95  95
 106       102 102 102 102
 Order= 1 2 4 3
 Reordered character table:
              1            2            3            4            5
     1            1            1            1            1            1
     2            2            1            1           -1           -1
     3            4            1           -1           -1            1
     4            3            1           -1            1           -1
 NEqShl: 
              1            2            3            4
     1            1            1            1            1
     2            2            2            2            2
     3            3            3            3            3
     4            4            4            4            4
     5            5            5            5            5
     6            6            6            6            6
     7            7            7            7            7
     8            8            8            8            8
     9            9            9            9            9
    10           10           10           10           10
    11           11           11           11           11
    12           12           12           12           12
    13           13           13           13           13
    14           14           14           14           14
    15           15           15           15           15
    16           16           16           16           16
    17           17           17           17           17
    18           18           18           18           18
    19           19           19           19           19
    20           20           20           20           20
    21           21           21           21           21
 NEqBas: 
              1            2            3            4
     1            1            1            1            1
     2            2            2            2            2
     3            3            3            3            3
     4            4            4            4            4
     5            5            5            5            5
     6            6            6            6            6
     7            7            7            7            7
     8            8           -8           -8            8
     9            9           -9            9           -9
    10           10           10           10           10
    11           11          -11          -11           11
    12           12          -12           12          -12
    13           13           13           13           13
    14           14          -14          -14           14
    15           15          -15           15          -15
    16           16           16           16           16
    17           17          -17          -17           17
    18           18          -18           18          -18
    19           19           19           19           19
    20           20          -20          -20           20
    21           21          -21           21          -21
    22           22           22           22           22
    23           23           23           23           23
    24           24          -24          -24           24
    25           25          -25           25          -25
    26           26           26           26           26
    27           27           27          -27          -27
    28           28           28           28           28
    29           29          -29          -29           29
    30           30          -30           30          -30
    31           31           31           31           31
    32           32           32          -32          -32
    33           33           33           33           33
    34           34          -34          -34           34
    35           35          -35           35          -35
    36           36           36           36           36
    37           37           37          -37          -37
    38           38           38           38           38
    39           39          -39          -39           39
    40           40          -40           40          -40
    41           41           41           41           41
    42           42           42          -42          -42
    43           43           43           43           43
    44           44          -44          -44           44
    45           45          -45           45          -45
    46           46           46           46           46
    47           47           47          -47          -47
    48           48          -48          -48           48
    49           49          -49           49          -49
    50           50           50           50           50
    51           51          -51          -51           51
    52           52          -52           52          -52
    53           53           53           53           53
    54           54           54          -54          -54
    55           55          -55          -55           55
    56           56          -56           56          -56
    57           57           57           57           57
    58           58          -58          -58           58
    59           59          -59           59          -59
    60           60           60           60           60
    61           61           61          -61          -61
    62           62          -62          -62           62
    63           63          -63           63          -63
    64           64           64           64           64
    65           65          -65          -65           65
    66           66          -66           66          -66
    67           67           67           67           67
    68           68           68          -68          -68
    69           69          -69          -69           69
    70           70          -70           70          -70
    71           71           71           71           71
    72           72           72          -72          -72
    73           73           73           73           73
    74           74          -74          -74           74
    75           75          -75           75          -75
    76           76           76           76           76
    77           77           77          -77          -77
    78           78          -78          -78           78
    79           79          -79           79          -79
    80           80           80           80           80
    81           81           81          -81          -81
 There are    32 symmetry adapted basis functions of A1  symmetry.
   1         1   1   1   1
   2         2   2   2   2
   3         3   3   3   3
   4         4   4   4   4
   5         5   5   5   5
   6         6   6   6   6
   7         7   7   7   7
   8        10  10  10  10
   9        13  13  13  13
  10        16  16  16  16
  11        19  19  19  19
  12        22  22  22  22
  13        23  23  23  23
  14        26  26  26  26
  15        28  28  28  28
  16        31  31  31  31
  17        33  33  33  33
  18        36  36  36  36
  19        38  38  38  38
  20        41  41  41  41
  21        43  43  43  43
  22        46  46  46  46
  23        50  50  50  50
  24        53  53  53  53
  25        57  57  57  57
  26        60  60  60  60
  27        64  64  64  64
  28        67  67  67  67
  29        71  71  71  71
  30        73  73  73  73
  31        76  76  76  76
  32        80  80  80  80
 There are    11 symmetry adapted basis functions of A2  symmetry.
  33        27  27  27  27
  34        32  32  32  32
  35        37  37  37  37
  36        42  42  42  42
  37        47  47  47  47
  38        54  54  54  54
  39        61  61  61  61
  40        68  68  68  68
  41        72  72  72  72
  42        77  77  77  77
  43        81  81  81  81
 There are    19 symmetry adapted basis functions of B1  symmetry.
  44         8   8   8   8
  45        11  11  11  11
  46        14  14  14  14
  47        17  17  17  17
  48        20  20  20  20
  49        24  24  24  24
  50        29  29  29  29
  51        34  34  34  34
  52        39  39  39  39
  53        44  44  44  44
  54        48  48  48  48
  55        51  51  51  51
  56        55  55  55  55
  57        58  58  58  58
  58        62  62  62  62
  59        65  65  65  65
  60        69  69  69  69
  61        74  74  74  74
  62        78  78  78  78
 There are    19 symmetry adapted basis functions of B2  symmetry.
  63         9   9   9   9
  64        12  12  12  12
  65        15  15  15  15
  66        18  18  18  18
  67        21  21  21  21
  68        25  25  25  25
  69        30  30  30  30
  70        35  35  35  35
  71        40  40  40  40
  72        45  45  45  45
  73        49  49  49  49
  74        52  52  52  52
  75        56  56  56  56
  76        59  59  59  59
  77        63  63  63  63
  78        66  66  66  66
  79        70  70  70  70
  80        75  75  75  75
  81        79  79  79  79
 Order= 1 2 4 3
 Reordered character table:
              1            2            3            4            5
     1            1            1            1            1            1
     2            2            1            1           -1           -1
     3            4            1           -1           -1            1
     4            3            1           -1            1           -1
    81 basis functions,   126 primitive gaussians,   106 cartesian basis functions
     2 alpha electrons        2 beta electrons
       nuclear repulsion energy         2.6458860546 Hartrees.
 IS=     1 IAt=     1 ISR=     1 T=0 IP=      1 IndIP=      1 IndIPD=      0 C=  2.769344D-01  0.000000D+00                             NZ=T
 IS=     1 IAt=     1 ISR=     1 T=0 IP=      2 IndIP=      2 IndIPD=      1 C=  2.678389D-01  0.000000D+00                             NZ=T
 IS=     1 IAt=     1 ISR=     1 T=0 IP=      3 IndIP=      3 IndIPD=      2 C=  8.347367D-02  0.000000D+00                             NZ=T
 IS=     2 IAt=     2 ISR=     1 T=0 IP=      1 IndIP=      4 IndIPD=      0 C=  8.011529D-02  0.000000D+00                             NZ=T
 IS=     2 IAt=     2 ISR=     1 T=0 IP=      2 IndIP=      5 IndIPD=      1 C=  1.496426D-01  0.000000D+00                             NZ=T
 IS=     2 IAt=     2 ISR=     1 T=0 IP=      3 IndIP=      6 IndIPD=      2 C=  2.558159D-01  0.000000D+00                             NZ=T
 IS=     2 IAt=     2 ISR=     1 T=0 IP=      4 IndIP=      7 IndIPD=      3 C=  4.044663D-01  0.000000D+00                             NZ=T
 IS=     2 IAt=     2 ISR=     1 T=0 IP=      5 IndIP=      8 IndIPD=      4 C=  5.735328D-01  0.000000D+00                             NZ=T
 IS=     2 IAt=     2 ISR=     1 T=0 IP=      6 IndIP=      9 IndIPD=      5 C=  6.883914D-01  0.000000D+00                             NZ=T
 IS=     2 IAt=     2 ISR=     1 T=0 IP=      7 IndIP=     10 IndIPD=      6 C=  6.302397D-01  0.000000D+00                             NZ=T
 IS=     2 IAt=     2 ISR=     1 T=0 IP=      8 IndIP=     11 IndIPD=      7 C=  3.474973D-01  0.000000D+00                             NZ=T
 IS=     3 IAt=     2 ISR=     2 T=0 IP=      1 IndIP=     12 IndIPD=      0 C= -1.462817D-03  0.000000D+00                             NZ=T
 IS=     3 IAt=     2 ISR=     2 T=0 IP=      2 IndIP=     13 IndIPD=      1 C= -1.357745D-02  0.000000D+00                             NZ=T
 IS=     3 IAt=     2 ISR=     2 T=0 IP=      3 IndIP=     14 IndIPD=      2 C= -3.990712D-02  0.000000D+00                             NZ=T
 IS=     3 IAt=     2 ISR=     2 T=0 IP=      4 IndIP=     15 IndIPD=      3 C= -1.039767D-01  0.000000D+00                             NZ=T
 IS=     3 IAt=     2 ISR=     2 T=0 IP=      5 IndIP=     16 IndIPD=      4 C= -2.111586D-01  0.000000D+00                             NZ=T
 IS=     3 IAt=     2 ISR=     2 T=0 IP=      6 IndIP=     17 IndIPD=      5 C= -3.017959D-01  0.000000D+00                             NZ=T
 IS=     4 IAt=     2 ISR=     3 T=0 IP=      1 IndIP=     18 IndIPD=      0 C=  1.221003D-01  0.000000D+00                             NZ=T
 IS=     5 IAt=     2 ISR=     4 T=0 IP=      1 IndIP=     19 IndIPD=      0 C=  7.298435D-02  0.000000D+00                             NZ=T
 IS=     6 IAt=     2 ISR=     5 T=0 IP=      1 IndIP=     20 IndIPD=      0 C=  4.098971D-02  0.000000D+00                             NZ=T
 IS=     7 IAt=     2 ISR=     6 T=0 IP=      1 IndIP=     21 IndIPD=      0 C=  1.604045D-02  0.000000D+00                             NZ=T
 IS=     8 IAt=     2 ISR=     7 T=1 IP=      1 IndIP=     22 IndIPD=      0 C=  0.000000D+00  5.138103D-01                             NZ=T
 IS=     8 IAt=     2 ISR=     7 T=1 IP=      2 IndIP=     23 IndIPD=      1 C=  0.000000D+00  4.393669D-01                             NZ=T
 IS=     8 IAt=     2 ISR=     7 T=1 IP=      3 IndIP=     24 IndIPD=      2 C=  0.000000D+00  3.470054D-01                             NZ=T
 IS=     9 IAt=     2 ISR=     8 T=1 IP=      1 IndIP=     25 IndIPD=      0 C=  0.000000D+00  9.983559D-02                             NZ=T
 IS=    10 IAt=     2 ISR=     9 T=1 IP=      1 IndIP=     26 IndIPD=      0 C=  0.000000D+00  2.932986D-02                             NZ=T
 IS=    11 IAt=     2 ISR=    10 T=1 IP=      1 IndIP=     27 IndIPD=      0 C=  0.000000D+00  9.365278D-03                             NZ=T
 IS=    12 IAt=     2 ISR=    11 T=1 IP=      1 IndIP=     28 IndIPD=      0 C=  0.000000D+00  3.261263D-03                             NZ=T
 IS=    13 IAt=     2 ISR=    12 T=2 IP=      1 IndIP=     29 IndIPD=      1 C=  0.000000D+00  0.000000D+00  2.543236D-01  0.000000D+00 NZ=T
 IS=    14 IAt=     2 ISR=    13 T=2 IP=      1 IndIP=     30 IndIPD=      2 C=  0.000000D+00  0.000000D+00  6.160550D-02  0.000000D+00 NZ=T
 IS=    15 IAt=     2 ISR=    14 T=2 IP=      1 IndIP=     31 IndIPD=      3 C=  0.000000D+00  0.000000D+00  1.490390D-02  0.000000D+00 NZ=T
 IS=    16 IAt=     2 ISR=    15 T=2 IP=      1 IndIP=     32 IndIPD=      4 C=  0.000000D+00  0.000000D+00  3.634583D-03  0.000000D+00 NZ=T
 IS=    17 IAt=     2 ISR=    16 T=3 IP=      1 IndIP=     33 IndIPD=      5 C=  0.000000D+00  0.000000D+00  0.000000D+00  6.274201D-02 NZ=T
 IS=    18 IAt=     2 ISR=    17 T=3 IP=      1 IndIP=     34 IndIPD=      6 C=  0.000000D+00  0.000000D+00  0.000000D+00  1.473313D-02 NZ=T
 IS=    19 IAt=     2 ISR=    18 T=3 IP=      1 IndIP=     35 IndIPD=      7 C=  0.000000D+00  0.000000D+00  0.000000D+00  2.232271D-03 NZ=T
 IS=    20 IAt=     2 ISR=    19 T=4 IP=      1 IndIP=     36 IndIPD=      8 C=  0.000000D+00  0.000000D+00  0.000000D+00  2.147940D-02 NZ=T
 IS=    21 IAt=     2 ISR=    20 T=4 IP=      1 IndIP=     37 IndIPD=      9 C=  0.000000D+00  0.000000D+00  0.000000D+00  2.271551D-03 NZ=T
 IExCor=    0 DFT=F Ex=HF Corr=None ExCW=0 ScaHFX=  1.000000
 ScaDFX=  1.000000  1.000000  1.000000  1.000000 ScalE2=  1.000000  1.000000
 IRadAn=      5 IRanWt=     -1 IRanGd=            0 ICorTp=0 IEmpDi=  4
 NAtoms=    2 NActive=    2 NUniq=    2 SFac= 1.00D+00 NAtFMM=   60 NAOKFM=F Big=F
 Integral buffers will be    131072 words long.
 Raffenetti 1 integral format.
 Two-electron integral symmetry is turned on.
 Leave Link  301 at Mon Mar 28 14:02:12 2022, MaxMem=  9663676416 cpu:               2.2 elap:               0.1
 (Enter /nopt/nrel/apps/gaussian/g16C_1/g16/l302.exe)
 NPDir=0 NMtPBC=     1 NCelOv=     1 NCel=       1 NClECP=     1 NCelD=      1
         NCelK=      1 NCelE2=     1 NClLst=     1 CellRange=     0.0.
 One-electron integrals computed using PRISM.
 One-electron integral symmetry used in STVInt
 Entering OneElI...
 Calculate overlap and kinetic energy integrals
    NBasis =  81  MinDer = 0  MaxDer = 0
 Requested accuracy = 0.1000D-12
 Symmetry will be used
 PrmmSu-InSpLW:  IPartL=    0 NPrtUS=   36 NPrtUL=    1 DoSpLW=F IThBeg=    0 IThEnd=   35 NThAct=   36.
 PrSmSu:  IncTry=   512 NBBP=            231 NTPThr=   100 NPartT=   36 Incr=           1 LDynOK=F GPUOK=F.
 PrsmSu:  NPrtUS=  36 ThrOK=T IAlg=1 LenDen=           0 ISkipM=0 DoSpLW=F IThBeg=    0 IThEnd=   35.
 Prism:   IPart=     0 DynPar=F LinDyn=F Incr=           1.
 PRISM was handed   268416627 working-precision words and   231 shell-pairs
 PRISM was handed   268416627 working-precision words and   231 shell-pairs
 PRISM was handed   268416627 working-precision words and   231 shell-pairs
 PRISM was handed   268416627 working-precision words and   231 shell-pairs
 PRISM was handed   268416627 working-precision words and   231 shell-pairs
 PRISM was handed   268416627 working-precision words and   231 shell-pairs
 PRISM was handed   268416627 working-precision words and   231 shell-pairs
 PRISM was handed   268416627 working-precision words and   231 shell-pairs
 PRISM was handed   268416627 working-precision words and   231 shell-pairs
 PRISM was handed   268416627 working-precision words and   231 shell-pairs
 PRISM was handed   268416627 working-precision words and   231 shell-pairs
 PRISM was handed   268416627 working-precision words and   231 shell-pairs
 PRISM was handed   268416627 working-precision words and   231 shell-pairs
 PRISM was handed   268416627 working-precision words and   231 shell-pairs
 PRISM was handed   268416627 working-precision words and   231 shell-pairs
 PRISM was handed   268416627 working-precision words and   231 shell-pairs
 PRISM was handed   268416627 working-precision words and   231 shell-pairs
 PRISM was handed   268416627 working-precision words and   231 shell-pairs
 PRISM was handed   268416627 working-precision words and   231 shell-pairs
 PRISM was handed   268416627 working-precision words and   231 shell-pairs
 PRISM was handed   268416627 working-precision words and   231 shell-pairs
 PRISM was handed   268416627 working-precision words and   231 shell-pairs
 PRISM was handed   268416627 working-precision words and   231 shell-pairs
 PRISM was handed   268416627 working-precision words and   231 shell-pairs
 PRISM was handed   268416627 working-precision words and   231 shell-pairs
 PRISM was handed   268416627 working-precision words and   231 shell-pairs
 PRISM was handed   268416627 working-precision words and   231 shell-pairs
 PRISM was handed   268416627 working-precision words and   231 shell-pairs
 PRISM was handed   268416627 working-precision words and   231 shell-pairs
 PRISM was handed   268416627 working-precision words and   231 shell-pairs
 PRISM was handed   268416627 working-precision words and   231 shell-pairs
 PRISM was handed   268416627 working-precision words and   231 shell-pairs
 PRISM was handed   268416627 working-precision words and   231 shell-pairs
 IPart= 29 NShTot=           0 NBatch=           0 AvBLen=         0.0
 IPart= 32 NShTot=           0 NBatch=           0 AvBLen=         0.0
 IPart= 12 NShTot=           3 NBatch=           3 AvBLen=         1.0
 PRISM was handed   268416627 working-precision words and   231 shell-pairs
 IPart= 34 NShTot=           0 NBatch=           0 AvBLen=         0.0
 PRISM was handed   268416627 working-precision words and   231 shell-pairs
 IPart=  4 NShTot=          15 NBatch=          15 AvBLen=         1.0
 IPart= 16 NShTot=           0 NBatch=           0 AvBLen=         0.0
 IPart= 18 NShTot=           0 NBatch=           0 AvBLen=         0.0
 IPart=  5 NShTot=          15 NBatch=          15 AvBLen=         1.0
 IPart= 28 NShTot=           0 NBatch=           0 AvBLen=         0.0
 IPart= 11 NShTot=           6 NBatch=           6 AvBLen=         1.0
 IPart= 10 NShTot=           6 NBatch=           6 AvBLen=         1.0
 IPart=  9 NShTot=           9 NBatch=           9 AvBLen=         1.0
 IPart= 25 NShTot=           0 NBatch=           0 AvBLen=         0.0
 IPart= 17 NShTot=           0 NBatch=           0 AvBLen=         0.0
 IPart=  7 NShTot=          13 NBatch=          13 AvBLen=         1.0
 PRISM was handed   268416627 working-precision words and   231 shell-pairs
 IPart=  0 NShTot=          44 NBatch=          44 AvBLen=         1.0
 IPart=  1 NShTot=          34 NBatch=          34 AvBLen=         1.0
 IPart= 20 NShTot=           0 NBatch=           0 AvBLen=         0.0
 IPart= 22 NShTot=           0 NBatch=           0 AvBLen=         0.0
 IPart= 27 NShTot=           0 NBatch=           0 AvBLen=         0.0
 IPart=  8 NShTot=           9 NBatch=           9 AvBLen=         1.0
 IPart=  3 NShTot=          25 NBatch=          25 AvBLen=         1.0
 IPart= 14 NShTot=           3 NBatch=           3 AvBLen=         1.0
 IPart=  2 NShTot=          30 NBatch=          30 AvBLen=         1.0
 IPart= 35 NShTot=           0 NBatch=           0 AvBLen=         0.0
 IPart= 33 NShTot=           0 NBatch=           0 AvBLen=         0.0
 IPart= 31 NShTot=           0 NBatch=           0 AvBLen=         0.0
 IPart=  6 NShTot=          13 NBatch=          13 AvBLen=         1.0
 IPart= 30 NShTot=           0 NBatch=           0 AvBLen=         0.0
 IPart= 23 NShTot=           0 NBatch=           0 AvBLen=         0.0
 IPart= 24 NShTot=           0 NBatch=           0 AvBLen=         0.0
 IPart= 21 NShTot=           0 NBatch=           0 AvBLen=         0.0
 IPart= 15 NShTot=           3 NBatch=           3 AvBLen=         1.0
 IPart= 26 NShTot=           0 NBatch=           0 AvBLen=         0.0
 IPart= 19 NShTot=           0 NBatch=           0 AvBLen=         0.0
 IPart= 13 NShTot=           3 NBatch=           3 AvBLen=         1.0
 PrSmSu:  NxtVal=             37.
 *** Overlap *** 
                1             2             3             4             5 
      1  0.100000D+01
      2  0.382225D+00  0.100000D+01
      3 -0.680449D+00 -0.790233D+00  0.100000D+01
      4  0.680780D+00  0.262633D+00 -0.565272D+00  0.100000D+01
      5  0.523438D+00  0.163571D+00 -0.377722D+00  0.917052D+00  0.100000D+01
      6  0.346570D+00  0.940105D-01 -0.226388D+00  0.693253D+00  0.897345D+00
      7  0.152149D+00  0.373260D-01 -0.923729D-01  0.337233D+00  0.515702D+00
      8  0.000000D+00  0.000000D+00  0.000000D+00  0.000000D+00  0.000000D+00
      9  0.000000D+00  0.000000D+00  0.000000D+00  0.000000D+00  0.000000D+00
     10 -0.529551D+00  0.000000D+00  0.000000D+00  0.000000D+00  0.000000D+00
     11  0.000000D+00  0.000000D+00  0.000000D+00  0.000000D+00  0.000000D+00
     12  0.000000D+00  0.000000D+00  0.000000D+00  0.000000D+00  0.000000D+00
     13 -0.398712D+00  0.000000D+00  0.000000D+00  0.000000D+00  0.000000D+00
     14  0.000000D+00  0.000000D+00  0.000000D+00  0.000000D+00  0.000000D+00
     15  0.000000D+00  0.000000D+00  0.000000D+00  0.000000D+00  0.000000D+00
     16 -0.205900D+00  0.000000D+00  0.000000D+00  0.000000D+00  0.000000D+00
     17  0.000000D+00  0.000000D+00  0.000000D+00  0.000000D+00  0.000000D+00
     18  0.000000D+00  0.000000D+00  0.000000D+00  0.000000D+00  0.000000D+00
     19 -0.858794D-01  0.000000D+00  0.000000D+00  0.000000D+00  0.000000D+00
     20  0.000000D+00  0.000000D+00  0.000000D+00  0.000000D+00  0.000000D+00
     21  0.000000D+00  0.000000D+00  0.000000D+00  0.000000D+00  0.000000D+00
     22 -0.335739D-01  0.000000D+00  0.000000D+00  0.000000D+00  0.000000D+00
     23  0.236838D+00  0.000000D+00  0.000000D+00  0.000000D+00  0.000000D+00
     24  0.000000D+00  0.000000D+00  0.000000D+00  0.000000D+00  0.000000D+00
     25  0.000000D+00  0.000000D+00  0.000000D+00  0.000000D+00  0.000000D+00
     26  0.000000D+00  0.000000D+00  0.000000D+00  0.000000D+00  0.000000D+00
     27  0.000000D+00  0.000000D+00  0.000000D+00  0.000000D+00  0.000000D+00
     28  0.158731D+00  0.000000D+00  0.000000D+00  0.000000D+00  0.000000D+00
     29  0.000000D+00  0.000000D+00  0.000000D+00  0.000000D+00  0.000000D+00
     30  0.000000D+00  0.000000D+00  0.000000D+00  0.000000D+00  0.000000D+00
     31  0.000000D+00  0.000000D+00  0.000000D+00  0.000000D+00  0.000000D+00
     32  0.000000D+00  0.000000D+00  0.000000D+00  0.000000D+00  0.000000D+00
     33  0.781973D-01  0.000000D+00  0.000000D+00  0.000000D+00  0.000000D+00
     34  0.000000D+00  0.000000D+00  0.000000D+00  0.000000D+00  0.000000D+00
     35  0.000000D+00  0.000000D+00  0.000000D+00  0.000000D+00  0.000000D+00
     36  0.000000D+00  0.000000D+00  0.000000D+00  0.000000D+00  0.000000D+00
     37  0.000000D+00  0.000000D+00  0.000000D+00  0.000000D+00  0.000000D+00
     38  0.295736D-01  0.000000D+00  0.000000D+00  0.000000D+00  0.000000D+00
     39  0.000000D+00  0.000000D+00  0.000000D+00  0.000000D+00  0.000000D+00
     40  0.000000D+00  0.000000D+00  0.000000D+00  0.000000D+00  0.000000D+00
     41  0.000000D+00  0.000000D+00  0.000000D+00  0.000000D+00  0.000000D+00
     42  0.000000D+00  0.000000D+00  0.000000D+00  0.000000D+00  0.000000D+00
     43 -0.709884D-01  0.000000D+00  0.000000D+00  0.000000D+00  0.000000D+00
     44  0.000000D+00  0.000000D+00  0.000000D+00  0.000000D+00  0.000000D+00
     45  0.000000D+00  0.000000D+00  0.000000D+00  0.000000D+00  0.000000D+00
     46  0.000000D+00  0.000000D+00  0.000000D+00  0.000000D+00  0.000000D+00
     47  0.000000D+00  0.000000D+00  0.000000D+00  0.000000D+00  0.000000D+00
     48  0.000000D+00  0.000000D+00  0.000000D+00  0.000000D+00  0.000000D+00
     49  0.000000D+00  0.000000D+00  0.000000D+00  0.000000D+00  0.000000D+00
     50 -0.382025D-01  0.000000D+00  0.000000D+00  0.000000D+00  0.000000D+00
     51  0.000000D+00  0.000000D+00  0.000000D+00  0.000000D+00  0.000000D+00
     52  0.000000D+00  0.000000D+00  0.000000D+00  0.000000D+00  0.000000D+00
     53  0.000000D+00  0.000000D+00  0.000000D+00  0.000000D+00  0.000000D+00
     54  0.000000D+00  0.000000D+00  0.000000D+00  0.000000D+00  0.000000D+00
     55  0.000000D+00  0.000000D+00  0.000000D+00  0.000000D+00  0.000000D+00
     56  0.000000D+00  0.000000D+00  0.000000D+00  0.000000D+00  0.000000D+00
     57 -0.126625D-01  0.000000D+00  0.000000D+00  0.000000D+00  0.000000D+00
     58  0.000000D+00  0.000000D+00  0.000000D+00  0.000000D+00  0.000000D+00
     59  0.000000D+00  0.000000D+00  0.000000D+00  0.000000D+00  0.000000D+00
     60  0.000000D+00  0.000000D+00  0.000000D+00  0.000000D+00  0.000000D+00
     61  0.000000D+00  0.000000D+00  0.000000D+00  0.000000D+00  0.000000D+00
     62  0.000000D+00  0.000000D+00  0.000000D+00  0.000000D+00  0.000000D+00
     63  0.000000D+00  0.000000D+00  0.000000D+00  0.000000D+00  0.000000D+00
     64  0.207018D-01  0.000000D+00  0.000000D+00  0.000000D+00  0.000000D+00
     65  0.000000D+00  0.000000D+00  0.000000D+00  0.000000D+00  0.000000D+00
     66  0.000000D+00  0.000000D+00  0.000000D+00  0.000000D+00  0.000000D+00
     67  0.000000D+00  0.000000D+00  0.000000D+00  0.000000D+00  0.000000D+00
     68  0.000000D+00  0.000000D+00  0.000000D+00  0.000000D+00  0.000000D+00
     69  0.000000D+00  0.000000D+00  0.000000D+00  0.000000D+00  0.000000D+00
     70  0.000000D+00  0.000000D+00  0.000000D+00  0.000000D+00  0.000000D+00
     71  0.000000D+00  0.000000D+00  0.000000D+00  0.000000D+00  0.000000D+00
     72  0.000000D+00  0.000000D+00  0.000000D+00  0.000000D+00  0.000000D+00
     73  0.659024D-02  0.000000D+00  0.000000D+00  0.000000D+00  0.000000D+00
     74  0.000000D+00  0.000000D+00  0.000000D+00  0.000000D+00  0.000000D+00
     75  0.000000D+00  0.000000D+00  0.000000D+00  0.000000D+00  0.000000D+00
     76  0.000000D+00  0.000000D+00  0.000000D+00  0.000000D+00  0.000000D+00
     77  0.000000D+00  0.000000D+00  0.000000D+00  0.000000D+00  0.000000D+00
     78  0.000000D+00  0.000000D+00  0.000000D+00  0.000000D+00  0.000000D+00
     79  0.000000D+00  0.000000D+00  0.000000D+00  0.000000D+00  0.000000D+00
     80  0.000000D+00  0.000000D+00  0.000000D+00  0.000000D+00  0.000000D+00
     81  0.000000D+00  0.000000D+00  0.000000D+00  0.000000D+00  0.000000D+00
                6             7             8             9            10 
      6  0.100000D+01
      7  0.758763D+00  0.100000D+01
      8  0.000000D+00  0.000000D+00  0.100000D+01
      9  0.000000D+00  0.000000D+00  0.000000D+00  0.100000D+01
     10  0.000000D+00  0.000000D+00  0.000000D+00  0.000000D+00  0.100000D+01
     11  0.000000D+00  0.000000D+00  0.631085D+00  0.000000D+00  0.000000D+00
     12  0.000000D+00  0.000000D+00  0.000000D+00  0.631085D+00  0.000000D+00
     13  0.000000D+00  0.000000D+00  0.000000D+00  0.000000D+00  0.631085D+00
     14  0.000000D+00  0.000000D+00  0.275662D+00  0.000000D+00  0.000000D+00
     15  0.000000D+00  0.000000D+00  0.000000D+00  0.275662D+00  0.000000D+00
     16  0.000000D+00  0.000000D+00  0.000000D+00  0.000000D+00  0.275662D+00
     17  0.000000D+00  0.000000D+00  0.103467D+00  0.000000D+00  0.000000D+00
     18  0.000000D+00  0.000000D+00  0.000000D+00  0.103467D+00  0.000000D+00
     19  0.000000D+00  0.000000D+00  0.000000D+00  0.000000D+00  0.103467D+00
     20  0.000000D+00  0.000000D+00  0.384460D-01  0.000000D+00  0.000000D+00
     21  0.000000D+00  0.000000D+00  0.000000D+00  0.384460D-01  0.000000D+00
     22  0.000000D+00  0.000000D+00  0.000000D+00  0.000000D+00  0.384460D-01
     23  0.000000D+00  0.000000D+00  0.000000D+00  0.000000D+00  0.000000D+00
     24  0.000000D+00  0.000000D+00  0.000000D+00  0.000000D+00  0.000000D+00
     25  0.000000D+00  0.000000D+00  0.000000D+00  0.000000D+00  0.000000D+00
     26  0.000000D+00  0.000000D+00  0.000000D+00  0.000000D+00  0.000000D+00
     27  0.000000D+00  0.000000D+00  0.000000D+00  0.000000D+00  0.000000D+00
     28  0.000000D+00  0.000000D+00  0.000000D+00  0.000000D+00  0.000000D+00
     29  0.000000D+00  0.000000D+00  0.000000D+00  0.000000D+00  0.000000D+00
     30  0.000000D+00  0.000000D+00  0.000000D+00  0.000000D+00  0.000000D+00
     31  0.000000D+00  0.000000D+00  0.000000D+00  0.000000D+00  0.000000D+00
     32  0.000000D+00  0.000000D+00  0.000000D+00  0.000000D+00  0.000000D+00
     33  0.000000D+00  0.000000D+00  0.000000D+00  0.000000D+00  0.000000D+00
     34  0.000000D+00  0.000000D+00  0.000000D+00  0.000000D+00  0.000000D+00
     35  0.000000D+00  0.000000D+00  0.000000D+00  0.000000D+00  0.000000D+00
     36  0.000000D+00  0.000000D+00  0.000000D+00  0.000000D+00  0.000000D+00
     37  0.000000D+00  0.000000D+00  0.000000D+00  0.000000D+00  0.000000D+00
     38  0.000000D+00  0.000000D+00  0.000000D+00  0.000000D+00  0.000000D+00
     39  0.000000D+00  0.000000D+00  0.000000D+00  0.000000D+00  0.000000D+00
     40  0.000000D+00  0.000000D+00  0.000000D+00  0.000000D+00  0.000000D+00
     41  0.000000D+00  0.000000D+00  0.000000D+00  0.000000D+00  0.000000D+00
     42  0.000000D+00  0.000000D+00  0.000000D+00  0.000000D+00  0.000000D+00
     43  0.000000D+00  0.000000D+00  0.000000D+00  0.000000D+00  0.000000D+00
     44  0.000000D+00  0.000000D+00  0.000000D+00  0.000000D+00  0.000000D+00
     45  0.000000D+00  0.000000D+00  0.000000D+00  0.000000D+00  0.000000D+00
     46  0.000000D+00  0.000000D+00  0.000000D+00  0.000000D+00  0.000000D+00
     47  0.000000D+00  0.000000D+00  0.000000D+00  0.000000D+00  0.000000D+00
     48  0.000000D+00  0.000000D+00  0.000000D+00  0.000000D+00  0.000000D+00
     49  0.000000D+00  0.000000D+00  0.000000D+00  0.000000D+00  0.000000D+00
     50  0.000000D+00  0.000000D+00  0.000000D+00  0.000000D+00  0.000000D+00
     51  0.000000D+00  0.000000D+00  0.000000D+00  0.000000D+00  0.000000D+00
     52  0.000000D+00  0.000000D+00  0.000000D+00  0.000000D+00  0.000000D+00
     53  0.000000D+00  0.000000D+00  0.000000D+00  0.000000D+00  0.000000D+00
     54  0.000000D+00  0.000000D+00  0.000000D+00  0.000000D+00  0.000000D+00
     55  0.000000D+00  0.000000D+00  0.000000D+00  0.000000D+00  0.000000D+00
     56  0.000000D+00  0.000000D+00  0.000000D+00  0.000000D+00  0.000000D+00
     57  0.000000D+00  0.000000D+00  0.000000D+00  0.000000D+00  0.000000D+00
     58  0.000000D+00  0.000000D+00  0.000000D+00  0.000000D+00  0.000000D+00
     59  0.000000D+00  0.000000D+00  0.000000D+00  0.000000D+00  0.000000D+00
     60  0.000000D+00  0.000000D+00  0.000000D+00  0.000000D+00  0.000000D+00
     61  0.000000D+00  0.000000D+00  0.000000D+00  0.000000D+00  0.000000D+00
     62  0.000000D+00  0.000000D+00  0.000000D+00  0.000000D+00  0.000000D+00
     63  0.000000D+00  0.000000D+00  0.000000D+00  0.000000D+00  0.000000D+00
     64  0.000000D+00  0.000000D+00  0.000000D+00  0.000000D+00  0.000000D+00
     65  0.000000D+00  0.000000D+00  0.000000D+00  0.000000D+00  0.000000D+00
     66  0.000000D+00  0.000000D+00  0.000000D+00  0.000000D+00  0.000000D+00
     67  0.000000D+00  0.000000D+00  0.000000D+00  0.000000D+00  0.000000D+00
     68  0.000000D+00  0.000000D+00  0.000000D+00  0.000000D+00  0.000000D+00
     69  0.000000D+00  0.000000D+00  0.000000D+00  0.000000D+00  0.000000D+00
     70  0.000000D+00  0.000000D+00  0.000000D+00  0.000000D+00  0.000000D+00
     71  0.000000D+00  0.000000D+00  0.000000D+00  0.000000D+00  0.000000D+00
     72  0.000000D+00  0.000000D+00  0.000000D+00  0.000000D+00  0.000000D+00
     73  0.000000D+00  0.000000D+00  0.000000D+00  0.000000D+00  0.000000D+00
     74  0.000000D+00  0.000000D+00  0.000000D+00  0.000000D+00  0.000000D+00
     75  0.000000D+00  0.000000D+00  0.000000D+00  0.000000D+00  0.000000D+00
     76  0.000000D+00  0.000000D+00  0.000000D+00  0.000000D+00  0.000000D+00
     77  0.000000D+00  0.000000D+00  0.000000D+00  0.000000D+00  0.000000D+00
     78  0.000000D+00  0.000000D+00  0.000000D+00  0.000000D+00  0.000000D+00
     79  0.000000D+00  0.000000D+00  0.000000D+00  0.000000D+00  0.000000D+00
     80  0.000000D+00  0.000000D+00  0.000000D+00  0.000000D+00  0.000000D+00
     81  0.000000D+00  0.000000D+00  0.000000D+00  0.000000D+00  0.000000D+00
               11            12            13            14            15 
     11  0.100000D+01
     12  0.000000D+00  0.100000D+01
     13  0.000000D+00  0.000000D+00  0.100000D+01
     14  0.749166D+00  0.000000D+00  0.000000D+00  0.100000D+01
     15  0.000000D+00  0.749166D+00  0.000000D+00  0.000000D+00  0.100000D+01
     16  0.000000D+00  0.000000D+00  0.749166D+00  0.000000D+00  0.000000D+00
     17  0.373690D+00  0.000000D+00  0.000000D+00  0.777195D+00  0.000000D+00
     18  0.000000D+00  0.373690D+00  0.000000D+00  0.000000D+00  0.777195D+00
     19  0.000000D+00  0.000000D+00  0.373690D+00  0.000000D+00  0.000000D+00
     20  0.157961D+00  0.000000D+00  0.000000D+00  0.422515D+00  0.000000D+00
     21  0.000000D+00  0.157961D+00  0.000000D+00  0.000000D+00  0.422515D+00
     22  0.000000D+00  0.000000D+00  0.157961D+00  0.000000D+00  0.000000D+00
     23  0.000000D+00  0.000000D+00  0.000000D+00  0.000000D+00  0.000000D+00
     24  0.000000D+00  0.000000D+00  0.000000D+00  0.000000D+00  0.000000D+00
     25  0.000000D+00  0.000000D+00  0.000000D+00  0.000000D+00  0.000000D+00
     26  0.000000D+00  0.000000D+00  0.000000D+00  0.000000D+00  0.000000D+00
     27  0.000000D+00  0.000000D+00  0.000000D+00  0.000000D+00  0.000000D+00
     28  0.000000D+00  0.000000D+00  0.000000D+00  0.000000D+00  0.000000D+00
     29  0.000000D+00  0.000000D+00  0.000000D+00  0.000000D+00  0.000000D+00
     30  0.000000D+00  0.000000D+00  0.000000D+00  0.000000D+00  0.000000D+00
     31  0.000000D+00  0.000000D+00  0.000000D+00  0.000000D+00  0.000000D+00
     32  0.000000D+00  0.000000D+00  0.000000D+00  0.000000D+00  0.000000D+00
     33  0.000000D+00  0.000000D+00  0.000000D+00  0.000000D+00  0.000000D+00
     34  0.000000D+00  0.000000D+00  0.000000D+00  0.000000D+00  0.000000D+00
     35  0.000000D+00  0.000000D+00  0.000000D+00  0.000000D+00  0.000000D+00
     36  0.000000D+00  0.000000D+00  0.000000D+00  0.000000D+00  0.000000D+00
     37  0.000000D+00  0.000000D+00  0.000000D+00  0.000000D+00  0.000000D+00
     38  0.000000D+00  0.000000D+00  0.000000D+00  0.000000D+00  0.000000D+00
     39  0.000000D+00  0.000000D+00  0.000000D+00  0.000000D+00  0.000000D+00
     40  0.000000D+00  0.000000D+00  0.000000D+00  0.000000D+00  0.000000D+00
     41  0.000000D+00  0.000000D+00  0.000000D+00  0.000000D+00  0.000000D+00
     42  0.000000D+00  0.000000D+00  0.000000D+00  0.000000D+00  0.000000D+00
     43  0.000000D+00  0.000000D+00  0.000000D+00  0.000000D+00  0.000000D+00
     44  0.000000D+00  0.000000D+00  0.000000D+00  0.000000D+00  0.000000D+00
     45  0.000000D+00  0.000000D+00  0.000000D+00  0.000000D+00  0.000000D+00
     46  0.000000D+00  0.000000D+00  0.000000D+00  0.000000D+00  0.000000D+00
     47  0.000000D+00  0.000000D+00  0.000000D+00  0.000000D+00  0.000000D+00
     48  0.000000D+00  0.000000D+00  0.000000D+00  0.000000D+00  0.000000D+00
     49  0.000000D+00  0.000000D+00  0.000000D+00  0.000000D+00  0.000000D+00
     50  0.000000D+00  0.000000D+00  0.000000D+00  0.000000D+00  0.000000D+00
     51  0.000000D+00  0.000000D+00  0.000000D+00  0.000000D+00  0.000000D+00
     52  0.000000D+00  0.000000D+00  0.000000D+00  0.000000D+00  0.000000D+00
     53  0.000000D+00  0.000000D+00  0.000000D+00  0.000000D+00  0.000000D+00
     54  0.000000D+00  0.000000D+00  0.000000D+00  0.000000D+00  0.000000D+00
     55  0.000000D+00  0.000000D+00  0.000000D+00  0.000000D+00  0.000000D+00
     56  0.000000D+00  0.000000D+00  0.000000D+00  0.000000D+00  0.000000D+00
     57  0.000000D+00  0.000000D+00  0.000000D+00  0.000000D+00  0.000000D+00
     58  0.000000D+00  0.000000D+00  0.000000D+00  0.000000D+00  0.000000D+00
     59  0.000000D+00  0.000000D+00  0.000000D+00  0.000000D+00  0.000000D+00
     60  0.000000D+00  0.000000D+00  0.000000D+00  0.000000D+00  0.000000D+00
     61  0.000000D+00  0.000000D+00  0.000000D+00  0.000000D+00  0.000000D+00
     62  0.000000D+00  0.000000D+00  0.000000D+00  0.000000D+00  0.000000D+00
     63  0.000000D+00  0.000000D+00  0.000000D+00  0.000000D+00  0.000000D+00
     64  0.000000D+00  0.000000D+00  0.000000D+00  0.000000D+00  0.000000D+00
     65  0.000000D+00  0.000000D+00  0.000000D+00  0.000000D+00  0.000000D+00
     66  0.000000D+00  0.000000D+00  0.000000D+00  0.000000D+00  0.000000D+00
     67  0.000000D+00  0.000000D+00  0.000000D+00  0.000000D+00  0.000000D+00
     68  0.000000D+00  0.000000D+00  0.000000D+00  0.000000D+00  0.000000D+00
     69  0.000000D+00  0.000000D+00  0.000000D+00  0.000000D+00  0.000000D+00
     70  0.000000D+00  0.000000D+00  0.000000D+00  0.000000D+00  0.000000D+00
     71  0.000000D+00  0.000000D+00  0.000000D+00  0.000000D+00  0.000000D+00
     72  0.000000D+00  0.000000D+00  0.000000D+00  0.000000D+00  0.000000D+00
     73  0.000000D+00  0.000000D+00  0.000000D+00  0.000000D+00  0.000000D+00
     74  0.000000D+00  0.000000D+00  0.000000D+00  0.000000D+00  0.000000D+00
     75  0.000000D+00  0.000000D+00  0.000000D+00  0.000000D+00  0.000000D+00
     76  0.000000D+00  0.000000D+00  0.000000D+00  0.000000D+00  0.000000D+00
     77  0.000000D+00  0.000000D+00  0.000000D+00  0.000000D+00  0.000000D+00
     78  0.000000D+00  0.000000D+00  0.000000D+00  0.000000D+00  0.000000D+00
     79  0.000000D+00  0.000000D+00  0.000000D+00  0.000000D+00  0.000000D+00
     80  0.000000D+00  0.000000D+00  0.000000D+00  0.000000D+00  0.000000D+00
     81  0.000000D+00  0.000000D+00  0.000000D+00  0.000000D+00  0.000000D+00
               16            17            18            19            20 
     16  0.100000D+01
     17  0.000000D+00  0.100000D+01
     18  0.000000D+00  0.000000D+00  0.100000D+01
     19  0.777195D+00  0.000000D+00  0.000000D+00  0.100000D+01
     20  0.000000D+00  0.805531D+00  0.000000D+00  0.000000D+00  0.100000D+01
     21  0.000000D+00  0.000000D+00  0.805531D+00  0.000000D+00  0.000000D+00
     22  0.422515D+00  0.000000D+00  0.000000D+00  0.805531D+00  0.000000D+00
     23  0.000000D+00  0.000000D+00  0.000000D+00  0.000000D+00  0.000000D+00
     24  0.000000D+00  0.000000D+00  0.000000D+00  0.000000D+00  0.000000D+00
     25  0.000000D+00  0.000000D+00  0.000000D+00  0.000000D+00  0.000000D+00
     26  0.000000D+00  0.000000D+00  0.000000D+00  0.000000D+00  0.000000D+00
     27  0.000000D+00  0.000000D+00  0.000000D+00  0.000000D+00  0.000000D+00
     28  0.000000D+00  0.000000D+00  0.000000D+00  0.000000D+00  0.000000D+00
     29  0.000000D+00  0.000000D+00  0.000000D+00  0.000000D+00  0.000000D+00
     30  0.000000D+00  0.000000D+00  0.000000D+00  0.000000D+00  0.000000D+00
     31  0.000000D+00  0.000000D+00  0.000000D+00  0.000000D+00  0.000000D+00
     32  0.000000D+00  0.000000D+00  0.000000D+00  0.000000D+00  0.000000D+00
     33  0.000000D+00  0.000000D+00  0.000000D+00  0.000000D+00  0.000000D+00
     34  0.000000D+00  0.000000D+00  0.000000D+00  0.000000D+00  0.000000D+00
     35  0.000000D+00  0.000000D+00  0.000000D+00  0.000000D+00  0.000000D+00
     36  0.000000D+00  0.000000D+00  0.000000D+00  0.000000D+00  0.000000D+00
     37  0.000000D+00  0.000000D+00  0.000000D+00  0.000000D+00  0.000000D+00
     38  0.000000D+00  0.000000D+00  0.000000D+00  0.000000D+00  0.000000D+00
     39  0.000000D+00  0.000000D+00  0.000000D+00  0.000000D+00  0.000000D+00
     40  0.000000D+00  0.000000D+00  0.000000D+00  0.000000D+00  0.000000D+00
     41  0.000000D+00  0.000000D+00  0.000000D+00  0.000000D+00  0.000000D+00
     42  0.000000D+00  0.000000D+00  0.000000D+00  0.000000D+00  0.000000D+00
     43  0.000000D+00  0.000000D+00  0.000000D+00  0.000000D+00  0.000000D+00
     44  0.000000D+00  0.000000D+00  0.000000D+00  0.000000D+00  0.000000D+00
     45  0.000000D+00  0.000000D+00  0.000000D+00  0.000000D+00  0.000000D+00
     46  0.000000D+00  0.000000D+00  0.000000D+00  0.000000D+00  0.000000D+00
     47  0.000000D+00  0.000000D+00  0.000000D+00  0.000000D+00  0.000000D+00
     48  0.000000D+00  0.000000D+00  0.000000D+00  0.000000D+00  0.000000D+00
     49  0.000000D+00  0.000000D+00  0.000000D+00  0.000000D+00  0.000000D+00
     50  0.000000D+00  0.000000D+00  0.000000D+00  0.000000D+00  0.000000D+00
     51  0.000000D+00  0.000000D+00  0.000000D+00  0.000000D+00  0.000000D+00
     52  0.000000D+00  0.000000D+00  0.000000D+00  0.000000D+00  0.000000D+00
     53  0.000000D+00  0.000000D+00  0.000000D+00  0.000000D+00  0.000000D+00
     54  0.000000D+00  0.000000D+00  0.000000D+00  0.000000D+00  0.000000D+00
     55  0.000000D+00  0.000000D+00  0.000000D+00  0.000000D+00  0.000000D+00
     56  0.000000D+00  0.000000D+00  0.000000D+00  0.000000D+00  0.000000D+00
     57  0.000000D+00  0.000000D+00  0.000000D+00  0.000000D+00  0.000000D+00
     58  0.000000D+00  0.000000D+00  0.000000D+00  0.000000D+00  0.000000D+00
     59  0.000000D+00  0.000000D+00  0.000000D+00  0.000000D+00  0.000000D+00
     60  0.000000D+00  0.000000D+00  0.000000D+00  0.000000D+00  0.000000D+00
     61  0.000000D+00  0.000000D+00  0.000000D+00  0.000000D+00  0.000000D+00
     62  0.000000D+00  0.000000D+00  0.000000D+00  0.000000D+00  0.000000D+00
     63  0.000000D+00  0.000000D+00  0.000000D+00  0.000000D+00  0.000000D+00
     64  0.000000D+00  0.000000D+00  0.000000D+00  0.000000D+00  0.000000D+00
     65  0.000000D+00  0.000000D+00  0.000000D+00  0.000000D+00  0.000000D+00
     66  0.000000D+00  0.000000D+00  0.000000D+00  0.000000D+00  0.000000D+00
     67  0.000000D+00  0.000000D+00  0.000000D+00  0.000000D+00  0.000000D+00
     68  0.000000D+00  0.000000D+00  0.000000D+00  0.000000D+00  0.000000D+00
     69  0.000000D+00  0.000000D+00  0.000000D+00  0.000000D+00  0.000000D+00
     70  0.000000D+00  0.000000D+00  0.000000D+00  0.000000D+00  0.000000D+00
     71  0.000000D+00  0.000000D+00  0.000000D+00  0.000000D+00  0.000000D+00
     72  0.000000D+00  0.000000D+00  0.000000D+00  0.000000D+00  0.000000D+00
     73  0.000000D+00  0.000000D+00  0.000000D+00  0.000000D+00  0.000000D+00
     74  0.000000D+00  0.000000D+00  0.000000D+00  0.000000D+00  0.000000D+00
     75  0.000000D+00  0.000000D+00  0.000000D+00  0.000000D+00  0.000000D+00
     76  0.000000D+00  0.000000D+00  0.000000D+00  0.000000D+00  0.000000D+00
     77  0.000000D+00  0.000000D+00  0.000000D+00  0.000000D+00  0.000000D+00
     78  0.000000D+00  0.000000D+00  0.000000D+00  0.000000D+00  0.000000D+00
     79  0.000000D+00  0.000000D+00  0.000000D+00  0.000000D+00  0.000000D+00
     80  0.000000D+00  0.000000D+00  0.000000D+00  0.000000D+00  0.000000D+00
     81  0.000000D+00  0.000000D+00  0.000000D+00  0.000000D+00  0.000000D+00
               21            22            23            24            25 
     21  0.100000D+01
     22  0.000000D+00  0.100000D+01
     23  0.000000D+00  0.000000D+00  0.100000D+01
     24  0.000000D+00  0.000000D+00  0.000000D+00  0.100000D+01
     25  0.000000D+00  0.000000D+00  0.000000D+00  0.000000D+00  0.100000D+01
     26  0.000000D+00  0.000000D+00  0.000000D+00  0.000000D+00  0.000000D+00
     27  0.000000D+00  0.000000D+00  0.000000D+00  0.000000D+00  0.000000D+00
     28  0.000000D+00  0.000000D+00  0.756040D+00  0.000000D+00  0.000000D+00
     29  0.000000D+00  0.000000D+00  0.000000D+00  0.756040D+00  0.000000D+00
     30  0.000000D+00  0.000000D+00  0.000000D+00  0.000000D+00  0.756040D+00
     31  0.000000D+00  0.000000D+00  0.000000D+00  0.000000D+00  0.000000D+00
     32  0.000000D+00  0.000000D+00  0.000000D+00  0.000000D+00  0.000000D+00
     33  0.000000D+00  0.000000D+00  0.352641D+00  0.000000D+00  0.000000D+00
     34  0.000000D+00  0.000000D+00  0.000000D+00  0.352641D+00  0.000000D+00
     35  0.000000D+00  0.000000D+00  0.000000D+00  0.000000D+00  0.352641D+00
     36  0.000000D+00  0.000000D+00  0.000000D+00  0.000000D+00  0.000000D+00
     37  0.000000D+00  0.000000D+00  0.000000D+00  0.000000D+00  0.000000D+00
     38  0.000000D+00  0.000000D+00  0.120257D+00  0.000000D+00  0.000000D+00
     39  0.000000D+00  0.000000D+00  0.000000D+00  0.120257D+00  0.000000D+00
     40  0.000000D+00  0.000000D+00  0.000000D+00  0.000000D+00  0.120257D+00
     41  0.000000D+00  0.000000D+00  0.000000D+00  0.000000D+00  0.000000D+00
     42  0.000000D+00  0.000000D+00  0.000000D+00  0.000000D+00  0.000000D+00
     43  0.000000D+00  0.000000D+00  0.000000D+00  0.000000D+00  0.000000D+00
     44  0.000000D+00  0.000000D+00  0.000000D+00  0.000000D+00  0.000000D+00
     45  0.000000D+00  0.000000D+00  0.000000D+00  0.000000D+00  0.000000D+00
     46  0.000000D+00  0.000000D+00  0.000000D+00  0.000000D+00  0.000000D+00
     47  0.000000D+00  0.000000D+00  0.000000D+00  0.000000D+00  0.000000D+00
     48  0.000000D+00  0.000000D+00  0.000000D+00  0.000000D+00  0.000000D+00
     49  0.000000D+00  0.000000D+00  0.000000D+00  0.000000D+00  0.000000D+00
     50  0.000000D+00  0.000000D+00  0.000000D+00  0.000000D+00  0.000000D+00
     51  0.000000D+00  0.000000D+00  0.000000D+00  0.000000D+00  0.000000D+00
     52  0.000000D+00  0.000000D+00  0.000000D+00  0.000000D+00  0.000000D+00
     53  0.000000D+00  0.000000D+00  0.000000D+00  0.000000D+00  0.000000D+00
     54  0.000000D+00  0.000000D+00  0.000000D+00  0.000000D+00  0.000000D+00
     55  0.000000D+00  0.000000D+00  0.000000D+00  0.000000D+00  0.000000D+00
     56  0.000000D+00  0.000000D+00  0.000000D+00  0.000000D+00  0.000000D+00
     57  0.000000D+00  0.000000D+00  0.000000D+00  0.000000D+00  0.000000D+00
     58  0.000000D+00  0.000000D+00  0.000000D+00  0.000000D+00  0.000000D+00
     59  0.000000D+00  0.000000D+00  0.000000D+00  0.000000D+00  0.000000D+00
     60  0.000000D+00  0.000000D+00  0.000000D+00  0.000000D+00  0.000000D+00
     61  0.000000D+00  0.000000D+00  0.000000D+00  0.000000D+00  0.000000D+00
     62  0.000000D+00  0.000000D+00  0.000000D+00  0.000000D+00  0.000000D+00
     63  0.000000D+00  0.000000D+00  0.000000D+00  0.000000D+00  0.000000D+00
     64  0.000000D+00  0.000000D+00  0.000000D+00  0.000000D+00  0.000000D+00
     65  0.000000D+00  0.000000D+00  0.000000D+00  0.000000D+00  0.000000D+00
     66  0.000000D+00  0.000000D+00  0.000000D+00  0.000000D+00  0.000000D+00
     67  0.000000D+00  0.000000D+00  0.000000D+00  0.000000D+00  0.000000D+00
     68  0.000000D+00  0.000000D+00  0.000000D+00  0.000000D+00  0.000000D+00
     69  0.000000D+00  0.000000D+00  0.000000D+00  0.000000D+00  0.000000D+00
     70  0.000000D+00  0.000000D+00  0.000000D+00  0.000000D+00  0.000000D+00
     71  0.000000D+00  0.000000D+00  0.000000D+00  0.000000D+00  0.000000D+00
     72  0.000000D+00  0.000000D+00  0.000000D+00  0.000000D+00  0.000000D+00
     73  0.000000D+00  0.000000D+00  0.000000D+00  0.000000D+00  0.000000D+00
     74  0.000000D+00  0.000000D+00  0.000000D+00  0.000000D+00  0.000000D+00
     75  0.000000D+00  0.000000D+00  0.000000D+00  0.000000D+00  0.000000D+00
     76  0.000000D+00  0.000000D+00  0.000000D+00  0.000000D+00  0.000000D+00
     77  0.000000D+00  0.000000D+00  0.000000D+00  0.000000D+00  0.000000D+00
     78  0.000000D+00  0.000000D+00  0.000000D+00  0.000000D+00  0.000000D+00
     79  0.000000D+00  0.000000D+00  0.000000D+00  0.000000D+00  0.000000D+00
     80  0.000000D+00  0.000000D+00  0.000000D+00  0.000000D+00  0.000000D+00
     81  0.000000D+00  0.000000D+00  0.000000D+00  0.000000D+00  0.000000D+00
               26            27            28            29            30 
     26  0.100000D+01
     27  0.000000D+00  0.100000D+01
     28  0.000000D+00  0.000000D+00  0.100000D+01
     29  0.000000D+00  0.000000D+00  0.000000D+00  0.100000D+01
     30  0.000000D+00  0.000000D+00  0.000000D+00  0.000000D+00  0.100000D+01
     31  0.756040D+00  0.000000D+00  0.000000D+00  0.000000D+00  0.000000D+00
     32  0.000000D+00  0.756040D+00  0.000000D+00  0.000000D+00  0.000000D+00
     33  0.000000D+00  0.000000D+00  0.755671D+00  0.000000D+00  0.000000D+00
     34  0.000000D+00  0.000000D+00  0.000000D+00  0.755671D+00  0.000000D+00
     35  0.000000D+00  0.000000D+00  0.000000D+00  0.000000D+00  0.755671D+00
     36  0.352641D+00  0.000000D+00  0.000000D+00  0.000000D+00  0.000000D+00
     37  0.000000D+00  0.352641D+00  0.000000D+00  0.000000D+00  0.000000D+00
     38  0.000000D+00  0.000000D+00  0.354232D+00  0.000000D+00  0.000000D+00
     39  0.000000D+00  0.000000D+00  0.000000D+00  0.354232D+00  0.000000D+00
     40  0.000000D+00  0.000000D+00  0.000000D+00  0.000000D+00  0.354232D+00
     41  0.120257D+00  0.000000D+00  0.000000D+00  0.000000D+00  0.000000D+00
     42  0.000000D+00  0.120257D+00  0.000000D+00  0.000000D+00  0.000000D+00
     43  0.000000D+00  0.000000D+00  0.000000D+00  0.000000D+00  0.000000D+00
     44  0.000000D+00  0.000000D+00  0.000000D+00  0.000000D+00  0.000000D+00
     45  0.000000D+00  0.000000D+00  0.000000D+00  0.000000D+00  0.000000D+00
     46  0.000000D+00  0.000000D+00  0.000000D+00  0.000000D+00  0.000000D+00
     47  0.000000D+00  0.000000D+00  0.000000D+00  0.000000D+00  0.000000D+00
     48  0.000000D+00  0.000000D+00  0.000000D+00  0.000000D+00  0.000000D+00
     49  0.000000D+00  0.000000D+00  0.000000D+00  0.000000D+00  0.000000D+00
     50  0.000000D+00  0.000000D+00  0.000000D+00  0.000000D+00  0.000000D+00
     51  0.000000D+00  0.000000D+00  0.000000D+00  0.000000D+00  0.000000D+00
     52  0.000000D+00  0.000000D+00  0.000000D+00  0.000000D+00  0.000000D+00
     53  0.000000D+00  0.000000D+00  0.000000D+00  0.000000D+00  0.000000D+00
     54  0.000000D+00  0.000000D+00  0.000000D+00  0.000000D+00  0.000000D+00
     55  0.000000D+00  0.000000D+00  0.000000D+00  0.000000D+00  0.000000D+00
     56  0.000000D+00  0.000000D+00  0.000000D+00  0.000000D+00  0.000000D+00
     57  0.000000D+00  0.000000D+00  0.000000D+00  0.000000D+00  0.000000D+00
     58  0.000000D+00  0.000000D+00  0.000000D+00  0.000000D+00  0.000000D+00
     59  0.000000D+00  0.000000D+00  0.000000D+00  0.000000D+00  0.000000D+00
     60  0.000000D+00  0.000000D+00  0.000000D+00  0.000000D+00  0.000000D+00
     61  0.000000D+00  0.000000D+00  0.000000D+00  0.000000D+00  0.000000D+00
     62  0.000000D+00  0.000000D+00  0.000000D+00  0.000000D+00  0.000000D+00
     63  0.000000D+00  0.000000D+00  0.000000D+00  0.000000D+00  0.000000D+00
     64  0.000000D+00  0.000000D+00  0.000000D+00  0.000000D+00  0.000000D+00
     65  0.000000D+00  0.000000D+00  0.000000D+00  0.000000D+00  0.000000D+00
     66  0.000000D+00  0.000000D+00  0.000000D+00  0.000000D+00  0.000000D+00
     67  0.000000D+00  0.000000D+00  0.000000D+00  0.000000D+00  0.000000D+00
     68  0.000000D+00  0.000000D+00  0.000000D+00  0.000000D+00  0.000000D+00
     69  0.000000D+00  0.000000D+00  0.000000D+00  0.000000D+00  0.000000D+00
     70  0.000000D+00  0.000000D+00  0.000000D+00  0.000000D+00  0.000000D+00
     71  0.000000D+00  0.000000D+00  0.000000D+00  0.000000D+00  0.000000D+00
     72  0.000000D+00  0.000000D+00  0.000000D+00  0.000000D+00  0.000000D+00
     73  0.000000D+00  0.000000D+00  0.000000D+00  0.000000D+00  0.000000D+00
     74  0.000000D+00  0.000000D+00  0.000000D+00  0.000000D+00  0.000000D+00
     75  0.000000D+00  0.000000D+00  0.000000D+00  0.000000D+00  0.000000D+00
     76  0.000000D+00  0.000000D+00  0.000000D+00  0.000000D+00  0.000000D+00
     77  0.000000D+00  0.000000D+00  0.000000D+00  0.000000D+00  0.000000D+00
     78  0.000000D+00  0.000000D+00  0.000000D+00  0.000000D+00  0.000000D+00
     79  0.000000D+00  0.000000D+00  0.000000D+00  0.000000D+00  0.000000D+00
     80  0.000000D+00  0.000000D+00  0.000000D+00  0.000000D+00  0.000000D+00
     81  0.000000D+00  0.000000D+00  0.000000D+00  0.000000D+00  0.000000D+00
               31            32            33            34            35 
     31  0.100000D+01
     32  0.000000D+00  0.100000D+01
     33  0.000000D+00  0.000000D+00  0.100000D+01
     34  0.000000D+00  0.000000D+00  0.000000D+00  0.100000D+01
     35  0.000000D+00  0.000000D+00  0.000000D+00  0.000000D+00  0.100000D+01
     36  0.755671D+00  0.000000D+00  0.000000D+00  0.000000D+00  0.000000D+00
     37  0.000000D+00  0.755671D+00  0.000000D+00  0.000000D+00  0.000000D+00
     38  0.000000D+00  0.000000D+00  0.757993D+00  0.000000D+00  0.000000D+00
     39  0.000000D+00  0.000000D+00  0.000000D+00  0.757993D+00  0.000000D+00
     40  0.000000D+00  0.000000D+00  0.000000D+00  0.000000D+00  0.757993D+00
     41  0.354232D+00  0.000000D+00  0.000000D+00  0.000000D+00  0.000000D+00
     42  0.000000D+00  0.354232D+00  0.000000D+00  0.000000D+00  0.000000D+00
     43  0.000000D+00  0.000000D+00  0.000000D+00  0.000000D+00  0.000000D+00
     44  0.000000D+00  0.000000D+00  0.000000D+00  0.000000D+00  0.000000D+00
     45  0.000000D+00  0.000000D+00  0.000000D+00  0.000000D+00  0.000000D+00
     46  0.000000D+00  0.000000D+00  0.000000D+00  0.000000D+00  0.000000D+00
     47  0.000000D+00  0.000000D+00  0.000000D+00  0.000000D+00  0.000000D+00
     48  0.000000D+00  0.000000D+00  0.000000D+00  0.000000D+00  0.000000D+00
     49  0.000000D+00  0.000000D+00  0.000000D+00  0.000000D+00  0.000000D+00
     50  0.000000D+00  0.000000D+00  0.000000D+00  0.000000D+00  0.000000D+00
     51  0.000000D+00  0.000000D+00  0.000000D+00  0.000000D+00  0.000000D+00
     52  0.000000D+00  0.000000D+00  0.000000D+00  0.000000D+00  0.000000D+00
     53  0.000000D+00  0.000000D+00  0.000000D+00  0.000000D+00  0.000000D+00
     54  0.000000D+00  0.000000D+00  0.000000D+00  0.000000D+00  0.000000D+00
     55  0.000000D+00  0.000000D+00  0.000000D+00  0.000000D+00  0.000000D+00
     56  0.000000D+00  0.000000D+00  0.000000D+00  0.000000D+00  0.000000D+00
     57  0.000000D+00  0.000000D+00  0.000000D+00  0.000000D+00  0.000000D+00
     58  0.000000D+00  0.000000D+00  0.000000D+00  0.000000D+00  0.000000D+00
     59  0.000000D+00  0.000000D+00  0.000000D+00  0.000000D+00  0.000000D+00
     60  0.000000D+00  0.000000D+00  0.000000D+00  0.000000D+00  0.000000D+00
     61  0.000000D+00  0.000000D+00  0.000000D+00  0.000000D+00  0.000000D+00
     62  0.000000D+00  0.000000D+00  0.000000D+00  0.000000D+00  0.000000D+00
     63  0.000000D+00  0.000000D+00  0.000000D+00  0.000000D+00  0.000000D+00
     64  0.000000D+00  0.000000D+00  0.000000D+00  0.000000D+00  0.000000D+00
     65  0.000000D+00  0.000000D+00  0.000000D+00  0.000000D+00  0.000000D+00
     66  0.000000D+00  0.000000D+00  0.000000D+00  0.000000D+00  0.000000D+00
     67  0.000000D+00  0.000000D+00  0.000000D+00  0.000000D+00  0.000000D+00
     68  0.000000D+00  0.000000D+00  0.000000D+00  0.000000D+00  0.000000D+00
     69  0.000000D+00  0.000000D+00  0.000000D+00  0.000000D+00  0.000000D+00
     70  0.000000D+00  0.000000D+00  0.000000D+00  0.000000D+00  0.000000D+00
     71  0.000000D+00  0.000000D+00  0.000000D+00  0.000000D+00  0.000000D+00
     72  0.000000D+00  0.000000D+00  0.000000D+00  0.000000D+00  0.000000D+00
     73  0.000000D+00  0.000000D+00  0.000000D+00  0.000000D+00  0.000000D+00
     74  0.000000D+00  0.000000D+00  0.000000D+00  0.000000D+00  0.000000D+00
     75  0.000000D+00  0.000000D+00  0.000000D+00  0.000000D+00  0.000000D+00
     76  0.000000D+00  0.000000D+00  0.000000D+00  0.000000D+00  0.000000D+00
     77  0.000000D+00  0.000000D+00  0.000000D+00  0.000000D+00  0.000000D+00
     78  0.000000D+00  0.000000D+00  0.000000D+00  0.000000D+00  0.000000D+00
     79  0.000000D+00  0.000000D+00  0.000000D+00  0.000000D+00  0.000000D+00
     80  0.000000D+00  0.000000D+00  0.000000D+00  0.000000D+00  0.000000D+00
     81  0.000000D+00  0.000000D+00  0.000000D+00  0.000000D+00  0.000000D+00
               36            37            38            39            40 
     36  0.100000D+01
     37  0.000000D+00  0.100000D+01
     38  0.000000D+00  0.000000D+00  0.100000D+01
     39  0.000000D+00  0.000000D+00  0.000000D+00  0.100000D+01
     40  0.000000D+00  0.000000D+00  0.000000D+00  0.000000D+00  0.100000D+01
     41  0.757993D+00  0.000000D+00  0.000000D+00  0.000000D+00  0.000000D+00
     42  0.000000D+00  0.757993D+00  0.000000D+00  0.000000D+00  0.000000D+00
     43  0.000000D+00  0.000000D+00  0.000000D+00  0.000000D+00  0.000000D+00
     44  0.000000D+00  0.000000D+00  0.000000D+00  0.000000D+00  0.000000D+00
     45  0.000000D+00  0.000000D+00  0.000000D+00  0.000000D+00  0.000000D+00
     46  0.000000D+00  0.000000D+00  0.000000D+00  0.000000D+00  0.000000D+00
     47  0.000000D+00  0.000000D+00  0.000000D+00  0.000000D+00  0.000000D+00
     48  0.000000D+00  0.000000D+00  0.000000D+00  0.000000D+00  0.000000D+00
     49  0.000000D+00  0.000000D+00  0.000000D+00  0.000000D+00  0.000000D+00
     50  0.000000D+00  0.000000D+00  0.000000D+00  0.000000D+00  0.000000D+00
     51  0.000000D+00  0.000000D+00  0.000000D+00  0.000000D+00  0.000000D+00
     52  0.000000D+00  0.000000D+00  0.000000D+00  0.000000D+00  0.000000D+00
     53  0.000000D+00  0.000000D+00  0.000000D+00  0.000000D+00  0.000000D+00
     54  0.000000D+00  0.000000D+00  0.000000D+00  0.000000D+00  0.000000D+00
     55  0.000000D+00  0.000000D+00  0.000000D+00  0.000000D+00  0.000000D+00
     56  0.000000D+00  0.000000D+00  0.000000D+00  0.000000D+00  0.000000D+00
     57  0.000000D+00  0.000000D+00  0.000000D+00  0.000000D+00  0.000000D+00
     58  0.000000D+00  0.000000D+00  0.000000D+00  0.000000D+00  0.000000D+00
     59  0.000000D+00  0.000000D+00  0.000000D+00  0.000000D+00  0.000000D+00
     60  0.000000D+00  0.000000D+00  0.000000D+00  0.000000D+00  0.000000D+00
     61  0.000000D+00  0.000000D+00  0.000000D+00  0.000000D+00  0.000000D+00
     62  0.000000D+00  0.000000D+00  0.000000D+00  0.000000D+00  0.000000D+00
     63  0.000000D+00  0.000000D+00  0.000000D+00  0.000000D+00  0.000000D+00
     64  0.000000D+00  0.000000D+00  0.000000D+00  0.000000D+00  0.000000D+00
     65  0.000000D+00  0.000000D+00  0.000000D+00  0.000000D+00  0.000000D+00
     66  0.000000D+00  0.000000D+00  0.000000D+00  0.000000D+00  0.000000D+00
     67  0.000000D+00  0.000000D+00  0.000000D+00  0.000000D+00  0.000000D+00
     68  0.000000D+00  0.000000D+00  0.000000D+00  0.000000D+00  0.000000D+00
     69  0.000000D+00  0.000000D+00  0.000000D+00  0.000000D+00  0.000000D+00
     70  0.000000D+00  0.000000D+00  0.000000D+00  0.000000D+00  0.000000D+00
     71  0.000000D+00  0.000000D+00  0.000000D+00  0.000000D+00  0.000000D+00
     72  0.000000D+00  0.000000D+00  0.000000D+00  0.000000D+00  0.000000D+00
     73  0.000000D+00  0.000000D+00  0.000000D+00  0.000000D+00  0.000000D+00
[...]
 Coeff:     -0.461D+00 0.894D+00-0.178D+01 0.235D+01
 Gap=     0.281 Goal=   None    Shift=    0.000
 RMSDP=3.72D-04 MaxDP=1.19D-02 DE=-6.32D-04 OVMax= 2.94D-02

 Cycle   5  Pass 1  IDiag  1:
 E= -7.43846051854750     Delta-E=       -0.000267529666 Rises=F Damp=F
 DIIS: error= 2.50D-04 at cycle   5 NSaved=   5.
 NSaved= 5 IEnMin= 5 EnMin= -7.43846051854750     IErMin= 5 ErrMin= 2.50D-04
 ErrMax= 2.50D-04  0.00D+00 EMaxC= 1.00D-01 BMatC= 8.16D-07 BMatP= 1.65D-05
 IDIUse=3 WtCom= 9.98D-01 WtEn= 2.50D-03
 Coeff-Com:  0.623D-01-0.121D+00 0.344D+00-0.702D+00 0.142D+01
 Coeff-En:   0.000D+00 0.000D+00 0.000D+00 0.000D+00 0.100D+01
 Coeff:      0.621D-01-0.120D+00 0.344D+00-0.700D+00 0.142D+01
 Gap=     0.281 Goal=   None    Shift=    0.000
 RMSDP=7.49D-05 MaxDP=2.25D-03 DE=-2.68D-04 OVMax= 6.43D-03

 Cycle   6  Pass 1  IDiag  1:
 E= -7.43847234355445     Delta-E=       -0.000011825007 Rises=F Damp=F
 DIIS: error= 2.97D-05 at cycle   6 NSaved=   6.
 NSaved= 6 IEnMin= 6 EnMin= -7.43847234355445     IErMin= 6 ErrMin= 2.97D-05
 ErrMax= 2.97D-05  0.00D+00 EMaxC= 1.00D-01 BMatC= 1.93D-08 BMatP= 8.16D-07
 IDIUse=1 WtCom= 1.00D+00 WtEn= 0.00D+00
 Coeff-Com: -0.784D-02 0.148D-01-0.532D-01 0.120D+00-0.380D+00 0.131D+01
 Coeff:     -0.784D-02 0.148D-01-0.532D-01 0.120D+00-0.380D+00 0.131D+01
 Gap=     0.281 Goal=   None    Shift=    0.000
 RMSDP=1.04D-05 MaxDP=2.21D-04 DE=-1.18D-05 OVMax= 9.47D-04

 Cycle   7  Pass 1  IDiag  1:
 E= -7.43847257812379     Delta-E=       -0.000000234569 Rises=F Damp=F
 DIIS: error= 3.79D-06 at cycle   7 NSaved=   7.
 NSaved= 7 IEnMin= 7 EnMin= -7.43847257812379     IErMin= 7 ErrMin= 3.79D-06
 ErrMax= 3.79D-06  0.00D+00 EMaxC= 1.00D-01 BMatC= 2.79D-10 BMatP= 1.93D-08
 IDIUse=1 WtCom= 1.00D+00 WtEn= 0.00D+00
 Coeff-Com:  0.876D-03-0.153D-02 0.557D-02-0.120D-01 0.557D-01-0.314D+00
 Coeff-Com:  0.127D+01
 Coeff:      0.876D-03-0.153D-02 0.557D-02-0.120D-01 0.557D-01-0.314D+00
 Coeff:      0.127D+01
 Gap=     0.281 Goal=   None    Shift=    0.000
 RMSDP=1.23D-06 MaxDP=3.25D-05 DE=-2.35D-07 OVMax= 5.66D-05

 Cycle   8  Pass 1  IDiag  1:
 E= -7.43847257988809     Delta-E=       -0.000000001764 Rises=F Damp=F
 DIIS: error= 2.96D-07 at cycle   8 NSaved=   8.
 NSaved= 8 IEnMin= 8 EnMin= -7.43847257988809     IErMin= 8 ErrMin= 2.96D-07
 ErrMax= 2.96D-07  0.00D+00 EMaxC= 1.00D-01 BMatC= 3.68D-12 BMatP= 2.79D-10
 IDIUse=1 WtCom= 1.00D+00 WtEn= 0.00D+00
 Coeff-Com:  0.342D-03-0.675D-03 0.177D-02-0.341D-02 0.473D-02 0.454D-02
 Coeff-Com: -0.129D+00 0.112D+01
 Coeff:      0.342D-03-0.675D-03 0.177D-02-0.341D-02 0.473D-02 0.454D-02
 Coeff:     -0.129D+00 0.112D+01
 Gap=     0.281 Goal=   None    Shift=    0.000
 RMSDP=1.22D-07 MaxDP=3.51D-06 DE=-1.76D-09 OVMax= 8.36D-06

 Cycle   9  Pass 1  IDiag  1:
 E= -7.43847257991857     Delta-E=       -0.000000000030 Rises=F Damp=F
 DIIS: error= 7.82D-08 at cycle   9 NSaved=   9.
 NSaved= 9 IEnMin= 9 EnMin= -7.43847257991857     IErMin= 9 ErrMin= 7.82D-08
 ErrMax= 7.82D-08  0.00D+00 EMaxC= 1.00D-01 BMatC= 2.03D-13 BMatP= 3.68D-12
 IDIUse=1 WtCom= 1.00D+00 WtEn= 0.00D+00
 Coeff-Com: -0.345D-05 0.911D-05-0.144D-03 0.356D-03-0.947D-03 0.277D-02
 Coeff-Com:  0.573D-02-0.291D+00 0.128D+01
 Coeff:     -0.345D-05 0.911D-05-0.144D-03 0.356D-03-0.947D-03 0.277D-02
 Coeff:      0.573D-02-0.291D+00 0.128D+01
 Gap=     0.281 Goal=   None    Shift=    0.000
 RMSDP=4.15D-08 MaxDP=1.21D-06 DE=-3.05D-11 OVMax= 2.16D-06

 Cycle  10  Pass 1  IDiag  1:
 E= -7.43847257992011     Delta-E=       -0.000000000002 Rises=F Damp=F
 DIIS: error= 9.13D-09 at cycle  10 NSaved=  10.
 NSaved=10 IEnMin=10 EnMin= -7.43847257992011     IErMin=10 ErrMin= 9.13D-09
 ErrMax= 9.13D-09  0.00D+00 EMaxC= 1.00D-01 BMatC= 2.64D-15 BMatP= 2.03D-13
 IDIUse=1 WtCom= 1.00D+00 WtEn= 0.00D+00
 Coeff-Com: -0.975D-06 0.103D-05 0.266D-04-0.637D-04 0.131D-03-0.172D-03
 Coeff-Com: -0.428D-02 0.990D-01-0.453D+00 0.136D+01
 Coeff:     -0.975D-06 0.103D-05 0.266D-04-0.637D-04 0.131D-03-0.172D-03
 Coeff:     -0.428D-02 0.990D-01-0.453D+00 0.136D+01
 Gap=     0.281 Goal=   None    Shift=    0.000
 RMSDP=4.94D-09 MaxDP=1.09D-07 DE=-1.54D-12 OVMax= 1.72D-07

 SCF Done:  E(RHF) =  -7.43847257992     A.U. after   10 cycles
            NFock= 10  Conv=0.49D-08     -V/T= 1.8531
 KE= 8.719208561840D+00 PE=-2.300634366103D+01 EE= 4.202776464667D+00
 Leave Link  502 at Mon Mar 28 14:02:13 2022, MaxMem=  9663676416 cpu:              22.8 elap:               0.7
 (Enter /nopt/nrel/apps/gaussian/g16C_1/g16/l801.exe)
 Windowed orbitals will be sorted by symmetry type.
 ExpMin= 6.35D-03 ExpMax= 6.60D+03 ExpMxC= 6.43D+01 IAcc=3 IRadAn=         5 AccDes= 0.00D+00
 HarFok:  IExCor=  205 AccDes= 0.00D+00 IRadAn=         5 IDoV=-2 UseB2=F ITyADJ=14
 ICtDFT= 12500011 ScaDFX=  1.000000  1.000000  1.000000  1.000000
 Largest valence mixing into a core orbital is  3.48D-03
 Largest core mixing into a valence orbital is  3.10D-04
 Range of M.O.s used for correlation:     2    81
 NBasis=    81 NAE=     2 NBE=     2 NFC=     1 NFV=     0
 NROrb=     80 NOA=     1 NOB=     1 NVA=    79 NVB=    79
 Leave Link  801 at Mon Mar 28 14:02:13 2022, MaxMem=  9663676416 cpu:               2.0 elap:               0.1
 (Enter /nopt/nrel/apps/gaussian/g16C_1/g16/l804.exe)
 Closed-shell transformation, MDV=  9663676416 ITran=4 ISComp=2.
 Unit  1 TFree=        215414 TCopy=        305698.
 Semi-Direct transformation.
 ModeAB=           2 MOrb=             1 LenV=    9663275884
 LASXX=        63906 LTotXX=       63906 LenRXX=       63906
 LTotAB=       67218 MaxLAS=      453680 LenRXY=      453680
 NonZer=      487280 LenScr=     1461248 LnRSAI=           0
 LnScr1=           0 LExtra=      313034 Total=      2291868
 MaxDsk= 34359738368 SrtSym=           F ITran=            4
 DoSDTr:  NPSUse= 36
 JobTyp=0 Pass  1:  I=   1 to   1.
 (rs|ai) integrals will be sorted in core.
 Complete sort for first half transformation.
 First half transformation complete.
 Complete sort for second half transformation.
 Second half transformation complete.
 Spin components of T(2) and E(2):
     alpha-alpha T2 =       0.0000000000D+00 E2=      0.0000000000D+00
     alpha-beta  T2 =       0.1633663229D-01 E2=     -0.2585814058D-01
     beta-beta   T2 =       0.0000000000D+00 E2=      0.0000000000D+00
 ANorm=    0.1008135225D+01
 E2 =    -0.2585814058D-01 EUMP2 =    -0.74643307205019D+01
 Leave Link  804 at Mon Mar 28 14:02:14 2022, MaxMem=  9663676416 cpu:              17.2 elap:               0.5
 (Enter /nopt/nrel/apps/gaussian/g16C_1/g16/l913.exe)
 CIDS:  MDV=  9663676416.
 Frozen-core window:  NFC=   1 NFV=   0.
 IFCWin=0 IBDFC=1 NFBD=     0     0 NFCmp=     0     0 NFFFC=     0     0
 Using DD3R+UMP44R for 1st iteration.
 Using DD4RQ for 2nd and later iterations.
 Keep R2 and R3 ints in memory in symmetry-blocked form, NReq=46163449.
 FoFCou: FMM=F IPFlag=           0 FMFlag=           0 FMFlg1=           0
         NFxFlg=           0 DoJE=F BraDBF=F KetDBF=F FulRan=T
         wScrn=  0.000000 ICntrl=       600 IOpCl=  0 I1Cent=           0 NGrid=           0
         NMat0=    1 NMatS0=   3321 NMatT0=    0 NMatD0=    1 NMtDS0=    0 NMtDT0=    0
 Petite list used in FoFCou.
 CIDS: In Core Option IDoMem=           1.
 Coupled Cluster theory with single and double substitutions
 ===========================================================
 Iterations= 200 Convergence= 0.100D-06
 Produce multiple copies of IABC intergrals
 Iteration Nr.   1
 **********************
 DD1Dir will call FoFMem   1 times, MxPair=         2
 NAB=     1 NAA=     0 NBB=     0.
 MP4(R+Q)=  0.42243493D-03
 Maximum subspace dimension=  5
 A-vector RMS=  1.8544039D-03 Max=  7.5847695D-03 conv= 1.00D-05.
 RLE energy=       -0.0347781435
 E3=       -0.70555914D-02        EUMP3=      -0.74713863119D+01
 E4(DQ)=   -0.24978707D-02        UMP4(DQ)=   -0.74738841826D+01
 E4(SDQ)=  -0.25398141D-02        UMP4(SDQ)=  -0.74739261259D+01
 VARIATIONAL ENERGIES WITH THE FIRST-ORDER WAVEFUNCTION:
 DE(Corr)= -0.32490314E-01 E(Corr)=     -7.4709628943    
 NORM(A)=   0.10163575D+01
 Iteration Nr.   2
 **********************
 DD1Dir will call FoFMem   1 times, MxPair=         2
 NAB=     1 NAA=     0 NBB=     0.
 A-vector RMS=  1.4415034D-03 Max=  3.3458569D-03 conv= 1.00D-05.
 RLE energy=       -0.0369118236
 DE(Corr)= -0.35921464E-01 E(CORR)=     -7.4743940444     Delta=-3.43D-03
 NORM(A)=   0.10200316D+01
 Iteration Nr.   3
 **********************
 DD1Dir will call FoFMem   1 times, MxPair=         2
 NAB=     1 NAA=     0 NBB=     0.
 A-vector RMS=  1.3419241D-03 Max=  3.6106742D-03 conv= 1.00D-05.
 RLE energy=       -0.0371643740
 DE(Corr)= -0.36917026E-01 E(CORR)=     -7.4753896063     Delta=-9.96D-04
 NORM(A)=   0.10213227D+01
 Iteration Nr.   4
 **********************
 DD1Dir will call FoFMem   1 times, MxPair=         2
 NAB=     1 NAA=     0 NBB=     0.
 A-vector RMS=  8.2850294D-04 Max=  2.2175604D-03 conv= 1.00D-05.
 RLE energy=       -0.0372941901
 DE(Corr)= -0.37181888E-01 E(CORR)=     -7.4756544683     Delta=-2.65D-04
 NORM(A)=   0.10224588D+01
 Iteration Nr.   5
 **********************
 DD1Dir will call FoFMem   1 times, MxPair=         2
 NAB=     1 NAA=     0 NBB=     0.
 A-vector RMS=  4.1871774D-04 Max=  1.2154096D-03 conv= 1.00D-05.
 RLE energy=       -0.0373090561
 DE(Corr)= -0.37281685E-01 E(CORR)=     -7.4757542651     Delta=-9.98D-05
 NORM(A)=   0.10230120D+01
 Iteration Nr.   6
 **********************
 DD1Dir will call FoFMem   1 times, MxPair=         2
 NAB=     1 NAA=     0 NBB=     0.
 A-vector RMS=  1.1807529D-04 Max=  4.3911371D-04 conv= 1.00D-05.
 RLE energy=       -0.0373011927
 DE(Corr)= -0.37306597E-01 E(CORR)=     -7.4757791771     Delta=-2.49D-05
 NORM(A)=   0.10231093D+01
 Iteration Nr.   7
 **********************
 DD1Dir will call FoFMem   1 times, MxPair=         2
 NAB=     1 NAA=     0 NBB=     0.
 A-vector RMS=  4.9519922D-05 Max=  1.1035170D-04 conv= 1.00D-05.
 RLE energy=       -0.0373082149
 DE(Corr)= -0.37307828E-01 E(CORR)=     -7.4757804077     Delta=-1.23D-06
 NORM(A)=   0.10231322D+01
 Iteration Nr.   8
 **********************
 DD1Dir will call FoFMem   1 times, MxPair=         2
 NAB=     1 NAA=     0 NBB=     0.
 A-vector RMS=  1.6429093D-05 Max=  6.2830366D-05 conv= 1.00D-05.
 RLE energy=       -0.0373087018
 DE(Corr)= -0.37308539E-01 E(CORR)=     -7.4757811193     Delta=-7.12D-07
 NORM(A)=   0.10231300D+01
 Iteration Nr.   9
 **********************
 DD1Dir will call FoFMem   1 times, MxPair=         2
 NAB=     1 NAA=     0 NBB=     0.
 A-vector RMS=  6.0052465D-06 Max=  1.4507331D-05 conv= 1.00D-05.
 RLE energy=       -0.0373097318
 DE(Corr)= -0.37309334E-01 E(CORR)=     -7.4757819141     Delta=-7.95D-07
 NORM(A)=   0.10231308D+01
 Iteration Nr.  10
 **********************
 DD1Dir will call FoFMem   1 times, MxPair=         2
 NAB=     1 NAA=     0 NBB=     0.
 A-vector RMS=  2.2440543D-06 Max=  5.5159533D-06 conv= 1.00D-05.
 RLE energy=       -0.0373101697
 DE(Corr)= -0.37309844E-01 E(CORR)=     -7.4757824235     Delta=-5.09D-07
 NORM(A)=   0.10231319D+01
 Iteration Nr.  11
 **********************
 DD1Dir will call FoFMem   1 times, MxPair=         2
 NAB=     1 NAA=     0 NBB=     0.
 A-vector RMS=  1.5885947D-06 Max=  3.1213025D-06 conv= 1.00D-05.
 RLE energy=       -0.0373103431
 DE(Corr)= -0.37310178E-01 E(CORR)=     -7.4757827581     Delta=-3.35D-07
 NORM(A)=   0.10231331D+01
 Iteration Nr.  12
 **********************
 DD1Dir will call FoFMem   1 times, MxPair=         2
 NAB=     1 NAA=     0 NBB=     0.
 A-vector RMS=  1.1737021D-06 Max=  2.8809791D-06 conv= 1.00D-05.
 RLE energy=       -0.0373104475
 DE(Corr)= -0.37310338E-01 E(CORR)=     -7.4757829176     Delta=-1.60D-07
 NORM(A)=   0.10231341D+01
 Iteration Nr.  13
 **********************
 DD1Dir will call FoFMem   1 times, MxPair=         2
 NAB=     1 NAA=     0 NBB=     0.
 A-vector RMS=  7.9038007D-07 Max=  2.0789455D-06 conv= 1.00D-05.
 RLE energy=       -0.0373104928
 DE(Corr)= -0.37310427E-01 E(CORR)=     -7.4757830074     Delta=-8.98D-08
 NORM(A)=   0.10231350D+01
 CI/CC converged in   13 iterations to DelEn=-8.98D-08 Conv= 1.00D-07 ErrA1= 7.90D-07 Conv= 1.00D-05
 Wavefunction amplitudes converged. E(Corr)=     -7.4757830074    
 Largest amplitude= 3.80D-02
 Discarding MO integrals.
 Leave Link  913 at Mon Mar 28 14:02:15 2022, MaxMem=  9663676416 cpu:              23.3 elap:               0.7
 (Enter /nopt/nrel/apps/gaussian/g16C_1/g16/l601.exe)
 Copying SCF densities to generalized density rwf, IOpCl= 0 IROHF=0.

 **********************************************************************

            Population analysis using the SCF Density.

 **********************************************************************

 Orbital symmetries:
       Occupied  (SG) (SG)
       Virtual   (SG) (PI) (PI) (SG) (SG) (PI) (PI) (SG) (DLTA)
                 (DLTA) (PI) (PI) (SG) (SG) (PI) (PI) (SG) (PHI)
                 (PHI) (DLTA) (DLTA) (PI) (PI) (SG) (DLTA) (DLTA)
                 (PI) (PI) (SG) (PI) (PI) (SG) (?A) (?A) (PHI)
                 (PHI) (DLTA) (DLTA) (PI) (PI) (SG) (SG) (DLTA)
                 (DLTA) (PHI) (PHI) (PI) (PI) (SG) (DLTA) (DLTA)
                 (PI) (PI) (SG) (PI) (PI) (SG) (PI) (PI) (DLTA)
                 (DLTA) (PHI) (PHI) (SG) (?A) (?A) (PHI) (PHI)
                 (PI) (PI) (DLTA) (DLTA) (SG) (PI) (PI) (DLTA)
                 (DLTA) (SG) (SG)
 The electronic state is 1-SG.
 Alpha  occ. eigenvalues --   -2.65463  -0.28617
 Alpha virt. eigenvalues --   -0.00524   0.01446   0.01446   0.02091   0.02208
 Alpha virt. eigenvalues --    0.04630   0.04630   0.07161   0.08779   0.08779
 Alpha virt. eigenvalues --    0.09298   0.09298   0.09668   0.10563   0.12531
 Alpha virt. eigenvalues --    0.12531   0.21983   0.22047   0.22047   0.22105
 Alpha virt. eigenvalues --    0.22105   0.22184   0.22184   0.23125   0.26998
 Alpha virt. eigenvalues --    0.26998   0.27457   0.27457   0.29335   0.33450
 Alpha virt. eigenvalues --    0.33450   0.34781   0.53193   0.53193   0.53361
 Alpha virt. eigenvalues --    0.53361   0.53483   0.53483   0.53559   0.53559
 Alpha virt. eigenvalues --    0.53581   0.61396   0.62875   0.62875   0.62912
 Alpha virt. eigenvalues --    0.62912   0.63009   0.63009   0.64492   0.67155
 Alpha virt. eigenvalues --    0.67155   0.67328   0.67328   0.85719   1.07092
 Alpha virt. eigenvalues --    1.07092   1.42247   1.43055   1.43055   1.43328
 Alpha virt. eigenvalues --    1.43328   1.43630   1.43630   1.45850   1.47552
 Alpha virt. eigenvalues --    1.47552   1.50100   1.50100   1.50523   1.50523
 Alpha virt. eigenvalues --    1.51066   1.51066   1.51800   1.53502   1.53502
 Alpha virt. eigenvalues --    1.56412   1.56412   2.29291   5.36264
          Condensed to atoms (all electrons):
               1          2
     1  H    0.599397   0.365396
     2  Li   0.365396   2.669810
 Mulliken charges:
               1
     1  H    0.035207
     2  Li  -0.035207
 Sum of Mulliken charges =   0.00000
 Mulliken charges with hydrogens summed into heavy atoms:
               1
     2  Li   0.000000
 N-N= 2.645886054600D+00 E-N=-2.300634364250D+01  KE= 8.719208561840D+00
 Symmetry A1   KE= 8.719208561840D+00
 Symmetry A2   KE=-2.524396435122D-53
 Symmetry B1   KE= 0.000000000000D+00
 Symmetry B2   KE= 0.000000000000D+00

 Atomic contributions to Alpha molecular orbitals:
 Alpha occ 1 OE=-2.655 is Li2-s=0.9346
 Alpha occ 2 OE=-0.286 is H1-s=0.4161 Li2-p=0.2923 Li2-s=0.2888
 Alpha vir 3 OE=-0.005 is Li2-s=0.6026 Li2-p=0.3881
 Alpha vir 4 OE=0.014 is Li2-p=0.9897
 Alpha vir 5 OE=0.014 is Li2-p=0.9897
 Alpha vir 6 OE=0.021 is Li2-p=0.7354 Li2-s=0.2616
 Alpha vir 7 OE=0.022 is Li2-s=0.6670 Li2-p=0.3236
 Alpha vir 8 OE=0.046 is Li2-p=0.9255
 Alpha vir 9 OE=0.046 is Li2-p=0.9255
 Alpha vir 10 OE=0.072 is Li2-p=0.5177 Li2-d=0.3236 Li2-s=0.1429
 Alpha vir 11 OE=0.088 is Li2-d=0.9903
 Alpha vir 12 OE=0.088 is Li2-d=0.9903
 Alpha vir 13 OE=0.093 is Li2-d=0.9019
 Alpha vir 14 OE=0.093 is Li2-d=0.9019
 Alpha vir 15 OE=0.097 is Li2-d=0.4765 Li2-p=0.3800 Li2-s=0.1326
 Alpha vir 16 OE=0.106 is Li2-s=0.6966 Li2-d=0.1668 Li2-p=0.1298
 Alpha vir 17 OE=0.125 is Li2-p=0.9817
 Alpha vir 18 OE=0.125 is Li2-p=0.9817
 Alpha vir 19 OE=0.220 is Li2-f=0.6364 Li2-d=0.2379
 Alpha vir 20 OE=0.220 is Li2-f=0.9975
 Alpha vir 21 OE=0.220 is Li2-f=0.9975
 Alpha vir 22 OE=0.221 is Li2-f=0.9293
 Alpha vir 23 OE=0.221 is Li2-f=0.9293
 Alpha vir 24 OE=0.222 is Li2-f=0.9050
 Alpha vir 25 OE=0.222 is Li2-f=0.9050
 Alpha vir 26 OE=0.231 is Li2-p=0.4315 Li2-f=0.2990 Li2-d=0.1567
 Alpha vir 27 OE=0.270 is Li2-d=0.9385
 Alpha vir 28 OE=0.270 is Li2-d=0.9385
 Alpha vir 29 OE=0.275 is Li2-d=0.8810
 Alpha vir 30 OE=0.275 is Li2-d=0.8810
 Alpha vir 31 OE=0.293 is Li2-d=0.5816 Li2-p=0.3418
 Alpha vir 32 OE=0.335 is Li2-p=0.9742
 Alpha vir 33 OE=0.335 is Li2-p=0.9742
 Alpha vir 34 OE=0.348 is Li2-s=0.8993
 Alpha vir 35 OE=0.532 is Li2-g=1.0000
 Alpha vir 36 OE=0.532 is Li2-g=1.0000
 Alpha vir 37 OE=0.534 is Li2-g=0.9644
 Alpha vir 38 OE=0.534 is Li2-g=0.9644
 Alpha vir 39 OE=0.535 is Li2-g=0.9405
 Alpha vir 40 OE=0.535 is Li2-g=0.9405
 Alpha vir 41 OE=0.536 is Li2-g=0.9273
 Alpha vir 42 OE=0.536 is Li2-g=0.9273
 Alpha vir 43 OE=0.536 is Li2-g=0.9224
 Alpha vir 44 OE=0.614 is Li2-d=0.7384
 Alpha vir 45 OE=0.629 is Li2-f=0.7207 Li2-d=0.2302
 Alpha vir 46 OE=0.629 is Li2-f=0.7207 Li2-d=0.2302
 Alpha vir 47 OE=0.629 is Li2-f=0.9662
 Alpha vir 48 OE=0.629 is Li2-f=0.9662
 Alpha vir 49 OE=0.630 is Li2-f=0.6295 Li2-d=0.3116
 Alpha vir 50 OE=0.630 is Li2-f=0.6295 Li2-d=0.3116
 Alpha vir 51 OE=0.645 is Li2-f=0.8098
 Alpha vir 52 OE=0.672 is Li2-d=0.7718 Li2-f=0.2210
 Alpha vir 53 OE=0.672 is Li2-d=0.7718 Li2-f=0.2210
 Alpha vir 54 OE=0.673 is Li2-d=0.6848 Li2-f=0.2980
 Alpha vir 55 OE=0.673 is Li2-d=0.6848 Li2-f=0.2980
 Alpha vir 56 OE=0.857 is Li2-p=0.7282 Li2-d=0.1554
 Alpha vir 57 OE=1.071 is Li2-p=0.9949
 Alpha vir 58 OE=1.071 is Li2-p=0.9949
 Alpha vir 59 OE=1.422 is Li2-f=0.7754 Li2-g=0.1266
 Alpha vir 60 OE=1.431 is Li2-f=0.7298 Li2-g=0.2669
 Alpha vir 61 OE=1.431 is Li2-f=0.7298 Li2-g=0.2669
 Alpha vir 62 OE=1.433 is Li2-f=0.6937 Li2-g=0.2963
 Alpha vir 63 OE=1.433 is Li2-f=0.6937 Li2-g=0.2963
 Alpha vir 64 OE=1.436 is Li2-f=0.7293 Li2-g=0.2707
 Alpha vir 65 OE=1.436 is Li2-f=0.7293 Li2-g=0.2707
 Alpha vir 66 OE=1.459 is Li2-d=0.6366 Li2-g=0.3026
 Alpha vir 67 OE=1.476 is Li2-g=1.0000
 Alpha vir 68 OE=1.476 is Li2-g=1.0000
 Alpha vir 69 OE=1.501 is Li2-g=0.7286 Li2-f=0.2714
 Alpha vir 70 OE=1.501 is Li2-g=0.7286 Li2-f=0.2714
 Alpha vir 71 OE=1.505 is Li2-g=0.6232 Li2-f=0.2446 Li2-d=0.1314
 Alpha vir 72 OE=1.505 is Li2-g=0.6232 Li2-f=0.2446 Li2-d=0.1314
 Alpha vir 73 OE=1.511 is Li2-g=0.7023 Li2-f=0.2921
 Alpha vir 74 OE=1.511 is Li2-g=0.7023 Li2-f=0.2921
 Alpha vir 75 OE=1.518 is Li2-g=0.5696 Li2-f=0.2153 Li2-d=0.2084
 Alpha vir 76 OE=1.535 is Li2-d=0.8665 Li2-g=0.1084
 Alpha vir 77 OE=1.535 is Li2-d=0.8665 Li2-g=0.1084
 Alpha vir 78 OE=1.564 is Li2-d=0.9856
 Alpha vir 79 OE=1.564 is Li2-d=0.9856
 Alpha vir 80 OE=2.293 is H1-s=0.4285 Li2-s=0.2463 Li2-p=0.2343
 Alpha vir 81 OE=5.363 is Li2-s=0.8554 Li2-p=0.1656
 
 Leave Link  601 at Mon Mar 28 14:02:15 2022, MaxMem=  9663676416 cpu:               9.3 elap:               0.3
 (Enter /nopt/nrel/apps/gaussian/g16C_1/g16/l9999.exe)

 Test job not archived.
 1\1\GINC-R102U34\SP\RCCSD-FC\Gen\H1Li1\USER\28-Mar-2022\0\\#P CCSD
 (MaxCyc=200,SaveAmplitudes,ReadAmplitudes)/GEN sp pop=AllOrbitals iop(
 3/33=1,3/36=-1)\\test\\0,1\H,0,0.,0.,0.\Li,0,0.,0.,0.6\\Version=ES64L-
 G16RevC.01\State=1-SG\HF=-7.4384726\MP2=-7.4643307\MP3=-7.4713863\MP4D
 =-7.4743066\MP4DQ=-7.4738842\MP4SDQ=-7.4739261\CCSD=-7.475783\RMSD=4.9
 40e-09\PG=C*V [C*(H1Li1)]\\@


 THE PROBLEM WITH THE LADDER OF SUCCESS IS YOU CAN'T
 CLIMB IT WHILE YOU'RE TWIDDLING YOUR THUMBS.
 Job cpu time:       0 days  0 hours  1 minutes 38.5 seconds.
 Elapsed time:       0 days  0 hours  0 minutes  3.2 seconds.
 File lengths (MBytes):  RWF=     22 Int=      0 D2E=      0 Chk=      2 Scr=      1
 Normal termination of Gaussian 16 at Mon Mar 28 14:02:15 2022.
