 Entering Gaussian System, Link 0=g16
 Initial command:
 /nopt/nrel/apps/gaussian/g16C_1/g16/l1.exe "/lustre/eaglefs/scratch/user/qc/lih-dissc/lih-1-ccsd-2.7-321g/Gau-36170.inp" -scrdir="/lustre/eaglefs/scratch/user/qc/lih-dissc/lih-1-ccsd-2.7-321g/"
 Default is to use a total of  36 processors:
                               36 via shared-memory
                                1 via Linda
 Entering Link 1 = /nopt/nrel/apps/gaussian/g16C_1/g16/l1.exe PID=     36171.
  
 Copyright (c) 1988-2019, Gaussian, Inc.  All Rights Reserved.
  
 This is part of the Gaussian(R) 16 program.  It is based on
 the Gaussian(R) 09 system (copyright 2009, Gaussian, Inc.),
 the Gaussian(R) 03 system (copyright 2003, Gaussian, Inc.),
 the Gaussian(R) 98 system (copyright 1998, Gaussian, Inc.),
 the Gaussian(R) 94 system (copyright 1995, Gaussian, Inc.),
 the Gaussian 92(TM) system (copyright 1992, Gaussian, Inc.),
 the Gaussian 90(TM) system (copyright 1990, Gaussian, Inc.),
 the Gaussian 88(TM) system (copyright 1988, Gaussian, Inc.),
 the Gaussian 86(TM) system (copyright 1986, Carnegie Mellon
 University), and the Gaussian 82(TM) system (copyright 1983,
 Carnegie Mellon University). Gaussian is a federally registered
 trademark of Gaussian, Inc.
  
 This software contains proprietary and confidential information,
 including trade secrets, belonging to Gaussian, Inc.
  
 This software is provided under written license and may be
 used, copied, transmitted, or stored only in accord with that
 written license.
  
 The following legend is applicable only to US Government
 contracts under FAR:
  
                    RESTRICTED RIGHTS LEGEND
  
 Use, reproduction and disclosure by the US Government is
 subject to restrictions as set forth in subparagraphs (a)
 and (c) of the Commercial Computer Software - Restricted
 Rights clause in FAR 52.227-19.
  
 Gaussian, Inc.
 340 Quinnipiac St., Bldg. 40, Wallingford CT 06492
  
  
 ---------------------------------------------------------------
 Warning -- This program may not be used in any manner that
 competes with the business of Gaussian, Inc. or will provide
 assistance to any competitor of Gaussian, Inc.  The licensee
 of this program is prohibited from giving any competitor of
 Gaussian, Inc. access to this program.  By using this program,
 the user acknowledges that Gaussian, Inc. is engaged in the
 business of creating and licensing software in the field of
 computational chemistry and represents and warrants to the
 licensee that it is not a competitor of Gaussian, Inc. and that
 it will not use this program in any manner prohibited above.
 ---------------------------------------------------------------
  

 Cite this work as:
 Gaussian 16, Revision C.01,
 M. J. Frisch, G. W. Trucks, H. B. Schlegel, G. E. Scuseria, 
 M. A. Robb, J. R. Cheeseman, G. Scalmani, V. Barone, 
 G. A. Petersson, H. Nakatsuji, X. Li, M. Caricato, A. V. Marenich, 
 J. Bloino, B. G. Janesko, R. Gomperts, B. Mennucci, H. P. Hratchian, 
 J. V. Ortiz, A. F. Izmaylov, J. L. Sonnenberg, D. Williams-Young, 
 F. Ding, F. Lipparini, F. Egidi, J. Goings, B. Peng, A. Petrone, 
 T. Henderson, D. Ranasinghe, V. G. Zakrzewski, J. Gao, N. Rega, 
 G. Zheng, W. Liang, M. Hada, M. Ehara, K. Toyota, R. Fukuda, 
 J. Hasegawa, M. Ishida, T. Nakajima, Y. Honda, O. Kitao, H. Nakai, 
 T. Vreven, K. Throssell, J. A. Montgomery, Jr., J. E. Peralta, 
 F. Ogliaro, M. J. Bearpark, J. J. Heyd, E. N. Brothers, K. N. Kudin, 
 V. N. Staroverov, T. A. Keith, R. Kobayashi, J. Normand, 
 K. Raghavachari, A. P. Rendell, J. C. Burant, S. S. Iyengar, 
 J. Tomasi, M. Cossi, J. M. Millam, M. Klene, C. Adamo, R. Cammi, 
 J. W. Ochterski, R. L. Martin, K. Morokuma, O. Farkas, 
 J. B. Foresman, and D. J. Fox, Gaussian, Inc., Wallingford CT, 2019.
 
 ******************************************
 Gaussian 16:  ES64L-G16RevC.01  3-Jul-2019
                28-Mar-2022 
 ******************************************
 %chk=molecule
 Default route: CacheSize=180224 MaxDisk=256GB
 ----------------------------------------------------------------------
 #P CCSD(MaxCyc=200,SaveAmplitudes,ReadAmplitudes)/GEN sp pop=AllOrbita
 ls iop(3/33=1,3/36=-1)
 ----------------------------------------------------------------------
 1/4=180224,38=1,172=1/1;
 2/4=180224,12=2,17=6,18=5,40=1/2;
 3/4=180224,5=7,11=9,25=1,30=1,33=1,36=-1/1,2,3;
 4/4=180224/1;
 5/4=180224,5=2,38=5/2;
 8/4=180224,6=4,9=120000,10=1,24=1/1,4;
 9/4=180224,5=7,6=200,77=1/13;
 6/4=180224,7=2,8=2,9=2,10=2,96=-1/1;
 99/4=180224,5=1,9=1/99;
 Leave Link    1 at Mon Mar 28 14:00:19 2022, MaxMem=           0 cpu:               2.6 elap:               0.1
 (Enter /nopt/nrel/apps/gaussian/g16C_1/g16/l101.exe)
 ----
 test
 ----
 Symbolic Z-matrix:
 Charge =  0 Multiplicity = 1
 H                     0.        0.        0. 
 Li                    0.        0.        2.7 
 
 ITRead=  0  0
 MicOpt= -1 -1
 NAtoms=      2 NQM=        2 NQMF=       0 NMMI=      0 NMMIF=      0
                NMic=       0 NMicF=      0.
                    Isotopes and Nuclear Properties:
 (Nuclear quadrupole moments (NQMom) in fm**2, nuclear magnetic moments (NMagM)
  in nuclear magnetons)

  Atom         1           2
 IAtWgt=           1           7
 AtmWgt=   1.0078250   7.0160045
 NucSpn=           1           3
 AtZEff=  -0.0000000  -0.0000000
 NQMom=    0.0000000  -4.0100000
 NMagM=    2.7928460   3.2564240
 AtZNuc=   1.0000000   3.0000000
 Leave Link  101 at Mon Mar 28 14:00:19 2022, MaxMem=  9663676416 cpu:               3.3 elap:               0.1
 (Enter /nopt/nrel/apps/gaussian/g16C_1/g16/l202.exe)
                          Input orientation:                          
 ---------------------------------------------------------------------
 Center     Atomic      Atomic             Coordinates (Angstroms)
 Number     Number       Type             X           Y           Z
 ---------------------------------------------------------------------
      1          1           0        0.000000    0.000000    0.000000
      2          3           0        0.000000    0.000000    2.700000
 ---------------------------------------------------------------------
 Stoichiometry    HLi
 Framework group  C*V[C*(HLi)]
 Deg. of freedom     1
 Full point group                 C*V     NOp   4
 Largest Abelian subgroup         C2V     NOp   4
 Largest concise Abelian subgroup C1      NOp   1
                         Standard orientation:                         
 ---------------------------------------------------------------------
 Center     Atomic      Atomic             Coordinates (Angstroms)
 Number     Number       Type             X           Y           Z
 ---------------------------------------------------------------------
      1          1           0        0.000000    0.000000   -2.025000
      2          3           0        0.000000    0.000000    0.675000
 ---------------------------------------------------------------------
 Rotational constants (GHZ):           0.0000000          78.6676837          78.6676837
 Leave Link  202 at Mon Mar 28 14:00:19 2022, MaxMem=  9663676416 cpu:               1.4 elap:               0.1
 (Enter /nopt/nrel/apps/gaussian/g16C_1/g16/l301.exe)
 General basis read from cards:  (5D, 7F)
                         Coordinates in L301:                         
 ---------------------------------------------------------------------
 Center     Atomic      Atomic             Coordinates (Angstroms)
 Number     Number       Type             X           Y           Z
 ---------------------------------------------------------------------
      1          1           0        0.000000    0.000000   -2.025000
      2          3           0        0.000000    0.000000    0.675000
 ---------------------------------------------------------------------
 Centers:       1
 STO-3G
 ****
 Centers:       2
 3-21G
 ****
 FixB: optimizing general contractions.
 Ernie: Thresh=  0.10000D-02 Tol=  0.10000D-05 Strict=F.
 IA=     1 ShT= 0 ShC= 0 NL=   1 NS=   0.
 IA=     1 L=0 SC=0 ISt=    0 NBk=    0 NP=    0 IndPr=    0.
 IA=     2 ShT= 0 ShC= 0 NL=   1 NS=   0.
 IA=     2 L=0 SC=0 ISt=    0 NBk=    0 NP=    0 IndPr=    0.
 IA=     2 ShT= 1 ShC= 0 NL=   2 NS=   1.
 IA=     2 L=1 SC=0 ISt=    0 NBk=    0 NP=    0 IndPr=    0.
 LdAtmC:  AtmChg=     1.000000     3.000000
 AtZEff=     -1.0000000     -1.3500000
 NEqShl: 
              1            2            3            4
     1            1            1            1            1
     2            2            2            2            2
     3            3            3            3            3
     4            4            4            4            4
 NEqBas: 
              1            2            3            4
     1            1            1            1            1
     2            2            2            2            2
     3            3            3            3            3
     4            4           -4           -4            4
     5            5           -5            5           -5
     6            6            6            6            6
     7            7            7            7            7
     8            8           -8           -8            8
     9            9           -9            9           -9
    10           10           10           10           10
 There are     6 symmetry adapted cartesian basis functions of A1  symmetry.
   1         1   1   1   1
   2         2   2   2   2
   3         3   3   3   3
   4         6   6   6   6
   5         7   7   7   7
   6        10  10  10  10
 There are     0 symmetry adapted cartesian basis functions of A2  symmetry.
 There are     2 symmetry adapted cartesian basis functions of B1  symmetry.
   7         4   4   4   4
   8         8   8   8   8
 There are     2 symmetry adapted cartesian basis functions of B2  symmetry.
   9         5   5   5   5
  10         9   9   9   9
 Order= 1 2 4 3
 Reordered character table:
              1            2            3            4            5
     1            1            1            1            1            1
     2            2            1            1           -1           -1
     3            4            1           -1           -1            1
     4            3            1           -1            1           -1
 NEqShl: 
              1            2            3            4
     1            1            1            1            1
     2            2            2            2            2
     3            3            3            3            3
     4            4            4            4            4
 NEqBas: 
              1            2            3            4
     1            1            1            1            1
     2            2            2            2            2
     3            3            3            3            3
     4            4           -4           -4            4
     5            5           -5            5           -5
     6            6            6            6            6
     7            7            7            7            7
     8            8           -8           -8            8
     9            9           -9            9           -9
    10           10           10           10           10
 There are     6 symmetry adapted basis functions of A1  symmetry.
   1         1   1   1   1
   2         2   2   2   2
   3         3   3   3   3
   4         6   6   6   6
   5         7   7   7   7
   6        10  10  10  10
 There are     0 symmetry adapted basis functions of A2  symmetry.
 There are     2 symmetry adapted basis functions of B1  symmetry.
   7         4   4   4   4
   8         8   8   8   8
 There are     2 symmetry adapted basis functions of B2  symmetry.
   9         5   5   5   5
  10         9   9   9   9
 Order= 1 2 4 3
 Reordered character table:
              1            2            3            4            5
     1            1            1            1            1            1
     2            2            1            1           -1           -1
     3            4            1           -1           -1            1
     4            3            1           -1            1           -1
    10 basis functions,    18 primitive gaussians,    10 cartesian basis functions
     2 alpha electrons        2 beta electrons
       nuclear repulsion energy         0.5879746788 Hartrees.
 IS=     1 IAt=     1 ISR=     1 T=0 IP=      1 IndIP=      1 IndIPD=      0 C=  2.769344D-01  0.000000D+00                             NZ=T
 IS=     1 IAt=     1 ISR=     1 T=0 IP=      2 IndIP=      2 IndIPD=      1 C=  2.678389D-01  0.000000D+00                             NZ=T
 IS=     1 IAt=     1 ISR=     1 T=0 IP=      3 IndIP=      3 IndIPD=      2 C=  8.347367D-02  0.000000D+00                             NZ=T
 IS=     2 IAt=     2 ISR=     1 T=0 IP=      1 IndIP=      4 IndIPD=      0 C=  7.424571D-01  0.000000D+00                             NZ=T
 IS=     2 IAt=     2 ISR=     1 T=0 IP=      2 IndIP=      5 IndIPD=      1 C=  9.736824D-01  0.000000D+00                             NZ=T
 IS=     2 IAt=     2 ISR=     1 T=0 IP=      3 IndIP=      6 IndIPD=      2 C=  5.265692D-01  0.000000D+00                             NZ=T
 IS=     3 IAt=     2 ISR=     2 T=1 IP=      1 IndIP=      7 IndIPD=      0 C= -1.181663D-01  1.066435D-01                             NZ=T
 IS=     3 IAt=     2 ISR=     2 T=1 IP=      2 IndIP=      8 IndIPD=      1 C=  1.473557D-01  7.547122D-02                             NZ=T
 IS=     4 IAt=     2 ISR=     3 T=1 IP=      1 IndIP=      9 IndIPD=      0 C=  4.951993D-02  1.673876D-02                             NZ=T
 IExCor=    0 DFT=F Ex=HF Corr=None ExCW=0 ScaHFX=  1.000000
 ScaDFX=  1.000000  1.000000  1.000000  1.000000 ScalE2=  1.000000  1.000000
 IRadAn=      5 IRanWt=     -1 IRanGd=            0 ICorTp=0 IEmpDi=  4
 NAtoms=    2 NActive=    2 NUniq=    2 SFac= 1.00D+00 NAtFMM=   60 NAOKFM=F Big=F
 Integral buffers will be    131072 words long.
 Raffenetti 1 integral format.
 Two-electron integral symmetry is turned on.
 Leave Link  301 at Mon Mar 28 14:00:19 2022, MaxMem=  9663676416 cpu:               2.1 elap:               0.1
 (Enter /nopt/nrel/apps/gaussian/g16C_1/g16/l302.exe)
 NPDir=0 NMtPBC=     1 NCelOv=     1 NCel=       1 NClECP=     1 NCelD=      1
         NCelK=      1 NCelE2=     1 NClLst=     1 CellRange=     0.0.
 One-electron integrals computed using PRISM.
 One-electron integral symmetry used in STVInt
 Entering OneElI...
 Calculate overlap and kinetic energy integrals
    NBasis =  10  MinDer = 0  MaxDer = 0
 Requested accuracy = 0.1000D-12
 Symmetry will be used
 PrmmSu-InSpLW:  IPartL=    0 NPrtUS=   36 NPrtUL=    1 DoSpLW=F IThBeg=    0 IThEnd=   35 NThAct=   36.
 PrSmSu:  IncTry=   512 NBBP=             10 NTPThr=   100 NPartT=   36 Incr=           1 LDynOK=F GPUOK=F.
 PrsmSu:  NPrtUS=  36 ThrOK=T IAlg=1 LenDen=           0 ISkipM=0 DoSpLW=F IThBeg=    0 IThEnd=   35.
 Prism:   IPart=     0 DynPar=F LinDyn=F Incr=           1.
 PRISM was handed   268434316 working-precision words and    10 shell-pairs
 PRISM was handed   268434316 working-precision words and    10 shell-pairs
 PRISM was handed   268434316 working-precision words and    10 shell-pairs
 PRISM was handed   268434316 working-precision words and    10 shell-pairs
 PRISM was handed   268434316 working-precision words and    10 shell-pairs
 PRISM was handed   268434316 working-precision words and    10 shell-pairs
 PRISM was handed   268434316 working-precision words and    10 shell-pairs
 PRISM was handed   268434316 working-precision words and    10 shell-pairs
 PRISM was handed   268434316 working-precision words and    10 shell-pairs
 PRISM was handed   268434316 working-precision words and    10 shell-pairs
 IPart=  2 NShTot=           0 NBatch=           0 AvBLen=         0.0
 IPart= 35 NShTot=           0 NBatch=           0 AvBLen=         0.0
 IPart= 16 NShTot=           0 NBatch=           0 AvBLen=         0.0
 IPart= 34 NShTot=           0 NBatch=           0 AvBLen=         0.0
 IPart=  4 NShTot=           0 NBatch=           0 AvBLen=         0.0
 IPart= 32 NShTot=           0 NBatch=           0 AvBLen=         0.0
 IPart=  8 NShTot=           0 NBatch=           0 AvBLen=         0.0
 PRISM was handed   268434316 working-precision words and    10 shell-pairs
 IPart= 20 NShTot=           0 NBatch=           0 AvBLen=         0.0
 PRISM was handed   268434316 working-precision words and    10 shell-pairs
 IPart= 10 NShTot=           0 NBatch=           0 AvBLen=         0.0
 PRISM was handed   268434316 working-precision words and    10 shell-pairs
 PRISM was handed   268434316 working-precision words and    10 shell-pairs
 PRISM was handed   268434316 working-precision words and    10 shell-pairs
 IPart= 22 NShTot=           0 NBatch=           0 AvBLen=         0.0
 PRISM was handed   268434316 working-precision words and    10 shell-pairs
 PRISM was handed   268434316 working-precision words and    10 shell-pairs
 IPart= 23 NShTot=           0 NBatch=           0 AvBLen=         0.0
 IPart= 12 NShTot=           0 NBatch=           0 AvBLen=         0.0
 IPart=  6 NShTot=           0 NBatch=           0 AvBLen=         0.0
 PRISM was handed   268434316 working-precision words and    10 shell-pairs
 IPart=  1 NShTot=           3 NBatch=           3 AvBLen=         1.0
 IPart=  0 NShTot=           7 NBatch=           7 AvBLen=         1.0
 IPart=  3 NShTot=           0 NBatch=           0 AvBLen=         0.0
 IPart= 33 NShTot=           0 NBatch=           0 AvBLen=         0.0
 PRISM was handed   268434316 working-precision words and    10 shell-pairs
 IPart= 29 NShTot=           0 NBatch=           0 AvBLen=         0.0
 PRISM was handed   268434316 working-precision words and    10 shell-pairs
 IPart= 11 NShTot=           0 NBatch=           0 AvBLen=         0.0
 PRISM was handed   268434316 working-precision words and    10 shell-pairs
 PRISM was handed   268434316 working-precision words and    10 shell-pairs
 PRISM was handed   268434316 working-precision words and    10 shell-pairs
 PRISM was handed   268434316 working-precision words and    10 shell-pairs
 PRISM was handed   268434316 working-precision words and    10 shell-pairs
 PRISM was handed   268434316 working-precision words and    10 shell-pairs
 IPart= 25 NShTot=           0 NBatch=           0 AvBLen=         0.0
 PRISM was handed   268434316 working-precision words and    10 shell-pairs
 PRISM was handed   268434316 working-precision words and    10 shell-pairs
 PRISM was handed   268434316 working-precision words and    10 shell-pairs
 IPart= 15 NShTot=           0 NBatch=           0 AvBLen=         0.0
 IPart= 13 NShTot=           0 NBatch=           0 AvBLen=         0.0
 IPart= 26 NShTot=           0 NBatch=           0 AvBLen=         0.0
 IPart= 31 NShTot=           0 NBatch=           0 AvBLen=         0.0
 IPart= 14 NShTot=           0 NBatch=           0 AvBLen=         0.0
 IPart= 18 NShTot=           0 NBatch=           0 AvBLen=         0.0
 IPart= 17 NShTot=           0 NBatch=           0 AvBLen=         0.0
 IPart=  9 NShTot=           0 NBatch=           0 AvBLen=         0.0
 PRISM was handed   268434316 working-precision words and    10 shell-pairs
 PRISM was handed   268434316 working-precision words and    10 shell-pairs
 PRISM was handed   268434316 working-precision words and    10 shell-pairs
 IPart=  5 NShTot=           0 NBatch=           0 AvBLen=         0.0
 PRISM was handed   268434316 working-precision words and    10 shell-pairs
 PRISM was handed   268434316 working-precision words and    10 shell-pairs
 PRISM was handed   268434316 working-precision words and    10 shell-pairs
 PRISM was handed   268434316 working-precision words and    10 shell-pairs
 IPart=  7 NShTot=           0 NBatch=           0 AvBLen=         0.0
 IPart= 27 NShTot=           0 NBatch=           0 AvBLen=         0.0
 IPart= 24 NShTot=           0 NBatch=           0 AvBLen=         0.0
 IPart= 30 NShTot=           0 NBatch=           0 AvBLen=         0.0
 IPart= 19 NShTot=           0 NBatch=           0 AvBLen=         0.0
 IPart= 21 NShTot=           0 NBatch=           0 AvBLen=         0.0
 IPart= 28 NShTot=           0 NBatch=           0 AvBLen=         0.0
 PrSmSu:  NxtVal=             37.
 *** Overlap *** 
                1             2             3             4             5 
      1  0.100000D+01
      2  0.421171D-02  0.100000D+01
      3  0.127790D+00  0.177215D+00  0.100000D+01
      4  0.000000D+00  0.000000D+00  0.000000D+00  0.100000D+01
      5  0.000000D+00  0.000000D+00  0.000000D+00  0.000000D+00  0.100000D+01
      6 -0.241728D+00  0.000000D+00  0.000000D+00  0.000000D+00  0.000000D+00
      7  0.213424D+00  0.140674D+00  0.782781D+00  0.000000D+00  0.000000D+00
      8  0.000000D+00  0.000000D+00  0.000000D+00  0.588593D+00  0.000000D+00
      9  0.000000D+00  0.000000D+00  0.000000D+00  0.000000D+00  0.588593D+00
     10 -0.328145D+00  0.000000D+00  0.000000D+00  0.000000D+00  0.000000D+00
                6             7             8             9            10 
      6  0.100000D+01
      7  0.000000D+00  0.100000D+01
      8  0.000000D+00  0.000000D+00  0.100000D+01
      9  0.000000D+00  0.000000D+00  0.000000D+00  0.100000D+01
     10  0.588593D+00  0.000000D+00  0.000000D+00  0.000000D+00  0.100000D+01
 *** Kinetic Energy *** 
                1             2             3             4             5 
      1  0.760032D+00
      2 -0.304146D-02  0.365490D+01
      3 -0.560636D-02 -0.135538D+00  0.159492D+00
      4  0.000000D+00  0.000000D+00  0.000000D+00  0.307817D+00
      5  0.000000D+00  0.000000D+00  0.000000D+00  0.000000D+00  0.307817D+00
      6 -0.177385D-01  0.000000D+00  0.000000D+00  0.000000D+00  0.000000D+00
      7  0.907628D-02  0.117904D-01  0.513380D-01  0.000000D+00  0.000000D+00
      8  0.000000D+00  0.000000D+00  0.000000D+00  0.661980D-01  0.000000D+00
      9  0.000000D+00  0.000000D+00  0.000000D+00  0.000000D+00  0.661980D-01
     10 -0.307270D-01  0.000000D+00  0.000000D+00  0.000000D+00  0.000000D+00
                6             7             8             9            10 
      6  0.307817D+00
      7  0.000000D+00  0.428467D-01
      8  0.000000D+00  0.000000D+00  0.714113D-01
      9  0.000000D+00  0.000000D+00  0.000000D+00  0.714113D-01
     10  0.661980D-01  0.000000D+00  0.000000D+00  0.000000D+00  0.714113D-01
 Entering OneElI...
 Calculate potential energy integrals
    NBasis =  10  MinDer = 0  MaxDer = 0
 Requested accuracy = 0.1000D-12
 Symmetry will be used
 PrmmSu-InSpLW:  IPartL=    0 NPrtUS=   36 NPrtUL=    1 DoSpLW=F IThBeg=    0 IThEnd=   35 NThAct=   36.
 PrSmSu:  IncTry=   512 NBBP=             20 NTPThr=   100 NPartT=   36 Incr=           1 LDynOK=F GPUOK=F.
 PrsmSu:  NPrtUS=  36 ThrOK=T IAlg=1 LenDen=           0 ISkipM=0 DoSpLW=F IThBeg=    0 IThEnd=   35.
 Prism:   IPart=     0 DynPar=F LinDyn=F Incr=           1.
 PRISM was handed   268434358 working-precision words and    10 shell-pairs
 PRISM was handed   268434358 working-precision words and    10 shell-pairs
 PRISM was handed   268434358 working-precision words and    10 shell-pairs
 PRISM was handed   268434358 working-precision words and    10 shell-pairs
 PRISM was handed   268434358 working-precision words and    10 shell-pairs
 PRISM was handed   268434358 working-precision words and    10 shell-pairs
 PRISM was handed   268434358 working-precision words and    10 shell-pairs
 PRISM was handed   268434358 working-precision words and    10 shell-pairs
 PRISM was handed   268434358 working-precision words and    10 shell-pairs
 PRISM was handed   268434358 working-precision words and    10 shell-pairs
 PRISM was handed   268434358 working-precision words and    10 shell-pairs
 PRISM was handed   268434358 working-precision words and    10 shell-pairs
 PRISM was handed   268434358 working-precision words and    10 shell-pairs
 PRISM was handed   268434358 working-precision words and    10 shell-pairs
 PRISM was handed   268434358 working-precision words and    10 shell-pairs
 PRISM was handed   268434358 working-precision words and    10 shell-pairs
 PRISM was handed   268434358 working-precision words and    10 shell-pairs
 PRISM was handed   268434358 working-precision words and    10 shell-pairs
 PRISM was handed   268434358 working-precision words and    10 shell-pairs
 PRISM was handed   268434358 working-precision words and    10 shell-pairs
 PRISM was handed   268434358 working-precision words and    10 shell-pairs
 PRISM was handed   268434358 working-precision words and    10 shell-pairs
 PRISM was handed   268434358 working-precision words and    10 shell-pairs
 PRISM was handed   268434358 working-precision words and    10 shell-pairs
 PRISM was handed   268434358 working-precision words and    10 shell-pairs
 PRISM was handed   268434358 working-precision words and    10 shell-pairs
 PRISM was handed   268434358 working-precision words and    10 shell-pairs
 PRISM was handed   268434358 working-precision words and    10 shell-pairs
 PRISM was handed   268434358 working-precision words and    10 shell-pairs
 PRISM was handed   268434358 working-precision words and    10 shell-pairs
 PRISM was handed   268434358 working-precision words and    10 shell-pairs
 PRISM was handed   268434358 working-precision words and    10 shell-pairs
 PRISM was handed   268434358 working-precision words and    10 shell-pairs
 PRISM was handed   268434358 working-precision words and    10 shell-pairs
 PRISM was handed   268434358 working-precision words and    10 shell-pairs
 PRISM was handed   268434358 working-precision words and    10 shell-pairs
 IPart= 19 NShTot=           0 NBatch=           0 AvBLen=         0.0
 IPart= 18 NShTot=           0 NBatch=           0 AvBLen=         0.0
 IPart= 14 NShTot=           0 NBatch=           0 AvBLen=         0.0
 IPart=  3 NShTot=           0 NBatch=           0 AvBLen=         0.0
 IPart=  5 NShTot=           0 NBatch=           0 AvBLen=         0.0
 IPart=  6 NShTot=           0 NBatch=           0 AvBLen=         0.0
 IPart= 27 NShTot=           0 NBatch=           0 AvBLen=         0.0
 IPart= 20 NShTot=           0 NBatch=           0 AvBLen=         0.0
 IPart= 21 NShTot=           0 NBatch=           0 AvBLen=         0.0
 IPart= 10 NShTot=           0 NBatch=           0 AvBLen=         0.0
 IPart= 26 NShTot=           0 NBatch=           0 AvBLen=         0.0
 IPart= 30 NShTot=           0 NBatch=           0 AvBLen=         0.0
 IPart=  9 NShTot=           0 NBatch=           0 AvBLen=         0.0
 IPart=  8 NShTot=           0 NBatch=           0 AvBLen=         0.0
 IPart= 11 NShTot=           0 NBatch=           0 AvBLen=         0.0
 IPart=  7 NShTot=           0 NBatch=           0 AvBLen=         0.0
 IPart= 25 NShTot=           0 NBatch=           0 AvBLen=         0.0
 IPart= 33 NShTot=           0 NBatch=           0 AvBLen=         0.0
 IPart= 15 NShTot=           0 NBatch=           0 AvBLen=         0.0
 IPart= 24 NShTot=           0 NBatch=           0 AvBLen=         0.0
 IPart= 28 NShTot=           0 NBatch=           0 AvBLen=         0.0
 IPart= 34 NShTot=           0 NBatch=           0 AvBLen=         0.0
 IPart= 31 NShTot=           0 NBatch=           0 AvBLen=         0.0
 IPart= 29 NShTot=           0 NBatch=           0 AvBLen=         0.0
 IPart= 22 NShTot=           0 NBatch=           0 AvBLen=         0.0
 IPart=  2 NShTot=           0 NBatch=           0 AvBLen=         0.0
 IPart= 17 NShTot=           0 NBatch=           0 AvBLen=         0.0
 IPart= 13 NShTot=           0 NBatch=           0 AvBLen=         0.0
 IPart=  4 NShTot=           0 NBatch=           0 AvBLen=         0.0
 IPart= 16 NShTot=           0 NBatch=           0 AvBLen=         0.0
 IPart= 12 NShTot=           0 NBatch=           0 AvBLen=         0.0
 IPart= 23 NShTot=           0 NBatch=           0 AvBLen=         0.0
 IPart= 32 NShTot=           0 NBatch=           0 AvBLen=         0.0
 IPart= 35 NShTot=           0 NBatch=           0 AvBLen=         0.0
 IPart=  0 NShTot=          14 NBatch=           7 AvBLen=         2.0
 IPart=  1 NShTot=           6 NBatch=           3 AvBLen=         2.0
 PrSmSu:  NxtVal=             37.
 ***** Potential Energy ***** 
                1             2             3             4             5 
      1  0.181459D+01
      2  0.168913D-01  0.827756D+01
      3  0.180750D+00  0.664425D+00  0.141891D+01
      4  0.000000D+00  0.000000D+00  0.000000D+00  0.134165D+01
      5  0.000000D+00  0.000000D+00  0.000000D+00  0.000000D+00  0.134165D+01
      6 -0.343601D+00 -0.455061D-02 -0.631019D-01  0.000000D+00  0.000000D+00
      7  0.281791D+00  0.641769D+00  0.100939D+01  0.000000D+00  0.000000D+00
      8  0.000000D+00  0.000000D+00  0.000000D+00  0.597624D+00  0.000000D+00
      9  0.000000D+00  0.000000D+00  0.000000D+00  0.000000D+00  0.597624D+00
     10 -0.424533D+00 -0.701230D-03 -0.384185D-01  0.000000D+00  0.000000D+00
                6             7             8             9            10 
      6  0.138787D+01
      7 -0.618406D-01  0.988518D+00
      8  0.000000D+00  0.000000D+00  0.678990D+00
      9  0.000000D+00  0.000000D+00  0.000000D+00  0.678990D+00
     10  0.635549D+00 -0.686868D-01  0.000000D+00  0.000000D+00  0.737517D+00
 ****** Core Hamiltonian ****** 
                1             2             3             4             5 
      1 -0.105455D+01
      2 -0.199327D-01 -0.462266D+01
      3 -0.186357D+00 -0.799963D+00 -0.125942D+01
      4  0.000000D+00  0.000000D+00  0.000000D+00 -0.103383D+01
      5  0.000000D+00  0.000000D+00  0.000000D+00  0.000000D+00 -0.103383D+01
      6  0.325863D+00  0.455061D-02  0.631019D-01  0.000000D+00  0.000000D+00
      7 -0.272715D+00 -0.629979D+00 -0.958047D+00  0.000000D+00  0.000000D+00
      8  0.000000D+00  0.000000D+00  0.000000D+00 -0.531426D+00  0.000000D+00
      9  0.000000D+00  0.000000D+00  0.000000D+00  0.000000D+00 -0.531426D+00
     10  0.393806D+00  0.701230D-03  0.384185D-01  0.000000D+00  0.000000D+00
                6             7             8             9            10 
      6 -0.108006D+01
      7  0.618406D-01 -0.945671D+00
      8  0.000000D+00  0.000000D+00 -0.607579D+00
      9  0.000000D+00  0.000000D+00  0.000000D+00 -0.607579D+00
     10 -0.569351D+00  0.686868D-01  0.000000D+00  0.000000D+00 -0.666106D+00
 SVDSVc IOpt=   1 NormSV=T IR=1
 SVDSVc V= 1.95D+00 1.73D+00 9.55D-01 7.53D-01 4.03D-01 2.11D-01
 SVDSVc IOpt=   1 NormSV=T IR=3
 SVDSVc V= 1.59D+00 4.11D-01
 SVDSVc IOpt=   1 NormSV=T IR=4
 SVDSVc V= 1.59D+00 4.11D-01
 TstOVc:  Largest diagonal error= 1.67D-15 IB=1 I=    6.
 TstOVc:  Largest same sym error= 3.71D-16 IB=1 I=    3 J=    1.
 TstOVc:  Largest diff sym error= 0.00D+00 IB=0 JB=0 I=    0 J=    0.
 Orthogonalized basis functions: 
                 1             2             3             4             5 
      1   0.275030D+00 -0.206127D+00 -0.227295D+00  0.964614D+00  0.218901D+00
      2   0.135583D+00  0.121261D+00  0.965903D+00  0.249519D+00  0.168857D-01
      3   0.397900D+00  0.286057D+00 -0.101466D+00 -0.266933D+00 -0.778471D-01
      4   0.000000D+00  0.000000D+00  0.000000D+00  0.000000D+00  0.000000D+00
      5   0.000000D+00  0.000000D+00  0.000000D+00  0.000000D+00  0.000000D+00
      6  -0.207589D+00  0.421402D+00 -0.120260D+00  0.450965D+00 -0.104793D+01
      7   0.408617D+00  0.271418D+00 -0.175707D+00 -0.129895D+00  0.198313D-01
      8   0.000000D+00  0.000000D+00  0.000000D+00  0.000000D+00  0.000000D+00
      9   0.000000D+00  0.000000D+00  0.000000D+00  0.000000D+00  0.000000D+00
     10  -0.223011D+00  0.434954D+00 -0.841128D-01  0.207269D+00  0.115314D+01
                 6             7             8             9            10 
      1  -0.209722D+00  0.000000D+00  0.000000D+00  0.000000D+00  0.000000D+00
      2   0.655215D-01  0.000000D+00  0.000000D+00  0.000000D+00  0.000000D+00
      3  -0.151558D+01  0.000000D+00  0.000000D+00  0.000000D+00  0.000000D+00
      4   0.000000D+00  0.561020D+00  0.110243D+01  0.000000D+00  0.000000D+00
      5   0.000000D+00  0.000000D+00  0.000000D+00  0.561020D+00  0.110243D+01
      6   0.175639D-02  0.000000D+00  0.000000D+00  0.000000D+00  0.000000D+00
      7   0.154784D+01  0.000000D+00  0.000000D+00  0.000000D+00  0.000000D+00
      8   0.000000D+00  0.561020D+00 -0.110243D+01  0.000000D+00  0.000000D+00
      9   0.000000D+00  0.000000D+00  0.000000D+00  0.561020D+00 -0.110243D+01
     10  -0.884859D-01  0.000000D+00  0.000000D+00  0.000000D+00  0.000000D+00
 NBasis=    10 RedAO= T EigKep=  2.11D-01  NBF=     6     0     2     2
 NBsUse=    10 1.00D-06 EigRej= -1.00D+00 NBFU=     6     0     2     2
 Leave Link  302 at Mon Mar 28 14:00:19 2022, MaxMem=  9663676416 cpu:               3.1 elap:               0.1
 (Enter /nopt/nrel/apps/gaussian/g16C_1/g16/l303.exe)
 DipDrv will not compute anything.
 Fermi contact integrals: 
                 1             2 
      1   0.628247D+00  0.102915D-02
      2   0.000000D+00  0.224271D+01
      3   0.102865D-01  0.291894D-01
      4   0.000000D+00  0.000000D+00
      5   0.000000D+00  0.000000D+00
      6  -0.268815D-01  0.000000D+00
      7   0.235412D-01  0.495199D-01
      8   0.000000D+00  0.000000D+00
      9   0.000000D+00  0.000000D+00
     10  -0.406009D-01  0.000000D+00
 Leave Link  303 at Mon Mar 28 14:00:19 2022, MaxMem=  9663676416 cpu:               1.2 elap:               0.1
 (Enter /nopt/nrel/apps/gaussian/g16C_1/g16/l401.exe)
 ExpMin= 2.86D-02 ExpMax= 3.68D+01 ExpMxC= 3.68D+01 IAcc=3 IRadAn=         5 AccDes= 0.00D+00
 Harris functional with IExCor=  205 and IRadAn=       5 diagonalized for initial guess.
 HarFok:  IExCor=  205 AccDes= 0.00D+00 IRadAn=         5 IDoV= 1 UseB2=F ITyADJ=14
 ICtDFT=  3500011 ScaDFX=  1.000000  1.000000  1.000000  1.000000
 FoFCou: FMM=F IPFlag=           0 FMFlag=      100000 FMFlg1=           0
         NFxFlg=           0 DoJE=T BraDBF=F KetDBF=T FulRan=T
         wScrn=  0.000000 ICntrl=       500 IOpCl=  0 I1Cent=   200000004 NGrid=           0
         NMat0=    1 NMatS0=      1 NMatT0=    0 NMatD0=    1 NMtDS0=    0 NMtDT0=    0
 Petite list used in FoFCou.
 Harris En= -7.89758558777711    
 JPrj=0 DoOrth=F DoCkMO=F.
 Initial guess orbital symmetries:
       Occupied  (SG) (SG)
       Virtual   (SG) (PI) (PI) (SG) (SG) (PI) (PI) (SG)
 The electronic state of the initial guess is 1-SG.
 Leave Link  401 at Mon Mar 28 14:00:19 2022, MaxMem=  9663676416 cpu:               3.8 elap:               0.1
 (Enter /nopt/nrel/apps/gaussian/g16C_1/g16/l502.exe)
 Keep R1 ints in memory in symmetry-blocked form, NReq=7206198.
 FoFCou: FMM=F IPFlag=           0 FMFlag=           0 FMFlg1=           0
         NFxFlg=           0 DoJE=F BraDBF=F KetDBF=F FulRan=T
         wScrn=  0.000000 ICntrl=       600 IOpCl=  0 I1Cent=           0 NGrid=           0
         NMat0=    1 NMatS0=     55 NMatT0=    0 NMatD0=    1 NMtDS0=    0 NMtDT0=    0
 Petite list used in FoFCou.
 Closed shell SCF:
 Using DIIS extrapolation, IDIIS=  1040.
 NGot=  9663676416 LenX=  9663673310 LenY=  9663672428
 Requested convergence on RMS density matrix=1.00D-08 within 128 cycles.
 Requested convergence on MAX density matrix=1.00D-06.
 Requested convergence on             energy=1.00D-06.
 No special actions if energy rises.

 Cycle   1  Pass 1  IDiag  1:
 E= -7.79723888194815    
 DIIS: error= 3.70D-02 at cycle   1 NSaved=   1.
 NSaved= 1 IEnMin= 1 EnMin= -7.79723888194815     IErMin= 1 ErrMin= 3.70D-02
 ErrMax= 3.70D-02  0.00D+00 EMaxC= 1.00D-01 BMatC= 1.32D-02 BMatP= 1.32D-02
 IDIUse=3 WtCom= 6.30D-01 WtEn= 3.70D-01
 Coeff-Com:  0.100D+01
 Coeff-En:   0.100D+01
 Coeff:      0.100D+01
 Gap=     0.142 Goal=   None    Shift=    0.000
 GapD=    0.142 DampG=1.000 DampE=0.500 DampFc=0.5000 IDamp=-1.
 Damping current iteration by 5.00D-01
 RMSDP=3.36D-02 MaxDP=2.64D-01              OVMax= 2.29D-01

 Cycle   2  Pass 1  IDiag  1:
 E= -7.82166949626779     Delta-E=       -0.024430614320 Rises=F Damp=T
 DIIS: error= 1.56D-02 at cycle   2 NSaved=   2.
 NSaved= 2 IEnMin= 2 EnMin= -7.82166949626779     IErMin= 2 ErrMin= 1.56D-02
 ErrMax= 1.56D-02  0.00D+00 EMaxC= 1.00D-01 BMatC= 2.85D-03 BMatP= 1.32D-02
 IDIUse=3 WtCom= 8.44D-01 WtEn= 1.56D-01
 Coeff-Com: -0.843D+00 0.184D+01
 Coeff-En:   0.000D+00 0.100D+01
 Coeff:     -0.712D+00 0.171D+01
 Gap=     0.223 Goal=   None    Shift=    0.000
 RMSDP=1.34D-02 MaxDP=1.05D-01 DE=-2.44D-02 OVMax= 6.47D-03

 Cycle   3  Pass 1  IDiag  1:
 E= -7.84425471202571     Delta-E=       -0.022585215758 Rises=F Damp=F
 DIIS: error= 5.29D-04 at cycle   3 NSaved=   3.
 NSaved= 3 IEnMin= 3 EnMin= -7.84425471202571     IErMin= 3 ErrMin= 5.29D-04
 ErrMax= 5.29D-04  0.00D+00 EMaxC= 1.00D-01 BMatC= 3.51D-06 BMatP= 2.85D-03
 IDIUse=3 WtCom= 9.95D-01 WtEn= 5.29D-03
 Coeff-Com:  0.184D+00-0.401D+00 0.122D+01
 Coeff-En:   0.000D+00 0.000D+00 0.100D+01
 Coeff:      0.183D+00-0.399D+00 0.122D+01
 Gap=     0.227 Goal=   None    Shift=    0.000
 RMSDP=4.24D-04 MaxDP=1.34D-03 DE=-2.26D-02 OVMax= 3.68D-03

 Cycle   4  Pass 1  IDiag  1:
 E= -7.84426852818750     Delta-E=       -0.000013816162 Rises=F Damp=F
 DIIS: error= 1.68D-04 at cycle   4 NSaved=   4.
 NSaved= 4 IEnMin= 4 EnMin= -7.84426852818750     IErMin= 4 ErrMin= 1.68D-04
 ErrMax= 1.68D-04  0.00D+00 EMaxC= 1.00D-01 BMatC= 1.92D-07 BMatP= 3.51D-06
 IDIUse=3 WtCom= 9.98D-01 WtEn= 1.68D-03
 Coeff-Com:  0.155D+00-0.336D+00 0.999D+00 0.182D+00
 Coeff-En:   0.000D+00 0.000D+00 0.000D+00 0.100D+01
 Coeff:      0.154D+00-0.335D+00 0.998D+00 0.183D+00
 Gap=     0.227 Goal=   None    Shift=    0.000
 RMSDP=2.84D-05 MaxDP=9.44D-05 DE=-1.38D-05 OVMax= 3.01D-04

 Cycle   5  Pass 1  IDiag  1:
 E= -7.84426902443533     Delta-E=       -0.000000496248 Rises=F Damp=F
 DIIS: error= 1.53D-04 at cycle   5 NSaved=   5.
 NSaved= 5 IEnMin= 5 EnMin= -7.84426902443533     IErMin= 5 ErrMin= 1.53D-04
 ErrMax= 1.53D-04  0.00D+00 EMaxC= 1.00D-01 BMatC= 1.60D-07 BMatP= 1.92D-07
 IDIUse=3 WtCom= 9.98D-01 WtEn= 1.53D-03
 Large coefficients: NSaved=  5 BigCof=   11.56 CofMax=   10.00 Det=-7.53D-10
 Inversion failed.  Reducing to  4 matrices.
 Large coefficients: NSaved=  4 BigCof=   11.69 CofMax=   10.00 Det=-1.06D-09
 Inversion failed.  Reducing to  3 matrices.
 Large coefficients: NSaved=  3 BigCof=   11.77 CofMax=   10.00 Det=-1.21D-09
 Inversion failed.  Reducing to  2 matrices.
 Large coefficients: NSaved=  2 BigCof=   11.52 CofMax=   10.00 Det=-1.44D-09
 Coeff-Com: -0.105D+02 0.115D+02
 Coeff-En:   0.000D+00 0.100D+01
 Coeff:     -0.105D+02 0.115D+02
 Gap=     0.227 Goal=   None    Shift=    0.000
 RMSDP=2.98D-04 MaxDP=1.01D-03 DE=-4.96D-07 OVMax= 3.17D-03

 Cycle   6  Pass 1  IDiag  1:
 E= -7.84427151853457     Delta-E=       -0.000002494099 Rises=F Damp=F
 DIIS: error= 9.69D-07 at cycle   6 NSaved=   3.
 NSaved= 3 IEnMin= 3 EnMin= -7.84427151853457     IErMin= 3 ErrMin= 9.69D-07
 ErrMax= 9.69D-07  0.00D+00 EMaxC= 1.00D-01 BMatC= 1.96D-11 BMatP= 1.60D-07
 IDIUse=1 WtCom= 1.00D+00 WtEn= 0.00D+00
 Coeff-Com:  0.161D+01-0.177D+01 0.115D+01
 Coeff:      0.161D+01-0.177D+01 0.115D+01
 Gap=     0.227 Goal=   None    Shift=    0.000
 RMSDP=1.55D-06 MaxDP=5.16D-06 DE=-2.49D-06 OVMax= 2.80D-06

 Cycle   7  Pass 1  IDiag  1:
 E= -7.84427151859637     Delta-E=       -0.000000000062 Rises=F Damp=F
 DIIS: error= 2.65D-07 at cycle   7 NSaved=   4.
 NSaved= 4 IEnMin= 4 EnMin= -7.84427151859637     IErMin= 4 ErrMin= 2.65D-07
 ErrMax= 2.65D-07  0.00D+00 EMaxC= 1.00D-01 BMatC= 6.53D-13 BMatP= 1.96D-11
 IDIUse=1 WtCom= 1.00D+00 WtEn= 0.00D+00
 Coeff-Com:  0.104D+00-0.113D+00 0.672D-01 0.942D+00
 Coeff:      0.104D+00-0.113D+00 0.672D-01 0.942D+00
 Gap=     0.227 Goal=   None    Shift=    0.000
 RMSDP=3.78D-07 MaxDP=1.35D-06 DE=-6.18D-11 OVMax= 1.36D-06

 Cycle   8  Pass 1  IDiag  1:
 E= -7.84427151859948     Delta-E=       -0.000000000003 Rises=F Damp=F
 DIIS: error= 6.35D-08 at cycle   8 NSaved=   5.
 NSaved= 5 IEnMin= 5 EnMin= -7.84427151859948     IErMin= 5 ErrMin= 6.35D-08
 ErrMax= 6.35D-08  0.00D+00 EMaxC= 1.00D-01 BMatC= 4.55D-14 BMatP= 6.53D-13
 IDIUse=1 WtCom= 1.00D+00 WtEn= 0.00D+00
 Coeff-Com: -0.114D+00 0.124D+00-0.829D-01-0.211D+00 0.128D+01
 Coeff:     -0.114D+00 0.124D+00-0.829D-01-0.211D+00 0.128D+01
 Gap=     0.227 Goal=   None    Shift=    0.000
 RMSDP=1.58D-07 MaxDP=8.71D-07 DE=-3.11D-12 OVMax= 7.35D-07

 Cycle   9  Pass 1  IDiag  1:
 E= -7.84427151859983     Delta-E=       -0.000000000000 Rises=F Damp=F
 DIIS: error= 9.04D-09 at cycle   9 NSaved=   6.
 NSaved= 6 IEnMin= 6 EnMin= -7.84427151859983     IErMin= 6 ErrMin= 9.04D-09
 ErrMax= 9.04D-09  0.00D+00 EMaxC= 1.00D-01 BMatC= 5.26D-16 BMatP= 4.55D-14
 IDIUse=1 WtCom= 1.00D+00 WtEn= 0.00D+00
 Coeff-Com: -0.114D-01 0.125D-01-0.833D-02 0.189D-01-0.757D-03 0.989D+00
 Coeff:     -0.114D-01 0.125D-01-0.833D-02 0.189D-01-0.757D-03 0.989D+00
 Gap=     0.227 Goal=   None    Shift=    0.000
 RMSDP=7.51D-09 MaxDP=3.82D-08 DE=-3.48D-13 OVMax= 7.50D-08

 SCF Done:  E(RHF) =  -7.84427151860     A.U. after    9 cycles
            NFock=  9  Conv=0.75D-08     -V/T= 2.0063
 KE= 7.794970847286D+00 PE=-1.917039573860D+01 EE= 2.943178693911D+00
 Leave Link  502 at Mon Mar 28 14:00:19 2022, MaxMem=  9663676416 cpu:               3.3 elap:               0.1
 (Enter /nopt/nrel/apps/gaussian/g16C_1/g16/l801.exe)
 Windowed orbitals will be sorted by symmetry type.
 ExpMin= 2.86D-02 ExpMax= 3.68D+01 ExpMxC= 3.68D+01 IAcc=3 IRadAn=         5 AccDes= 0.00D+00
 HarFok:  IExCor=  205 AccDes= 0.00D+00 IRadAn=         5 IDoV=-2 UseB2=F ITyADJ=14
 ICtDFT= 12500011 ScaDFX=  1.000000  1.000000  1.000000  1.000000
 Largest valence mixing into a core orbital is  5.22D-04
 Largest core mixing into a valence orbital is  8.64D-05
 Range of M.O.s used for correlation:     2    10
 NBasis=    10 NAE=     2 NBE=     2 NFC=     1 NFV=     0
 NROrb=      9 NOA=     1 NOB=     1 NVA=     8 NVB=     8
 Leave Link  801 at Mon Mar 28 14:00:20 2022, MaxMem=  9663676416 cpu:               2.0 elap:               0.1
 (Enter /nopt/nrel/apps/gaussian/g16C_1/g16/l804.exe)
 Closed-shell transformation, MDV=  9663676416 ITran=4 ISComp=2.
 Unit  1 TFree=          4817 TCopy=        115370.
 Semi-Direct transformation.
 ModeAB=           2 MOrb=             1 LenV=    9663556741
 LASXX=           88 LTotXX=          88 LenRXX=          88
 LTotAB=         141 MaxLAS=         495 LenRXY=         495
 NonZer=         603 LenScr=      785920 LnRSAI=           0
 LnScr1=           0 LExtra=      218791 Total=      1005294
 MaxDsk= 34359738368 SrtSym=           F ITran=            4
 DoSDTr:  NPSUse= 36
 JobTyp=0 Pass  1:  I=   1 to   1.
 (rs|ai) integrals will be sorted in core.
 Complete sort for first half transformation.
 First half transformation complete.
 Complete sort for second half transformation.
 Second half transformation complete.
 Spin components of T(2) and E(2):
     alpha-alpha T2 =       0.0000000000D+00 E2=      0.0000000000D+00
     alpha-beta  T2 =       0.2877605100D-01 E2=     -0.2464749974D-01
     beta-beta   T2 =       0.0000000000D+00 E2=      0.0000000000D+00
 ANorm=    0.1014285981D+01
 E2 =    -0.2464749974D-01 EUMP2 =    -0.78689190183395D+01
 Leave Link  804 at Mon Mar 28 14:00:20 2022, MaxMem=  9663676416 cpu:               2.9 elap:               0.1
 (Enter /nopt/nrel/apps/gaussian/g16C_1/g16/l913.exe)
 CIDS:  MDV=  9663676416.
 Frozen-core window:  NFC=   1 NFV=   0.
 IFCWin=0 IBDFC=1 NFBD=     0     0 NFCmp=     0     0 NFFFC=     0     0
 Using DD3R+UMP44R for 1st iteration.
 Using DD4RQ for 2nd and later iterations.
 Keep R2 and R3 ints in memory in symmetry-blocked form, NReq=7208580.
 FoFCou: FMM=F IPFlag=           0 FMFlag=           0 FMFlg1=           0
         NFxFlg=           0 DoJE=F BraDBF=F KetDBF=F FulRan=T
         wScrn=  0.000000 ICntrl=       600 IOpCl=  0 I1Cent=           0 NGrid=           0
         NMat0=    1 NMatS0=     55 NMatT0=    0 NMatD0=    1 NMtDS0=    0 NMtDT0=    0
 Petite list used in FoFCou.
 CIDS: In Core Option IDoMem=           1.
 Coupled Cluster theory with single and double substitutions
 ===========================================================
 Iterations= 200 Convergence= 0.100D-06
 Produce multiple copies of IABC intergrals
 Iteration Nr.   1
 **********************
 DD1Dir will call FoFMem   1 times, MxPair=         2
 NAB=     1 NAA=     0 NBB=     0.
 MP4(R+Q)=  0.70925771D-03
 Maximum subspace dimension=  5
 A-vector RMS=  2.5645104D-02 Max=  5.3082538D-02 conv= 1.00D-05.
 RLE energy=       -0.0426472155
 E3=       -0.11115924D-01        EUMP3=      -0.78800349427D+01
 E4(DQ)=   -0.48672186D-02        UMP4(DQ)=   -0.78849021613D+01
 E4(SDQ)=  -0.51579238D-02        UMP4(SDQ)=  -0.78851928665D+01
 VARIATIONAL ENERGIES WITH THE FIRST-ORDER WAVEFUNCTION:
 DE(Corr)= -0.35050243E-01 E(Corr)=     -7.8793217616    
 NORM(A)=   0.10443674D+01
 Iteration Nr.   2
 **********************
 DD1Dir will call FoFMem   1 times, MxPair=         2
 NAB=     1 NAA=     0 NBB=     0.
 A-vector RMS=  1.4120937D-02 Max=  1.7829116D-02 conv= 1.00D-05.
 RLE energy=       -0.0440053728
 DE(Corr)= -0.43258235E-01 E(CORR)=     -7.8875297540     Delta=-8.21D-03
 NORM(A)=   0.10508268D+01
 Iteration Nr.   3
 **********************
 DD1Dir will call FoFMem   1 times, MxPair=         2
 NAB=     1 NAA=     0 NBB=     0.
 A-vector RMS=  1.2742302D-02 Max=  1.5202528D-02 conv= 1.00D-05.
 RLE energy=       -0.0450930683
 DE(Corr)= -0.44151260E-01 E(CORR)=     -7.8884227789     Delta=-8.93D-04
 NORM(A)=   0.10627604D+01
 Iteration Nr.   4
 **********************
 DD1Dir will call FoFMem   1 times, MxPair=         2
 NAB=     1 NAA=     0 NBB=     0.
 A-vector RMS=  5.1541355D-03 Max=  9.3224871D-03 conv= 1.00D-05.
 RLE energy=       -0.0463543958
 DE(Corr)= -0.45335456E-01 E(CORR)=     -7.8896069747     Delta=-1.18D-03
 NORM(A)=   0.10755498D+01
 Iteration Nr.   5
 **********************
 DD1Dir will call FoFMem   1 times, MxPair=         2
 NAB=     1 NAA=     0 NBB=     0.
 A-vector RMS=  1.5685208D-03 Max=  1.6610678D-03 conv= 1.00D-05.
 RLE energy=       -0.0458253694
 DE(Corr)= -0.46142907E-01 E(CORR)=     -7.8904144260     Delta=-8.07D-04
 NORM(A)=   0.10741364D+01
 Iteration Nr.   6
 **********************
 DD1Dir will call FoFMem   1 times, MxPair=         2
 NAB=     1 NAA=     0 NBB=     0.
 A-vector RMS=  9.9603520D-04 Max=  9.0547958D-04 conv= 1.00D-05.
 RLE energy=       -0.0460825265
 DE(Corr)= -0.45892069E-01 E(CORR)=     -7.8901635879     Delta= 2.51D-04
 NORM(A)=   0.10764120D+01
 Iteration Nr.   7
 **********************
 DD1Dir will call FoFMem   1 times, MxPair=         2
 NAB=     1 NAA=     0 NBB=     0.
 A-vector RMS=  4.3686218D-04 Max=  5.2350937D-04 conv= 1.00D-05.
 RLE energy=       -0.0459915990
 DE(Corr)= -0.46054141E-01 E(CORR)=     -7.8903256593     Delta=-1.62D-04
 NORM(A)=   0.10757621D+01
 Iteration Nr.   8
 **********************
 DD1Dir will call FoFMem   1 times, MxPair=         2
 NAB=     1 NAA=     0 NBB=     0.
 A-vector RMS=  9.4085983D-05 Max=  1.6698778D-04 conv= 1.00D-05.
 RLE energy=       -0.0459964046
 DE(Corr)= -0.45992545E-01 E(CORR)=     -7.8902640632     Delta= 6.16D-05
 NORM(A)=   0.10757956D+01
 Iteration Nr.   9
 **********************
 DD1Dir will call FoFMem   1 times, MxPair=         2
 NAB=     1 NAA=     0 NBB=     0.
 A-vector RMS=  1.5845291D-05 Max=  1.9351487D-05 conv= 1.00D-05.
 RLE energy=       -0.0459996197
 DE(Corr)= -0.45997728E-01 E(CORR)=     -7.8902692465     Delta=-5.18D-06
 NORM(A)=   0.10758234D+01
 Iteration Nr.  10
 **********************
 DD1Dir will call FoFMem   1 times, MxPair=         2
 NAB=     1 NAA=     0 NBB=     0.
 A-vector RMS=  2.4723310D-06 Max=  2.7797497D-06 conv= 1.00D-05.
 RLE energy=       -0.0460000468
 DE(Corr)= -0.45999770E-01 E(CORR)=     -7.8902712885     Delta=-2.04D-06
 NORM(A)=   0.10758278D+01
 Iteration Nr.  11
 **********************
 DD1Dir will call FoFMem   1 times, MxPair=         2
 NAB=     1 NAA=     0 NBB=     0.
 A-vector RMS=  6.3345701D-07 Max=  6.8710902D-07 conv= 1.00D-05.
 RLE energy=       -0.0460000571
 DE(Corr)= -0.46000054E-01 E(CORR)=     -7.8902715723     Delta=-2.84D-07
 NORM(A)=   0.10758277D+01
 Iteration Nr.  12
 **********************
 DD1Dir will call FoFMem   1 times, MxPair=         2
 NAB=     1 NAA=     0 NBB=     0.
 A-vector RMS=  2.1079888D-07 Max=  3.6901905D-07 conv= 1.00D-05.
 RLE energy=       -0.0460000501
 DE(Corr)= -0.46000056E-01 E(CORR)=     -7.8902715741     Delta=-1.84D-09
 NORM(A)=   0.10758277D+01
 CI/CC converged in   12 iterations to DelEn=-1.84D-09 Conv= 1.00D-07 ErrA1= 2.11D-07 Conv= 1.00D-05
 Wavefunction amplitudes converged. E(Corr)=     -7.8902715741    
 Dominant configurations:
 ***********************
 Spin Case        I    J    A    B          Value
    AA            2         3            0.124136D+00
   ABAB           2    2    3    3      -0.107554D+00
   ABAB           2    2    3   10       0.143199D+00
   ABAB           2    2   10    3       0.143199D+00
   ABAB           2    2   10   10      -0.199167D+00
 Largest amplitude= 1.99D-01
 Discarding MO integrals.
 Leave Link  913 at Mon Mar 28 14:00:20 2022, MaxMem=  9663676416 cpu:               4.1 elap:               0.2
 (Enter /nopt/nrel/apps/gaussian/g16C_1/g16/l601.exe)
 Copying SCF densities to generalized density rwf, IOpCl= 0 IROHF=0.

 **********************************************************************

            Population analysis using the SCF Density.

 **********************************************************************

 Orbital symmetries:
       Occupied  (SG) (SG)
       Virtual   (SG) (PI) (PI) (SG) (PI) (PI) (SG) (SG)
 The electronic state is 1-SG.
 Alpha  occ. eigenvalues --   -2.50135  -0.24319
 Alpha virt. eigenvalues --   -0.01616   0.03493   0.03493   0.15334   0.19284
 Alpha virt. eigenvalues --    0.19284   0.20541   0.23630
          Condensed to atoms (all electrons):
               1          2
     1  H    0.634118   0.266327
     2  Li   0.266327   2.833228
 Mulliken charges:
               1
     1  H    0.099555
     2  Li  -0.099555
 Sum of Mulliken charges =   0.00000
 Mulliken charges with hydrogens summed into heavy atoms:
               1
     2  Li   0.000000
 N-N= 5.879746788000D-01 E-N=-1.917039573516D+01  KE= 7.794970847286D+00
 Symmetry A1   KE= 7.794970847286D+00
 Symmetry A2   KE= 0.000000000000D+00
 Symmetry B1   KE= 0.000000000000D+00
 Symmetry B2   KE= 0.000000000000D+00

 Atomic contributions to Alpha molecular orbitals:
 Alpha occ 1 OE=-2.501 is Li2-s=1.0000
 Alpha occ 2 OE=-0.243 is H1-s=0.4502 Li2-s=0.3186 Li2-p=0.2312
 Alpha vir 3 OE=-0.016 is Li2-s=0.5534 Li2-p=0.4202
 Alpha vir 4 OE=0.035 is Li2-p=1.0000
 Alpha vir 5 OE=0.035 is Li2-p=1.0000
 Alpha vir 6 OE=0.153 is Li2-s=0.4978 Li2-p=0.4471
 Alpha vir 7 OE=0.193 is Li2-p=1.0000
 Alpha vir 8 OE=0.193 is Li2-p=1.0000
 Alpha vir 9 OE=0.205 is Li2-s=0.5139 Li2-p=0.4772
 Alpha vir 10 OE=0.236 is H1-s=0.4594 Li2-p=0.4243 Li2-s=0.1163
 
 Leave Link  601 at Mon Mar 28 14:00:20 2022, MaxMem=  9663676416 cpu:               3.2 elap:               0.1
 (Enter /nopt/nrel/apps/gaussian/g16C_1/g16/l9999.exe)

 Test job not archived.
 1\1\GINC-R102U34\SP\RCCSD-FC\Gen\H1Li1\USER\28-Mar-2022\0\\#P CCSD
 (MaxCyc=200,SaveAmplitudes,ReadAmplitudes)/GEN sp pop=AllOrbitals iop(
 3/33=1,3/36=-1)\\test\\0,1\H,0,0.,0.,0.\Li,0,0.,0.,2.7\\Version=ES64L-
 G16RevC.01\State=1-SG\HF=-7.8442715\MP2=-7.868919\MP3=-7.8800349\MP4D=
 -7.8856114\MP4DQ=-7.8849022\MP4SDQ=-7.8851929\CCSD=-7.8902716\RMSD=7.5
 13e-09\PG=C*V [C*(H1Li1)]\\@


 MORNING PEOPLE ARE USUALLY ADMIRED AS EARLY BIRDS.
 RECALL BEN FRANKLIN'S APHORISM THAT THE EARLY BIRD GETS THE WORM.
 I IDENTIFY WITH THE WORM. --  CRAIG JAGGER, MINNEAPOLIS, KS.
 Job cpu time:       0 days  0 hours  0 minutes 34.6 seconds.
 Elapsed time:       0 days  0 hours  0 minutes  1.3 seconds.
 File lengths (MBytes):  RWF=     13 Int=      0 D2E=      0 Chk=      1 Scr=      1
 Normal termination of Gaussian 16 at Mon Mar 28 14:00:20 2022.
