 Entering Gaussian System, Link 0=g16
 Initial command:
 /nopt/nrel/apps/gaussian/g16C_1/g16/l1.exe "/lustre/eaglefs/scratch/user/qc/lih-dissc/lih-1-ccsd-2.7-631g/Gau-14748.inp" -scrdir="/lustre/eaglefs/scratch/user/qc/lih-dissc/lih-1-ccsd-2.7-631g/"
 Default is to use a total of  36 processors:
                               36 via shared-memory
                                1 via Linda
 Entering Link 1 = /nopt/nrel/apps/gaussian/g16C_1/g16/l1.exe PID=     14749.
  
 Copyright (c) 1988-2019, Gaussian, Inc.  All Rights Reserved.
  
 This is part of the Gaussian(R) 16 program.  It is based on
 the Gaussian(R) 09 system (copyright 2009, Gaussian, Inc.),
 the Gaussian(R) 03 system (copyright 2003, Gaussian, Inc.),
 the Gaussian(R) 98 system (copyright 1998, Gaussian, Inc.),
 the Gaussian(R) 94 system (copyright 1995, Gaussian, Inc.),
 the Gaussian 92(TM) system (copyright 1992, Gaussian, Inc.),
 the Gaussian 90(TM) system (copyright 1990, Gaussian, Inc.),
 the Gaussian 88(TM) system (copyright 1988, Gaussian, Inc.),
 the Gaussian 86(TM) system (copyright 1986, Carnegie Mellon
 University), and the Gaussian 82(TM) system (copyright 1983,
 Carnegie Mellon University). Gaussian is a federally registered
 trademark of Gaussian, Inc.
  
 This software contains proprietary and confidential information,
 including trade secrets, belonging to Gaussian, Inc.
  
 This software is provided under written license and may be
 used, copied, transmitted, or stored only in accord with that
 written license.
  
 The following legend is applicable only to US Government
 contracts under FAR:
  
                    RESTRICTED RIGHTS LEGEND
  
 Use, reproduction and disclosure by the US Government is
 subject to restrictions as set forth in subparagraphs (a)
 and (c) of the Commercial Computer Software - Restricted
 Rights clause in FAR 52.227-19.
  
 Gaussian, Inc.
 340 Quinnipiac St., Bldg. 40, Wallingford CT 06492
  
  
 ---------------------------------------------------------------
 Warning -- This program may not be used in any manner that
 competes with the business of Gaussian, Inc. or will provide
 assistance to any competitor of Gaussian, Inc.  The licensee
 of this program is prohibited from giving any competitor of
 Gaussian, Inc. access to this program.  By using this program,
 the user acknowledges that Gaussian, Inc. is engaged in the
 business of creating and licensing software in the field of
 computational chemistry and represents and warrants to the
 licensee that it is not a competitor of Gaussian, Inc. and that
 it will not use this program in any manner prohibited above.
 ---------------------------------------------------------------
  

 Cite this work as:
 Gaussian 16, Revision C.01,
 M. J. Frisch, G. W. Trucks, H. B. Schlegel, G. E. Scuseria, 
 M. A. Robb, J. R. Cheeseman, G. Scalmani, V. Barone, 
 G. A. Petersson, H. Nakatsuji, X. Li, M. Caricato, A. V. Marenich, 
 J. Bloino, B. G. Janesko, R. Gomperts, B. Mennucci, H. P. Hratchian, 
 J. V. Ortiz, A. F. Izmaylov, J. L. Sonnenberg, D. Williams-Young, 
 F. Ding, F. Lipparini, F. Egidi, J. Goings, B. Peng, A. Petrone, 
 T. Henderson, D. Ranasinghe, V. G. Zakrzewski, J. Gao, N. Rega, 
 G. Zheng, W. Liang, M. Hada, M. Ehara, K. Toyota, R. Fukuda, 
 J. Hasegawa, M. Ishida, T. Nakajima, Y. Honda, O. Kitao, H. Nakai, 
 T. Vreven, K. Throssell, J. A. Montgomery, Jr., J. E. Peralta, 
 F. Ogliaro, M. J. Bearpark, J. J. Heyd, E. N. Brothers, K. N. Kudin, 
 V. N. Staroverov, T. A. Keith, R. Kobayashi, J. Normand, 
 K. Raghavachari, A. P. Rendell, J. C. Burant, S. S. Iyengar, 
 J. Tomasi, M. Cossi, J. M. Millam, M. Klene, C. Adamo, R. Cammi, 
 J. W. Ochterski, R. L. Martin, K. Morokuma, O. Farkas, 
 J. B. Foresman, and D. J. Fox, Gaussian, Inc., Wallingford CT, 2019.
 
 ******************************************
 Gaussian 16:  ES64L-G16RevC.01  3-Jul-2019
                28-Mar-2022 
 ******************************************
 %chk=molecule
 Default route: CacheSize=180224 MaxDisk=256GB
 ----------------------------------------------------------------------
 #P CCSD(MaxCyc=200,SaveAmplitudes,ReadAmplitudes)/GEN sp pop=AllOrbita
 ls iop(3/33=1,3/36=-1)
 ----------------------------------------------------------------------
 1/4=180224,38=1,172=1/1;
 2/4=180224,12=2,17=6,18=5,40=1/2;
 3/4=180224,5=7,11=9,25=1,30=1,33=1,36=-1/1,2,3;
 4/4=180224/1;
 5/4=180224,5=2,38=5/2;
 8/4=180224,6=4,9=120000,10=1,24=1/1,4;
 9/4=180224,5=7,6=200,77=1/13;
 6/4=180224,7=2,8=2,9=2,10=2,96=-1/1;
 99/4=180224,5=1,9=1/99;
 Leave Link    1 at Mon Mar 28 14:01:06 2022, MaxMem=           0 cpu:               2.1 elap:               0.1
 (Enter /nopt/nrel/apps/gaussian/g16C_1/g16/l101.exe)
 ----
 test
 ----
 Symbolic Z-matrix:
 Charge =  0 Multiplicity = 1
 H                     0.        0.        0. 
 Li                    0.        0.        2.7 
 
 ITRead=  0  0
 MicOpt= -1 -1
 NAtoms=      2 NQM=        2 NQMF=       0 NMMI=      0 NMMIF=      0
                NMic=       0 NMicF=      0.
                    Isotopes and Nuclear Properties:
 (Nuclear quadrupole moments (NQMom) in fm**2, nuclear magnetic moments (NMagM)
  in nuclear magnetons)

  Atom         1           2
 IAtWgt=           1           7
 AtmWgt=   1.0078250   7.0160045
 NucSpn=           1           3
 AtZEff=  -0.0000000  -0.0000000
 NQMom=    0.0000000  -4.0100000
 NMagM=    2.7928460   3.2564240
 AtZNuc=   1.0000000   3.0000000
 Leave Link  101 at Mon Mar 28 14:01:06 2022, MaxMem=  9663676416 cpu:               3.3 elap:               0.1
 (Enter /nopt/nrel/apps/gaussian/g16C_1/g16/l202.exe)
                          Input orientation:                          
 ---------------------------------------------------------------------
 Center     Atomic      Atomic             Coordinates (Angstroms)
 Number     Number       Type             X           Y           Z
 ---------------------------------------------------------------------
      1          1           0        0.000000    0.000000    0.000000
      2          3           0        0.000000    0.000000    2.700000
 ---------------------------------------------------------------------
 Stoichiometry    HLi
 Framework group  C*V[C*(HLi)]
 Deg. of freedom     1
 Full point group                 C*V     NOp   4
 Largest Abelian subgroup         C2V     NOp   4
 Largest concise Abelian subgroup C1      NOp   1
                         Standard orientation:                         
 ---------------------------------------------------------------------
 Center     Atomic      Atomic             Coordinates (Angstroms)
 Number     Number       Type             X           Y           Z
 ---------------------------------------------------------------------
      1          1           0        0.000000    0.000000   -2.025000
      2          3           0        0.000000    0.000000    0.675000
 ---------------------------------------------------------------------
 Rotational constants (GHZ):           0.0000000          78.6676837          78.6676837
 Leave Link  202 at Mon Mar 28 14:01:06 2022, MaxMem=  9663676416 cpu:               0.7 elap:               0.0
 (Enter /nopt/nrel/apps/gaussian/g16C_1/g16/l301.exe)
 General basis read from cards:  (5D, 7F)
                         Coordinates in L301:                         
 ---------------------------------------------------------------------
 Center     Atomic      Atomic             Coordinates (Angstroms)
 Number     Number       Type             X           Y           Z
 ---------------------------------------------------------------------
      1          1           0        0.000000    0.000000   -2.025000
      2          3           0        0.000000    0.000000    0.675000
 ---------------------------------------------------------------------
 Centers:       1
 STO-3G
 ****
 Centers:       2
 6-31G
 ****
 FixB: optimizing general contractions.
 Ernie: Thresh=  0.10000D-02 Tol=  0.10000D-05 Strict=F.
 IA=     1 ShT= 0 ShC= 0 NL=   1 NS=   0.
 IA=     1 L=0 SC=0 ISt=    0 NBk=    0 NP=    0 IndPr=    0.
 IA=     2 ShT= 0 ShC= 0 NL=   1 NS=   0.
 IA=     2 L=0 SC=0 ISt=    0 NBk=    0 NP=    0 IndPr=    0.
 IA=     2 ShT= 1 ShC= 0 NL=   2 NS=   1.
 IA=     2 L=1 SC=0 ISt=    0 NBk=    0 NP=    0 IndPr=    0.
 LdAtmC:  AtmChg=     1.000000     3.000000
 AtZEff=     -1.0000000     -1.3500000
 NEqShl: 
              1            2            3            4
     1            1            1            1            1
     2            2            2            2            2
     3            3            3            3            3
     4            4            4            4            4
 NEqBas: 
              1            2            3            4
     1            1            1            1            1
     2            2            2            2            2
     3            3            3            3            3
     4            4           -4           -4            4
     5            5           -5            5           -5
     6            6            6            6            6
     7            7            7            7            7
     8            8           -8           -8            8
     9            9           -9            9           -9
    10           10           10           10           10
 There are     6 symmetry adapted cartesian basis functions of A1  symmetry.
   1         1   1   1   1
   2         2   2   2   2
   3         3   3   3   3
   4         6   6   6   6
   5         7   7   7   7
   6        10  10  10  10
 There are     0 symmetry adapted cartesian basis functions of A2  symmetry.
 There are     2 symmetry adapted cartesian basis functions of B1  symmetry.
   7         4   4   4   4
   8         8   8   8   8
 There are     2 symmetry adapted cartesian basis functions of B2  symmetry.
   9         5   5   5   5
  10         9   9   9   9
 Order= 1 2 4 3
 Reordered character table:
              1            2            3            4            5
     1            1            1            1            1            1
     2            2            1            1           -1           -1
     3            4            1           -1           -1            1
     4            3            1           -1            1           -1
 NEqShl: 
              1            2            3            4
     1            1            1            1            1
     2            2            2            2            2
     3            3            3            3            3
     4            4            4            4            4
 NEqBas: 
              1            2            3            4
     1            1            1            1            1
     2            2            2            2            2
     3            3            3            3            3
     4            4           -4           -4            4
     5            5           -5            5           -5
     6            6            6            6            6
     7            7            7            7            7
     8            8           -8           -8            8
     9            9           -9            9           -9
    10           10           10           10           10
 There are     6 symmetry adapted basis functions of A1  symmetry.
   1         1   1   1   1
   2         2   2   2   2
   3         3   3   3   3
   4         6   6   6   6
   5         7   7   7   7
   6        10  10  10  10
 There are     0 symmetry adapted basis functions of A2  symmetry.
 There are     2 symmetry adapted basis functions of B1  symmetry.
   7         4   4   4   4
   8         8   8   8   8
 There are     2 symmetry adapted basis functions of B2  symmetry.
   9         5   5   5   5
  10         9   9   9   9
 Order= 1 2 4 3
 Reordered character table:
              1            2            3            4            5
     1            1            1            1            1            1
     2            2            1            1           -1           -1
     3            4            1           -1           -1            1
     4            3            1           -1            1           -1
    10 basis functions,    25 primitive gaussians,    10 cartesian basis functions
     2 alpha electrons        2 beta electrons
       nuclear repulsion energy         0.5879746788 Hartrees.
 IS=     1 IAt=     1 ISR=     1 T=0 IP=      1 IndIP=      1 IndIPD=      0 C=  2.769344D-01  0.000000D+00                             NZ=T
 IS=     1 IAt=     1 ISR=     1 T=0 IP=      2 IndIP=      2 IndIPD=      1 C=  2.678389D-01  0.000000D+00                             NZ=T
 IS=     1 IAt=     1 ISR=     1 T=0 IP=      3 IndIP=      3 IndIPD=      2 C=  8.347367D-02  0.000000D+00                             NZ=T
 IS=     2 IAt=     2 ISR=     1 T=0 IP=      1 IndIP=      4 IndIPD=      0 C=  1.948572D-01  0.000000D+00                             NZ=T
 IS=     2 IAt=     2 ISR=     1 T=0 IP=      2 IndIP=      5 IndIPD=      1 C=  3.565040D-01  0.000000D+00                             NZ=T
 IS=     2 IAt=     2 ISR=     1 T=0 IP=      3 IndIP=      6 IndIPD=      2 C=  5.614879D-01  0.000000D+00                             NZ=T
 IS=     2 IAt=     2 ISR=     1 T=0 IP=      4 IndIP=      7 IndIPD=      3 C=  6.883627D-01  0.000000D+00                             NZ=T
 IS=     2 IAt=     2 ISR=     1 T=0 IP=      5 IndIP=      8 IndIPD=      4 C=  5.498106D-01  0.000000D+00                             NZ=T
 IS=     2 IAt=     2 ISR=     1 T=0 IP=      6 IndIP=      9 IndIPD=      5 C=  1.755056D-01  0.000000D+00                             NZ=T
 IS=     3 IAt=     2 ISR=     2 T=1 IP=      1 IndIP=     10 IndIPD=      0 C= -4.708915D-02  3.658984D-02                             NZ=T
 IS=     3 IAt=     2 ISR=     2 T=1 IP=      2 IndIP=     11 IndIPD=      1 C= -9.665673D-02  1.133585D-01                             NZ=T
 IS=     3 IAt=     2 ISR=     2 T=1 IP=      3 IndIP=     12 IndIPD=      2 C=  1.151795D-01  5.648589D-02                             NZ=T
 IS=     4 IAt=     2 ISR=     3 T=1 IP=      1 IndIP=     13 IndIPD=      0 C=  5.885627D-02  2.232258D-02                             NZ=T
 IExCor=    0 DFT=F Ex=HF Corr=None ExCW=0 ScaHFX=  1.000000
 ScaDFX=  1.000000  1.000000  1.000000  1.000000 ScalE2=  1.000000  1.000000
 IRadAn=      5 IRanWt=     -1 IRanGd=            0 ICorTp=0 IEmpDi=  4
 NAtoms=    2 NActive=    2 NUniq=    2 SFac= 1.00D+00 NAtFMM=   60 NAOKFM=F Big=F
 Integral buffers will be    131072 words long.
 Raffenetti 1 integral format.
 Two-electron integral symmetry is turned on.
 Leave Link  301 at Mon Mar 28 14:01:06 2022, MaxMem=  9663676416 cpu:               2.2 elap:               0.1
 (Enter /nopt/nrel/apps/gaussian/g16C_1/g16/l302.exe)
 NPDir=0 NMtPBC=     1 NCelOv=     1 NCel=       1 NClECP=     1 NCelD=      1
         NCelK=      1 NCelE2=     1 NClLst=     1 CellRange=     0.0.
 One-electron integrals computed using PRISM.
 One-electron integral symmetry used in STVInt
 Entering OneElI...
 Calculate overlap and kinetic energy integrals
    NBasis =  10  MinDer = 0  MaxDer = 0
 Requested accuracy = 0.1000D-12
 Symmetry will be used
 PrmmSu-InSpLW:  IPartL=    0 NPrtUS=   36 NPrtUL=    1 DoSpLW=F IThBeg=    0 IThEnd=   35 NThAct=   36.
 PrSmSu:  IncTry=   512 NBBP=             10 NTPThr=   100 NPartT=   36 Incr=           1 LDynOK=F GPUOK=F.
 PrsmSu:  NPrtUS=  36 ThrOK=T IAlg=1 LenDen=           0 ISkipM=0 DoSpLW=F IThBeg=    0 IThEnd=   35.
 Prism:   IPart=     0 DynPar=F LinDyn=F Incr=           1.
 PRISM was handed   268433776 working-precision words and    10 shell-pairs
 PRISM was handed   268433776 working-precision words and    10 shell-pairs
 PRISM was handed   268433776 working-precision words and    10 shell-pairs
 PRISM was handed   268433776 working-precision words and    10 shell-pairs
 PRISM was handed   268433776 working-precision words and    10 shell-pairs
 PRISM was handed   268433776 working-precision words and    10 shell-pairs
 PRISM was handed   268433776 working-precision words and    10 shell-pairs
 PRISM was handed   268433776 working-precision words and    10 shell-pairs
 PRISM was handed   268433776 working-precision words and    10 shell-pairs
 PRISM was handed   268433776 working-precision words and    10 shell-pairs
 IPart=  7 NShTot=           0 NBatch=           0 AvBLen=         0.0
 IPart= 10 NShTot=           0 NBatch=           0 AvBLen=         0.0
 IPart= 21 NShTot=           0 NBatch=           0 AvBLen=         0.0
 IPart= 20 NShTot=           0 NBatch=           0 AvBLen=         0.0
 IPart= 35 NShTot=           0 NBatch=           0 AvBLen=         0.0
 IPart= 17 NShTot=           0 NBatch=           0 AvBLen=         0.0
 IPart= 33 NShTot=           0 NBatch=           0 AvBLen=         0.0
 IPart= 32 NShTot=           0 NBatch=           0 AvBLen=         0.0
 IPart=  8 NShTot=           0 NBatch=           0 AvBLen=         0.0
 PRISM was handed   268433776 working-precision words and    10 shell-pairs
 PRISM was handed   268433776 working-precision words and    10 shell-pairs
 PRISM was handed   268433776 working-precision words and    10 shell-pairs
 PRISM was handed   268433776 working-precision words and    10 shell-pairs
 PRISM was handed   268433776 working-precision words and    10 shell-pairs
 IPart= 16 NShTot=           0 NBatch=           0 AvBLen=         0.0
 IPart=  0 NShTot=          10 NBatch=          10 AvBLen=         1.0
 IPart= 24 NShTot=           0 NBatch=           0 AvBLen=         0.0
 PRISM was handed   268433776 working-precision words and    10 shell-pairs
 IPart= 34 NShTot=           0 NBatch=           0 AvBLen=         0.0
 IPart= 12 NShTot=           0 NBatch=           0 AvBLen=         0.0
 IPart= 18 NShTot=           0 NBatch=           0 AvBLen=         0.0
 PRISM was handed   268433776 working-precision words and    10 shell-pairs
 PRISM was handed   268433776 working-precision words and    10 shell-pairs
 PRISM was handed   268433776 working-precision words and    10 shell-pairs
 IPart= 29 NShTot=           0 NBatch=           0 AvBLen=         0.0
 PRISM was handed   268433776 working-precision words and    10 shell-pairs
 PRISM was handed   268433776 working-precision words and    10 shell-pairs
 PRISM was handed   268433776 working-precision words and    10 shell-pairs
 IPart= 27 NShTot=           0 NBatch=           0 AvBLen=         0.0
 IPart= 25 NShTot=           0 NBatch=           0 AvBLen=         0.0
 IPart= 19 NShTot=           0 NBatch=           0 AvBLen=         0.0
 IPart=  5 NShTot=           0 NBatch=           0 AvBLen=         0.0
 PRISM was handed   268433776 working-precision words and    10 shell-pairs
 PRISM was handed   268433776 working-precision words and    10 shell-pairs
 PRISM was handed   268433776 working-precision words and    10 shell-pairs
 IPart= 14 NShTot=           0 NBatch=           0 AvBLen=         0.0
 IPart= 11 NShTot=           0 NBatch=           0 AvBLen=         0.0
 PRISM was handed   268433776 working-precision words and    10 shell-pairs
 PRISM was handed   268433776 working-precision words and    10 shell-pairs
 PRISM was handed   268433776 working-precision words and    10 shell-pairs
 PRISM was handed   268433776 working-precision words and    10 shell-pairs
 IPart=  2 NShTot=           0 NBatch=           0 AvBLen=         0.0
 PRISM was handed   268433776 working-precision words and    10 shell-pairs
 PRISM was handed   268433776 working-precision words and    10 shell-pairs
 IPart=  3 NShTot=           0 NBatch=           0 AvBLen=         0.0
 IPart=  9 NShTot=           0 NBatch=           0 AvBLen=         0.0
 IPart= 15 NShTot=           0 NBatch=           0 AvBLen=         0.0
 IPart= 23 NShTot=           0 NBatch=           0 AvBLen=         0.0
 IPart= 30 NShTot=           0 NBatch=           0 AvBLen=         0.0
 IPart=  4 NShTot=           0 NBatch=           0 AvBLen=         0.0
 PRISM was handed   268433776 working-precision words and    10 shell-pairs
 IPart= 13 NShTot=           0 NBatch=           0 AvBLen=         0.0
 IPart= 31 NShTot=           0 NBatch=           0 AvBLen=         0.0
 PRISM was handed   268433776 working-precision words and    10 shell-pairs
 PRISM was handed   268433776 working-precision words and    10 shell-pairs
 PRISM was handed   268433776 working-precision words and    10 shell-pairs
 PRISM was handed   268433776 working-precision words and    10 shell-pairs
 IPart=  1 NShTot=           0 NBatch=           0 AvBLen=         0.0
 IPart= 22 NShTot=           0 NBatch=           0 AvBLen=         0.0
 IPart= 26 NShTot=           0 NBatch=           0 AvBLen=         0.0
 IPart= 28 NShTot=           0 NBatch=           0 AvBLen=         0.0
 IPart=  6 NShTot=           0 NBatch=           0 AvBLen=         0.0
 PrSmSu:  NxtVal=             37.
 *** Overlap *** 
                1             2             3             4             5 
      1  0.100000D+01
      2  0.532542D-02  0.100000D+01
      3  0.155233D+00  0.145258D+00  0.100000D+01
      4  0.000000D+00  0.000000D+00  0.000000D+00  0.100000D+01
      5  0.000000D+00  0.000000D+00  0.000000D+00  0.000000D+00  0.100000D+01
      6 -0.297583D+00  0.000000D+00  0.000000D+00  0.000000D+00  0.000000D+00
      7  0.209555D+00  0.185742D+00  0.905515D+00  0.000000D+00  0.000000D+00
      8  0.000000D+00  0.000000D+00  0.000000D+00  0.802063D+00  0.000000D+00
      9  0.000000D+00  0.000000D+00  0.000000D+00  0.000000D+00  0.802063D+00
     10 -0.351935D+00  0.000000D+00  0.000000D+00  0.000000D+00  0.000000D+00
                6             7             8             9            10 
      6  0.100000D+01
      7  0.000000D+00  0.100000D+01
      8  0.000000D+00  0.000000D+00  0.100000D+01
      9  0.000000D+00  0.000000D+00  0.000000D+00  0.100000D+01
     10  0.802063D+00  0.000000D+00  0.000000D+00  0.000000D+00  0.100000D+01
 *** Kinetic Energy *** 
                1             2             3             4             5 
      1  0.760032D+00
      2 -0.351089D-02  0.362575D+01
      3 -0.859587D-04 -0.242849D+00  0.145919D+00
      4  0.000000D+00  0.000000D+00  0.000000D+00  0.242177D+00
      5  0.000000D+00  0.000000D+00  0.000000D+00  0.000000D+00  0.242177D+00
      6 -0.310816D-01  0.000000D+00  0.000000D+00  0.000000D+00  0.000000D+00
      7  0.894255D-02  0.193002D-01  0.653913D-01  0.000000D+00  0.000000D+00
      8  0.000000D+00  0.000000D+00  0.000000D+00  0.100038D+00  0.000000D+00
      9  0.000000D+00  0.000000D+00  0.000000D+00  0.000000D+00  0.100038D+00
     10 -0.370734D-01  0.000000D+00  0.000000D+00  0.000000D+00  0.000000D+00
                6             7             8             9            10 
      6  0.242177D+00
      7  0.000000D+00  0.539430D-01
      8  0.000000D+00  0.000000D+00  0.899049D-01
      9  0.000000D+00  0.000000D+00  0.000000D+00  0.899049D-01
     10  0.100038D+00  0.000000D+00  0.000000D+00  0.000000D+00  0.899049D-01
 Entering OneElI...
 Calculate potential energy integrals
    NBasis =  10  MinDer = 0  MaxDer = 0
 Requested accuracy = 0.1000D-12
 Symmetry will be used
 PrmmSu-InSpLW:  IPartL=    0 NPrtUS=   36 NPrtUL=    1 DoSpLW=F IThBeg=    0 IThEnd=   35 NThAct=   36.
 PrSmSu:  IncTry=   512 NBBP=             20 NTPThr=   100 NPartT=   36 Incr=           1 LDynOK=F GPUOK=F.
 PrsmSu:  NPrtUS=  36 ThrOK=T IAlg=1 LenDen=           0 ISkipM=0 DoSpLW=F IThBeg=    0 IThEnd=   35.
 Prism:   IPart=     0 DynPar=F LinDyn=F Incr=           1.
 PRISM was handed   268433834 working-precision words and    10 shell-pairs
 PRISM was handed   268433834 working-precision words and    10 shell-pairs
 PRISM was handed   268433834 working-precision words and    10 shell-pairs
 PRISM was handed   268433834 working-precision words and    10 shell-pairs
 PRISM was handed   268433834 working-precision words and    10 shell-pairs
 PRISM was handed   268433834 working-precision words and    10 shell-pairs
 PRISM was handed   268433834 working-precision words and    10 shell-pairs
 PRISM was handed   268433834 working-precision words and    10 shell-pairs
 PRISM was handed   268433834 working-precision words and    10 shell-pairs
 PRISM was handed   268433834 working-precision words and    10 shell-pairs
 PRISM was handed   268433834 working-precision words and    10 shell-pairs
 PRISM was handed   268433834 working-precision words and    10 shell-pairs
 PRISM was handed   268433834 working-precision words and    10 shell-pairs
 PRISM was handed   268433834 working-precision words and    10 shell-pairs
 PRISM was handed   268433834 working-precision words and    10 shell-pairs
 PRISM was handed   268433834 working-precision words and    10 shell-pairs
 PRISM was handed   268433834 working-precision words and    10 shell-pairs
 PRISM was handed   268433834 working-precision words and    10 shell-pairs
 PRISM was handed   268433834 working-precision words and    10 shell-pairs
 PRISM was handed   268433834 working-precision words and    10 shell-pairs
 PRISM was handed   268433834 working-precision words and    10 shell-pairs
 PRISM was handed   268433834 working-precision words and    10 shell-pairs
 PRISM was handed   268433834 working-precision words and    10 shell-pairs
 PRISM was handed   268433834 working-precision words and    10 shell-pairs
 PRISM was handed   268433834 working-precision words and    10 shell-pairs
 PRISM was handed   268433834 working-precision words and    10 shell-pairs
 PRISM was handed   268433834 working-precision words and    10 shell-pairs
 PRISM was handed   268433834 working-precision words and    10 shell-pairs
 PRISM was handed   268433834 working-precision words and    10 shell-pairs
 PRISM was handed   268433834 working-precision words and    10 shell-pairs
 PRISM was handed   268433834 working-precision words and    10 shell-pairs
 PRISM was handed   268433834 working-precision words and    10 shell-pairs
 PRISM was handed   268433834 working-precision words and    10 shell-pairs
 PRISM was handed   268433834 working-precision words and    10 shell-pairs
 PRISM was handed   268433834 working-precision words and    10 shell-pairs
 PRISM was handed   268433834 working-precision words and    10 shell-pairs
 IPart= 34 NShTot=           0 NBatch=           0 AvBLen=         0.0
 IPart= 35 NShTot=           0 NBatch=           0 AvBLen=         0.0
 IPart=  8 NShTot=           0 NBatch=           0 AvBLen=         0.0
 IPart= 25 NShTot=           0 NBatch=           0 AvBLen=         0.0
 IPart= 33 NShTot=           0 NBatch=           0 AvBLen=         0.0
 IPart= 10 NShTot=           0 NBatch=           0 AvBLen=         0.0
 IPart=  1 NShTot=           0 NBatch=           0 AvBLen=         0.0
 IPart= 16 NShTot=           0 NBatch=           0 AvBLen=         0.0
 IPart= 21 NShTot=           0 NBatch=           0 AvBLen=         0.0
 IPart= 22 NShTot=           0 NBatch=           0 AvBLen=         0.0
 IPart= 12 NShTot=           0 NBatch=           0 AvBLen=         0.0
 IPart= 15 NShTot=           0 NBatch=           0 AvBLen=         0.0
 IPart= 20 NShTot=           0 NBatch=           0 AvBLen=         0.0
 IPart= 19 NShTot=           0 NBatch=           0 AvBLen=         0.0
 IPart=  2 NShTot=           0 NBatch=           0 AvBLen=         0.0
 IPart= 27 NShTot=           0 NBatch=           0 AvBLen=         0.0
 IPart= 26 NShTot=           0 NBatch=           0 AvBLen=         0.0
 IPart= 14 NShTot=           0 NBatch=           0 AvBLen=         0.0
 IPart= 11 NShTot=           0 NBatch=           0 AvBLen=         0.0
 IPart=  6 NShTot=           0 NBatch=           0 AvBLen=         0.0
 IPart= 17 NShTot=           0 NBatch=           0 AvBLen=         0.0
 IPart=  7 NShTot=           0 NBatch=           0 AvBLen=         0.0
 IPart= 30 NShTot=           0 NBatch=           0 AvBLen=         0.0
 IPart= 32 NShTot=           0 NBatch=           0 AvBLen=         0.0
 IPart=  4 NShTot=           0 NBatch=           0 AvBLen=         0.0
 IPart=  9 NShTot=           0 NBatch=           0 AvBLen=         0.0
 IPart= 24 NShTot=           0 NBatch=           0 AvBLen=         0.0
 IPart=  5 NShTot=           0 NBatch=           0 AvBLen=         0.0
 IPart= 13 NShTot=           0 NBatch=           0 AvBLen=         0.0
 IPart= 29 NShTot=           0 NBatch=           0 AvBLen=         0.0
 IPart= 31 NShTot=           0 NBatch=           0 AvBLen=         0.0
 IPart= 28 NShTot=           0 NBatch=           0 AvBLen=         0.0
 IPart=  3 NShTot=           0 NBatch=           0 AvBLen=         0.0
 IPart= 18 NShTot=           0 NBatch=           0 AvBLen=         0.0
 IPart=  0 NShTot=          20 NBatch=          10 AvBLen=         2.0
 IPart= 23 NShTot=           0 NBatch=           0 AvBLen=         0.0
 PrSmSu:  NxtVal=             37.
 ***** Potential Energy ***** 
                1             2             3             4             5 
      1  0.181459D+01
      2  0.187096D-01  0.826701D+01
      3  0.216412D+00  0.314497D+00  0.130795D+01
      4  0.000000D+00  0.000000D+00  0.000000D+00  0.119660D+01
      5  0.000000D+00  0.000000D+00  0.000000D+00  0.000000D+00  0.119660D+01
      6 -0.416829D+00 -0.505743D-02 -0.683029D-01  0.000000D+00  0.000000D+00
      7  0.280526D+00  0.790323D+00  0.110318D+01  0.000000D+00  0.000000D+00
      8  0.000000D+00  0.000000D+00  0.000000D+00  0.767549D+00  0.000000D+00
      9  0.000000D+00  0.000000D+00  0.000000D+00  0.000000D+00  0.767549D+00
     10 -0.463224D+00 -0.138704D-02 -0.537710D-01  0.000000D+00  0.000000D+00
                6             7             8             9            10 
      6  0.125277D+01
      7 -0.723427D-01  0.109346D+01
      8  0.000000D+00  0.000000D+00  0.753702D+00
      9  0.000000D+00  0.000000D+00  0.000000D+00  0.753702D+00
     10  0.821094D+00 -0.718710D-01  0.000000D+00  0.000000D+00  0.818592D+00
 ****** Core Hamiltonian ****** 
                1             2             3             4             5 
      1 -0.105455D+01
      2 -0.222205D-01 -0.464126D+01
      3 -0.216498D+00 -0.557346D+00 -0.116203D+01
      4  0.000000D+00  0.000000D+00  0.000000D+00 -0.954427D+00
      5  0.000000D+00  0.000000D+00  0.000000D+00  0.000000D+00 -0.954427D+00
      6  0.385747D+00  0.505743D-02  0.683029D-01  0.000000D+00  0.000000D+00
      7 -0.271583D+00 -0.771022D+00 -0.103779D+01  0.000000D+00  0.000000D+00
      8  0.000000D+00  0.000000D+00  0.000000D+00 -0.667512D+00  0.000000D+00
      9  0.000000D+00  0.000000D+00  0.000000D+00  0.000000D+00 -0.667512D+00
     10  0.426150D+00  0.138704D-02  0.537710D-01  0.000000D+00  0.000000D+00
                6             7             8             9            10 
      6 -0.101059D+01
      7  0.723427D-01 -0.103951D+01
      8  0.000000D+00  0.000000D+00 -0.663797D+00
      9  0.000000D+00  0.000000D+00  0.000000D+00 -0.663797D+00
     10 -0.721056D+00  0.718710D-01  0.000000D+00  0.000000D+00 -0.728688D+00
 SVDSVc IOpt=   1 NormSV=T IR=1
 SVDSVc V= 2.11D+00 1.91D+00 9.55D-01 7.40D-01 1.96D-01 9.14D-02
 SVDSVc IOpt=   1 NormSV=T IR=3
 SVDSVc V= 1.80D+00 1.98D-01
 SVDSVc IOpt=   1 NormSV=T IR=4
 SVDSVc V= 1.80D+00 1.98D-01
 TstOVc:  Largest diagonal error= 3.55D-15 IB=1 I=    6.
 TstOVc:  Largest same sym error= 1.29D-15 IB=1 I=    3 J=    2.
 TstOVc:  Largest diff sym error= 0.00D+00 IB=0 JB=0 I=    0 J=    0.
 Orthogonalized basis functions: 
                 1             2             3             4             5 
      1   0.279515D+00 -0.113838D+00 -0.205728D+00  0.101580D+01  0.133740D+00
      2   0.988210D-01  0.126648D+00  0.978325D+00  0.212206D+00  0.327575D-02
      3   0.322029D+00  0.348845D+00 -0.147418D+00 -0.238490D+00 -0.511421D-01
      4   0.000000D+00  0.000000D+00  0.000000D+00  0.000000D+00  0.000000D+00
      5   0.000000D+00  0.000000D+00  0.000000D+00  0.000000D+00  0.000000D+00
      6  -0.289317D+00  0.353613D+00 -0.862826D-01  0.361532D+00 -0.156803D+01
      7   0.331540D+00  0.348261D+00 -0.114389D+00 -0.139694D+00  0.219755D-01
      8   0.000000D+00  0.000000D+00  0.000000D+00  0.000000D+00  0.000000D+00
      9   0.000000D+00  0.000000D+00  0.000000D+00  0.000000D+00  0.000000D+00
     10  -0.297255D+00  0.357236D+00 -0.715182D-01  0.259674D+00  0.162211D+01
                 6             7             8             9            10 
      1  -0.176784D+00  0.000000D+00  0.000000D+00  0.000000D+00  0.000000D+00
      2  -0.113145D+00  0.000000D+00  0.000000D+00  0.000000D+00  0.000000D+00
      3  -0.230467D+01  0.000000D+00  0.000000D+00  0.000000D+00  0.000000D+00
      4   0.000000D+00  0.526744D+00  0.158936D+01  0.000000D+00  0.000000D+00
      5   0.000000D+00  0.000000D+00  0.000000D+00  0.526744D+00  0.158936D+01
      6   0.115513D-01  0.000000D+00  0.000000D+00  0.000000D+00  0.000000D+00
      7   0.236087D+01  0.000000D+00  0.000000D+00  0.000000D+00  0.000000D+00
      8   0.000000D+00  0.526744D+00 -0.158936D+01  0.000000D+00  0.000000D+00
      9   0.000000D+00  0.000000D+00  0.000000D+00  0.526744D+00 -0.158936D+01
     10  -0.786758D-01  0.000000D+00  0.000000D+00  0.000000D+00  0.000000D+00
 NBasis=    10 RedAO= T EigKep=  9.14D-02  NBF=     6     0     2     2
 NBsUse=    10 1.00D-06 EigRej= -1.00D+00 NBFU=     6     0     2     2
 Leave Link  302 at Mon Mar 28 14:01:06 2022, MaxMem=  9663676416 cpu:               3.8 elap:               0.1
 (Enter /nopt/nrel/apps/gaussian/g16C_1/g16/l303.exe)
 DipDrv will not compute anything.
 Fermi contact integrals: 
                 1             2 
      1   0.628247D+00  0.102915D-02
      2   0.000000D+00  0.252653D+01
      3   0.147094D-01 -0.285664D-01
      4   0.000000D+00  0.000000D+00
      5   0.000000D+00  0.000000D+00
      6  -0.368064D-01  0.000000D+00
      7   0.230784D-01  0.588563D-01
      8   0.000000D+00  0.000000D+00
      9   0.000000D+00  0.000000D+00
     10  -0.446602D-01  0.000000D+00
 Leave Link  303 at Mon Mar 28 14:01:06 2022, MaxMem=  9663676416 cpu:               0.9 elap:               0.0
 (Enter /nopt/nrel/apps/gaussian/g16C_1/g16/l401.exe)
 ExpMin= 3.60D-02 ExpMax= 6.42D+02 ExpMxC= 9.68D+01 IAcc=3 IRadAn=         5 AccDes= 0.00D+00
 Harris functional with IExCor=  205 and IRadAn=       5 diagonalized for initial guess.
 HarFok:  IExCor=  205 AccDes= 0.00D+00 IRadAn=         5 IDoV= 1 UseB2=F ITyADJ=14
 ICtDFT=  3500011 ScaDFX=  1.000000  1.000000  1.000000  1.000000
 FoFCou: FMM=F IPFlag=           0 FMFlag=      100000 FMFlg1=           0
         NFxFlg=           0 DoJE=T BraDBF=F KetDBF=T FulRan=T
         wScrn=  0.000000 ICntrl=       500 IOpCl=  0 I1Cent=   200000004 NGrid=           0
         NMat0=    1 NMatS0=      1 NMatT0=    0 NMatD0=    1 NMtDS0=    0 NMtDT0=    0
 Petite list used in FoFCou.
 Harris En= -7.94786102806652    
 JPrj=0 DoOrth=F DoCkMO=F.
 Initial guess orbital symmetries:
       Occupied  (SG) (SG)
       Virtual   (SG) (PI) (PI) (SG) (SG) (PI) (PI) (SG)
 The electronic state of the initial guess is 1-SG.
 Leave Link  401 at Mon Mar 28 14:01:06 2022, MaxMem=  9663676416 cpu:               4.3 elap:               0.1
 (Enter /nopt/nrel/apps/gaussian/g16C_1/g16/l502.exe)
 Keep R1 ints in memory in symmetry-blocked form, NReq=7210449.
 FoFCou: FMM=F IPFlag=           0 FMFlag=           0 FMFlg1=           0
         NFxFlg=           0 DoJE=F BraDBF=F KetDBF=F FulRan=T
         wScrn=  0.000000 ICntrl=       600 IOpCl=  0 I1Cent=           0 NGrid=           0
         NMat0=    1 NMatS0=     55 NMatT0=    0 NMatD0=    1 NMtDS0=    0 NMtDT0=    0
 Petite list used in FoFCou.
 Closed shell SCF:
 Using DIIS extrapolation, IDIIS=  1040.
 NGot=  9663676416 LenX=  9663673310 LenY=  9663672428
 Requested convergence on RMS density matrix=1.00D-08 within 128 cycles.
 Requested convergence on MAX density matrix=1.00D-06.
 Requested convergence on             energy=1.00D-06.
 No special actions if energy rises.

 Cycle   1  Pass 1  IDiag  1:
 E= -7.84860802109586    
 DIIS: error= 4.31D-02 at cycle   1 NSaved=   1.
 NSaved= 1 IEnMin= 1 EnMin= -7.84860802109586     IErMin= 1 ErrMin= 4.31D-02
 ErrMax= 4.31D-02  0.00D+00 EMaxC= 1.00D-01 BMatC= 1.22D-02 BMatP= 1.22D-02
 IDIUse=3 WtCom= 5.69D-01 WtEn= 4.31D-01
 Coeff-Com:  0.100D+01
 Coeff-En:   0.100D+01
 Coeff:      0.100D+01
 Gap=     0.147 Goal=   None    Shift=    0.000
 GapD=    0.147 DampG=1.000 DampE=0.500 DampFc=0.5000 IDamp=-1.
 Damping current iteration by 5.00D-01
 RMSDP=3.32D-02 MaxDP=2.56D-01              OVMax= 2.20D-01

 Cycle   2  Pass 1  IDiag  1:
 E= -7.87191714516055     Delta-E=       -0.023309124065 Rises=F Damp=T
 DIIS: error= 1.87D-02 at cycle   2 NSaved=   2.
 NSaved= 2 IEnMin= 2 EnMin= -7.87191714516055     IErMin= 2 ErrMin= 1.87D-02
 ErrMax= 1.87D-02  0.00D+00 EMaxC= 1.00D-01 BMatC= 2.63D-03 BMatP= 1.22D-02
 IDIUse=3 WtCom= 8.13D-01 WtEn= 1.87D-01
 Coeff-Com: -0.844D+00 0.184D+01
 Coeff-En:   0.000D+00 0.100D+01
 Coeff:     -0.686D+00 0.169D+01
 Gap=     0.225 Goal=   None    Shift=    0.000
 RMSDP=1.36D-02 MaxDP=1.05D-01 DE=-2.33D-02 OVMax= 5.67D-03

 Cycle   3  Pass 1  IDiag  1:
 E= -7.89359815017492     Delta-E=       -0.021681005014 Rises=F Damp=F
 DIIS: error= 5.64D-04 at cycle   3 NSaved=   3.
 NSaved= 3 IEnMin= 3 EnMin= -7.89359815017492     IErMin= 3 ErrMin= 5.64D-04
 ErrMax= 5.64D-04  0.00D+00 EMaxC= 1.00D-01 BMatC= 3.48D-06 BMatP= 2.63D-03
 IDIUse=3 WtCom= 9.94D-01 WtEn= 5.64D-03
 Coeff-Com:  0.219D+00-0.466D+00 0.125D+01
 Coeff-En:   0.000D+00 0.000D+00 0.100D+01
 Coeff:      0.218D+00-0.463D+00 0.125D+01
 Gap=     0.231 Goal=   None    Shift=    0.000
 RMSDP=4.72D-04 MaxDP=1.68D-03 DE=-2.17D-02 OVMax= 3.85D-03

 Cycle   4  Pass 1  IDiag  1:
 E= -7.89361419861785     Delta-E=       -0.000016048443 Rises=F Damp=F
 DIIS: error= 1.80D-04 at cycle   4 NSaved=   4.
 NSaved= 4 IEnMin= 4 EnMin= -7.89361419861785     IErMin= 4 ErrMin= 1.80D-04
 ErrMax= 1.80D-04  0.00D+00 EMaxC= 1.00D-01 BMatC= 2.10D-07 BMatP= 3.48D-06
 IDIUse=3 WtCom= 9.98D-01 WtEn= 1.80D-03
 Coeff-Com:  0.183D+00-0.390D+00 0.102D+01 0.188D+00
 Coeff-En:   0.000D+00 0.000D+00 0.000D+00 0.100D+01
 Coeff:      0.183D+00-0.389D+00 0.102D+01 0.189D+00
 Gap=     0.231 Goal=   None    Shift=    0.000
 RMSDP=2.98D-05 MaxDP=9.65D-05 DE=-1.60D-05 OVMax= 3.31D-04

 Cycle   5  Pass 1  IDiag  1:
 E= -7.89361476651094     Delta-E=       -0.000000567893 Rises=F Damp=F
 DIIS: error= 1.63D-04 at cycle   5 NSaved=   5.
 NSaved= 5 IEnMin= 5 EnMin= -7.89361476651094     IErMin= 5 ErrMin= 1.63D-04
 ErrMax= 1.63D-04  0.00D+00 EMaxC= 1.00D-01 BMatC= 1.73D-07 BMatP= 2.10D-07
 IDIUse=3 WtCom= 9.98D-01 WtEn= 1.63D-03
 Large coefficients: NSaved=  5 BigCof=   11.03 CofMax=   10.00 Det=-6.03D-10
 Inversion failed.  Reducing to  4 matrices.
 Large coefficients: NSaved=  4 BigCof=   11.21 CofMax=   10.00 Det=-1.23D-09
 Inversion failed.  Reducing to  3 matrices.
 Large coefficients: NSaved=  3 BigCof=   11.33 CofMax=   10.00 Det=-1.31D-09
 Inversion failed.  Reducing to  2 matrices.
 Large coefficients: NSaved=  2 BigCof=   10.96 CofMax=   10.00 Det=-1.73D-09
 Coeff-Com: -0.996D+01 0.110D+02
 Coeff-En:   0.000D+00 0.100D+01
 Coeff:     -0.994D+01 0.109D+02
 Gap=     0.231 Goal=   None    Shift=    0.000
 RMSDP=2.96D-04 MaxDP=9.73D-04 DE=-5.68D-07 OVMax= 3.29D-03

 Cycle   6  Pass 1  IDiag  1:
 E= -7.89361745779704     Delta-E=       -0.000002691286 Rises=F Damp=F
 DIIS: error= 1.45D-06 at cycle   6 NSaved=   3.
 NSaved= 3 IEnMin= 3 EnMin= -7.89361745779704     IErMin= 3 ErrMin= 1.45D-06
 ErrMax= 1.45D-06  0.00D+00 EMaxC= 1.00D-01 BMatC= 3.39D-11 BMatP= 1.73D-07
 IDIUse=1 WtCom= 1.00D+00 WtEn= 0.00D+00
 Coeff-Com:  0.160D+01-0.176D+01 0.116D+01
 Coeff:      0.160D+01-0.176D+01 0.116D+01
 Gap=     0.231 Goal=   None    Shift=    0.000
 RMSDP=2.89D-06 MaxDP=7.98D-06 DE=-2.69D-06 OVMax= 3.54D-06

 Cycle   7  Pass 1  IDiag  1:
 E= -7.89361745792041     Delta-E=       -0.000000000123 Rises=F Damp=F
 DIIS: error= 3.66D-07 at cycle   7 NSaved=   4.
 NSaved= 4 IEnMin= 4 EnMin= -7.89361745792041     IErMin= 4 ErrMin= 3.66D-07
 ErrMax= 3.66D-07  0.00D+00 EMaxC= 1.00D-01 BMatC= 1.13D-12 BMatP= 3.39D-11
 IDIUse=1 WtCom= 1.00D+00 WtEn= 0.00D+00
 Coeff-Com: -0.136D+00 0.151D+00-0.113D+00 0.110D+01
 Coeff:     -0.136D+00 0.151D+00-0.113D+00 0.110D+01
 Gap=     0.231 Goal=   None    Shift=    0.000
 RMSDP=6.97D-07 MaxDP=2.59D-06 DE=-1.23D-10 OVMax= 1.94D-06

 Cycle   8  Pass 1  IDiag  1:
 E= -7.89361745792626     Delta-E=       -0.000000000006 Rises=F Damp=F
 DIIS: error= 8.56D-08 at cycle   8 NSaved=   5.
 NSaved= 5 IEnMin= 5 EnMin= -7.89361745792626     IErMin= 5 ErrMin= 8.56D-08
 ErrMax= 8.56D-08  0.00D+00 EMaxC= 1.00D-01 BMatC= 8.03D-14 BMatP= 1.13D-12
 IDIUse=1 WtCom= 1.00D+00 WtEn= 0.00D+00
 Coeff-Com: -0.113D+00 0.124D+00-0.896D-01-0.252D-01 0.110D+01
 Coeff:     -0.113D+00 0.124D+00-0.896D-01-0.252D-01 0.110D+01
 Gap=     0.231 Goal=   None    Shift=    0.000
 RMSDP=2.17D-07 MaxDP=8.01D-07 DE=-5.86D-12 OVMax= 7.93D-07

 Cycle   9  Pass 1  IDiag  1:
 E= -7.89361745792680     Delta-E=       -0.000000000001 Rises=F Damp=F
 DIIS: error= 1.04D-08 at cycle   9 NSaved=   6.
 NSaved= 6 IEnMin= 6 EnMin= -7.89361745792680     IErMin= 6 ErrMin= 1.04D-08
 ErrMax= 1.04D-08  0.00D+00 EMaxC= 1.00D-01 BMatC= 6.84D-16 BMatP= 8.03D-14
 IDIUse=1 WtCom= 1.00D+00 WtEn= 0.00D+00
 Coeff-Com: -0.324D-03 0.427D-03-0.143D-03 0.309D-01-0.134D+00 0.110D+01
 Coeff:     -0.324D-03 0.427D-03-0.143D-03 0.309D-01-0.134D+00 0.110D+01
 Gap=     0.231 Goal=   None    Shift=    0.000
 RMSDP=1.07D-08 MaxDP=6.47D-08 DE=-5.35D-13 OVMax= 1.08D-07

 Cycle  10  Pass 1  IDiag  1:
 E= -7.89361745792681     Delta-E=       -0.000000000000 Rises=F Damp=F
 DIIS: error= 3.19D-10 at cycle  10 NSaved=   7.
 NSaved= 7 IEnMin= 7 EnMin= -7.89361745792681     IErMin= 7 ErrMin= 3.19D-10
 ErrMax= 3.19D-10  0.00D+00 EMaxC= 1.00D-01 BMatC= 7.54D-19 BMatP= 6.84D-16
 IDIUse=1 WtCom= 1.00D+00 WtEn= 0.00D+00
 Coeff-Com:  0.212D-02-0.234D-02 0.166D-02-0.634D-02 0.980D-02-0.241D+00
 Coeff-Com:  0.124D+01
 Coeff:      0.212D-02-0.234D-02 0.166D-02-0.634D-02 0.980D-02-0.241D+00
 Coeff:      0.124D+01
 Gap=     0.231 Goal=   None    Shift=    0.000
 RMSDP=9.84D-10 MaxDP=6.42D-09 DE=-7.11D-15 OVMax= 4.73D-09

 SCF Done:  E(RHF) =  -7.89361745793     A.U. after   10 cycles
            NFock= 10  Conv=0.98D-09     -V/T= 2.0015
 KE= 7.881774325075D+00 PE=-1.932526024563D+01 EE= 2.961893783829D+00
 Leave Link  502 at Mon Mar 28 14:01:06 2022, MaxMem=  9663676416 cpu:               3.5 elap:               0.1
 (Enter /nopt/nrel/apps/gaussian/g16C_1/g16/l801.exe)
 Windowed orbitals will be sorted by symmetry type.
 ExpMin= 3.60D-02 ExpMax= 6.42D+02 ExpMxC= 9.68D+01 IAcc=3 IRadAn=         5 AccDes= 0.00D+00
 HarFok:  IExCor=  205 AccDes= 0.00D+00 IRadAn=         5 IDoV=-2 UseB2=F ITyADJ=14
 ICtDFT= 12500011 ScaDFX=  1.000000  1.000000  1.000000  1.000000
 Largest valence mixing into a core orbital is  3.78D-04
 Largest core mixing into a valence orbital is  7.34D-05
 Range of M.O.s used for correlation:     2    10
 NBasis=    10 NAE=     2 NBE=     2 NFC=     1 NFV=     0
 NROrb=      9 NOA=     1 NOB=     1 NVA=     8 NVB=     8
 Leave Link  801 at Mon Mar 28 14:01:07 2022, MaxMem=  9663676416 cpu:               2.3 elap:               0.1
 (Enter /nopt/nrel/apps/gaussian/g16C_1/g16/l804.exe)
 Closed-shell transformation, MDV=  9663676416 ITran=4 ISComp=2.
 Unit  1 TFree=          4815 TCopy=        115391.
 Semi-Direct transformation.
 ModeAB=           2 MOrb=             1 LenV=    9663555021
 LASXX=           88 LTotXX=          88 LenRXX=          88
 LTotAB=         141 MaxLAS=         495 LenRXY=         495
 NonZer=         603 LenScr=      785920 LnRSAI=           0
 LnScr1=           0 LExtra=      218815 Total=      1005318
 MaxDsk= 34359738368 SrtSym=           F ITran=            4
 DoSDTr:  NPSUse= 36
 JobTyp=0 Pass  1:  I=   1 to   1.
 (rs|ai) integrals will be sorted in core.
 Complete sort for first half transformation.
 First half transformation complete.
 Complete sort for second half transformation.
 Second half transformation complete.
 Spin components of T(2) and E(2):
     alpha-alpha T2 =       0.0000000000D+00 E2=      0.0000000000D+00
     alpha-beta  T2 =       0.2805967637D-01 E2=     -0.2431032048D-01
     beta-beta   T2 =       0.0000000000D+00 E2=      0.0000000000D+00
 ANorm=    0.1013932777D+01
 E2 =    -0.2431032048D-01 EUMP2 =    -0.79179277784089D+01
 Leave Link  804 at Mon Mar 28 14:01:07 2022, MaxMem=  9663676416 cpu:               2.1 elap:               0.1
 (Enter /nopt/nrel/apps/gaussian/g16C_1/g16/l913.exe)
 CIDS:  MDV=  9663676416.
 Frozen-core window:  NFC=   1 NFV=   0.
 IFCWin=0 IBDFC=1 NFBD=     0     0 NFCmp=     0     0 NFFFC=     0     0
 Using DD3R+UMP44R for 1st iteration.
 Using DD4RQ for 2nd and later iterations.
 Keep R2 and R3 ints in memory in symmetry-blocked form, NReq=7212831.
 FoFCou: FMM=F IPFlag=           0 FMFlag=           0 FMFlg1=           0
         NFxFlg=           0 DoJE=F BraDBF=F KetDBF=F FulRan=T
         wScrn=  0.000000 ICntrl=       600 IOpCl=  0 I1Cent=           0 NGrid=           0
         NMat0=    1 NMatS0=     55 NMatT0=    0 NMatD0=    1 NMtDS0=    0 NMtDT0=    0
 Petite list used in FoFCou.
 CIDS: In Core Option IDoMem=           1.
 Coupled Cluster theory with single and double substitutions
 ===========================================================
 Iterations= 200 Convergence= 0.100D-06
 Produce multiple copies of IABC intergrals
 Iteration Nr.   1
 **********************
 DD1Dir will call FoFMem   1 times, MxPair=         2
 NAB=     1 NAA=     0 NBB=     0.
 MP4(R+Q)=  0.68213973D-03
 Maximum subspace dimension=  5
 A-vector RMS=  2.6185280D-02 Max=  4.0706364D-02 conv= 1.00D-05.
 RLE energy=       -0.0423207149
 E3=       -0.11031905D-01        EUMP3=      -0.79289596832D+01
 E4(DQ)=   -0.48806483D-02        UMP4(DQ)=   -0.79338403314D+01
 E4(SDQ)=  -0.51933452D-02        UMP4(SDQ)=  -0.79341530284D+01
 VARIATIONAL ENERGIES WITH THE FIRST-ORDER WAVEFUNCTION:
 DE(Corr)= -0.34656046E-01 E(Corr)=     -7.9282735042    
 NORM(A)=   0.10439350D+01
 Iteration Nr.   2
 **********************
 DD1Dir will call FoFMem   1 times, MxPair=         2
 NAB=     1 NAA=     0 NBB=     0.
 A-vector RMS=  1.4783725D-02 Max=  1.9685693D-02 conv= 1.00D-05.
 RLE energy=       -0.0438394517
 DE(Corr)= -0.42985602E-01 E(CORR)=     -7.9366030596     Delta=-8.33D-03
 NORM(A)=   0.10512317D+01
 Iteration Nr.   3
 **********************
 DD1Dir will call FoFMem   1 times, MxPair=         2
 NAB=     1 NAA=     0 NBB=     0.
 A-vector RMS=  1.3193697D-02 Max=  1.5987132D-02 conv= 1.00D-05.
 RLE energy=       -0.0450530552
 DE(Corr)= -0.43992887E-01 E(CORR)=     -7.9376103449     Delta=-1.01D-03
 NORM(A)=   0.10646526D+01
 Iteration Nr.   4
 **********************
 DD1Dir will call FoFMem   1 times, MxPair=         2
 NAB=     1 NAA=     0 NBB=     0.
 A-vector RMS=  5.1621996D-03 Max=  1.0032258D-02 conv= 1.00D-05.
 RLE energy=       -0.0463446175
 DE(Corr)= -0.45294266E-01 E(CORR)=     -7.9389117239     Delta=-1.30D-03
 NORM(A)=   0.10782516D+01
 Iteration Nr.   5
 **********************
 DD1Dir will call FoFMem   1 times, MxPair=         2
 NAB=     1 NAA=     0 NBB=     0.
 A-vector RMS=  1.5561894D-03 Max=  1.6025672D-03 conv= 1.00D-05.
 RLE energy=       -0.0457707424
 DE(Corr)= -0.46130899E-01 E(CORR)=     -7.9397483570     Delta=-8.37D-04
 NORM(A)=   0.10763471D+01
 Iteration Nr.   6
 **********************
 DD1Dir will call FoFMem   1 times, MxPair=         2
 NAB=     1 NAA=     0 NBB=     0.
 A-vector RMS=  9.9057303D-04 Max=  9.4352754D-04 conv= 1.00D-05.
 RLE energy=       -0.0460488196
 DE(Corr)= -0.45847945E-01 E(CORR)=     -7.9394654032     Delta= 2.83D-04
 NORM(A)=   0.10787425D+01
 Iteration Nr.   7
 **********************
 DD1Dir will call FoFMem   1 times, MxPair=         2
 NAB=     1 NAA=     0 NBB=     0.
 A-vector RMS=  4.1939647D-04 Max=  4.9774989D-04 conv= 1.00D-05.
 RLE energy=       -0.0459696893
 DE(Corr)= -0.46023569E-01 E(CORR)=     -7.9396410264     Delta=-1.76D-04
 NORM(A)=   0.10781474D+01
 Iteration Nr.   8
 **********************
 DD1Dir will call FoFMem   1 times, MxPair=         2
 NAB=     1 NAA=     0 NBB=     0.
 A-vector RMS=  5.7625702D-05 Max=  1.2853619D-04 conv= 1.00D-05.
 RLE energy=       -0.0459677124
 DE(Corr)= -0.45968355E-01 E(CORR)=     -7.9395858132     Delta= 5.52D-05
 NORM(A)=   0.10781285D+01
 Iteration Nr.   9
 **********************
 DD1Dir will call FoFMem   1 times, MxPair=         2
 NAB=     1 NAA=     0 NBB=     0.
 A-vector RMS=  1.5389166D-05 Max=  1.7720236D-05 conv= 1.00D-05.
 RLE energy=       -0.0459710157
 DE(Corr)= -0.45969019E-01 E(CORR)=     -7.9395864765     Delta=-6.63D-07
 NORM(A)=   0.10781568D+01
 Iteration Nr.  10
 **********************
 DD1Dir will call FoFMem   1 times, MxPair=         2
 NAB=     1 NAA=     0 NBB=     0.
 A-vector RMS=  2.3919706D-06 Max=  2.1595552D-06 conv= 1.00D-05.
 RLE energy=       -0.0459714256
 DE(Corr)= -0.45971151E-01 E(CORR)=     -7.9395886085     Delta=-2.13D-06
 NORM(A)=   0.10781610D+01
 Iteration Nr.  11
 **********************
 DD1Dir will call FoFMem   1 times, MxPair=         2
 NAB=     1 NAA=     0 NBB=     0.
 A-vector RMS=  6.5872852D-07 Max=  6.2189378D-07 conv= 1.00D-05.
 RLE energy=       -0.0459714399
 DE(Corr)= -0.45971434E-01 E(CORR)=     -7.9395888921     Delta=-2.84D-07
 NORM(A)=   0.10781609D+01
 Iteration Nr.  12
 **********************
 DD1Dir will call FoFMem   1 times, MxPair=         2
 NAB=     1 NAA=     0 NBB=     0.
 A-vector RMS=  2.5471083D-07 Max=  3.0603045D-07 conv= 1.00D-05.
 RLE energy=       -0.0459714312
 DE(Corr)= -0.45971440E-01 E(CORR)=     -7.9395888977     Delta=-5.57D-09
 NORM(A)=   0.10781608D+01
 CI/CC converged in   12 iterations to DelEn=-5.57D-09 Conv= 1.00D-07 ErrA1= 2.55D-07 Conv= 1.00D-05
 Wavefunction amplitudes converged. E(Corr)=     -7.9395888977    
 Dominant configurations:
 ***********************
 Spin Case        I    J    A    B          Value
    AA            2         3            0.131056D+00
   ABAB           2    2    3    3      -0.120446D+00
   ABAB           2    2    3   10      -0.130789D+00
   ABAB           2    2   10    3      -0.130789D+00
   ABAB           2    2   10   10      -0.151188D+00
 Largest amplitude= 1.51D-01
 Discarding MO integrals.
 Leave Link  913 at Mon Mar 28 14:01:07 2022, MaxMem=  9663676416 cpu:               4.1 elap:               0.1
 (Enter /nopt/nrel/apps/gaussian/g16C_1/g16/l601.exe)
 Copying SCF densities to generalized density rwf, IOpCl= 0 IROHF=0.

 **********************************************************************

            Population analysis using the SCF Density.

 **********************************************************************

 Orbital symmetries:
       Occupied  (SG) (SG)
       Virtual   (SG) (PI) (PI) (SG) (PI) (PI) (SG) (SG)
 The electronic state is 1-SG.
 Alpha  occ. eigenvalues --   -2.51909  -0.24076
 Alpha virt. eigenvalues --   -0.00936   0.04686   0.04686   0.16993   0.20090
 Alpha virt. eigenvalues --    0.20090   0.22130   0.25561
          Condensed to atoms (all electrons):
               1          2
     1  H    0.620743   0.272716
     2  Li   0.272716   2.833825
 Mulliken charges:
               1
     1  H    0.106541
     2  Li  -0.106541
 Sum of Mulliken charges =  -0.00000
 Mulliken charges with hydrogens summed into heavy atoms:
               1
     2  Li  -0.000000
 N-N= 5.879746788000D-01 E-N=-1.932526024603D+01  KE= 7.881774325075D+00
 Symmetry A1   KE= 7.881774325075D+00
 Symmetry A2   KE= 0.000000000000D+00
 Symmetry B1   KE= 0.000000000000D+00
 Symmetry B2   KE= 0.000000000000D+00

 Atomic contributions to Alpha molecular orbitals:
 Alpha occ 1 OE=-2.519 is Li2-s=1.0000
 Alpha occ 2 OE=-0.241 is H1-s=0.4467 Li2-s=0.3197 Li2-p=0.2336
 Alpha vir 3 OE=-0.009 is Li2-s=0.5608 Li2-p=0.4104
 Alpha vir 4 OE=0.047 is Li2-p=1.0000
 Alpha vir 5 OE=0.047 is Li2-p=1.0000
 Alpha vir 6 OE=0.170 is Li2-p=0.5047 Li2-s=0.4405
 Alpha vir 7 OE=0.201 is Li2-p=1.0000
 Alpha vir 8 OE=0.201 is Li2-p=1.0000
 Alpha vir 9 OE=0.221 is Li2-p=0.5661 Li2-s=0.3904
 Alpha vir 10 OE=0.256 is H1-s=0.4260 Li2-s=0.2887 Li2-p=0.2853
 
 Leave Link  601 at Mon Mar 28 14:01:07 2022, MaxMem=  9663676416 cpu:               2.0 elap:               0.1
 (Enter /nopt/nrel/apps/gaussian/g16C_1/g16/l9999.exe)

 Test job not archived.
 1\1\GINC-R102U34\SP\RCCSD-FC\Gen\H1Li1\USER\28-Mar-2022\0\\#P CCSD
 (MaxCyc=200,SaveAmplitudes,ReadAmplitudes)/GEN sp pop=AllOrbitals iop(
 3/33=1,3/36=-1)\\test\\0,1\H,0,0.,0.,0.\Li,0,0.,0.,2.7\\Version=ES64L-
 G16RevC.01\State=1-SG\HF=-7.8936175\MP2=-7.9179278\MP3=-7.9289597\MP4D
 =-7.9345225\MP4DQ=-7.9338403\MP4SDQ=-7.934153\CCSD=-7.9395889\RMSD=9.8
 39e-10\PG=C*V [C*(H1Li1)]\\@


 REVOLUTIONS HAVE NEVER LIGHTENED THE BURDEN OF TYRANNY:
 THEY HAVE MERELY SHIFTED IT TO OTHER SHOULDERS.
                                   -- G. B. SHAW (1903)
 Job cpu time:       0 days  0 hours  0 minutes 32.8 seconds.
 Elapsed time:       0 days  0 hours  0 minutes  1.2 seconds.
 File lengths (MBytes):  RWF=     13 Int=      0 D2E=      0 Chk=      1 Scr=      1
 Normal termination of Gaussian 16 at Mon Mar 28 14:01:07 2022.
