 Entering Gaussian System, Link 0=g16
 Initial command:
 /nopt/nrel/apps/gaussian/g16C_1/g16/l1.exe "/lustre/eaglefs/scratch/user/qc/nah-dissc/nah-1-ccsd-1.4-ccd/Gau-27816.inp" -scrdir="/lustre/eaglefs/scratch/user/qc/nah-dissc/nah-1-ccsd-1.4-ccd/"
 Default is to use a total of  36 processors:
                               36 via shared-memory
                                1 via Linda
 Entering Link 1 = /nopt/nrel/apps/gaussian/g16C_1/g16/l1.exe PID=     27817.
  
 Copyright (c) 1988-2019, Gaussian, Inc.  All Rights Reserved.
  
 This is part of the Gaussian(R) 16 program.  It is based on
 the Gaussian(R) 09 system (copyright 2009, Gaussian, Inc.),
 the Gaussian(R) 03 system (copyright 2003, Gaussian, Inc.),
 the Gaussian(R) 98 system (copyright 1998, Gaussian, Inc.),
 the Gaussian(R) 94 system (copyright 1995, Gaussian, Inc.),
 the Gaussian 92(TM) system (copyright 1992, Gaussian, Inc.),
 the Gaussian 90(TM) system (copyright 1990, Gaussian, Inc.),
 the Gaussian 88(TM) system (copyright 1988, Gaussian, Inc.),
 the Gaussian 86(TM) system (copyright 1986, Carnegie Mellon
 University), and the Gaussian 82(TM) system (copyright 1983,
 Carnegie Mellon University). Gaussian is a federally registered
 trademark of Gaussian, Inc.
  
 This software contains proprietary and confidential information,
 including trade secrets, belonging to Gaussian, Inc.
  
 This software is provided under written license and may be
 used, copied, transmitted, or stored only in accord with that
 written license.
  
 The following legend is applicable only to US Government
 contracts under FAR:
  
                    RESTRICTED RIGHTS LEGEND
  
 Use, reproduction and disclosure by the US Government is
 subject to restrictions as set forth in subparagraphs (a)
 and (c) of the Commercial Computer Software - Restricted
 Rights clause in FAR 52.227-19.
  
 Gaussian, Inc.
 340 Quinnipiac St., Bldg. 40, Wallingford CT 06492
  
  
 ---------------------------------------------------------------
 Warning -- This program may not be used in any manner that
 competes with the business of Gaussian, Inc. or will provide
 assistance to any competitor of Gaussian, Inc.  The licensee
 of this program is prohibited from giving any competitor of
 Gaussian, Inc. access to this program.  By using this program,
 the user acknowledges that Gaussian, Inc. is engaged in the
 business of creating and licensing software in the field of
 computational chemistry and represents and warrants to the
 licensee that it is not a competitor of Gaussian, Inc. and that
 it will not use this program in any manner prohibited above.
 ---------------------------------------------------------------
  

 Cite this work as:
 Gaussian 16, Revision C.01,
 M. J. Frisch, G. W. Trucks, H. B. Schlegel, G. E. Scuseria, 
 M. A. Robb, J. R. Cheeseman, G. Scalmani, V. Barone, 
 G. A. Petersson, H. Nakatsuji, X. Li, M. Caricato, A. V. Marenich, 
 J. Bloino, B. G. Janesko, R. Gomperts, B. Mennucci, H. P. Hratchian, 
 J. V. Ortiz, A. F. Izmaylov, J. L. Sonnenberg, D. Williams-Young, 
 F. Ding, F. Lipparini, F. Egidi, J. Goings, B. Peng, A. Petrone, 
 T. Henderson, D. Ranasinghe, V. G. Zakrzewski, J. Gao, N. Rega, 
 G. Zheng, W. Liang, M. Hada, M. Ehara, K. Toyota, R. Fukuda, 
 J. Hasegawa, M. Ishida, T. Nakajima, Y. Honda, O. Kitao, H. Nakai, 
 T. Vreven, K. Throssell, J. A. Montgomery, Jr., J. E. Peralta, 
 F. Ogliaro, M. J. Bearpark, J. J. Heyd, E. N. Brothers, K. N. Kudin, 
 V. N. Staroverov, T. A. Keith, R. Kobayashi, J. Normand, 
 K. Raghavachari, A. P. Rendell, J. C. Burant, S. S. Iyengar, 
 J. Tomasi, M. Cossi, J. M. Millam, M. Klene, C. Adamo, R. Cammi, 
 J. W. Ochterski, R. L. Martin, K. Morokuma, O. Farkas, 
 J. B. Foresman, and D. J. Fox, Gaussian, Inc., Wallingford CT, 2019.
 
 ******************************************
 Gaussian 16:  ES64L-G16RevC.01  3-Jul-2019
                28-Mar-2022 
 ******************************************
 %chk=molecule
 Default route: CacheSize=180224 MaxDisk=256GB
 ----------------------------------------------------------------------
 #P CCSD(MaxCyc=200,SaveAmplitudes,ReadAmplitudes)/GEN sp pop=AllOrbita
 ls iop(3/33=1,3/36=-1)
 ----------------------------------------------------------------------
 1/4=180224,38=1,172=1/1;
 2/4=180224,12=2,17=6,18=5,40=1/2;
 3/4=180224,5=7,11=9,25=1,30=1,33=1,36=-1/1,2,3;
 4/4=180224/1;
 5/4=180224,5=2,38=5/2;
 8/4=180224,6=4,9=120000,10=1,24=1/1,4;
 9/4=180224,5=7,6=200,77=1/13;
 6/4=180224,7=2,8=2,9=2,10=2,96=-1/1;
 99/4=180224,5=1,9=1/99;
 Leave Link    1 at Mon Mar 28 14:20:53 2022, MaxMem=           0 cpu:               2.6 elap:               0.1
 (Enter /nopt/nrel/apps/gaussian/g16C_1/g16/l101.exe)
 ----
 test
 ----
 Symbolic Z-matrix:
 Charge =  0 Multiplicity = 1
 H                     0.        0.        0. 
 Na                    0.        0.        1.4 
 
 ITRead=  0  0
 MicOpt= -1 -1
 NAtoms=      2 NQM=        2 NQMF=       0 NMMI=      0 NMMIF=      0
                NMic=       0 NMicF=      0.
                    Isotopes and Nuclear Properties:
 (Nuclear quadrupole moments (NQMom) in fm**2, nuclear magnetic moments (NMagM)
  in nuclear magnetons)

  Atom         1           2
 IAtWgt=           1          23
 AtmWgt=   1.0078250  22.9897697
 NucSpn=           1           3
 AtZEff=  -0.0000000  -0.0000000
 NQMom=    0.0000000  10.4000000
 NMagM=    2.7928460   2.2175200
 AtZNuc=   1.0000000  11.0000000
 Leave Link  101 at Mon Mar 28 14:20:54 2022, MaxMem=  9663676416 cpu:               3.2 elap:               0.1
 (Enter /nopt/nrel/apps/gaussian/g16C_1/g16/l202.exe)
                          Input orientation:                          
 ---------------------------------------------------------------------
 Center     Atomic      Atomic             Coordinates (Angstroms)
 Number     Number       Type             X           Y           Z
 ---------------------------------------------------------------------
      1          1           0        0.000000    0.000000    0.000000
      2         11           0        0.000000    0.000000    1.400000
 ---------------------------------------------------------------------
 Stoichiometry    HNa
 Framework group  C*V[C*(HNa)]
 Deg. of freedom     1
 Full point group                 C*V     NOp   4
 Largest Abelian subgroup         C2V     NOp   4
 Largest concise Abelian subgroup C1      NOp   1
                         Standard orientation:                         
 ---------------------------------------------------------------------
 Center     Atomic      Atomic             Coordinates (Angstroms)
 Number     Number       Type             X           Y           Z
 ---------------------------------------------------------------------
      1          1           0        0.000000    0.000000   -1.283333
      2         11           0        0.000000    0.000000    0.116667
 ---------------------------------------------------------------------
 Rotational constants (GHZ):           0.0000000         267.0601442         267.0601442
 Leave Link  202 at Mon Mar 28 14:20:54 2022, MaxMem=  9663676416 cpu:               0.9 elap:               0.1
 (Enter /nopt/nrel/apps/gaussian/g16C_1/g16/l301.exe)
 General basis read from cards:  (5D, 7F)
                         Coordinates in L301:                         
 ---------------------------------------------------------------------
 Center     Atomic      Atomic             Coordinates (Angstroms)
 Number     Number       Type             X           Y           Z
 ---------------------------------------------------------------------
      1          1           0        0.000000    0.000000   -1.283333
      2         11           0        0.000000    0.000000    0.116667
 ---------------------------------------------------------------------
 Centers:       1
 STO-3G
 ****
 Centers:       2
 cc-pVDZ
 ****
 FixB: optimizing general contractions.
 Ernie: Thresh=  0.10000D-02 Tol=  0.10000D-05 Strict=F.
 IA=     1 ShT= 0 ShC= 0 NL=   1 NS=   0.
 IA=     1 L=0 SC=0 ISt=    0 NBk=    0 NP=    0 IndPr=    0.
 IA=     2 ShT= 0 ShC= 0 NL=   4 NS=   1.
 IA=     2 L=0 SC=0 ISt=    1 NBk=    3 NP=   11 IndPr=    0.
 DoElim1:  L=0 select primitive    2 from    2 using    1 C= 3.55D-03
 DoElim1:  L=0 select primitive    2 from    3 using    1 C= 3.55D-03
 DoElim1:  L=0 select primitive    5 from    3 using    2 C=-6.14D-03
 DoElim2:  L=0 select primitive   11 from    2 using    3 C= 6.58D-01
 DoElim2:  L=0 select primitive   11 from    1 using    3 C= 6.58D-01
 DoElim2:  L=0 select primitive    9 from    1 using    2 C= 6.03D-01
 Delete L=0 primitive    5 from    3 C=  6.52D-20.
 Delete L=0 primitive    2 from    3 C=  2.06D-20.
 Delete L=0 primitive    1 from    3 C=  1.41D-07.
 Delete L=0 primitive   11 from    2 C=  1.18D-19.
 Delete L=0 primitive    2 from    2 C=  4.53D-20.
 Delete L=0 primitive    1 from    2 C=  7.82D-08.
 Delete L=0 primitive   11 from    1 C=  5.55D-21.
 Delete L=0 primitive    9 from    1 C=  4.94D-19.
 IA=     2 L=0 SC=0 ISt=    0 NBk=    0 NP=    0 IndPr=   25.
 IA=     2 ShT= 1 ShC= 1 NL=   3 NS=   1.
 IA=     2 L=1 SC=1 ISt=    1 NBk=    2 NP=    7 IndPr=    0.
 DoElim1:  L=1 select primitive    1 from    2 using    1 C= 5.80D-03
 DoElim2:  L=1 select primitive    7 from    1 using    2 C= 4.35D-01
 Delete L=1 primitive    1 from    2 C=  1.56D-20.
 Delete L=1 primitive    7 from    1 C=  1.56D-19.
 IA=     2 L=1 SC=1 ISt=    0 NBk=    0 NP=    0 IndPr=   12.
 IA=     2 ShT= 2 ShC= 2 NL=   1 NS=   1.
 IA=     2 L=2 SC=2 ISt=    0 NBk=    0 NP=    0 IndPr=    0.
 Ernie:  10 primitive shells out of 53 were deleted.
 LdAtmC:  AtmChg=     1.000000    11.000000
 AtZEff=     -1.0000000    -10.0400000
 NEqShl: 
              1            2            3            4
     1            1            1            1            1
     2            2            2            2            2
     3            3            3            3            3
     4            4            4            4            4
     5            5            5            5            5
     6            6            6            6            6
     7            7            7            7            7
     8            8            8            8            8
     9            9            9            9            9
 NEqBas: 
              1            2            3            4
     1            1            1            1            1
     2            2            2            2            2
     3            3            3            3            3
     4            4            4            4            4
     5            5            5            5            5
     6            6           -6           -6            6
     7            7           -7            7           -7
     8            8            8            8            8
     9            9           -9           -9            9
    10           10          -10           10          -10
    11           11           11           11           11
    12           12          -12          -12           12
    13           13          -13           13          -13
    14           14           14           14           14
    15           15           15           15           15
    16           16           16           16           16
    17           17           17           17           17
    18           18           18          -18          -18
    19           19          -19          -19           19
    20           20          -20           20          -20
 There are    11 symmetry adapted cartesian basis functions of A1  symmetry.
   1         1   1   1   1
   2         2   2   2   2
   3         3   3   3   3
   4         4   4   4   4
   5         5   5   5   5
   6         8   8   8   8
   7        11  11  11  11
   8        14  14  14  14
   9        15  15  15  15
  10        16  16  16  16
  11        17  17  17  17
 There are     1 symmetry adapted cartesian basis functions of A2  symmetry.
  12        18  18  18  18
 There are     4 symmetry adapted cartesian basis functions of B1  symmetry.
  13         6   6   6   6
  14         9   9   9   9
  15        12  12  12  12
  16        19  19  19  19
 There are     4 symmetry adapted cartesian basis functions of B2  symmetry.
  17         7   7   7   7
  18        10  10  10  10
  19        13  13  13  13
  20        20  20  20  20
 Order= 1 2 4 3
 Reordered character table:
              1            2            3            4            5
     1            1            1            1            1            1
     2            2            1            1           -1           -1
     3            4            1           -1           -1            1
     4            3            1           -1            1           -1
 NEqShl: 
              1            2            3            4
     1            1            1            1            1
     2            2            2            2            2
     3            3            3            3            3
     4            4            4            4            4
     5            5            5            5            5
     6            6            6            6            6
     7            7            7            7            7
     8            8            8            8            8
     9            9            9            9            9
 NEqBas: 
              1            2            3            4
     1            1            1            1            1
     2            2            2            2            2
     3            3            3            3            3
     4            4            4            4            4
     5            5            5            5            5
     6            6           -6           -6            6
     7            7           -7            7           -7
     8            8            8            8            8
     9            9           -9           -9            9
    10           10          -10           10          -10
    11           11           11           11           11
    12           12          -12          -12           12
    13           13          -13           13          -13
    14           14           14           14           14
    15           15           15           15           15
    16           16          -16          -16           16
    17           17          -17           17          -17
    18           18           18           18           18
    19           19           19          -19          -19
 There are    10 symmetry adapted basis functions of A1  symmetry.
   1         1   1   1   1
   2         2   2   2   2
   3         3   3   3   3
   4         4   4   4   4
   5         5   5   5   5
   6         8   8   8   8
   7        11  11  11  11
   8        14  14  14  14
   9        15  15  15  15
  10        18  18  18  18
 There are     1 symmetry adapted basis functions of A2  symmetry.
  11        19  19  19  19
 There are     4 symmetry adapted basis functions of B1  symmetry.
  12         6   6   6   6
  13         9   9   9   9
  14        12  12  12  12
  15        16  16  16  16
 There are     4 symmetry adapted basis functions of B2  symmetry.
  16         7   7   7   7
  17        10  10  10  10
  18        13  13  13  13
  19        17  17  17  17
 Order= 1 2 4 3
 Reordered character table:
              1            2            3            4            5
     1            1            1            1            1            1
     2            2            1            1           -1           -1
     3            4            1           -1           -1            1
     4            3            1           -1            1           -1
    19 basis functions,    74 primitive gaussians,    20 cartesian basis functions
     6 alpha electrons        6 beta electrons
       nuclear repulsion energy         4.1578209429 Hartrees.
 IS=     1 IAt=     1 ISR=     1 T=0 IP=      1 IndIP=      1 IndIPD=      0 C=  2.769344D-01  0.000000D+00                             NZ=T
 IS=     1 IAt=     1 ISR=     1 T=0 IP=      2 IndIP=      2 IndIPD=      1 C=  2.678389D-01  0.000000D+00                             NZ=T
 IS=     1 IAt=     1 ISR=     1 T=0 IP=      3 IndIP=      3 IndIPD=      2 C=  8.347367D-02  0.000000D+00                             NZ=T
 IS=     2 IAt=     2 ISR=     1 T=0 IP=      1 IndIP=      4 IndIPD=      0 C=  7.749657D-01  0.000000D+00                             NZ=T
 IS=     2 IAt=     2 ISR=     1 T=0 IP=      2 IndIP=      5 IndIPD=      1 C=  1.445329D+00  0.000000D+00                             NZ=T
 IS=     2 IAt=     2 ISR=     1 T=0 IP=      3 IndIP=      6 IndIPD=      2 C=  2.449022D+00  0.000000D+00                             NZ=T
 IS=     2 IAt=     2 ISR=     1 T=0 IP=      4 IndIP=      7 IndIPD=      3 C=  3.730568D+00  0.000000D+00                             NZ=T
 IS=     2 IAt=     2 ISR=     1 T=0 IP=      5 IndIP=      8 IndIPD=      4 C=  4.755208D+00  0.000000D+00                             NZ=T
 IS=     2 IAt=     2 ISR=     1 T=0 IP=      6 IndIP=      9 IndIPD=      5 C=  4.291841D+00  0.000000D+00                             NZ=T
 IS=     2 IAt=     2 ISR=     1 T=0 IP=      7 IndIP=     10 IndIPD=      6 C=  1.841498D+00  0.000000D+00                             NZ=T
 IS=     2 IAt=     2 ISR=     1 T=0 IP=      8 IndIP=     11 IndIPD=      7 C=  1.370586D-01  0.000000D+00                             NZ=T
 IS=     2 IAt=     2 ISR=     1 T=0 IP=      9 IndIP=     12 IndIPD=      8 C=  3.324917D-03  0.000000D+00                             NZ=T
 IS=     3 IAt=     2 ISR=     2 T=0 IP=      1 IndIP=     13 IndIPD=      0 C= -6.085686D-03  0.000000D+00                             NZ=T
 IS=     3 IAt=     2 ISR=     2 T=0 IP=      2 IndIP=     14 IndIPD=      1 C= -3.114138D-02  0.000000D+00                             NZ=T
 IS=     3 IAt=     2 ISR=     2 T=0 IP=      3 IndIP=     15 IndIPD=      2 C= -1.340760D-01  0.000000D+00                             NZ=T
 IS=     3 IAt=     2 ISR=     2 T=0 IP=      4 IndIP=     16 IndIPD=      3 C= -3.604805D-01  0.000000D+00                             NZ=T
 IS=     3 IAt=     2 ISR=     2 T=0 IP=      5 IndIP=     17 IndIPD=      4 C= -4.954545D-01  0.000000D+00                             NZ=T
 IS=     3 IAt=     2 ISR=     2 T=0 IP=      6 IndIP=     18 IndIPD=      5 C=  2.126614D-01  0.000000D+00                             NZ=T
 IS=     3 IAt=     2 ISR=     2 T=0 IP=      7 IndIP=     19 IndIPD=      6 C=  6.152727D-01  0.000000D+00                             NZ=T
 IS=     3 IAt=     2 ISR=     2 T=0 IP=      8 IndIP=     20 IndIPD=      7 C=  2.071440D-01  0.000000D+00                             NZ=T
 IS=     4 IAt=     2 ISR=     3 T=0 IP=      1 IndIP=     21 IndIPD=      0 C=  1.521098D-03  0.000000D+00                             NZ=T
 IS=     4 IAt=     2 ISR=     3 T=0 IP=      2 IndIP=     22 IndIPD=      1 C= -2.379509D-03  0.000000D+00                             NZ=T
 IS=     4 IAt=     2 ISR=     3 T=0 IP=      3 IndIP=     23 IndIPD=      2 C= -1.988937D-02  0.000000D+00                             NZ=T
 IS=     4 IAt=     2 ISR=     3 T=0 IP=      4 IndIP=     24 IndIPD=      3 C= -6.775799D-03  0.000000D+00                             NZ=T
 IS=     4 IAt=     2 ISR=     3 T=0 IP=      5 IndIP=     25 IndIPD=      4 C= -9.360493D-03  0.000000D+00                             NZ=T
 IS=     4 IAt=     2 ISR=     3 T=0 IP=      6 IndIP=     26 IndIPD=      5 C=  1.615288D-02  0.000000D+00                             NZ=T
 IS=     4 IAt=     2 ISR=     3 T=0 IP=      7 IndIP=     27 IndIPD=      6 C= -9.059148D-02  0.000000D+00                             NZ=T
 IS=     4 IAt=     2 ISR=     3 T=0 IP=      8 IndIP=     28 IndIPD=      7 C=  8.779692D-02  0.000000D+00                             NZ=T
 IS=     5 IAt=     2 ISR=     4 T=0 IP=      1 IndIP=     29 IndIPD=      0 C=  4.218867D-02  0.000000D+00                             NZ=T
 IS=     6 IAt=     2 ISR=     5 T=1 IP=      1 IndIP=     30 IndIPD=      0 C=  0.000000D+00  3.916140D+00                             NZ=T
 IS=     6 IAt=     2 ISR=     5 T=1 IP=      2 IndIP=     31 IndIPD=      1 C=  0.000000D+00  4.557958D+00                             NZ=T
 IS=     6 IAt=     2 ISR=     5 T=1 IP=      3 IndIP=     32 IndIPD=      2 C=  0.000000D+00  4.125852D+00                             NZ=T
 IS=     6 IAt=     2 ISR=     5 T=1 IP=      4 IndIP=     33 IndIPD=      3 C=  0.000000D+00  2.441280D+00                             NZ=T
 IS=     6 IAt=     2 ISR=     5 T=1 IP=      5 IndIP=     34 IndIPD=      4 C=  0.000000D+00  8.329269D-01                             NZ=T
 IS=     6 IAt=     2 ISR=     5 T=1 IP=      6 IndIP=     35 IndIPD=      5 C=  0.000000D+00  1.089733D-01                             NZ=T
 IS=     7 IAt=     2 ISR=     6 T=1 IP=      1 IndIP=     36 IndIPD=      0 C=  0.000000D+00  2.457740D-02                             NZ=T
 IS=     7 IAt=     2 ISR=     6 T=1 IP=      2 IndIP=     37 IndIPD=      1 C=  0.000000D+00 -2.625009D-02                             NZ=T
 IS=     7 IAt=     2 ISR=     6 T=1 IP=      3 IndIP=     38 IndIPD=      2 C=  0.000000D+00  1.134429D-02                             NZ=T
 IS=     7 IAt=     2 ISR=     6 T=1 IP=      4 IndIP=     39 IndIPD=      3 C=  0.000000D+00 -2.983152D-02                             NZ=T
 IS=     7 IAt=     2 ISR=     6 T=1 IP=      5 IndIP=     40 IndIPD=      4 C=  0.000000D+00  6.561456D-03                             NZ=T
 IS=     7 IAt=     2 ISR=     6 T=1 IP=      6 IndIP=     41 IndIPD=      5 C=  0.000000D+00  4.674178D-02                             NZ=T
 IS=     8 IAt=     2 ISR=     7 T=1 IP=      1 IndIP=     42 IndIPD=      0 C=  0.000000D+00  1.107711D-02                             NZ=T
 IS=     9 IAt=     2 ISR=     8 T=2 IP=      1 IndIP=     43 IndIPD=      1 C=  0.000000D+00  0.000000D+00  2.790017D-02  0.000000D+00 NZ=T
 IExCor=    0 DFT=F Ex=HF Corr=None ExCW=0 ScaHFX=  1.000000
 ScaDFX=  1.000000  1.000000  1.000000  1.000000 ScalE2=  1.000000  1.000000
 IRadAn=      5 IRanWt=     -1 IRanGd=            0 ICorTp=0 IEmpDi=  4
 NAtoms=    2 NActive=    2 NUniq=    2 SFac= 1.00D+00 NAtFMM=   60 NAOKFM=F Big=F
 Integral buffers will be    131072 words long.
 Raffenetti 1 integral format.
 Two-electron integral symmetry is turned on.
 Leave Link  301 at Mon Mar 28 14:20:54 2022, MaxMem=  9663676416 cpu:               2.2 elap:               0.1
 (Enter /nopt/nrel/apps/gaussian/g16C_1/g16/l302.exe)
 NPDir=0 NMtPBC=     1 NCelOv=     1 NCel=       1 NClECP=     1 NCelD=      1
         NCelK=      1 NCelE2=     1 NClLst=     1 CellRange=     0.0.
 One-electron integrals computed using PRISM.
 One-electron integral symmetry used in STVInt
 Entering OneElI...
 Calculate overlap and kinetic energy integrals
    NBasis =  19  MinDer = 0  MaxDer = 0
 Requested accuracy = 0.1000D-12
 Symmetry will be used
 PrmmSu-InSpLW:  IPartL=    0 NPrtUS=   36 NPrtUL=    1 DoSpLW=F IThBeg=    0 IThEnd=   35 NThAct=   36.
 PrSmSu:  IncTry=   512 NBBP=             45 NTPThr=   100 NPartT=   36 Incr=           1 LDynOK=F GPUOK=F.
 PrsmSu:  NPrtUS=  36 ThrOK=T IAlg=1 LenDen=           0 ISkipM=0 DoSpLW=F IThBeg=    0 IThEnd=   35.
 Prism:   IPart=     0 DynPar=F LinDyn=F Incr=           1.
 PRISM was handed   268425507 working-precision words and    45 shell-pairs
 PRISM was handed   268425507 working-precision words and    45 shell-pairs
 PRISM was handed   268425507 working-precision words and    45 shell-pairs
 PRISM was handed   268425507 working-precision words and    45 shell-pairs
 PRISM was handed   268425507 working-precision words and    45 shell-pairs
 PRISM was handed   268425507 working-precision words and    45 shell-pairs
 PRISM was handed   268425507 working-precision words and    45 shell-pairs
 PRISM was handed   268425507 working-precision words and    45 shell-pairs
 PRISM was handed   268425507 working-precision words and    45 shell-pairs
 IPart=  7 NShTot=           0 NBatch=           0 AvBLen=         0.0
 IPart= 24 NShTot=           0 NBatch=           0 AvBLen=         0.0
 IPart=  6 NShTot=           0 NBatch=           0 AvBLen=         0.0
 IPart= 11 NShTot=           0 NBatch=           0 AvBLen=         0.0
 IPart= 16 NShTot=           0 NBatch=           0 AvBLen=         0.0
 PRISM was handed   268425507 working-precision words and    45 shell-pairs
 IPart= 30 NShTot=           0 NBatch=           0 AvBLen=         0.0
 PRISM was handed   268425507 working-precision words and    45 shell-pairs
 PRISM was handed   268425507 working-precision words and    45 shell-pairs
 IPart= 28 NShTot=           0 NBatch=           0 AvBLen=         0.0
 IPart= 31 NShTot=           0 NBatch=           0 AvBLen=         0.0
 PRISM was handed   268425507 working-precision words and    45 shell-pairs
 PRISM was handed   268425507 working-precision words and    45 shell-pairs
 PRISM was handed   268425507 working-precision words and    45 shell-pairs
 PRISM was handed   268425507 working-precision words and    45 shell-pairs
 IPart= 17 NShTot=           0 NBatch=           0 AvBLen=         0.0
 IPart= 34 NShTot=           0 NBatch=           0 AvBLen=         0.0
 IPart=  8 NShTot=           0 NBatch=           0 AvBLen=         0.0
 PRISM was handed   268425507 working-precision words and    45 shell-pairs
 PRISM was handed   268425507 working-precision words and    45 shell-pairs
 IPart= 21 NShTot=           0 NBatch=           0 AvBLen=         0.0
 IPart= 14 NShTot=           0 NBatch=           0 AvBLen=         0.0
 IPart= 35 NShTot=           0 NBatch=           0 AvBLen=         0.0
 IPart= 26 NShTot=           0 NBatch=           0 AvBLen=         0.0
 PRISM was handed   268425507 working-precision words and    45 shell-pairs
 PRISM was handed   268425507 working-precision words and    45 shell-pairs
 PRISM was handed   268425507 working-precision words and    45 shell-pairs
 IPart=  5 NShTot=           0 NBatch=           0 AvBLen=         0.0
 IPart= 19 NShTot=           0 NBatch=           0 AvBLen=         0.0
 PRISM was handed   268425507 working-precision words and    45 shell-pairs
 PRISM was handed   268425507 working-precision words and    45 shell-pairs
 PRISM was handed   268425507 working-precision words and    45 shell-pairs
 PRISM was handed   268425507 working-precision words and    45 shell-pairs
 PRISM was handed   268425507 working-precision words and    45 shell-pairs
 PRISM was handed   268425507 working-precision words and    45 shell-pairs
 PRISM was handed   268425507 working-precision words and    45 shell-pairs
 IPart=  9 NShTot=           0 NBatch=           0 AvBLen=         0.0
 IPart= 22 NShTot=           0 NBatch=           0 AvBLen=         0.0
 IPart= 13 NShTot=           0 NBatch=           0 AvBLen=         0.0
 PRISM was handed   268425507 working-precision words and    45 shell-pairs
 PRISM was handed   268425507 working-precision words and    45 shell-pairs
 PRISM was handed   268425507 working-precision words and    45 shell-pairs
 PRISM was handed   268425507 working-precision words and    45 shell-pairs
 PRISM was handed   268425507 working-precision words and    45 shell-pairs
 PRISM was handed   268425507 working-precision words and    45 shell-pairs
 PRISM was handed   268425507 working-precision words and    45 shell-pairs
 PRISM was handed   268425507 working-precision words and    45 shell-pairs
 IPart=  4 NShTot=           0 NBatch=           0 AvBLen=         0.0
 IPart= 20 NShTot=           0 NBatch=           0 AvBLen=         0.0
 IPart= 33 NShTot=           0 NBatch=           0 AvBLen=         0.0
 IPart=  2 NShTot=           3 NBatch=           3 AvBLen=         1.0
 IPart= 25 NShTot=           0 NBatch=           0 AvBLen=         0.0
 IPart= 12 NShTot=           0 NBatch=           0 AvBLen=         0.0
 IPart= 18 NShTot=           0 NBatch=           0 AvBLen=         0.0
 IPart= 29 NShTot=           0 NBatch=           0 AvBLen=         0.0
 IPart= 32 NShTot=           0 NBatch=           0 AvBLen=         0.0
 IPart= 27 NShTot=           0 NBatch=           0 AvBLen=         0.0
 IPart=  3 NShTot=           1 NBatch=           1 AvBLen=         1.0
 IPart= 23 NShTot=           0 NBatch=           0 AvBLen=         0.0
 IPart= 10 NShTot=           0 NBatch=           0 AvBLen=         0.0
 IPart= 15 NShTot=           0 NBatch=           0 AvBLen=         0.0
 IPart=  0 NShTot=          27 NBatch=          27 AvBLen=         1.0
 IPart=  1 NShTot=          14 NBatch=          14 AvBLen=         1.0
 PrSmSu:  NxtVal=             37.
 *** Overlap *** 
                1             2             3             4             5 
      1  0.100000D+01
      2  0.143004D-01  0.100000D+01
      3  0.139036D+00  0.247971D+00  0.100000D+01
      4  0.423519D+00  0.318917D-02  0.166761D+00  0.100000D+01
      5  0.314464D+00  0.200816D-01  0.169469D+00  0.877618D+00  0.100000D+01
      6  0.000000D+00  0.000000D+00  0.000000D+00  0.000000D+00  0.000000D+00
      7  0.000000D+00  0.000000D+00  0.000000D+00  0.000000D+00  0.000000D+00
      8 -0.146007D+00  0.000000D+00  0.000000D+00  0.000000D+00  0.000000D+00
      9  0.000000D+00  0.000000D+00  0.000000D+00  0.000000D+00  0.000000D+00
     10  0.000000D+00  0.000000D+00  0.000000D+00  0.000000D+00  0.000000D+00
     11 -0.478529D+00  0.000000D+00  0.000000D+00  0.000000D+00  0.000000D+00
     12  0.000000D+00  0.000000D+00  0.000000D+00  0.000000D+00  0.000000D+00
     13  0.000000D+00  0.000000D+00  0.000000D+00  0.000000D+00  0.000000D+00
     14 -0.206897D+00  0.000000D+00  0.000000D+00  0.000000D+00  0.000000D+00
     15  0.392365D+00  0.000000D+00  0.000000D+00  0.000000D+00  0.000000D+00
     16  0.000000D+00  0.000000D+00  0.000000D+00  0.000000D+00  0.000000D+00
     17  0.000000D+00  0.000000D+00  0.000000D+00  0.000000D+00  0.000000D+00
     18  0.000000D+00  0.000000D+00  0.000000D+00  0.000000D+00  0.000000D+00
     19  0.000000D+00  0.000000D+00  0.000000D+00  0.000000D+00  0.000000D+00
                6             7             8             9            10 
      6  0.100000D+01
      7  0.000000D+00  0.100000D+01
      8  0.000000D+00  0.000000D+00  0.100000D+01
      9  0.154548D+00  0.000000D+00  0.000000D+00  0.100000D+01
     10  0.000000D+00  0.154548D+00  0.000000D+00  0.000000D+00  0.100000D+01
     11  0.000000D+00  0.000000D+00  0.154548D+00  0.000000D+00  0.000000D+00
     12  0.447959D-01  0.000000D+00  0.000000D+00  0.672325D+00  0.000000D+00
     13  0.000000D+00  0.447959D-01  0.000000D+00  0.000000D+00  0.672325D+00
     14  0.000000D+00  0.000000D+00  0.447959D-01  0.000000D+00  0.000000D+00
     15  0.000000D+00  0.000000D+00  0.000000D+00  0.000000D+00  0.000000D+00
     16  0.000000D+00  0.000000D+00  0.000000D+00  0.000000D+00  0.000000D+00
     17  0.000000D+00  0.000000D+00  0.000000D+00  0.000000D+00  0.000000D+00
     18  0.000000D+00  0.000000D+00  0.000000D+00  0.000000D+00  0.000000D+00
     19  0.000000D+00  0.000000D+00  0.000000D+00  0.000000D+00  0.000000D+00
               11            12            13            14            15 
     11  0.100000D+01
     12  0.000000D+00  0.100000D+01
     13  0.000000D+00  0.000000D+00  0.100000D+01
     14  0.672325D+00  0.000000D+00  0.000000D+00  0.100000D+01
     15  0.000000D+00  0.000000D+00  0.000000D+00  0.000000D+00  0.100000D+01
     16  0.000000D+00  0.000000D+00  0.000000D+00  0.000000D+00  0.000000D+00
     17  0.000000D+00  0.000000D+00  0.000000D+00  0.000000D+00  0.000000D+00
     18  0.000000D+00  0.000000D+00  0.000000D+00  0.000000D+00  0.000000D+00
     19  0.000000D+00  0.000000D+00  0.000000D+00  0.000000D+00  0.000000D+00
               16            17            18            19 
     16  0.100000D+01
     17  0.000000D+00  0.100000D+01
     18  0.000000D+00  0.000000D+00  0.100000D+01
     19  0.000000D+00  0.000000D+00  0.000000D+00  0.100000D+01
 *** Kinetic Energy *** 
                1             2             3             4             5 
      1  0.760032D+00
      2 -0.418715D-02  0.559245D+02
      3 -0.165258D-01 -0.270711D+01  0.198850D+01
      4  0.512465D-01 -0.186861D+00 -0.113978D+00  0.981361D-01
      5  0.178740D-01  0.138303D-02  0.114008D-01  0.423571D-01  0.346050D-01
      6  0.000000D+00  0.000000D+00  0.000000D+00  0.000000D+00  0.000000D+00
      7  0.000000D+00  0.000000D+00  0.000000D+00  0.000000D+00  0.000000D+00
      8 -0.273992D-01  0.000000D+00  0.000000D+00  0.000000D+00  0.000000D+00
      9  0.000000D+00  0.000000D+00  0.000000D+00  0.000000D+00  0.000000D+00
     10  0.000000D+00  0.000000D+00  0.000000D+00  0.000000D+00  0.000000D+00
     11 -0.108002D+00  0.000000D+00  0.000000D+00  0.000000D+00  0.000000D+00
     12  0.000000D+00  0.000000D+00  0.000000D+00  0.000000D+00  0.000000D+00
     13  0.000000D+00  0.000000D+00  0.000000D+00  0.000000D+00  0.000000D+00
     14 -0.185218D-01  0.000000D+00  0.000000D+00  0.000000D+00  0.000000D+00
     15  0.174095D+00  0.000000D+00  0.000000D+00  0.000000D+00  0.000000D+00
     16  0.000000D+00  0.000000D+00  0.000000D+00  0.000000D+00  0.000000D+00
     17  0.000000D+00  0.000000D+00  0.000000D+00  0.000000D+00  0.000000D+00
     18  0.000000D+00  0.000000D+00  0.000000D+00  0.000000D+00  0.000000D+00
     19  0.000000D+00  0.000000D+00  0.000000D+00  0.000000D+00  0.000000D+00
                6             7             8             9            10 
      6  0.590429D+01
      7  0.000000D+00  0.590429D+01
      8  0.000000D+00  0.000000D+00  0.590429D+01
      9  0.132596D-01  0.000000D+00  0.000000D+00  0.163902D+00
     10  0.000000D+00  0.132596D-01  0.000000D+00  0.000000D+00  0.163902D+00
     11  0.000000D+00  0.000000D+00  0.132596D-01  0.000000D+00  0.000000D+00
     12  0.444443D-02  0.000000D+00  0.000000D+00  0.524934D-01  0.000000D+00
     13  0.000000D+00  0.444443D-02  0.000000D+00  0.000000D+00  0.524934D-01
     14  0.000000D+00  0.000000D+00  0.444443D-02  0.000000D+00  0.000000D+00
     15  0.000000D+00  0.000000D+00  0.000000D+00  0.000000D+00  0.000000D+00
     16  0.000000D+00  0.000000D+00  0.000000D+00  0.000000D+00  0.000000D+00
     17  0.000000D+00  0.000000D+00  0.000000D+00  0.000000D+00  0.000000D+00
     18  0.000000D+00  0.000000D+00  0.000000D+00  0.000000D+00  0.000000D+00
     19  0.000000D+00  0.000000D+00  0.000000D+00  0.000000D+00  0.000000D+00
               11            12            13            14            15 
     11  0.163902D+00
     12  0.000000D+00  0.513250D-01
     13  0.000000D+00  0.000000D+00  0.513250D-01
     14  0.524934D-01  0.000000D+00  0.000000D+00  0.513250D-01
     15  0.000000D+00  0.000000D+00  0.000000D+00  0.000000D+00  0.340550D+00
     16  0.000000D+00  0.000000D+00  0.000000D+00  0.000000D+00  0.000000D+00
     17  0.000000D+00  0.000000D+00  0.000000D+00  0.000000D+00  0.000000D+00
     18  0.000000D+00  0.000000D+00  0.000000D+00  0.000000D+00  0.000000D+00
     19  0.000000D+00  0.000000D+00  0.000000D+00  0.000000D+00  0.000000D+00
               16            17            18            19 
     16  0.340550D+00
     17  0.000000D+00  0.340550D+00
     18  0.000000D+00  0.000000D+00  0.340550D+00
     19  0.000000D+00  0.000000D+00  0.000000D+00  0.340550D+00
 Entering OneElI...
 Calculate potential energy integrals
    NBasis =  19  MinDer = 0  MaxDer = 0
 Requested accuracy = 0.1000D-12
 Symmetry will be used
 PrmmSu-InSpLW:  IPartL=    0 NPrtUS=   36 NPrtUL=    1 DoSpLW=F IThBeg=    0 IThEnd=   35 NThAct=   36.
 PrSmSu:  IncTry=   512 NBBP=             90 NTPThr=   100 NPartT=   36 Incr=           1 LDynOK=F GPUOK=F.
 PrsmSu:  NPrtUS=  36 ThrOK=T IAlg=1 LenDen=           0 ISkipM=0 DoSpLW=F IThBeg=    0 IThEnd=   35.
 Prism:   IPart=     0 DynPar=F LinDyn=F Incr=           1.
 PRISM was handed   268425740 working-precision words and    45 shell-pairs
 PRISM was handed   268425740 working-precision words and    45 shell-pairs
 PRISM was handed   268425740 working-precision words and    45 shell-pairs
 PRISM was handed   268425740 working-precision words and    45 shell-pairs
 PRISM was handed   268425740 working-precision words and    45 shell-pairs
 PRISM was handed   268425740 working-precision words and    45 shell-pairs
 PRISM was handed   268425740 working-precision words and    45 shell-pairs
 PRISM was handed   268425740 working-precision words and    45 shell-pairs
 PRISM was handed   268425740 working-precision words and    45 shell-pairs
 PRISM was handed   268425740 working-precision words and    45 shell-pairs
 PRISM was handed   268425740 working-precision words and    45 shell-pairs
 PRISM was handed   268425740 working-precision words and    45 shell-pairs
 PRISM was handed   268425740 working-precision words and    45 shell-pairs
 PRISM was handed   268425740 working-precision words and    45 shell-pairs
 PRISM was handed   268425740 working-precision words and    45 shell-pairs
 PRISM was handed   268425740 working-precision words and    45 shell-pairs
 PRISM was handed   268425740 working-precision words and    45 shell-pairs
 PRISM was handed   268425740 working-precision words and    45 shell-pairs
 PRISM was handed   268425740 working-precision words and    45 shell-pairs
 PRISM was handed   268425740 working-precision words and    45 shell-pairs
 PRISM was handed   268425740 working-precision words and    45 shell-pairs
 PRISM was handed   268425740 working-precision words and    45 shell-pairs
 PRISM was handed   268425740 working-precision words and    45 shell-pairs
 PRISM was handed   268425740 working-precision words and    45 shell-pairs
 PRISM was handed   268425740 working-precision words and    45 shell-pairs
 PRISM was handed   268425740 working-precision words and    45 shell-pairs
 PRISM was handed   268425740 working-precision words and    45 shell-pairs
 PRISM was handed   268425740 working-precision words and    45 shell-pairs
 PRISM was handed   268425740 working-precision words and    45 shell-pairs
 PRISM was handed   268425740 working-precision words and    45 shell-pairs
 PRISM was handed   268425740 working-precision words and    45 shell-pairs
 PRISM was handed   268425740 working-precision words and    45 shell-pairs
 PRISM was handed   268425740 working-precision words and    45 shell-pairs
 PRISM was handed   268425740 working-precision words and    45 shell-pairs
 PRISM was handed   268425740 working-precision words and    45 shell-pairs
 PRISM was handed   268425740 working-precision words and    45 shell-pairs
 IPart=  0 NShTot=          54 NBatch=          27 AvBLen=         2.0
 IPart=  1 NShTot=          28 NBatch=          14 AvBLen=         2.0
 IPart= 22 NShTot=           0 NBatch=           0 AvBLen=         0.0
 IPart= 25 NShTot=           0 NBatch=           0 AvBLen=         0.0
 IPart= 13 NShTot=           0 NBatch=           0 AvBLen=         0.0
 IPart= 35 NShTot=           0 NBatch=           0 AvBLen=         0.0
 IPart= 17 NShTot=           0 NBatch=           0 AvBLen=         0.0
 IPart= 21 NShTot=           0 NBatch=           0 AvBLen=         0.0
 IPart= 33 NShTot=           0 NBatch=           0 AvBLen=         0.0
 IPart= 16 NShTot=           0 NBatch=           0 AvBLen=         0.0
 IPart= 15 NShTot=           0 NBatch=           0 AvBLen=         0.0
 IPart= 27 NShTot=           0 NBatch=           0 AvBLen=         0.0
 IPart= 28 NShTot=           0 NBatch=           0 AvBLen=         0.0
 IPart= 29 NShTot=           0 NBatch=           0 AvBLen=         0.0
 IPart= 14 NShTot=           0 NBatch=           0 AvBLen=         0.0
 IPart= 10 NShTot=           0 NBatch=           0 AvBLen=         0.0
 IPart=  2 NShTot=           6 NBatch=           3 AvBLen=         2.0
 IPart= 18 NShTot=           0 NBatch=           0 AvBLen=         0.0
 IPart=  4 NShTot=           0 NBatch=           0 AvBLen=         0.0
 IPart=  5 NShTot=           0 NBatch=           0 AvBLen=         0.0
 IPart=  8 NShTot=           0 NBatch=           0 AvBLen=         0.0
 IPart= 32 NShTot=           0 NBatch=           0 AvBLen=         0.0
 IPart=  6 NShTot=           0 NBatch=           0 AvBLen=         0.0
 IPart= 23 NShTot=           0 NBatch=           0 AvBLen=         0.0
 IPart= 20 NShTot=           0 NBatch=           0 AvBLen=         0.0
 IPart= 24 NShTot=           0 NBatch=           0 AvBLen=         0.0
 IPart= 12 NShTot=           0 NBatch=           0 AvBLen=         0.0
 IPart= 34 NShTot=           0 NBatch=           0 AvBLen=         0.0
 IPart=  3 NShTot=           2 NBatch=           1 AvBLen=         2.0
 IPart=  9 NShTot=           0 NBatch=           0 AvBLen=         0.0
 IPart= 31 NShTot=           0 NBatch=           0 AvBLen=         0.0
 IPart= 11 NShTot=           0 NBatch=           0 AvBLen=         0.0
 IPart= 26 NShTot=           0 NBatch=           0 AvBLen=         0.0
 IPart=  7 NShTot=           0 NBatch=           0 AvBLen=         0.0
 IPart= 30 NShTot=           0 NBatch=           0 AvBLen=         0.0
 IPart= 19 NShTot=           0 NBatch=           0 AvBLen=         0.0
 PrSmSu:  NxtVal=             37.
 ***** Potential Energy ***** 
                1             2             3             4             5 
      1  0.535873D+01
      2  0.731612D+00  0.116680D+03
      3  0.165643D+01  0.108399D+02  0.182191D+02
      4  0.204788D+01 -0.126794D+00  0.156483D+01  0.381395D+01
      5  0.150542D+01  0.105240D+01  0.210493D+01  0.303848D+01  0.288479D+01
      6  0.000000D+00  0.000000D+00  0.000000D+00  0.000000D+00  0.000000D+00
      7  0.000000D+00  0.000000D+00  0.000000D+00  0.000000D+00  0.000000D+00
      8 -0.125856D+01 -0.768891D-02 -0.634035D-01 -0.290948D-01 -0.226520D-01
      9  0.000000D+00  0.000000D+00  0.000000D+00  0.000000D+00  0.000000D+00
     10  0.000000D+00  0.000000D+00  0.000000D+00  0.000000D+00  0.000000D+00
     11 -0.215069D+01 -0.261493D-03 -0.135362D-01 -0.111340D+00 -0.871684D-01
     12  0.000000D+00  0.000000D+00  0.000000D+00  0.000000D+00  0.000000D+00
     13  0.000000D+00  0.000000D+00  0.000000D+00  0.000000D+00  0.000000D+00
     14 -0.825375D+00 -0.787451D-04 -0.377640D-02 -0.499141D-01 -0.496135D-01
     15  0.175412D+01  0.772685D-04  0.497299D-02  0.648992D-01  0.479164D-01
     16  0.000000D+00  0.000000D+00  0.000000D+00  0.000000D+00  0.000000D+00
     17  0.000000D+00  0.000000D+00  0.000000D+00  0.000000D+00  0.000000D+00
     18  0.000000D+00  0.000000D+00  0.000000D+00  0.000000D+00  0.000000D+00
     19  0.000000D+00  0.000000D+00  0.000000D+00  0.000000D+00  0.000000D+00
                6             7             8             9            10 
      6  0.190542D+02
      7  0.000000D+00  0.190542D+02
      8  0.000000D+00  0.000000D+00  0.190804D+02
      9  0.123948D+01  0.000000D+00  0.000000D+00  0.322223D+01
     10  0.000000D+00  0.123948D+01  0.000000D+00  0.000000D+00  0.322223D+01
     11  0.000000D+00  0.000000D+00  0.125461D+01  0.000000D+00  0.000000D+00
     12  0.357929D+00  0.000000D+00  0.000000D+00  0.176212D+01  0.000000D+00
     13  0.000000D+00  0.357929D+00  0.000000D+00  0.000000D+00  0.176212D+01
     14  0.000000D+00  0.000000D+00  0.362406D+00  0.000000D+00  0.000000D+00
     15  0.000000D+00  0.000000D+00 -0.196486D-01  0.000000D+00  0.000000D+00
     16 -0.920411D-02  0.000000D+00  0.000000D+00 -0.606193D-01  0.000000D+00
     17  0.000000D+00 -0.920411D-02  0.000000D+00  0.000000D+00 -0.606193D-01
     18  0.000000D+00  0.000000D+00  0.000000D+00  0.000000D+00  0.000000D+00
     19  0.000000D+00  0.000000D+00  0.000000D+00  0.000000D+00  0.000000D+00
               11            12            13            14            15 
     11  0.330178D+01
     12  0.000000D+00  0.182092D+01
     13  0.000000D+00  0.000000D+00  0.182092D+01
     14  0.179723D+01  0.000000D+00  0.000000D+00  0.184237D+01
     15 -0.126729D+00  0.000000D+00  0.000000D+00 -0.584956D-01  0.324023D+01
     16  0.000000D+00 -0.305561D-01  0.000000D+00  0.000000D+00  0.000000D+00
     17  0.000000D+00  0.000000D+00 -0.305561D-01  0.000000D+00  0.000000D+00
     18  0.000000D+00  0.000000D+00  0.000000D+00  0.000000D+00  0.000000D+00
     19  0.000000D+00  0.000000D+00  0.000000D+00  0.000000D+00  0.000000D+00
               16            17            18            19 
     16  0.318166D+01
     17  0.000000D+00  0.318166D+01
     18  0.000000D+00  0.000000D+00  0.314374D+01
     19  0.000000D+00  0.000000D+00  0.000000D+00  0.314374D+01
 ****** Core Hamiltonian ****** 
                1             2             3             4             5 
      1 -0.459870D+01
      2 -0.735800D+00 -0.607554D+02
      3 -0.167296D+01 -0.135470D+02 -0.162306D+02
      4 -0.199663D+01 -0.600669D-01 -0.167880D+01 -0.371581D+01
      5 -0.148754D+01 -0.105102D+01 -0.209353D+01 -0.299613D+01 -0.285019D+01
      6  0.000000D+00  0.000000D+00  0.000000D+00  0.000000D+00  0.000000D+00
      7  0.000000D+00  0.000000D+00  0.000000D+00  0.000000D+00  0.000000D+00
      8  0.123116D+01  0.768891D-02  0.634035D-01  0.290948D-01  0.226520D-01
      9  0.000000D+00  0.000000D+00  0.000000D+00  0.000000D+00  0.000000D+00
     10  0.000000D+00  0.000000D+00  0.000000D+00  0.000000D+00  0.000000D+00
     11  0.204269D+01  0.261493D-03  0.135362D-01  0.111340D+00  0.871684D-01
     12  0.000000D+00  0.000000D+00  0.000000D+00  0.000000D+00  0.000000D+00
     13  0.000000D+00  0.000000D+00  0.000000D+00  0.000000D+00  0.000000D+00
     14  0.806853D+00  0.787451D-04  0.377640D-02  0.499141D-01  0.496135D-01
     15 -0.158002D+01 -0.772685D-04 -0.497299D-02 -0.648992D-01 -0.479164D-01
     16  0.000000D+00  0.000000D+00  0.000000D+00  0.000000D+00  0.000000D+00
     17  0.000000D+00  0.000000D+00  0.000000D+00  0.000000D+00  0.000000D+00
     18  0.000000D+00  0.000000D+00  0.000000D+00  0.000000D+00  0.000000D+00
     19  0.000000D+00  0.000000D+00  0.000000D+00  0.000000D+00  0.000000D+00
                6             7             8             9            10 
      6 -0.131499D+02
      7  0.000000D+00 -0.131499D+02
      8  0.000000D+00  0.000000D+00 -0.131761D+02
      9 -0.122622D+01  0.000000D+00  0.000000D+00 -0.305832D+01
     10  0.000000D+00 -0.122622D+01  0.000000D+00  0.000000D+00 -0.305832D+01
     11  0.000000D+00  0.000000D+00 -0.124135D+01  0.000000D+00  0.000000D+00
     12 -0.353485D+00  0.000000D+00  0.000000D+00 -0.170962D+01  0.000000D+00
     13  0.000000D+00 -0.353485D+00  0.000000D+00  0.000000D+00 -0.170962D+01
     14  0.000000D+00  0.000000D+00 -0.357962D+00  0.000000D+00  0.000000D+00
     15  0.000000D+00  0.000000D+00  0.196486D-01  0.000000D+00  0.000000D+00
     16  0.920411D-02  0.000000D+00  0.000000D+00  0.606193D-01  0.000000D+00
     17  0.000000D+00  0.920411D-02  0.000000D+00  0.000000D+00  0.606193D-01
     18  0.000000D+00  0.000000D+00  0.000000D+00  0.000000D+00  0.000000D+00
     19  0.000000D+00  0.000000D+00  0.000000D+00  0.000000D+00  0.000000D+00
               11            12            13            14            15 
     11 -0.313788D+01
     12  0.000000D+00 -0.176960D+01
     13  0.000000D+00  0.000000D+00 -0.176960D+01
     14 -0.174473D+01  0.000000D+00  0.000000D+00 -0.179104D+01
     15  0.126729D+00  0.000000D+00  0.000000D+00  0.584956D-01 -0.289968D+01
     16  0.000000D+00  0.305561D-01  0.000000D+00  0.000000D+00  0.000000D+00
     17  0.000000D+00  0.000000D+00  0.305561D-01  0.000000D+00  0.000000D+00
     18  0.000000D+00  0.000000D+00  0.000000D+00  0.000000D+00  0.000000D+00
     19  0.000000D+00  0.000000D+00  0.000000D+00  0.000000D+00  0.000000D+00
               16            17            18            19 
     16 -0.284111D+01
     17  0.000000D+00 -0.284111D+01
     18  0.000000D+00  0.000000D+00 -0.280319D+01
     19  0.000000D+00  0.000000D+00  0.000000D+00 -0.280319D+01
 SVDSVc IOpt=   1 NormSV=T IR=1
 SVDSVc V= 2.32D+00 1.80D+00 1.21D+00 1.16D+00 1.00D+00 9.81D-01 7.30D-01 4.87D-01 2.14D-01 9.92D-02
 SVDSVc IOpt=   1 NormSV=T IR=2
 SVDSVc V= 1.00D+00
 SVDSVc IOpt=   1 NormSV=T IR=3
 SVDSVc V= 1.70D+00 1.00D+00 9.81D-01 3.19D-01
 SVDSVc IOpt=   1 NormSV=T IR=4
 SVDSVc V= 1.70D+00 1.00D+00 9.81D-01 3.19D-01
 TstOVc:  Largest diagonal error= 1.55D-15 IB=1 I=    3.
 TstOVc:  Largest same sym error= 9.44D-16 IB=1 I=   10 J=    6.
 TstOVc:  Largest diff sym error= 0.00D+00 IB=0 JB=0 I=    0 J=    0.
 Orthogonalized basis functions: 
                 1             2             3             4             5 
      1   0.336457D+00 -0.116037D+00 -0.800101D-01  0.311121D+00  0.000000D+00
      2   0.326988D-01  0.425835D-01  0.666574D+00  0.123855D+00  0.000000D+00
      3   0.124762D+00  0.116272D+00  0.568535D+00  0.806460D-01  0.000000D+00
      4   0.335523D+00  0.289093D+00 -0.119864D+00 -0.165977D+00  0.000000D+00
      5   0.319247D+00  0.297252D+00 -0.100004D+00 -0.196413D+00  0.000000D+00
      6   0.000000D+00  0.000000D+00  0.000000D+00  0.000000D+00  0.000000D+00
      7   0.000000D+00  0.000000D+00  0.000000D+00  0.000000D+00  0.000000D+00
      8  -0.675357D-01  0.125343D+00  0.542615D-02 -0.487213D-01  0.000000D+00
      9   0.000000D+00  0.000000D+00  0.000000D+00  0.000000D+00  0.000000D+00
     10   0.000000D+00  0.000000D+00  0.000000D+00  0.000000D+00  0.000000D+00
     11  -0.212600D+00  0.424901D+00 -0.472783D-01  0.164239D+00  0.000000D+00
     12   0.000000D+00  0.000000D+00  0.000000D+00  0.000000D+00  0.000000D+00
     13   0.000000D+00  0.000000D+00  0.000000D+00  0.000000D+00  0.000000D+00
     14  -0.163058D+00  0.394149D+00 -0.726947D-01  0.272036D+00  0.000000D+00
     15   0.998547D-01 -0.569155D-01 -0.152248D+00  0.756976D+00  0.000000D+00
     16   0.000000D+00  0.000000D+00  0.000000D+00  0.000000D+00  0.000000D+00
     17   0.000000D+00  0.000000D+00  0.000000D+00  0.000000D+00  0.000000D+00
     18   0.000000D+00  0.000000D+00  0.000000D+00  0.000000D+00  0.100000D+01
     19   0.000000D+00  0.000000D+00  0.000000D+00  0.000000D+00  0.000000D+00
                 6             7             8             9            10 
      1  -0.780957D-02  0.302524D-01  0.812716D+00  0.956490D+00 -0.870440D+00
      2   0.362813D-04 -0.775786D+00  0.421510D-01  0.290575D-01  0.294550D-01
      3   0.114211D-03  0.855556D+00 -0.106846D+00 -0.894054D-01  0.674900D-01
      4   0.269571D-02 -0.115605D+00 -0.819064D-01  0.366554D+00  0.223828D+01
      5   0.368865D-02 -0.138788D+00 -0.324129D+00 -0.773115D+00 -0.189022D+01
      6   0.000000D+00  0.000000D+00  0.000000D+00  0.000000D+00  0.000000D+00
      7   0.000000D+00  0.000000D+00  0.000000D+00  0.000000D+00  0.000000D+00
      8   0.968584D+00  0.126759D-01  0.277012D+00 -0.419908D-01 -0.377050D-01
      9   0.000000D+00  0.000000D+00  0.000000D+00  0.000000D+00  0.000000D+00
     10   0.000000D+00  0.000000D+00  0.000000D+00  0.000000D+00  0.000000D+00
     11  -0.605511D-01  0.117939D-02 -0.387502D+00  0.138750D+01 -0.695670D+00
     12   0.000000D+00  0.000000D+00  0.000000D+00  0.000000D+00  0.000000D+00
     13   0.000000D+00  0.000000D+00  0.000000D+00  0.000000D+00  0.000000D+00
     14  -0.226501D+00  0.181448D-01  0.810713D+00 -0.932296D+00  0.321183D+00
     15   0.161616D+00 -0.439695D-01 -0.621048D+00 -0.477284D+00  0.379151D+00
     16   0.000000D+00  0.000000D+00  0.000000D+00  0.000000D+00  0.000000D+00
     17   0.000000D+00  0.000000D+00  0.000000D+00  0.000000D+00  0.000000D+00
     18   0.000000D+00  0.000000D+00  0.000000D+00  0.000000D+00  0.000000D+00
     19   0.000000D+00  0.000000D+00  0.000000D+00  0.000000D+00  0.000000D+00
                11            12            13            14            15 
      1   0.000000D+00  0.000000D+00  0.000000D+00  0.000000D+00  0.000000D+00
      2   0.000000D+00  0.000000D+00  0.000000D+00  0.000000D+00  0.000000D+00
      3   0.000000D+00  0.000000D+00  0.000000D+00  0.000000D+00  0.000000D+00
      4   0.000000D+00  0.000000D+00  0.000000D+00  0.000000D+00  0.000000D+00
      5   0.000000D+00  0.000000D+00  0.000000D+00  0.000000D+00  0.000000D+00
      6   0.000000D+00  0.152093D+00  0.000000D+00  0.982915D+00 -0.204821D+00
      7   0.000000D+00  0.000000D+00  0.000000D+00  0.000000D+00  0.000000D+00
      8   0.000000D+00  0.000000D+00  0.000000D+00  0.000000D+00  0.000000D+00
      9   0.000000D+00  0.537460D+00  0.000000D+00 -0.589883D-01  0.125925D+01
     10   0.000000D+00  0.000000D+00  0.000000D+00  0.000000D+00  0.000000D+00
     11   0.000000D+00  0.000000D+00  0.000000D+00  0.000000D+00  0.000000D+00
     12   0.000000D+00  0.525304D+00  0.000000D+00 -0.224234D+00 -0.122909D+01
     13   0.000000D+00  0.000000D+00  0.000000D+00  0.000000D+00  0.000000D+00
     14   0.000000D+00  0.000000D+00  0.000000D+00  0.000000D+00  0.000000D+00
     15   0.000000D+00  0.000000D+00  0.000000D+00  0.000000D+00  0.000000D+00
     16   0.000000D+00  0.000000D+00  0.100000D+01  0.000000D+00  0.000000D+00
     17   0.000000D+00  0.000000D+00  0.000000D+00  0.000000D+00  0.000000D+00
     18   0.000000D+00  0.000000D+00  0.000000D+00  0.000000D+00  0.000000D+00
     19   0.100000D+01  0.000000D+00  0.000000D+00  0.000000D+00  0.000000D+00
                16            17            18            19 
      1   0.000000D+00  0.000000D+00  0.000000D+00  0.000000D+00
      2   0.000000D+00  0.000000D+00  0.000000D+00  0.000000D+00
      3   0.000000D+00  0.000000D+00  0.000000D+00  0.000000D+00
      4   0.000000D+00  0.000000D+00  0.000000D+00  0.000000D+00
      5   0.000000D+00  0.000000D+00  0.000000D+00  0.000000D+00
      6   0.000000D+00  0.000000D+00  0.000000D+00  0.000000D+00
      7   0.152093D+00  0.000000D+00  0.982915D+00 -0.204821D+00
      8   0.000000D+00  0.000000D+00  0.000000D+00  0.000000D+00
      9   0.000000D+00  0.000000D+00  0.000000D+00  0.000000D+00
     10   0.537460D+00  0.000000D+00 -0.589883D-01  0.125925D+01
     11   0.000000D+00  0.000000D+00  0.000000D+00  0.000000D+00
     12   0.000000D+00  0.000000D+00  0.000000D+00  0.000000D+00
     13   0.525304D+00  0.000000D+00 -0.224234D+00 -0.122909D+01
     14   0.000000D+00  0.000000D+00  0.000000D+00  0.000000D+00
     15   0.000000D+00  0.000000D+00  0.000000D+00  0.000000D+00
     16   0.000000D+00  0.000000D+00  0.000000D+00  0.000000D+00
     17   0.000000D+00  0.100000D+01  0.000000D+00  0.000000D+00
     18   0.000000D+00  0.000000D+00  0.000000D+00  0.000000D+00
     19   0.000000D+00  0.000000D+00  0.000000D+00  0.000000D+00
 NBasis=    19 RedAO= T EigKep=  9.92D-02  NBF=    10     1     4     4
 NBsUse=    19 1.00D-06 EigRej= -1.00D+00 NBFU=    10     1     4     4
 Leave Link  302 at Mon Mar 28 14:20:54 2022, MaxMem=  9663676416 cpu:               4.0 elap:               0.1
 (Enter /nopt/nrel/apps/gaussian/g16C_1/g16/l303.exe)
 DipDrv will not compute anything.
 Fermi contact integrals: 
                 1             2 
      1   0.628247D+00  0.290007D-01
      2   0.539102D-04  0.194288D+02
      3   0.336358D-02  0.784000D-02
      4   0.576925D-01 -0.235257D-01
      5   0.358979D-01  0.421887D-01
      6   0.000000D+00  0.000000D+00
      7   0.000000D+00  0.000000D+00
      8  -0.158925D-01  0.000000D+00
      9   0.000000D+00  0.000000D+00
     10   0.000000D+00  0.000000D+00
     11  -0.793072D-01  0.000000D+00
     12   0.000000D+00  0.000000D+00
     13   0.000000D+00  0.000000D+00
     14  -0.253832D-01  0.000000D+00
     15   0.988309D-01  0.000000D+00
     16   0.000000D+00  0.000000D+00
     17   0.000000D+00  0.000000D+00
     18   0.000000D+00  0.000000D+00
     19   0.000000D+00  0.000000D+00
 Leave Link  303 at Mon Mar 28 14:20:54 2022, MaxMem=  9663676416 cpu:               1.1 elap:               0.1
 (Enter /nopt/nrel/apps/gaussian/g16C_1/g16/l401.exe)
 ExpMin= 2.05D-02 ExpMax= 3.17D+04 ExpMxC= 1.08D+03 IAcc=3 IRadAn=         5 AccDes= 0.00D+00
 Harris functional with IExCor=  205 and IRadAn=       5 diagonalized for initial guess.
 HarFok:  IExCor=  205 AccDes= 0.00D+00 IRadAn=         5 IDoV= 1 UseB2=F ITyADJ=14
 ICtDFT=  3500011 ScaDFX=  1.000000  1.000000  1.000000  1.000000
 FoFCou: FMM=F IPFlag=           0 FMFlag=      100000 FMFlg1=           0
         NFxFlg=           0 DoJE=T BraDBF=F KetDBF=T FulRan=T
         wScrn=  0.000000 ICntrl=       500 IOpCl=  0 I1Cent=   200000004 NGrid=           0
         NMat0=    1 NMatS0=      1 NMatT0=    0 NMatD0=    1 NMtDS0=    0 NMtDT0=    0
 Petite list used in FoFCou.
 Harris En= -162.208713290107    
 JPrj=0 DoOrth=F DoCkMO=F.
 Initial guess orbital symmetries:
       Occupied  (SG) (SG) (SG) (PI) (PI) (SG)
       Virtual   (SG) (PI) (PI) (SG) (SG) (PI) (PI) (SG) (PI) (PI)
                 (DLTA) (DLTA) (SG)
 The electronic state of the initial guess is 1-SG.
 Leave Link  401 at Mon Mar 28 14:20:54 2022, MaxMem=  9663676416 cpu:               4.3 elap:               0.1
 (Enter /nopt/nrel/apps/gaussian/g16C_1/g16/l502.exe)
 Keep R1 ints in memory in symmetry-blocked form, NReq=7463775.
 FoFCou: FMM=F IPFlag=           0 FMFlag=           0 FMFlg1=           0
         NFxFlg=           0 DoJE=F BraDBF=F KetDBF=F FulRan=T
         wScrn=  0.000000 ICntrl=       600 IOpCl=  0 I1Cent=           0 NGrid=           0
         NMat0=    1 NMatS0=    190 NMatT0=    0 NMatD0=    1 NMtDS0=    0 NMtDT0=    0
 Petite list used in FoFCou.
 Closed shell SCF:
 Using DIIS extrapolation, IDIIS=  1040.
 NGot=  9663676416 LenX=  9663667906 LenY=  9663667024
 Requested convergence on RMS density matrix=1.00D-08 within 128 cycles.
 Requested convergence on MAX density matrix=1.00D-06.
 Requested convergence on             energy=1.00D-06.
 No special actions if energy rises.

 Cycle   1  Pass 1  IDiag  1:
 E= -162.302066434583    
 DIIS: error= 2.47D-02 at cycle   1 NSaved=   1.
 NSaved= 1 IEnMin= 1 EnMin= -162.302066434583     IErMin= 1 ErrMin= 2.47D-02
 ErrMax= 2.47D-02  0.00D+00 EMaxC= 1.00D-01 BMatC= 1.25D-02 BMatP= 1.25D-02
 IDIUse=3 WtCom= 7.53D-01 WtEn= 2.47D-01
 Coeff-Com:  0.100D+01
 Coeff-En:   0.100D+01
 Coeff:      0.100D+01
 Gap=     0.259 Goal=   None    Shift=    0.000
 GapD=    0.259 DampG=1.000 DampE=0.500 DampFc=0.5000 IDamp=-1.
 Damping current iteration by 5.00D-01
 RMSDP=1.32D-02 MaxDP=1.83D-01              OVMax= 1.19D-01

 Cycle   2  Pass 1  IDiag  1:
 E= -162.316432208194     Delta-E=       -0.014365773611 Rises=F Damp=T
 DIIS: error= 1.24D-02 at cycle   2 NSaved=   2.
 NSaved= 2 IEnMin= 2 EnMin= -162.316432208194     IErMin= 2 ErrMin= 1.24D-02
 ErrMax= 1.24D-02  0.00D+00 EMaxC= 1.00D-01 BMatC= 3.58D-03 BMatP= 1.25D-02
 IDIUse=3 WtCom= 8.76D-01 WtEn= 1.24D-01
 Coeff-Com: -0.113D+01 0.213D+01
 Coeff-En:   0.000D+00 0.100D+01
 Coeff:     -0.987D+00 0.199D+01
 Gap=     0.290 Goal=   None    Shift=    0.000
 RMSDP=7.48D-03 MaxDP=1.01D-01 DE=-1.44D-02 OVMax= 1.61D-02

 Cycle   3  Pass 1  IDiag  1:
 E= -162.332651364483     Delta-E=       -0.016219156289 Rises=F Damp=F
 DIIS: error= 5.86D-04 at cycle   3 NSaved=   3.
 NSaved= 3 IEnMin= 3 EnMin= -162.332651364483     IErMin= 3 ErrMin= 5.86D-04
 ErrMax= 5.86D-04  0.00D+00 EMaxC= 1.00D-01 BMatC= 6.39D-06 BMatP= 3.58D-03
 IDIUse=3 WtCom= 9.94D-01 WtEn= 5.86D-03
 Coeff-Com:  0.397D+00-0.748D+00 0.135D+01
 Coeff-En:   0.000D+00 0.000D+00 0.100D+01
 Coeff:      0.394D+00-0.744D+00 0.135D+01
 Gap=     0.295 Goal=   None    Shift=    0.000
 RMSDP=4.67D-04 MaxDP=2.67D-03 DE=-1.62D-02 OVMax= 5.91D-03

 Cycle   4  Pass 1  IDiag  1:
 E= -162.332688646345     Delta-E=       -0.000037281862 Rises=F Damp=F
 DIIS: error= 1.31D-04 at cycle   4 NSaved=   4.
 NSaved= 4 IEnMin= 4 EnMin= -162.332688646345     IErMin= 4 ErrMin= 1.31D-04
 ErrMax= 1.31D-04  0.00D+00 EMaxC= 1.00D-01 BMatC= 1.87D-07 BMatP= 6.39D-06
 IDIUse=3 WtCom= 9.99D-01 WtEn= 1.31D-03
 Coeff-Com: -0.217D-01 0.435D-01-0.246D+00 0.122D+01
 Coeff-En:   0.000D+00 0.000D+00 0.000D+00 0.100D+01
 Coeff:     -0.217D-01 0.435D-01-0.246D+00 0.122D+01
 Gap=     0.296 Goal=   None    Shift=    0.000
 RMSDP=9.43D-05 MaxDP=6.55D-04 DE=-3.73D-05 OVMax= 1.31D-03

 Cycle   5  Pass 1  IDiag  1:
 E= -162.332690017928     Delta-E=       -0.000001371583 Rises=F Damp=F
 DIIS: error= 2.57D-05 at cycle   5 NSaved=   5.
 NSaved= 5 IEnMin= 5 EnMin= -162.332690017928     IErMin= 5 ErrMin= 2.57D-05
 ErrMax= 2.57D-05  0.00D+00 EMaxC= 1.00D-01 BMatC= 5.32D-09 BMatP= 1.87D-07
 IDIUse=1 WtCom= 1.00D+00 WtEn= 0.00D+00
 Coeff-Com:  0.292D-02-0.607D-02 0.603D-01-0.403D+00 0.135D+01
 Coeff:      0.292D-02-0.607D-02 0.603D-01-0.403D+00 0.135D+01
 Gap=     0.296 Goal=   None    Shift=    0.000
 RMSDP=1.65D-05 MaxDP=1.48D-04 DE=-1.37D-06 OVMax= 2.70D-04

 Cycle   6  Pass 1  IDiag  1:
 E= -162.332690067752     Delta-E=       -0.000000049824 Rises=F Damp=F
 DIIS: error= 4.11D-06 at cycle   6 NSaved=   6.
 NSaved= 6 IEnMin= 6 EnMin= -162.332690067752     IErMin= 6 ErrMin= 4.11D-06
 ErrMax= 4.11D-06  0.00D+00 EMaxC= 1.00D-01 BMatC= 1.94D-10 BMatP= 5.32D-09
 IDIUse=1 WtCom= 1.00D+00 WtEn= 0.00D+00
 Coeff-Com: -0.131D-02 0.261D-02-0.186D-01 0.115D+00-0.527D+00 0.143D+01
 Coeff:     -0.131D-02 0.261D-02-0.186D-01 0.115D+00-0.527D+00 0.143D+01
 Gap=     0.296 Goal=   None    Shift=    0.000
 RMSDP=4.50D-06 MaxDP=4.55D-05 DE=-4.98D-08 OVMax= 5.97D-05

 Cycle   7  Pass 1  IDiag  1:
 E= -162.332690069523     Delta-E=       -0.000000001771 Rises=F Damp=F
 DIIS: error= 2.86D-07 at cycle   7 NSaved=   7.
 NSaved= 7 IEnMin= 7 EnMin= -162.332690069523     IErMin= 7 ErrMin= 2.86D-07
 ErrMax= 2.86D-07  0.00D+00 EMaxC= 1.00D-01 BMatC= 1.14D-12 BMatP= 1.94D-10
 IDIUse=1 WtCom= 1.00D+00 WtEn= 0.00D+00
 Coeff-Com:  0.263D-06-0.148D-04 0.157D-02-0.993D-02 0.615D-01-0.188D+00
 Coeff-Com:  0.113D+01
 Coeff:      0.263D-06-0.148D-04 0.157D-02-0.993D-02 0.615D-01-0.188D+00
 Coeff:      0.113D+01
 Gap=     0.296 Goal=   None    Shift=    0.000
 RMSDP=3.32D-07 MaxDP=1.93D-06 DE=-1.77D-09 OVMax= 3.78D-06

 Cycle   8  Pass 1  IDiag  1:
 E= -162.332690069531     Delta-E=       -0.000000000008 Rises=F Damp=F
 DIIS: error= 3.10D-08 at cycle   8 NSaved=   8.
 NSaved= 8 IEnMin= 8 EnMin= -162.332690069531     IErMin= 8 ErrMin= 3.10D-08
 ErrMax= 3.10D-08  0.00D+00 EMaxC= 1.00D-01 BMatC= 7.22D-15 BMatP= 1.14D-12
 IDIUse=1 WtCom= 1.00D+00 WtEn= 0.00D+00
 Coeff-Com: -0.259D-04 0.524D-04-0.506D-03 0.262D-02-0.162D-01 0.500D-01
 Coeff-Com: -0.329D+00 0.129D+01
 Coeff:     -0.259D-04 0.524D-04-0.506D-03 0.262D-02-0.162D-01 0.500D-01
 Coeff:     -0.329D+00 0.129D+01
 Gap=     0.296 Goal=   None    Shift=    0.000
 RMSDP=4.53D-08 MaxDP=4.64D-07 DE=-7.84D-12 OVMax= 1.39D-07

 Cycle   9  Pass 1  IDiag  1:
 E= -162.332690069531     Delta-E=       -0.000000000000 Rises=F Damp=F
 DIIS: error= 6.46D-09 at cycle   9 NSaved=   9.
 NSaved= 9 IEnMin= 9 EnMin= -162.332690069531     IErMin= 9 ErrMin= 6.46D-09
 ErrMax= 6.46D-09  0.00D+00 EMaxC= 1.00D-01 BMatC= 5.36D-16 BMatP= 7.22D-15
 IDIUse=1 WtCom= 1.00D+00 WtEn= 0.00D+00
 Coeff-Com:  0.205D-05-0.420D-05 0.519D-04-0.202D-03 0.173D-02-0.575D-02
 Coeff-Com:  0.424D-01-0.307D+00 0.127D+01
 Coeff:      0.205D-05-0.420D-05 0.519D-04-0.202D-03 0.173D-02-0.575D-02
 Coeff:      0.424D-01-0.307D+00 0.127D+01
 Gap=     0.296 Goal=   None    Shift=    0.000
 RMSDP=1.01D-08 MaxDP=6.39D-08 DE=-2.84D-14 OVMax= 1.05D-07

 Cycle  10  Pass 1  IDiag  1:
 E= -162.332690069531     Delta-E=       -0.000000000000 Rises=F Damp=F
 DIIS: error= 6.02D-10 at cycle  10 NSaved=  10.
 NSaved=10 IEnMin=10 EnMin= -162.332690069531     IErMin=10 ErrMin= 6.02D-10
 ErrMax= 6.02D-10  0.00D+00 EMaxC= 1.00D-01 BMatC= 3.42D-18 BMatP= 5.36D-16
 IDIUse=1 WtCom= 1.00D+00 WtEn= 0.00D+00
 Coeff-Com: -0.289D-06 0.596D-06-0.883D-05 0.250D-04-0.304D-03 0.106D-02
 Coeff-Com: -0.787D-02 0.708D-01-0.305D+00 0.124D+01
 Coeff:     -0.289D-06 0.596D-06-0.883D-05 0.250D-04-0.304D-03 0.106D-02
 Coeff:     -0.787D-02 0.708D-01-0.305D+00 0.124D+01
 Gap=     0.296 Goal=   None    Shift=    0.000
 RMSDP=5.81D-10 MaxDP=3.55D-09 DE=-2.84D-14 OVMax= 8.52D-09

 SCF Done:  E(RHF) =  -162.332690070     A.U. after   10 cycles
            NFock= 10  Conv=0.58D-09     -V/T= 1.9977
 KE= 1.626992477148D+02 PE=-3.996426944834D+02 EE= 7.045293575617D+01
 Leave Link  502 at Mon Mar 28 14:20:54 2022, MaxMem=  9663676416 cpu:               4.6 elap:               0.2
 (Enter /nopt/nrel/apps/gaussian/g16C_1/g16/l801.exe)
 Windowed orbitals will be sorted by symmetry type.
 ExpMin= 2.05D-02 ExpMax= 3.17D+04 ExpMxC= 1.08D+03 IAcc=3 IRadAn=         5 AccDes= 0.00D+00
 HarFok:  IExCor=  205 AccDes= 0.00D+00 IRadAn=         5 IDoV=-2 UseB2=F ITyADJ=14
 ICtDFT= 12500011 ScaDFX=  1.000000  1.000000  1.000000  1.000000
 Largest valence mixing into a core orbital is  4.65D-04
 Largest core mixing into a valence orbital is  1.89D-04
 Range of M.O.s used for correlation:     6    19
 NBasis=    19 NAE=     6 NBE=     6 NFC=     5 NFV=     0
 NROrb=     14 NOA=     1 NOB=     1 NVA=    13 NVB=    13
 Leave Link  801 at Mon Mar 28 14:20:54 2022, MaxMem=  9663676416 cpu:               2.2 elap:               0.1
 (Enter /nopt/nrel/apps/gaussian/g16C_1/g16/l804.exe)
 Closed-shell transformation, MDV=  9663676416 ITran=4 ISComp=2.
 Unit  1 TFree=         13636 TCopy=        221891.
 Semi-Direct transformation.
 ModeAB=           2 MOrb=             1 LenV=    9663483924
 LASXX=          322 LTotXX=         322 LenRXX=         322
 LTotAB=         441 MaxLAS=        2940 LenRXY=        2940
 NonZer=        3276 LenScr=      785920 LnRSAI=           0
 LnScr1=           0 LExtra=      222959 Total=      1012141
 MaxDsk= 34359738368 SrtSym=           F ITran=            4
 DoSDTr:  NPSUse= 36
 JobTyp=0 Pass  1:  I=   1 to   1.
 (rs|ai) integrals will be sorted in core.
 Complete sort for first half transformation.
 First half transformation complete.
 Complete sort for second half transformation.
 Second half transformation complete.
 Spin components of T(2) and E(2):
     alpha-alpha T2 =       0.0000000000D+00 E2=      0.0000000000D+00
     alpha-beta  T2 =       0.1256942943D-01 E2=     -0.1577871700D-01
     beta-beta   T2 =       0.0000000000D+00 E2=      0.0000000000D+00
 ANorm=    0.1006265089D+01
 E2 =    -0.1577871700D-01 EUMP2 =    -0.16234846878653D+03
 Leave Link  804 at Mon Mar 28 14:20:54 2022, MaxMem=  9663676416 cpu:               2.3 elap:               0.1
 (Enter /nopt/nrel/apps/gaussian/g16C_1/g16/l913.exe)
 CIDS:  MDV=  9663676416.
 Frozen-core window:  NFC=   5 NFV=   0.
 IFCWin=0 IBDFC=1 NFBD=     0     0 NFCmp=     0     0 NFFFC=     0     0
 Using DD3R+UMP44R for 1st iteration.
 Using DD4RQ for 2nd and later iterations.
 Keep R2 and R3 ints in memory in symmetry-blocked form, NReq=7466205.
 FoFCou: FMM=F IPFlag=           0 FMFlag=           0 FMFlg1=           0
         NFxFlg=           0 DoJE=F BraDBF=F KetDBF=F FulRan=T
         wScrn=  0.000000 ICntrl=       600 IOpCl=  0 I1Cent=           0 NGrid=           0
         NMat0=    1 NMatS0=    190 NMatT0=    0 NMatD0=    1 NMtDS0=    0 NMtDT0=    0
 Petite list used in FoFCou.
 CIDS: In Core Option IDoMem=           1.
 Coupled Cluster theory with single and double substitutions
 ===========================================================
 Iterations= 200 Convergence= 0.100D-06
 Produce multiple copies of IABC intergrals
 Iteration Nr.   1
 **********************
 DD1Dir will call FoFMem   1 times, MxPair=         2
 NAB=     1 NAA=     0 NBB=     0.
 MP4(R+Q)=  0.19832947D-03
 Maximum subspace dimension=  5
 A-vector RMS=  1.1947284D-02 Max=  1.5201438D-02 conv= 1.00D-05.
 RLE energy=       -0.0229998084
 E3=       -0.51592158D-02        EUMP3=      -0.16235362800D+03
 E4(DQ)=   -0.17837934D-02        UMP4(DQ)=   -0.16235541180D+03
 E4(SDQ)=  -0.19880296D-02        UMP4(SDQ)=  -0.16235561603D+03
 VARIATIONAL ENERGIES WITH THE FIRST-ORDER WAVEFUNCTION:
 DE(Corr)= -0.20732657E-01 E(Corr)=     -162.35342273    
 NORM(A)=   0.10138892D+01
 Iteration Nr.   2
 **********************
 DD1Dir will call FoFMem   1 times, MxPair=         2
 NAB=     1 NAA=     0 NBB=     0.
 A-vector RMS=  5.7331780D-03 Max=  5.9997977D-03 conv= 1.00D-05.
 RLE energy=       -0.0241805950
 DE(Corr)= -0.23607290E-01 E(CORR)=     -162.35629736     Delta=-2.87D-03
 NORM(A)=   0.10167425D+01
 Iteration Nr.   3
 **********************
 DD1Dir will call FoFMem   1 times, MxPair=         2
 NAB=     1 NAA=     0 NBB=     0.
 A-vector RMS=  3.8667139D-03 Max=  5.3341486D-03 conv= 1.00D-05.
 RLE energy=       -0.0245120675
 DE(Corr)= -0.24190033E-01 E(CORR)=     -162.35688010     Delta=-5.83D-04
 NORM(A)=   0.10189469D+01
 Iteration Nr.   4
 **********************
 DD1Dir will call FoFMem   1 times, MxPair=         2
 NAB=     1 NAA=     0 NBB=     0.
 A-vector RMS=  9.3003463D-04 Max=  1.9072962D-03 conv= 1.00D-05.
 RLE energy=       -0.0246058858
 DE(Corr)= -0.24543310E-01 E(CORR)=     -162.35723338     Delta=-3.53D-04
 NORM(A)=   0.10195550D+01
 Iteration Nr.   5
 **********************
 DD1Dir will call FoFMem   1 times, MxPair=         2
 NAB=     1 NAA=     0 NBB=     0.
 A-vector RMS=  4.8919296D-04 Max=  6.5910842D-04 conv= 1.00D-05.
 RLE energy=       -0.0246007105
 DE(Corr)= -0.24597146E-01 E(CORR)=     -162.35728722     Delta=-5.38D-05
 NORM(A)=   0.10196951D+01
 Iteration Nr.   6
 **********************
 DD1Dir will call FoFMem   1 times, MxPair=         2
 NAB=     1 NAA=     0 NBB=     0.
 A-vector RMS=  1.3323293D-04 Max=  1.5291362D-04 conv= 1.00D-05.
 RLE energy=       -0.0245978457
 DE(Corr)= -0.24599366E-01 E(CORR)=     -162.35728944     Delta=-2.22D-06
 NORM(A)=   0.10197112D+01
 Iteration Nr.   7
 **********************
 DD1Dir will call FoFMem   1 times, MxPair=         2
 NAB=     1 NAA=     0 NBB=     0.
 A-vector RMS=  4.3057777D-05 Max=  5.8495397D-05 conv= 1.00D-05.
 RLE energy=       -0.0246006295
 DE(Corr)= -0.24599414E-01 E(CORR)=     -162.35728948     Delta=-4.81D-08
 NORM(A)=   0.10197157D+01
 Iteration Nr.   8
 **********************
 DD1Dir will call FoFMem   1 times, MxPair=         2
 NAB=     1 NAA=     0 NBB=     0.
 A-vector RMS=  1.1745196D-05 Max=  1.2934790D-05 conv= 1.00D-05.
 RLE energy=       -0.0246000316
 DE(Corr)= -0.24600186E-01 E(CORR)=     -162.35729026     Delta=-7.72D-07
 NORM(A)=   0.10197133D+01
 Iteration Nr.   9
 **********************
 DD1Dir will call FoFMem   1 times, MxPair=         2
 NAB=     1 NAA=     0 NBB=     0.
 A-vector RMS=  3.4587885D-06 Max=  4.2521041D-06 conv= 1.00D-05.
 RLE energy=       -0.0246002996
 DE(Corr)= -0.24600160E-01 E(CORR)=     -162.35729023     Delta= 2.54D-08
 NORM(A)=   0.10197140D+01
 CI/CC converged in    9 iterations to DelEn= 2.54D-08 Conv= 1.00D-07 ErrA1= 3.46D-06 Conv= 1.00D-05
 Wavefunction amplitudes converged. E(Corr)=     -162.35729023    
 Largest amplitude= 7.06D-02
 Discarding MO integrals.
 Leave Link  913 at Mon Mar 28 14:20:55 2022, MaxMem=  9663676416 cpu:               4.7 elap:               0.2
 (Enter /nopt/nrel/apps/gaussian/g16C_1/g16/l601.exe)
 Copying SCF densities to generalized density rwf, IOpCl= 0 IROHF=0.

 **********************************************************************

            Population analysis using the SCF Density.

 **********************************************************************

 Orbital symmetries:
       Occupied  (SG) (SG) (SG) (PI) (PI) (SG)
       Virtual   (SG) (PI) (PI) (SG) (SG) (PI) (PI) (SG) (PI) (PI)
                 (DLTA) (DLTA) (SG)
 The electronic state is 1-SG.
 Alpha  occ. eigenvalues --  -40.44452  -2.78093  -1.50697  -1.49821  -1.49821
 Alpha  occ. eigenvalues --   -0.28995
 Alpha virt. eigenvalues --    0.00628   0.03823   0.03823   0.08541   0.12483
 Alpha virt. eigenvalues --    0.16311   0.16311   0.23707   0.28108   0.28108
 Alpha virt. eigenvalues --    0.28184   0.28184   0.71742
          Condensed to atoms (all electrons):
               1          2
     1  H    0.564134   0.375992
     2  Na   0.375992  10.683881
 Mulliken charges:
               1
     1  H    0.059874
     2  Na  -0.059874
 Sum of Mulliken charges =  -0.00000
 Mulliken charges with hydrogens summed into heavy atoms:
               1
     2  Na  -0.000000
 N-N= 4.157820942943D+00 E-N=-3.996426944818D+02  KE= 1.626992477148D+02
 Symmetry A1   KE= 1.391481145602D+02
 Symmetry A2   KE=-1.245503733094D-51
 Symmetry B1   KE= 1.177556657729D+01
 Symmetry B2   KE= 1.177556657729D+01

 Atomic contributions to Alpha molecular orbitals:
 Alpha occ 1 OE=-40.445 is Na2-s=1.0000
 Alpha occ 2 OE=-2.781 is Na2-s=0.9990
 Alpha occ 3 OE=-1.507 is Na2-p=0.9946
 Alpha occ 4 OE=-1.498 is Na2-p=1.0000
 Alpha occ 5 OE=-1.498 is Na2-p=1.0000
 Alpha occ 6 OE=-0.290 is H1-s=0.4638 Na2-s=0.3623 Na2-p=0.1397
 Alpha vir 7 OE=0.006 is Na2-p=0.5244 Na2-s=0.4575
 Alpha vir 8 OE=0.038 is Na2-p=0.9972
 Alpha vir 9 OE=0.038 is Na2-p=0.9972
 Alpha vir 10 OE=0.085 is Na2-p=0.6320 Na2-s=0.3066
 Alpha vir 11 OE=0.125 is Na2-s=0.6381 Na2-p=0.3571
 Alpha vir 12 OE=0.163 is Na2-p=0.9771
 Alpha vir 13 OE=0.163 is Na2-p=0.9771
 Alpha vir 14 OE=0.237 is Na2-d=0.7486 Na2-p=0.1269 Na2-s=0.1019
 Alpha vir 15 OE=0.281 is Na2-d=0.9743
 Alpha vir 16 OE=0.281 is Na2-d=0.9743
 Alpha vir 17 OE=0.282 is Na2-d=1.0000
 Alpha vir 18 OE=0.282 is Na2-d=1.0000
 Alpha vir 19 OE=0.717 is H1-s=0.4564 Na2-p=0.2253 Na2-d=0.1837 Na2-s=0.1347
 
 Leave Link  601 at Mon Mar 28 14:20:55 2022, MaxMem=  9663676416 cpu:               3.4 elap:               0.1
 (Enter /nopt/nrel/apps/gaussian/g16C_1/g16/l9999.exe)

 Test job not archived.
 1\1\GINC-R102U34\SP\RCCSD-FC\Gen\H1Na1\USER\28-Mar-2022\0\\#P CCSD
 (MaxCyc=200,SaveAmplitudes,ReadAmplitudes)/GEN sp pop=AllOrbitals iop(
 3/33=1,3/36=-1)\\test\\0,1\H,0,0.,0.,0.\Na,0,0.,0.,1.4\\Version=ES64L-
 G16RevC.01\State=1-SG\HF=-162.3326901\MP2=-162.3484688\MP3=-162.353628
 \MP4D=-162.3556101\MP4DQ=-162.3554118\MP4SDQ=-162.355616\CCSD=-162.357
 2902\RMSD=5.805e-10\PG=C*V [C*(H1Na1)]\\@


 One man practicing sportsmanship is far better than 50 preaching it.
 -- Knute K. Rockne
 Job cpu time:       0 days  0 hours  0 minutes 36.8 seconds.
 Elapsed time:       0 days  0 hours  0 minutes  1.4 seconds.
 File lengths (MBytes):  RWF=     13 Int=      0 D2E=      0 Chk=      1 Scr=      1
 Normal termination of Gaussian 16 at Mon Mar 28 14:20:55 2022.
