 Entering Gaussian System, Link 0=g16
 Initial command:
 /nopt/nrel/apps/gaussian/g16C_1/g16/l1.exe "/lustre/eaglefs/scratch/user/qc/nah-dissc/nah-1-ccsd-1.9-augccq/Gau-8785.inp" -scrdir="/lustre/eaglefs/scratch/user/qc/nah-dissc/nah-1-ccsd-1.9-augccq/"
 Default is to use a total of  36 processors:
                               36 via shared-memory
                                1 via Linda
 Entering Link 1 = /nopt/nrel/apps/gaussian/g16C_1/g16/l1.exe PID=      8786.
  
 Copyright (c) 1988-2019, Gaussian, Inc.  All Rights Reserved.
  
 This is part of the Gaussian(R) 16 program.  It is based on
 the Gaussian(R) 09 system (copyright 2009, Gaussian, Inc.),
 the Gaussian(R) 03 system (copyright 2003, Gaussian, Inc.),
 the Gaussian(R) 98 system (copyright 1998, Gaussian, Inc.),
 the Gaussian(R) 94 system (copyright 1995, Gaussian, Inc.),
 the Gaussian 92(TM) system (copyright 1992, Gaussian, Inc.),
 the Gaussian 90(TM) system (copyright 1990, Gaussian, Inc.),
 the Gaussian 88(TM) system (copyright 1988, Gaussian, Inc.),
 the Gaussian 86(TM) system (copyright 1986, Carnegie Mellon
 University), and the Gaussian 82(TM) system (copyright 1983,
 Carnegie Mellon University). Gaussian is a federally registered
 trademark of Gaussian, Inc.
  
 This software contains proprietary and confidential information,
 including trade secrets, belonging to Gaussian, Inc.
  
 This software is provided under written license and may be
 used, copied, transmitted, or stored only in accord with that
 written license.
  
 The following legend is applicable only to US Government
 contracts under FAR:
  
                    RESTRICTED RIGHTS LEGEND
  
 Use, reproduction and disclosure by the US Government is
 subject to restrictions as set forth in subparagraphs (a)
 and (c) of the Commercial Computer Software - Restricted
 Rights clause in FAR 52.227-19.
  
 Gaussian, Inc.
 340 Quinnipiac St., Bldg. 40, Wallingford CT 06492
  
  
 ---------------------------------------------------------------
 Warning -- This program may not be used in any manner that
 competes with the business of Gaussian, Inc. or will provide
 assistance to any competitor of Gaussian, Inc.  The licensee
 of this program is prohibited from giving any competitor of
 Gaussian, Inc. access to this program.  By using this program,
 the user acknowledges that Gaussian, Inc. is engaged in the
 business of creating and licensing software in the field of
 computational chemistry and represents and warrants to the
 licensee that it is not a competitor of Gaussian, Inc. and that
 it will not use this program in any manner prohibited above.
 ---------------------------------------------------------------
  

 Cite this work as:
 Gaussian 16, Revision C.01,
 M. J. Frisch, G. W. Trucks, H. B. Schlegel, G. E. Scuseria, 
 M. A. Robb, J. R. Cheeseman, G. Scalmani, V. Barone, 
 G. A. Petersson, H. Nakatsuji, X. Li, M. Caricato, A. V. Marenich, 
 J. Bloino, B. G. Janesko, R. Gomperts, B. Mennucci, H. P. Hratchian, 
 J. V. Ortiz, A. F. Izmaylov, J. L. Sonnenberg, D. Williams-Young, 
 F. Ding, F. Lipparini, F. Egidi, J. Goings, B. Peng, A. Petrone, 
 T. Henderson, D. Ranasinghe, V. G. Zakrzewski, J. Gao, N. Rega, 
 G. Zheng, W. Liang, M. Hada, M. Ehara, K. Toyota, R. Fukuda, 
 J. Hasegawa, M. Ishida, T. Nakajima, Y. Honda, O. Kitao, H. Nakai, 
 T. Vreven, K. Throssell, J. A. Montgomery, Jr., J. E. Peralta, 
 F. Ogliaro, M. J. Bearpark, J. J. Heyd, E. N. Brothers, K. N. Kudin, 
 V. N. Staroverov, T. A. Keith, R. Kobayashi, J. Normand, 
 K. Raghavachari, A. P. Rendell, J. C. Burant, S. S. Iyengar, 
 J. Tomasi, M. Cossi, J. M. Millam, M. Klene, C. Adamo, R. Cammi, 
 J. W. Ochterski, R. L. Martin, K. Morokuma, O. Farkas, 
 J. B. Foresman, and D. J. Fox, Gaussian, Inc., Wallingford CT, 2019.
 
 ******************************************
 Gaussian 16:  ES64L-G16RevC.01  3-Jul-2019
                28-Mar-2022 
 ******************************************
 %chk=molecule
 Default route: CacheSize=180224 MaxDisk=256GB
 ----------------------------------------------------------------------
 #P CCSD(MaxCyc=200,SaveAmplitudes,ReadAmplitudes)/GEN sp pop=AllOrbita
 ls iop(3/33=1,3/36=-1)
 ----------------------------------------------------------------------
 1/4=180224,38=1,172=1/1;
 2/4=180224,12=2,17=6,18=5,40=1/2;
 3/4=180224,5=7,11=9,25=1,30=1,33=1,36=-1/1,2,3;
 4/4=180224/1;
 5/4=180224,5=2,38=5/2;
 8/4=180224,6=4,9=120000,10=1,24=1/1,4;
 9/4=180224,5=7,6=200,77=1/13;
 6/4=180224,7=2,8=2,9=2,10=2,96=-1/1;
 99/4=180224,5=1,9=1/99;
 Leave Link    1 at Mon Mar 28 14:22:25 2022, MaxMem=           0 cpu:               2.9 elap:               0.1
 (Enter /nopt/nrel/apps/gaussian/g16C_1/g16/l101.exe)
 ----
 test
 ----
 Symbolic Z-matrix:
 Charge =  0 Multiplicity = 1
 H                     0.        0.        0. 
 Na                    0.        0.        1.9 
 
 ITRead=  0  0
 MicOpt= -1 -1
 NAtoms=      2 NQM=        2 NQMF=       0 NMMI=      0 NMMIF=      0
                NMic=       0 NMicF=      0.
                    Isotopes and Nuclear Properties:
 (Nuclear quadrupole moments (NQMom) in fm**2, nuclear magnetic moments (NMagM)
  in nuclear magnetons)

  Atom         1           2
 IAtWgt=           1          23
 AtmWgt=   1.0078250  22.9897697
 NucSpn=           1           3
 AtZEff=  -0.0000000  -0.0000000
 NQMom=    0.0000000  10.4000000
 NMagM=    2.7928460   2.2175200
 AtZNuc=   1.0000000  11.0000000
 Leave Link  101 at Mon Mar 28 14:22:25 2022, MaxMem=  9663676416 cpu:               3.3 elap:               0.1
 (Enter /nopt/nrel/apps/gaussian/g16C_1/g16/l202.exe)
                          Input orientation:                          
 ---------------------------------------------------------------------
 Center     Atomic      Atomic             Coordinates (Angstroms)
 Number     Number       Type             X           Y           Z
 ---------------------------------------------------------------------
      1          1           0        0.000000    0.000000    0.000000
      2         11           0        0.000000    0.000000    1.900000
 ---------------------------------------------------------------------
 Stoichiometry    HNa
 Framework group  C*V[C*(HNa)]
 Deg. of freedom     1
 Full point group                 C*V     NOp   4
 Largest Abelian subgroup         C2V     NOp   4
 Largest concise Abelian subgroup C1      NOp   1
                         Standard orientation:                         
 ---------------------------------------------------------------------
 Center     Atomic      Atomic             Coordinates (Angstroms)
 Number     Number       Type             X           Y           Z
 ---------------------------------------------------------------------
      1          1           0        0.000000    0.000000   -1.741667
      2         11           0        0.000000    0.000000    0.158333
 ---------------------------------------------------------------------
 Rotational constants (GHZ):           0.0000000         144.9966434         144.9966434
 Leave Link  202 at Mon Mar 28 14:22:25 2022, MaxMem=  9663676416 cpu:               0.3 elap:               0.0
 (Enter /nopt/nrel/apps/gaussian/g16C_1/g16/l301.exe)
 General basis read from cards:  (5D, 7F)
                         Coordinates in L301:                         
 ---------------------------------------------------------------------
 Center     Atomic      Atomic             Coordinates (Angstroms)
 Number     Number       Type             X           Y           Z
 ---------------------------------------------------------------------
      1          1           0        0.000000    0.000000   -1.741667
      2         11           0        0.000000    0.000000    0.158333
 ---------------------------------------------------------------------
 Centers:       1
 STO-3G
 ****
 Centers:       2
 aug-cc-pVQZ
 ****
 FixB: optimizing general contractions.
 Ernie: Thresh=  0.10000D-02 Tol=  0.10000D-05 Strict=F.
 IA=     1 ShT= 0 ShC= 0 NL=   1 NS=   0.
 IA=     1 L=0 SC=0 ISt=    0 NBk=    0 NP=    0 IndPr=    0.
 IA=     2 ShT= 0 ShC= 0 NL=   7 NS=   4.
 IA=     2 L=0 SC=0 ISt=    1 NBk=    3 NP=   16 IndPr=    0.
 DoElim1:  L=0 select primitive    5 from    2 using    1 C= 3.00D-03
 DoElim1:  L=0 select primitive    5 from    3 using    1 C= 3.00D-03
 DoElim1:  L=0 select primitive    9 from    3 using    2 C=-4.69D-03
 DoElim2:  L=0 select primitive   16 from    2 using    3 C=-1.13D-01
 DoElim2:  L=0 select primitive   16 from    1 using    3 C=-1.13D-01
 DoElim2:  L=0 select primitive   15 from    1 using    2 C= 4.22D-01
 Delete L=0 primitive    9 from    3 C=  4.69D-20.
 Delete L=0 primitive    7 from    3 C=  2.07D-07.
 Delete L=0 primitive    6 from    3 C=  8.50D-07.
 Delete L=0 primitive    5 from    3 C=  3.87D-21.
 Delete L=0 primitive    4 from    3 C=  5.56D-08.
 Delete L=0 primitive    3 from    3 C=  2.42D-09.
 Delete L=0 primitive    2 from    3 C=  1.98D-09.
 Delete L=0 primitive    1 from    3 C=  1.19D-10.
 Delete L=0 primitive   16 from    2 C=  1.15D-17.
 Delete L=0 primitive    5 from    2 C=  3.40D-20.
 Delete L=0 primitive    4 from    2 C=  5.60D-07.
 Delete L=0 primitive    3 from    2 C=  1.40D-07.
 Delete L=0 primitive    2 from    2 C=  3.25D-08.
 Delete L=0 primitive    1 from    2 C=  3.89D-09.
 Delete L=0 primitive   16 from    1 C=  4.30D-20.
 Delete L=0 primitive   15 from    1 C=  1.88D-20.
 IA=     2 L=0 SC=0 ISt=    0 NBk=    0 NP=    0 IndPr=   32.
 IA=     2 ShT= 1 ShC= 1 NL=   6 NS=   4.
 IA=     2 L=1 SC=1 ISt=    1 NBk=    2 NP=    9 IndPr=    0.
 DoElim1:  L=1 select primitive    2 from    2 using    1 C= 7.42D-03
 DoElim2:  L=1 select primitive    9 from    1 using    2 C= 5.03D-02
 Delete L=1 primitive    2 from    2 C=  1.85D-20.
 Delete L=1 primitive    1 from    2 C=  3.48D-07.
 Delete L=1 primitive    9 from    1 C=  2.51D-19.
 IA=     2 L=1 SC=1 ISt=    0 NBk=    0 NP=    0 IndPr=   15.
 IA=     2 ShT= 2 ShC= 2 NL=   4 NS=   4.
 IA=     2 L=2 SC=2 ISt=    0 NBk=    0 NP=    0 IndPr=    0.
 IA=     2 ShT= 3 ShC= 3 NL=   3 NS=   3.
 IA=     2 L=3 SC=3 ISt=    0 NBk=    0 NP=    0 IndPr=    0.
 IA=     2 ShT= 4 ShC= 4 NL=   2 NS=   2.
 IA=     2 L=4 SC=4 ISt=    0 NBk=    0 NP=    0 IndPr=    0.
 Ernie:  19 primitive shells out of 86 were deleted.
 LdAtmC:  AtmChg=     1.000000    11.000000
 AtZEff=     -1.0000000    -10.0400000
 NEqShl: 
              1            2            3            4
     1            1            1            1            1
     2            2            2            2            2
     3            3            3            3            3
     4            4            4            4            4
     5            5            5            5            5
     6            6            6            6            6
     7            7            7            7            7
     8            8            8            8            8
     9            9            9            9            9
    10           10           10           10           10
    11           11           11           11           11
    12           12           12           12           12
    13           13           13           13           13
    14           14           14           14           14
    15           15           15           15           15
    16           16           16           16           16
    17           17           17           17           17
    18           18           18           18           18
    19           19           19           19           19
    20           20           20           20           20
    21           21           21           21           21
    22           22           22           22           22
    23           23           23           23           23
 NEqBas: 
              1            2            3            4
     1            1            1            1            1
     2            2            2            2            2
     3            3            3            3            3
     4            4            4            4            4
     5            5            5            5            5
     6            6            6            6            6
     7            7            7            7            7
     8            8            8            8            8
     9            9           -9           -9            9
    10           10          -10           10          -10
    11           11           11           11           11
    12           12          -12          -12           12
    13           13          -13           13          -13
    14           14           14           14           14
    15           15          -15          -15           15
    16           16          -16           16          -16
    17           17           17           17           17
    18           18          -18          -18           18
    19           19          -19           19          -19
    20           20           20           20           20
    21           21          -21          -21           21
    22           22          -22           22          -22
    23           23           23           23           23
    24           24          -24          -24           24
    25           25          -25           25          -25
    26           26           26           26           26
    27           27           27           27           27
    28           28           28           28           28
    29           29           29           29           29
    30           30           30          -30          -30
    31           31          -31          -31           31
    32           32          -32           32          -32
    33           33           33           33           33
    34           34           34           34           34
    35           35           35           35           35
    36           36           36          -36          -36
    37           37          -37          -37           37
    38           38          -38           38          -38
    39           39           39           39           39
    40           40           40           40           40
    41           41           41           41           41
    42           42           42          -42          -42
    43           43          -43          -43           43
    44           44          -44           44          -44
    45           45           45           45           45
    46           46           46           46           46
    47           47           47           47           47
    48           48           48          -48          -48
    49           49          -49          -49           49
    50           50          -50           50          -50
    51           51          -51          -51           51
    52           52          -52           52          -52
    53           53           53           53           53
    54           54          -54          -54           54
    55           55          -55           55          -55
    56           56           56           56           56
    57           57          -57          -57           57
    58           58          -58           58          -58
    59           59           59           59           59
    60           60           60          -60          -60
    61           61          -61          -61           61
    62           62          -62           62          -62
    63           63           63           63           63
    64           64          -64          -64           64
    65           65          -65           65          -65
    66           66           66           66           66
    67           67          -67          -67           67
    68           68          -68           68          -68
    69           69           69           69           69
    70           70           70          -70          -70
    71           71          -71          -71           71
    72           72          -72           72          -72
    73           73           73           73           73
    74           74          -74          -74           74
    75           75          -75           75          -75
    76           76           76           76           76
    77           77          -77          -77           77
    78           78          -78           78          -78
    79           79           79           79           79
    80           80           80          -80          -80
    81           81           81           81           81
    82           82          -82           82          -82
    83           83           83           83           83
    84           84          -84           84          -84
    85           85           85           85           85
    86           86          -86          -86           86
    87           87           87          -87          -87
    88           88          -88          -88           88
    89           89           89          -89          -89
    90           90           90           90           90
    91           91          -91           91          -91
    92           92           92           92           92
    93           93          -93          -93           93
    94           94           94          -94          -94
    95           95           95           95           95
    96           96           96           96           96
    97           97          -97           97          -97
    98           98           98           98           98
    99           99          -99           99          -99
   100          100          100          100          100
   101          101         -101         -101          101
   102          102          102         -102         -102
   103          103         -103         -103          103
   104          104          104         -104         -104
   105          105          105          105          105
   106          106         -106          106         -106
   107          107          107          107          107
   108          108         -108         -108          108
   109          109          109         -109         -109
   110          110          110          110          110
 There are    47 symmetry adapted cartesian basis functions of A1  symmetry.
   1         1   1   1   1
   2         2   2   2   2
   3         3   3   3   3
   4         4   4   4   4
   5         5   5   5   5
   6         6   6   6   6
   7         7   7   7   7
   8         8   8   8   8
   9        11  11  11  11
  10        14  14  14  14
  11        17  17  17  17
  12        20  20  20  20
  13        23  23  23  23
  14        26  26  26  26
  15        27  27  27  27
  16        28  28  28  28
  17        29  29  29  29
  18        33  33  33  33
  19        34  34  34  34
  20        35  35  35  35
  21        39  39  39  39
  22        40  40  40  40
  23        41  41  41  41
  24        45  45  45  45
  25        46  46  46  46
  26        47  47  47  47
  27        53  53  53  53
  28        56  56  56  56
  29        59  59  59  59
  30        63  63  63  63
  31        66  66  66  66
  32        69  69  69  69
  33        73  73  73  73
  34        76  76  76  76
  35        79  79  79  79
  36        81  81  81  81
  37        83  83  83  83
  38        85  85  85  85
  39        90  90  90  90
  40        92  92  92  92
  41        95  95  95  95
  42        96  96  96  96
  43        98  98  98  98
  44       100 100 100 100
  45       105 105 105 105
  46       107 107 107 107
  47       110 110 110 110
 There are    13 symmetry adapted cartesian basis functions of A2  symmetry.
  48        30  30  30  30
  49        36  36  36  36
  50        42  42  42  42
  51        48  48  48  48
  52        60  60  60  60
  53        70  70  70  70
  54        80  80  80  80
  55        87  87  87  87
  56        89  89  89  89
  57        94  94  94  94
  58       102 102 102 102
  59       104 104 104 104
  60       109 109 109 109
 There are    25 symmetry adapted cartesian basis functions of B1  symmetry.
  61         9   9   9   9
  62        12  12  12  12
  63        15  15  15  15
  64        18  18  18  18
  65        21  21  21  21
  66        24  24  24  24
  67        31  31  31  31
  68        37  37  37  37
  69        43  43  43  43
  70        49  49  49  49
  71        51  51  51  51
  72        54  54  54  54
  73        57  57  57  57
  74        61  61  61  61
  75        64  64  64  64
  76        67  67  67  67
  77        71  71  71  71
  78        74  74  74  74
  79        77  77  77  77
  80        86  86  86  86
  81        88  88  88  88
  82        93  93  93  93
  83       101 101 101 101
  84       103 103 103 103
  85       108 108 108 108
 There are    25 symmetry adapted cartesian basis functions of B2  symmetry.
  86        10  10  10  10
  87        13  13  13  13
  88        16  16  16  16
  89        19  19  19  19
  90        22  22  22  22
  91        25  25  25  25
  92        32  32  32  32
  93        38  38  38  38
  94        44  44  44  44
  95        50  50  50  50
  96        52  52  52  52
  97        55  55  55  55
  98        58  58  58  58
  99        62  62  62  62
 100        65  65  65  65
 101        68  68  68  68
 102        72  72  72  72
 103        75  75  75  75
 104        78  78  78  78
 105        82  82  82  82
 106        84  84  84  84
 107        91  91  91  91
 108        97  97  97  97
 109        99  99  99  99
 110       106 106 106 106
 Order= 1 2 4 3
 Reordered character table:
              1            2            3            4            5
     1            1            1            1            1            1
     2            2            1            1           -1           -1
     3            4            1           -1           -1            1
     4            3            1           -1            1           -1
 NEqShl: 
              1            2            3            4
     1            1            1            1            1
     2            2            2            2            2
     3            3            3            3            3
     4            4            4            4            4
     5            5            5            5            5
     6            6            6            6            6
     7            7            7            7            7
     8            8            8            8            8
     9            9            9            9            9
    10           10           10           10           10
    11           11           11           11           11
    12           12           12           12           12
    13           13           13           13           13
    14           14           14           14           14
    15           15           15           15           15
    16           16           16           16           16
    17           17           17           17           17
    18           18           18           18           18
    19           19           19           19           19
    20           20           20           20           20
    21           21           21           21           21
    22           22           22           22           22
    23           23           23           23           23
 NEqBas: 
              1            2            3            4
     1            1            1            1            1
     2            2            2            2            2
     3            3            3            3            3
     4            4            4            4            4
     5            5            5            5            5
     6            6            6            6            6
     7            7            7            7            7
     8            8            8            8            8
     9            9           -9           -9            9
    10           10          -10           10          -10
    11           11           11           11           11
    12           12          -12          -12           12
    13           13          -13           13          -13
    14           14           14           14           14
    15           15          -15          -15           15
    16           16          -16           16          -16
    17           17           17           17           17
    18           18          -18          -18           18
    19           19          -19           19          -19
    20           20           20           20           20
    21           21          -21          -21           21
    22           22          -22           22          -22
    23           23           23           23           23
    24           24          -24          -24           24
    25           25          -25           25          -25
    26           26           26           26           26
    27           27           27           27           27
    28           28          -28          -28           28
    29           29          -29           29          -29
    30           30           30           30           30
    31           31           31          -31          -31
    32           32           32           32           32
    33           33          -33          -33           33
    34           34          -34           34          -34
    35           35           35           35           35
    36           36           36          -36          -36
    37           37           37           37           37
    38           38          -38          -38           38
    39           39          -39           39          -39
    40           40           40           40           40
    41           41           41          -41          -41
    42           42           42           42           42
    43           43          -43          -43           43
    44           44          -44           44          -44
    45           45           45           45           45
    46           46           46          -46          -46
    47           47           47           47           47
    48           48          -48          -48           48
    49           49          -49           49          -49
    50           50           50           50           50
    51           51           51          -51          -51
    52           52          -52          -52           52
    53           53          -53           53          -53
    54           54           54           54           54
    55           55          -55          -55           55
    56           56          -56           56          -56
    57           57           57           57           57
    58           58           58          -58          -58
    59           59          -59          -59           59
    60           60          -60           60          -60
    61           61           61           61           61
    62           62          -62          -62           62
    63           63          -63           63          -63
    64           64           64           64           64
    65           65           65          -65          -65
    66           66          -66          -66           66
    67           67          -67           67          -67
    68           68           68           68           68
    69           69          -69          -69           69
    70           70          -70           70          -70
    71           71           71           71           71
    72           72           72          -72          -72
    73           73          -73          -73           73
    74           74          -74           74          -74
    75           75           75           75           75
    76           76           76          -76          -76
    77           77           77           77           77
    78           78          -78          -78           78
    79           79          -79           79          -79
    80           80           80           80           80
    81           81           81          -81          -81
    82           82          -82          -82           82
    83           83          -83           83          -83
    84           84           84           84           84
    85           85           85          -85          -85
 There are    34 symmetry adapted basis functions of A1  symmetry.
   1         1   1   1   1
   2         2   2   2   2
   3         3   3   3   3
   4         4   4   4   4
   5         5   5   5   5
   6         6   6   6   6
   7         7   7   7   7
   8         8   8   8   8
   9        11  11  11  11
  10        14  14  14  14
  11        17  17  17  17
  12        20  20  20  20
  13        23  23  23  23
  14        26  26  26  26
  15        27  27  27  27
  16        30  30  30  30
  17        32  32  32  32
  18        35  35  35  35
  19        37  37  37  37
  20        40  40  40  40
  21        42  42  42  42
  22        45  45  45  45
  23        47  47  47  47
  24        50  50  50  50
  25        54  54  54  54
  26        57  57  57  57
  27        61  61  61  61
  28        64  64  64  64
  29        68  68  68  68
  30        71  71  71  71
  31        75  75  75  75
  32        77  77  77  77
  33        80  80  80  80
  34        84  84  84  84
 There are    11 symmetry adapted basis functions of A2  symmetry.
  35        31  31  31  31
  36        36  36  36  36
  37        41  41  41  41
  38        46  46  46  46
  39        51  51  51  51
  40        58  58  58  58
  41        65  65  65  65
  42        72  72  72  72
  43        76  76  76  76
  44        81  81  81  81
  45        85  85  85  85
 There are    20 symmetry adapted basis functions of B1  symmetry.
  46         9   9   9   9
  47        12  12  12  12
  48        15  15  15  15
  49        18  18  18  18
  50        21  21  21  21
  51        24  24  24  24
  52        28  28  28  28
  53        33  33  33  33
  54        38  38  38  38
  55        43  43  43  43
  56        48  48  48  48
  57        52  52  52  52
  58        55  55  55  55
  59        59  59  59  59
  60        62  62  62  62
  61        66  66  66  66
  62        69  69  69  69
  63        73  73  73  73
  64        78  78  78  78
  65        82  82  82  82
 There are    20 symmetry adapted basis functions of B2  symmetry.
  66        10  10  10  10
  67        13  13  13  13
  68        16  16  16  16
  69        19  19  19  19
  70        22  22  22  22
  71        25  25  25  25
  72        29  29  29  29
  73        34  34  34  34
  74        39  39  39  39
  75        44  44  44  44
  76        49  49  49  49
  77        53  53  53  53
  78        56  56  56  56
  79        60  60  60  60
  80        63  63  63  63
  81        67  67  67  67
  82        70  70  70  70
  83        74  74  74  74
  84        79  79  79  79
  85        83  83  83  83
 Order= 1 2 4 3
 Reordered character table:
              1            2            3            4            5
     1            1            1            1            1            1
     2            2            1            1           -1           -1
     3            4            1           -1           -1            1
     4            3            1           -1            1           -1
    85 basis functions,   180 primitive gaussians,   110 cartesian basis functions
     6 alpha electrons        6 beta electrons
       nuclear repulsion energy         3.0636575369 Hartrees.
 IS=     1 IAt=     1 ISR=     1 T=0 IP=      1 IndIP=      1 IndIPD=      0 C=  2.769344D-01  0.000000D+00                             NZ=T
 IS=     1 IAt=     1 ISR=     1 T=0 IP=      2 IndIP=      2 IndIPD=      1 C=  2.678389D-01  0.000000D+00                             NZ=T
 IS=     1 IAt=     1 ISR=     1 T=0 IP=      3 IndIP=      3 IndIPD=      2 C=  8.347367D-02  0.000000D+00                             NZ=T
 IS=     2 IAt=     2 ISR=     1 T=0 IP=      1 IndIP=      4 IndIPD=      0 C=  1.256831D-01  0.000000D+00                             NZ=T
 IS=     2 IAt=     2 ISR=     1 T=0 IP=      2 IndIP=      5 IndIPD=      1 C=  2.351795D-01  0.000000D+00                             NZ=T
 IS=     2 IAt=     2 ISR=     1 T=0 IP=      3 IndIP=      6 IndIPD=      2 C=  4.075540D-01  0.000000D+00                             NZ=T
 IS=     2 IAt=     2 ISR=     1 T=0 IP=      4 IndIP=      7 IndIPD=      3 C=  6.679379D-01  0.000000D+00                             NZ=T
 IS=     2 IAt=     2 ISR=     1 T=0 IP=      5 IndIP=      8 IndIPD=      4 C=  1.047217D+00  0.000000D+00                             NZ=T
 IS=     2 IAt=     2 ISR=     1 T=0 IP=      6 IndIP=      9 IndIPD=      5 C=  1.576197D+00  0.000000D+00                             NZ=T
 IS=     2 IAt=     2 ISR=     1 T=0 IP=      7 IndIP=     10 IndIPD=      6 C=  2.263485D+00  0.000000D+00                             NZ=T
 IS=     2 IAt=     2 ISR=     1 T=0 IP=      8 IndIP=     11 IndIPD=      7 C=  3.032206D+00  0.000000D+00                             NZ=T
 IS=     2 IAt=     2 ISR=     1 T=0 IP=      9 IndIP=     12 IndIPD=      8 C=  3.616992D+00  0.000000D+00                             NZ=T
 IS=     2 IAt=     2 ISR=     1 T=0 IP=     10 IndIP=     13 IndIPD=      9 C=  3.537052D+00  0.000000D+00                             NZ=T
 IS=     2 IAt=     2 ISR=     1 T=0 IP=     11 IndIP=     14 IndIPD=     10 C=  2.397550D+00  0.000000D+00                             NZ=T
 IS=     2 IAt=     2 ISR=     1 T=0 IP=     12 IndIP=     15 IndIPD=     11 C=  8.137568D-01  0.000000D+00                             NZ=T
 IS=     2 IAt=     2 ISR=     1 T=0 IP=     13 IndIP=     16 IndIPD=     12 C=  6.816649D-02  0.000000D+00                             NZ=T
 IS=     2 IAt=     2 ISR=     1 T=0 IP=     14 IndIP=     17 IndIPD=     13 C= -2.462845D-03  0.000000D+00                             NZ=T
 IS=     3 IAt=     2 ISR=     2 T=0 IP=      1 IndIP=     18 IndIPD=      0 C= -2.098857D-03  0.000000D+00                             NZ=T
 IS=     3 IAt=     2 ISR=     2 T=0 IP=      2 IndIP=     19 IndIPD=      1 C= -1.257311D-02  0.000000D+00                             NZ=T
 IS=     3 IAt=     2 ISR=     2 T=0 IP=      3 IndIP=     20 IndIPD=      2 C= -4.291931D-02  0.000000D+00                             NZ=T
 IS=     3 IAt=     2 ISR=     2 T=0 IP=      4 IndIP=     21 IndIPD=      3 C= -1.256699D-01  0.000000D+00                             NZ=T
 IS=     3 IAt=     2 ISR=     2 T=0 IP=      5 IndIP=     22 IndIPD=      4 C= -2.825687D-01  0.000000D+00                             NZ=T
 IS=     3 IAt=     2 ISR=     2 T=0 IP=      6 IndIP=     23 IndIPD=      5 C= -4.812878D-01  0.000000D+00                             NZ=T
 IS=     3 IAt=     2 ISR=     2 T=0 IP=      7 IndIP=     24 IndIPD=      6 C= -3.483254D-01  0.000000D+00                             NZ=T
 IS=     3 IAt=     2 ISR=     2 T=0 IP=      8 IndIP=     25 IndIPD=      7 C=  2.719827D-01  0.000000D+00                             NZ=T
 IS=     3 IAt=     2 ISR=     2 T=0 IP=      9 IndIP=     26 IndIPD=      8 C=  5.754561D-01  0.000000D+00                             NZ=T
 IS=     3 IAt=     2 ISR=     2 T=0 IP=     10 IndIP=     27 IndIPD=      9 C=  3.325876D-01  0.000000D+00                             NZ=T
 IS=     4 IAt=     2 ISR=     3 T=0 IP=      1 IndIP=     28 IndIPD=      0 C= -2.688625D-03  0.000000D+00                             NZ=T
 IS=     4 IAt=     2 ISR=     3 T=0 IP=      2 IndIP=     29 IndIPD=      1 C= -6.044506D-03  0.000000D+00                             NZ=T
 IS=     4 IAt=     2 ISR=     3 T=0 IP=      3 IndIP=     30 IndIPD=      2 C=  5.457853D-03  0.000000D+00                             NZ=T
 IS=     4 IAt=     2 ISR=     3 T=0 IP=      4 IndIP=     31 IndIPD=      3 C=  1.784245D-03  0.000000D+00                             NZ=T
 IS=     4 IAt=     2 ISR=     3 T=0 IP=      5 IndIP=     32 IndIPD=      4 C= -7.122151D-03  0.000000D+00                             NZ=T
 IS=     4 IAt=     2 ISR=     3 T=0 IP=      6 IndIP=     33 IndIPD=      5 C= -7.663139D-02  0.000000D+00                             NZ=T
 IS=     4 IAt=     2 ISR=     3 T=0 IP=      7 IndIP=     34 IndIPD=      6 C= -1.556109D-01  0.000000D+00                             NZ=T
 IS=     4 IAt=     2 ISR=     3 T=0 IP=      8 IndIP=     35 IndIPD=      7 C= -2.608980D-01  0.000000D+00                             NZ=T
 IS=     5 IAt=     2 ISR=     4 T=0 IP=      1 IndIP=     36 IndIPD=      0 C=  9.691874D-02  0.000000D+00                             NZ=T
 IS=     6 IAt=     2 ISR=     5 T=0 IP=      1 IndIP=     37 IndIPD=      0 C=  5.504375D-02  0.000000D+00                             NZ=T
 IS=     7 IAt=     2 ISR=     6 T=0 IP=      1 IndIP=     38 IndIPD=      0 C=  3.224288D-02  0.000000D+00                             NZ=T
 IS=     8 IAt=     2 ISR=     7 T=0 IP=      1 IndIP=     39 IndIPD=      0 C=  1.515501D-02  0.000000D+00                             NZ=T
 IS=     9 IAt=     2 ISR=     8 T=1 IP=      1 IndIP=     40 IndIPD=      0 C=  0.000000D+00  2.415190D+00                             NZ=T
 IS=     9 IAt=     2 ISR=     8 T=1 IP=      2 IndIP=     41 IndIPD=      1 C=  0.000000D+00  3.261766D+00                             NZ=T
 IS=     9 IAt=     2 ISR=     8 T=1 IP=      3 IndIP=     42 IndIPD=      2 C=  0.000000D+00  3.785291D+00                             NZ=T
 IS=     9 IAt=     2 ISR=     8 T=1 IP=      4 IndIP=     43 IndIPD=      3 C=  0.000000D+00  3.625299D+00                             NZ=T
 IS=     9 IAt=     2 ISR=     8 T=1 IP=      5 IndIP=     44 IndIPD=      4 C=  0.000000D+00  2.558649D+00                             NZ=T
 IS=     9 IAt=     2 ISR=     8 T=1 IP=      6 IndIP=     45 IndIPD=      5 C=  0.000000D+00  1.216865D+00                             NZ=T
 IS=     9 IAt=     2 ISR=     8 T=1 IP=      7 IndIP=     46 IndIPD=      6 C=  0.000000D+00  3.472050D-01                             NZ=T
 IS=     9 IAt=     2 ISR=     8 T=1 IP=      8 IndIP=     47 IndIPD=      7 C=  0.000000D+00  3.753507D-02                             NZ=T
 IS=    10 IAt=     2 ISR=     9 T=1 IP=      1 IndIP=     48 IndIPD=      0 C=  0.000000D+00 -5.305643D-02                             NZ=T
 IS=    10 IAt=     2 ISR=     9 T=1 IP=      2 IndIP=     49 IndIPD=      1 C=  0.000000D+00 -3.032342D-01                             NZ=T
 IS=    10 IAt=     2 ISR=     9 T=1 IP=      3 IndIP=     50 IndIPD=      2 C=  0.000000D+00 -3.201619D-01                             NZ=T
 IS=    10 IAt=     2 ISR=     9 T=1 IP=      4 IndIP=     51 IndIPD=      3 C=  0.000000D+00 -2.475230D-01                             NZ=T
 IS=    10 IAt=     2 ISR=     9 T=1 IP=      5 IndIP=     52 IndIPD=      4 C=  0.000000D+00 -2.183908D-01                             NZ=T
 IS=    10 IAt=     2 ISR=     9 T=1 IP=      6 IndIP=     53 IndIPD=      5 C=  0.000000D+00 -4.814895D-01                             NZ=T
 IS=    10 IAt=     2 ISR=     9 T=1 IP=      7 IndIP=     54 IndIPD=      6 C=  0.000000D+00  5.559948D-01                             NZ=T
 IS=    11 IAt=     2 ISR=    10 T=1 IP=      1 IndIP=     55 IndIPD=      0 C=  0.000000D+00  5.619756D-02                             NZ=T
 IS=    12 IAt=     2 ISR=    11 T=1 IP=      1 IndIP=     56 IndIPD=      0 C=  0.000000D+00  1.873598D-02                             NZ=T
 IS=    13 IAt=     2 ISR=    12 T=1 IP=      1 IndIP=     57 IndIPD=      0 C=  0.000000D+00  6.510746D-03                             NZ=T
 IS=    14 IAt=     2 ISR=    13 T=1 IP=      1 IndIP=     58 IndIPD=      0 C=  0.000000D+00  2.326397D-03                             NZ=T
 IS=    15 IAt=     2 ISR=    14 T=2 IP=      1 IndIP=     59 IndIPD=      1 C=  0.000000D+00  0.000000D+00  6.217031D-02  0.000000D+00 NZ=T
 IS=    16 IAt=     2 ISR=    15 T=2 IP=      1 IndIP=     60 IndIPD=      2 C=  0.000000D+00  0.000000D+00  2.270846D-02  0.000000D+00 NZ=T
 IS=    17 IAt=     2 ISR=    16 T=2 IP=      1 IndIP=     61 IndIPD=      3 C=  0.000000D+00  0.000000D+00  8.309696D-03  0.000000D+00 NZ=T
 IS=    18 IAt=     2 ISR=    17 T=2 IP=      1 IndIP=     62 IndIPD=      4 C=  0.000000D+00  0.000000D+00  1.741731D-03  0.000000D+00 NZ=T
 IS=    19 IAt=     2 ISR=    18 T=3 IP=      1 IndIP=     63 IndIPD=      5 C=  0.000000D+00  0.000000D+00  0.000000D+00  3.558789D-02 NZ=T
 IS=    20 IAt=     2 ISR=    19 T=3 IP=      1 IndIP=     64 IndIPD=      6 C=  0.000000D+00  0.000000D+00  0.000000D+00  8.964249D-03 NZ=T
 IS=    21 IAt=     2 ISR=    20 T=3 IP=      1 IndIP=     65 IndIPD=      7 C=  0.000000D+00  0.000000D+00  0.000000D+00  1.524099D-03 NZ=T
 IS=    22 IAt=     2 ISR=    21 T=4 IP=      1 IndIP=     66 IndIPD=      8 C=  0.000000D+00  0.000000D+00  0.000000D+00  8.821178D-03 NZ=T
 IS=    23 IAt=     2 ISR=    22 T=4 IP=      1 IndIP=     67 IndIPD=      9 C=  0.000000D+00  0.000000D+00  0.000000D+00  1.352433D-03 NZ=T
 IExCor=    0 DFT=F Ex=HF Corr=None ExCW=0 ScaHFX=  1.000000
 ScaDFX=  1.000000  1.000000  1.000000  1.000000 ScalE2=  1.000000  1.000000
 IRadAn=      5 IRanWt=     -1 IRanGd=            0 ICorTp=0 IEmpDi=  4
 NAtoms=    2 NActive=    2 NUniq=    2 SFac= 1.00D+00 NAtFMM=   60 NAOKFM=F Big=F
 Integral buffers will be    131072 words long.
 Raffenetti 1 integral format.
 Two-electron integral symmetry is turned on.
 Leave Link  301 at Mon Mar 28 14:22:25 2022, MaxMem=  9663676416 cpu:               2.4 elap:               0.1
 (Enter /nopt/nrel/apps/gaussian/g16C_1/g16/l302.exe)
 NPDir=0 NMtPBC=     1 NCelOv=     1 NCel=       1 NClECP=     1 NCelD=      1
         NCelK=      1 NCelE2=     1 NClLst=     1 CellRange=     0.0.
 One-electron integrals computed using PRISM.
 One-electron integral symmetry used in STVInt
 Entering OneElI...
 Calculate overlap and kinetic energy integrals
    NBasis =  85  MinDer = 0  MaxDer = 0
 Requested accuracy = 0.1000D-12
 Symmetry will be used
 PrmmSu-InSpLW:  IPartL=    0 NPrtUS=   36 NPrtUL=    1 DoSpLW=F IThBeg=    0 IThEnd=   35 NThAct=   36.
 PrSmSu:  IncTry=   512 NBBP=            276 NTPThr=   100 NPartT=   36 Incr=           1 LDynOK=F GPUOK=F.
 PrsmSu:  NPrtUS=  36 ThrOK=T IAlg=1 LenDen=           0 ISkipM=0 DoSpLW=F IThBeg=    0 IThEnd=   35.
 Prism:   IPart=     0 DynPar=F LinDyn=F Incr=           1.
 PRISM was handed   268400882 working-precision words and   276 shell-pairs
 PRISM was handed   268400882 working-precision words and   276 shell-pairs
 PRISM was handed   268400882 working-precision words and   276 shell-pairs
 PRISM was handed   268400882 working-precision words and   276 shell-pairs
 PRISM was handed   268400882 working-precision words and   276 shell-pairs
 PRISM was handed   268400882 working-precision words and   276 shell-pairs
 PRISM was handed   268400882 working-precision words and   276 shell-pairs
 PRISM was handed   268400882 working-precision words and   276 shell-pairs
 PRISM was handed   268400882 working-precision words and   276 shell-pairs
 PRISM was handed   268400882 working-precision words and   276 shell-pairs
 PRISM was handed   268400882 working-precision words and   276 shell-pairs
 PRISM was handed   268400882 working-precision words and   276 shell-pairs
 PRISM was handed   268400882 working-precision words and   276 shell-pairs
 PRISM was handed   268400882 working-precision words and   276 shell-pairs
 PRISM was handed   268400882 working-precision words and   276 shell-pairs
 PRISM was handed   268400882 working-precision words and   276 shell-pairs
 PRISM was handed   268400882 working-precision words and   276 shell-pairs
 PRISM was handed   268400882 working-precision words and   276 shell-pairs
 PRISM was handed   268400882 working-precision words and   276 shell-pairs
 PRISM was handed   268400882 working-precision words and   276 shell-pairs
 PRISM was handed   268400882 working-precision words and   276 shell-pairs
 PRISM was handed   268400882 working-precision words and   276 shell-pairs
 PRISM was handed   268400882 working-precision words and   276 shell-pairs
 PRISM was handed   268400882 working-precision words and   276 shell-pairs
 PRISM was handed   268400882 working-precision words and   276 shell-pairs
 PRISM was handed   268400882 working-precision words and   276 shell-pairs
 PRISM was handed   268400882 working-precision words and   276 shell-pairs
 PRISM was handed   268400882 working-precision words and   276 shell-pairs
 PRISM was handed   268400882 working-precision words and   276 shell-pairs
 PRISM was handed   268400882 working-precision words and   276 shell-pairs
 PRISM was handed   268400882 working-precision words and   276 shell-pairs
 PRISM was handed   268400882 working-precision words and   276 shell-pairs
 PRISM was handed   268400882 working-precision words and   276 shell-pairs
 PRISM was handed   268400882 working-precision words and   276 shell-pairs
 PRISM was handed   268400882 working-precision words and   276 shell-pairs
 PRISM was handed   268400882 working-precision words and   276 shell-pairs
 IPart= 12 NShTot=           3 NBatch=           3 AvBLen=         1.0
 IPart= 11 NShTot=           6 NBatch=           6 AvBLen=         1.0
 IPart= 10 NShTot=           6 NBatch=           6 AvBLen=         1.0
 IPart= 35 NShTot=           0 NBatch=           0 AvBLen=         0.0
 IPart= 18 NShTot=           0 NBatch=           0 AvBLen=         0.0
 IPart= 14 NShTot=           3 NBatch=           3 AvBLen=         1.0
 IPart= 25 NShTot=           0 NBatch=           0 AvBLen=         0.0
 IPart= 31 NShTot=           0 NBatch=           0 AvBLen=         0.0
 IPart=  8 NShTot=           9 NBatch=           9 AvBLen=         1.0
 IPart= 28 NShTot=           0 NBatch=           0 AvBLen=         0.0
 IPart= 29 NShTot=           0 NBatch=           0 AvBLen=         0.0
 IPart= 27 NShTot=           0 NBatch=           0 AvBLen=         0.0
 IPart= 33 NShTot=           0 NBatch=           0 AvBLen=         0.0
 IPart= 32 NShTot=           0 NBatch=           0 AvBLen=         0.0
 IPart=  9 NShTot=           9 NBatch=           9 AvBLen=         1.0
 IPart= 23 NShTot=           0 NBatch=           0 AvBLen=         0.0
 IPart=  6 NShTot=          13 NBatch=          13 AvBLen=         1.0
 IPart= 20 NShTot=           0 NBatch=           0 AvBLen=         0.0
 IPart= 24 NShTot=           0 NBatch=           0 AvBLen=         0.0
 IPart=  5 NShTot=          15 NBatch=          15 AvBLen=         1.0
 IPart= 16 NShTot=           0 NBatch=           0 AvBLen=         0.0
 IPart=  1 NShTot=          44 NBatch=          44 AvBLen=         1.0
 IPart=  2 NShTot=          38 NBatch=          38 AvBLen=         1.0
 IPart= 19 NShTot=           0 NBatch=           0 AvBLen=         0.0
 IPart= 26 NShTot=           0 NBatch=           0 AvBLen=         0.0
 IPart= 17 NShTot=           0 NBatch=           0 AvBLen=         0.0
 IPart= 13 NShTot=           3 NBatch=           3 AvBLen=         1.0
 IPart= 22 NShTot=           0 NBatch=           0 AvBLen=         0.0
 IPart= 15 NShTot=           3 NBatch=           3 AvBLen=         1.0
 IPart=  7 NShTot=          13 NBatch=          13 AvBLen=         1.0
 IPart= 34 NShTot=           0 NBatch=           0 AvBLen=         0.0
 IPart= 21 NShTot=           0 NBatch=           0 AvBLen=         0.0
 IPart= 30 NShTot=           0 NBatch=           0 AvBLen=         0.0
 IPart=  4 NShTot=          15 NBatch=          15 AvBLen=         1.0
 IPart=  3 NShTot=          31 NBatch=          31 AvBLen=         1.0
 IPart=  0 NShTot=          65 NBatch=          65 AvBLen=         1.0
 PrSmSu:  NxtVal=             37.
 *** Overlap *** 
                1             2             3             4             5 
      1  0.100000D+01
      2  0.409663D-02  0.100000D+01
      3  0.379278D-01  0.240207D+00  0.100000D+01
      4 -0.925596D-01 -0.194205D+00 -0.872342D+00  0.100000D+01
      5  0.324726D+00  0.407775D-01  0.304811D+00 -0.546160D+00  0.100000D+01
      6  0.309762D+00  0.232550D-01  0.181508D+00 -0.346695D+00  0.900999D+00
      7  0.238855D+00  0.136477D-01  0.108695D+00 -0.214284D+00  0.689351D+00
      8  0.134961D+00  0.642215D-02  0.517925D-01 -0.104189D+00  0.391745D+00
      9  0.000000D+00  0.000000D+00  0.000000D+00  0.000000D+00  0.000000D+00
     10  0.000000D+00  0.000000D+00  0.000000D+00  0.000000D+00  0.000000D+00
     11 -0.641177D-01  0.000000D+00  0.000000D+00  0.000000D+00  0.000000D+00
     12  0.000000D+00  0.000000D+00  0.000000D+00  0.000000D+00  0.000000D+00
     13  0.000000D+00  0.000000D+00  0.000000D+00  0.000000D+00  0.000000D+00
     14 -0.413130D+00  0.000000D+00  0.000000D+00  0.000000D+00  0.000000D+00
     15  0.000000D+00  0.000000D+00  0.000000D+00  0.000000D+00  0.000000D+00
     16  0.000000D+00  0.000000D+00  0.000000D+00  0.000000D+00  0.000000D+00
     17 -0.486094D+00  0.000000D+00  0.000000D+00  0.000000D+00  0.000000D+00
     18  0.000000D+00  0.000000D+00  0.000000D+00  0.000000D+00  0.000000D+00
     19  0.000000D+00  0.000000D+00  0.000000D+00  0.000000D+00  0.000000D+00
     20 -0.343241D+00  0.000000D+00  0.000000D+00  0.000000D+00  0.000000D+00
     21  0.000000D+00  0.000000D+00  0.000000D+00  0.000000D+00  0.000000D+00
     22  0.000000D+00  0.000000D+00  0.000000D+00  0.000000D+00  0.000000D+00
     23 -0.171560D+00  0.000000D+00  0.000000D+00  0.000000D+00  0.000000D+00
     24  0.000000D+00  0.000000D+00  0.000000D+00  0.000000D+00  0.000000D+00
     25  0.000000D+00  0.000000D+00  0.000000D+00  0.000000D+00  0.000000D+00
     26 -0.725009D-01  0.000000D+00  0.000000D+00  0.000000D+00  0.000000D+00
     27  0.450894D+00  0.000000D+00  0.000000D+00  0.000000D+00  0.000000D+00
     28  0.000000D+00  0.000000D+00  0.000000D+00  0.000000D+00  0.000000D+00
     29  0.000000D+00  0.000000D+00  0.000000D+00  0.000000D+00  0.000000D+00
     30  0.000000D+00  0.000000D+00  0.000000D+00  0.000000D+00  0.000000D+00
     31  0.000000D+00  0.000000D+00  0.000000D+00  0.000000D+00  0.000000D+00
     32  0.453781D+00  0.000000D+00  0.000000D+00  0.000000D+00  0.000000D+00
     33  0.000000D+00  0.000000D+00  0.000000D+00  0.000000D+00  0.000000D+00
     34  0.000000D+00  0.000000D+00  0.000000D+00  0.000000D+00  0.000000D+00
     35  0.000000D+00  0.000000D+00  0.000000D+00  0.000000D+00  0.000000D+00
     36  0.000000D+00  0.000000D+00  0.000000D+00  0.000000D+00  0.000000D+00
     37  0.334140D+00  0.000000D+00  0.000000D+00  0.000000D+00  0.000000D+00
     38  0.000000D+00  0.000000D+00  0.000000D+00  0.000000D+00  0.000000D+00
     39  0.000000D+00  0.000000D+00  0.000000D+00  0.000000D+00  0.000000D+00
     40  0.000000D+00  0.000000D+00  0.000000D+00  0.000000D+00  0.000000D+00
     41  0.000000D+00  0.000000D+00  0.000000D+00  0.000000D+00  0.000000D+00
     42  0.132454D+00  0.000000D+00  0.000000D+00  0.000000D+00  0.000000D+00
     43  0.000000D+00  0.000000D+00  0.000000D+00  0.000000D+00  0.000000D+00
     44  0.000000D+00  0.000000D+00  0.000000D+00  0.000000D+00  0.000000D+00
     45  0.000000D+00  0.000000D+00  0.000000D+00  0.000000D+00  0.000000D+00
     46  0.000000D+00  0.000000D+00  0.000000D+00  0.000000D+00  0.000000D+00
     47 -0.372366D+00  0.000000D+00  0.000000D+00  0.000000D+00  0.000000D+00
     48  0.000000D+00  0.000000D+00  0.000000D+00  0.000000D+00  0.000000D+00
     49  0.000000D+00  0.000000D+00  0.000000D+00  0.000000D+00  0.000000D+00
     50  0.000000D+00  0.000000D+00  0.000000D+00  0.000000D+00  0.000000D+00
     51  0.000000D+00  0.000000D+00  0.000000D+00  0.000000D+00  0.000000D+00
     52  0.000000D+00  0.000000D+00  0.000000D+00  0.000000D+00  0.000000D+00
     53  0.000000D+00  0.000000D+00  0.000000D+00  0.000000D+00  0.000000D+00
     54 -0.365321D+00  0.000000D+00  0.000000D+00  0.000000D+00  0.000000D+00
     55  0.000000D+00  0.000000D+00  0.000000D+00  0.000000D+00  0.000000D+00
     56  0.000000D+00  0.000000D+00  0.000000D+00  0.000000D+00  0.000000D+00
     57  0.000000D+00  0.000000D+00  0.000000D+00  0.000000D+00  0.000000D+00
     58  0.000000D+00  0.000000D+00  0.000000D+00  0.000000D+00  0.000000D+00
     59  0.000000D+00  0.000000D+00  0.000000D+00  0.000000D+00  0.000000D+00
     60  0.000000D+00  0.000000D+00  0.000000D+00  0.000000D+00  0.000000D+00
     61 -0.193347D+00  0.000000D+00  0.000000D+00  0.000000D+00  0.000000D+00
     62  0.000000D+00  0.000000D+00  0.000000D+00  0.000000D+00  0.000000D+00
     63  0.000000D+00  0.000000D+00  0.000000D+00  0.000000D+00  0.000000D+00
     64  0.000000D+00  0.000000D+00  0.000000D+00  0.000000D+00  0.000000D+00
     65  0.000000D+00  0.000000D+00  0.000000D+00  0.000000D+00  0.000000D+00
     66  0.000000D+00  0.000000D+00  0.000000D+00  0.000000D+00  0.000000D+00
     67  0.000000D+00  0.000000D+00  0.000000D+00  0.000000D+00  0.000000D+00
     68  0.305226D+00  0.000000D+00  0.000000D+00  0.000000D+00  0.000000D+00
     69  0.000000D+00  0.000000D+00  0.000000D+00  0.000000D+00  0.000000D+00
     70  0.000000D+00  0.000000D+00  0.000000D+00  0.000000D+00  0.000000D+00
     71  0.000000D+00  0.000000D+00  0.000000D+00  0.000000D+00  0.000000D+00
     72  0.000000D+00  0.000000D+00  0.000000D+00  0.000000D+00  0.000000D+00
     73  0.000000D+00  0.000000D+00  0.000000D+00  0.000000D+00  0.000000D+00
     74  0.000000D+00  0.000000D+00  0.000000D+00  0.000000D+00  0.000000D+00
     75  0.000000D+00  0.000000D+00  0.000000D+00  0.000000D+00  0.000000D+00
     76  0.000000D+00  0.000000D+00  0.000000D+00  0.000000D+00  0.000000D+00
     77  0.212663D+00  0.000000D+00  0.000000D+00  0.000000D+00  0.000000D+00
     78  0.000000D+00  0.000000D+00  0.000000D+00  0.000000D+00  0.000000D+00
     79  0.000000D+00  0.000000D+00  0.000000D+00  0.000000D+00  0.000000D+00
     80  0.000000D+00  0.000000D+00  0.000000D+00  0.000000D+00  0.000000D+00
     81  0.000000D+00  0.000000D+00  0.000000D+00  0.000000D+00  0.000000D+00
     82  0.000000D+00  0.000000D+00  0.000000D+00  0.000000D+00  0.000000D+00
     83  0.000000D+00  0.000000D+00  0.000000D+00  0.000000D+00  0.000000D+00
     84  0.000000D+00  0.000000D+00  0.000000D+00  0.000000D+00  0.000000D+00
     85  0.000000D+00  0.000000D+00  0.000000D+00  0.000000D+00  0.000000D+00
                6             7             8             9            10 
      6  0.100000D+01
      7  0.910835D+00  0.100000D+01
      8  0.608218D+00  0.833207D+00  0.100000D+01
      9  0.000000D+00  0.000000D+00  0.000000D+00  0.100000D+01
     10  0.000000D+00  0.000000D+00  0.000000D+00  0.000000D+00  0.100000D+01
     11  0.000000D+00  0.000000D+00  0.000000D+00  0.000000D+00  0.000000D+00
     12  0.000000D+00  0.000000D+00  0.000000D+00  0.411842D-01  0.000000D+00
     13  0.000000D+00  0.000000D+00  0.000000D+00  0.000000D+00  0.411842D-01
     14  0.000000D+00  0.000000D+00  0.000000D+00  0.000000D+00  0.000000D+00
     15  0.000000D+00  0.000000D+00  0.000000D+00  0.191808D+00  0.000000D+00
     16  0.000000D+00  0.000000D+00  0.000000D+00  0.000000D+00  0.191808D+00
     17  0.000000D+00  0.000000D+00  0.000000D+00  0.000000D+00  0.000000D+00
     18  0.000000D+00  0.000000D+00  0.000000D+00  0.766846D-01  0.000000D+00
     19  0.000000D+00  0.000000D+00  0.000000D+00  0.000000D+00  0.766846D-01
     20  0.000000D+00  0.000000D+00  0.000000D+00  0.000000D+00  0.000000D+00
     21  0.000000D+00  0.000000D+00  0.000000D+00  0.289446D-01  0.000000D+00
     22  0.000000D+00  0.000000D+00  0.000000D+00  0.000000D+00  0.289446D-01
     23  0.000000D+00  0.000000D+00  0.000000D+00  0.000000D+00  0.000000D+00
     24  0.000000D+00  0.000000D+00  0.000000D+00  0.107297D-01  0.000000D+00
     25  0.000000D+00  0.000000D+00  0.000000D+00  0.000000D+00  0.107297D-01
     26  0.000000D+00  0.000000D+00  0.000000D+00  0.000000D+00  0.000000D+00
     27  0.000000D+00  0.000000D+00  0.000000D+00  0.000000D+00  0.000000D+00
     28  0.000000D+00  0.000000D+00  0.000000D+00  0.000000D+00  0.000000D+00
     29  0.000000D+00  0.000000D+00  0.000000D+00  0.000000D+00  0.000000D+00
     30  0.000000D+00  0.000000D+00  0.000000D+00  0.000000D+00  0.000000D+00
     31  0.000000D+00  0.000000D+00  0.000000D+00  0.000000D+00  0.000000D+00
     32  0.000000D+00  0.000000D+00  0.000000D+00  0.000000D+00  0.000000D+00
     33  0.000000D+00  0.000000D+00  0.000000D+00  0.000000D+00  0.000000D+00
     34  0.000000D+00  0.000000D+00  0.000000D+00  0.000000D+00  0.000000D+00
     35  0.000000D+00  0.000000D+00  0.000000D+00  0.000000D+00  0.000000D+00
     36  0.000000D+00  0.000000D+00  0.000000D+00  0.000000D+00  0.000000D+00
     37  0.000000D+00  0.000000D+00  0.000000D+00  0.000000D+00  0.000000D+00
     38  0.000000D+00  0.000000D+00  0.000000D+00  0.000000D+00  0.000000D+00
     39  0.000000D+00  0.000000D+00  0.000000D+00  0.000000D+00  0.000000D+00
     40  0.000000D+00  0.000000D+00  0.000000D+00  0.000000D+00  0.000000D+00
     41  0.000000D+00  0.000000D+00  0.000000D+00  0.000000D+00  0.000000D+00
     42  0.000000D+00  0.000000D+00  0.000000D+00  0.000000D+00  0.000000D+00
     43  0.000000D+00  0.000000D+00  0.000000D+00  0.000000D+00  0.000000D+00
     44  0.000000D+00  0.000000D+00  0.000000D+00  0.000000D+00  0.000000D+00
     45  0.000000D+00  0.000000D+00  0.000000D+00  0.000000D+00  0.000000D+00
     46  0.000000D+00  0.000000D+00  0.000000D+00  0.000000D+00  0.000000D+00
     47  0.000000D+00  0.000000D+00  0.000000D+00  0.000000D+00  0.000000D+00
     48  0.000000D+00  0.000000D+00  0.000000D+00  0.000000D+00  0.000000D+00
     49  0.000000D+00  0.000000D+00  0.000000D+00  0.000000D+00  0.000000D+00
     50  0.000000D+00  0.000000D+00  0.000000D+00  0.000000D+00  0.000000D+00
     51  0.000000D+00  0.000000D+00  0.000000D+00  0.000000D+00  0.000000D+00
     52  0.000000D+00  0.000000D+00  0.000000D+00  0.000000D+00  0.000000D+00
     53  0.000000D+00  0.000000D+00  0.000000D+00  0.000000D+00  0.000000D+00
     54  0.000000D+00  0.000000D+00  0.000000D+00  0.000000D+00  0.000000D+00
     55  0.000000D+00  0.000000D+00  0.000000D+00  0.000000D+00  0.000000D+00
     56  0.000000D+00  0.000000D+00  0.000000D+00  0.000000D+00  0.000000D+00
     57  0.000000D+00  0.000000D+00  0.000000D+00  0.000000D+00  0.000000D+00
     58  0.000000D+00  0.000000D+00  0.000000D+00  0.000000D+00  0.000000D+00
     59  0.000000D+00  0.000000D+00  0.000000D+00  0.000000D+00  0.000000D+00
     60  0.000000D+00  0.000000D+00  0.000000D+00  0.000000D+00  0.000000D+00
     61  0.000000D+00  0.000000D+00  0.000000D+00  0.000000D+00  0.000000D+00
     62  0.000000D+00  0.000000D+00  0.000000D+00  0.000000D+00  0.000000D+00
     63  0.000000D+00  0.000000D+00  0.000000D+00  0.000000D+00  0.000000D+00
     64  0.000000D+00  0.000000D+00  0.000000D+00  0.000000D+00  0.000000D+00
     65  0.000000D+00  0.000000D+00  0.000000D+00  0.000000D+00  0.000000D+00
     66  0.000000D+00  0.000000D+00  0.000000D+00  0.000000D+00  0.000000D+00
     67  0.000000D+00  0.000000D+00  0.000000D+00  0.000000D+00  0.000000D+00
     68  0.000000D+00  0.000000D+00  0.000000D+00  0.000000D+00  0.000000D+00
     69  0.000000D+00  0.000000D+00  0.000000D+00  0.000000D+00  0.000000D+00
     70  0.000000D+00  0.000000D+00  0.000000D+00  0.000000D+00  0.000000D+00
     71  0.000000D+00  0.000000D+00  0.000000D+00  0.000000D+00  0.000000D+00
     72  0.000000D+00  0.000000D+00  0.000000D+00  0.000000D+00  0.000000D+00
     73  0.000000D+00  0.000000D+00  0.000000D+00  0.000000D+00  0.000000D+00
     74  0.000000D+00  0.000000D+00  0.000000D+00  0.000000D+00  0.000000D+00
     75  0.000000D+00  0.000000D+00  0.000000D+00  0.000000D+00  0.000000D+00
     76  0.000000D+00  0.000000D+00  0.000000D+00  0.000000D+00  0.000000D+00
     77  0.000000D+00  0.000000D+00  0.000000D+00  0.000000D+00  0.000000D+00
     78  0.000000D+00  0.000000D+00  0.000000D+00  0.000000D+00  0.000000D+00
     79  0.000000D+00  0.000000D+00  0.000000D+00  0.000000D+00  0.000000D+00
     80  0.000000D+00  0.000000D+00  0.000000D+00  0.000000D+00  0.000000D+00
     81  0.000000D+00  0.000000D+00  0.000000D+00  0.000000D+00  0.000000D+00
     82  0.000000D+00  0.000000D+00  0.000000D+00  0.000000D+00  0.000000D+00
     83  0.000000D+00  0.000000D+00  0.000000D+00  0.000000D+00  0.000000D+00
     84  0.000000D+00  0.000000D+00  0.000000D+00  0.000000D+00  0.000000D+00
     85  0.000000D+00  0.000000D+00  0.000000D+00  0.000000D+00  0.000000D+00
               11            12            13            14            15 
     11  0.100000D+01
     12  0.000000D+00  0.100000D+01
     13  0.000000D+00  0.000000D+00  0.100000D+01
     14  0.411842D-01  0.000000D+00  0.000000D+00  0.100000D+01
     15  0.000000D+00  0.800005D+00  0.000000D+00  0.000000D+00  0.100000D+01
     16  0.000000D+00  0.000000D+00  0.800005D+00  0.000000D+00  0.000000D+00
     17  0.191808D+00  0.000000D+00  0.000000D+00  0.800005D+00  0.000000D+00
     18  0.000000D+00  0.435538D+00  0.000000D+00  0.000000D+00  0.791423D+00
     19  0.000000D+00  0.000000D+00  0.435538D+00  0.000000D+00  0.000000D+00
     20  0.766846D-01  0.000000D+00  0.000000D+00  0.435538D+00  0.000000D+00
     21  0.000000D+00  0.188576D+00  0.000000D+00  0.000000D+00  0.434867D+00
     22  0.000000D+00  0.000000D+00  0.188576D+00  0.000000D+00  0.000000D+00
     23  0.289446D-01  0.000000D+00  0.000000D+00  0.188576D+00  0.000000D+00
     24  0.000000D+00  0.742563D-01  0.000000D+00  0.000000D+00  0.193966D+00
     25  0.000000D+00  0.000000D+00  0.742563D-01  0.000000D+00  0.000000D+00
     26  0.107297D-01  0.000000D+00  0.000000D+00  0.742563D-01  0.000000D+00
     27  0.000000D+00  0.000000D+00  0.000000D+00  0.000000D+00  0.000000D+00
     28  0.000000D+00  0.000000D+00  0.000000D+00  0.000000D+00  0.000000D+00
     29  0.000000D+00  0.000000D+00  0.000000D+00  0.000000D+00  0.000000D+00
     30  0.000000D+00  0.000000D+00  0.000000D+00  0.000000D+00  0.000000D+00
     31  0.000000D+00  0.000000D+00  0.000000D+00  0.000000D+00  0.000000D+00
     32  0.000000D+00  0.000000D+00  0.000000D+00  0.000000D+00  0.000000D+00
     33  0.000000D+00  0.000000D+00  0.000000D+00  0.000000D+00  0.000000D+00
     34  0.000000D+00  0.000000D+00  0.000000D+00  0.000000D+00  0.000000D+00
     35  0.000000D+00  0.000000D+00  0.000000D+00  0.000000D+00  0.000000D+00
     36  0.000000D+00  0.000000D+00  0.000000D+00  0.000000D+00  0.000000D+00
     37  0.000000D+00  0.000000D+00  0.000000D+00  0.000000D+00  0.000000D+00
     38  0.000000D+00  0.000000D+00  0.000000D+00  0.000000D+00  0.000000D+00
     39  0.000000D+00  0.000000D+00  0.000000D+00  0.000000D+00  0.000000D+00
     40  0.000000D+00  0.000000D+00  0.000000D+00  0.000000D+00  0.000000D+00
     41  0.000000D+00  0.000000D+00  0.000000D+00  0.000000D+00  0.000000D+00
     42  0.000000D+00  0.000000D+00  0.000000D+00  0.000000D+00  0.000000D+00
     43  0.000000D+00  0.000000D+00  0.000000D+00  0.000000D+00  0.000000D+00
     44  0.000000D+00  0.000000D+00  0.000000D+00  0.000000D+00  0.000000D+00
     45  0.000000D+00  0.000000D+00  0.000000D+00  0.000000D+00  0.000000D+00
     46  0.000000D+00  0.000000D+00  0.000000D+00  0.000000D+00  0.000000D+00
     47  0.000000D+00  0.000000D+00  0.000000D+00  0.000000D+00  0.000000D+00
     48  0.000000D+00  0.000000D+00  0.000000D+00  0.000000D+00  0.000000D+00
     49  0.000000D+00  0.000000D+00  0.000000D+00  0.000000D+00  0.000000D+00
     50  0.000000D+00  0.000000D+00  0.000000D+00  0.000000D+00  0.000000D+00
     51  0.000000D+00  0.000000D+00  0.000000D+00  0.000000D+00  0.000000D+00
     52  0.000000D+00  0.000000D+00  0.000000D+00  0.000000D+00  0.000000D+00
     53  0.000000D+00  0.000000D+00  0.000000D+00  0.000000D+00  0.000000D+00
     54  0.000000D+00  0.000000D+00  0.000000D+00  0.000000D+00  0.000000D+00
     55  0.000000D+00  0.000000D+00  0.000000D+00  0.000000D+00  0.000000D+00
     56  0.000000D+00  0.000000D+00  0.000000D+00  0.000000D+00  0.000000D+00
     57  0.000000D+00  0.000000D+00  0.000000D+00  0.000000D+00  0.000000D+00
     58  0.000000D+00  0.000000D+00  0.000000D+00  0.000000D+00  0.000000D+00
     59  0.000000D+00  0.000000D+00  0.000000D+00  0.000000D+00  0.000000D+00
     60  0.000000D+00  0.000000D+00  0.000000D+00  0.000000D+00  0.000000D+00
     61  0.000000D+00  0.000000D+00  0.000000D+00  0.000000D+00  0.000000D+00
     62  0.000000D+00  0.000000D+00  0.000000D+00  0.000000D+00  0.000000D+00
     63  0.000000D+00  0.000000D+00  0.000000D+00  0.000000D+00  0.000000D+00
     64  0.000000D+00  0.000000D+00  0.000000D+00  0.000000D+00  0.000000D+00
     65  0.000000D+00  0.000000D+00  0.000000D+00  0.000000D+00  0.000000D+00
     66  0.000000D+00  0.000000D+00  0.000000D+00  0.000000D+00  0.000000D+00
     67  0.000000D+00  0.000000D+00  0.000000D+00  0.000000D+00  0.000000D+00
     68  0.000000D+00  0.000000D+00  0.000000D+00  0.000000D+00  0.000000D+00
     69  0.000000D+00  0.000000D+00  0.000000D+00  0.000000D+00  0.000000D+00
     70  0.000000D+00  0.000000D+00  0.000000D+00  0.000000D+00  0.000000D+00
     71  0.000000D+00  0.000000D+00  0.000000D+00  0.000000D+00  0.000000D+00
     72  0.000000D+00  0.000000D+00  0.000000D+00  0.000000D+00  0.000000D+00
     73  0.000000D+00  0.000000D+00  0.000000D+00  0.000000D+00  0.000000D+00
     74  0.000000D+00  0.000000D+00  0.000000D+00  0.000000D+00  0.000000D+00
     75  0.000000D+00  0.000000D+00  0.000000D+00  0.000000D+00  0.000000D+00
     76  0.000000D+00  0.000000D+00  0.000000D+00  0.000000D+00  0.000000D+00
     77  0.000000D+00  0.000000D+00  0.000000D+00  0.000000D+00  0.000000D+00
     78  0.000000D+00  0.000000D+00  0.000000D+00  0.000000D+00  0.000000D+00
     79  0.000000D+00  0.000000D+00  0.000000D+00  0.000000D+00  0.000000D+00
     80  0.000000D+00  0.000000D+00  0.000000D+00  0.000000D+00  0.000000D+00
     81  0.000000D+00  0.000000D+00  0.000000D+00  0.000000D+00  0.000000D+00
     82  0.000000D+00  0.000000D+00  0.000000D+00  0.000000D+00  0.000000D+00
     83  0.000000D+00  0.000000D+00  0.000000D+00  0.000000D+00  0.000000D+00
     84  0.000000D+00  0.000000D+00  0.000000D+00  0.000000D+00  0.000000D+00
     85  0.000000D+00  0.000000D+00  0.000000D+00  0.000000D+00  0.000000D+00
               16            17            18            19            20 
     16  0.100000D+01
     17  0.000000D+00  0.100000D+01
     18  0.000000D+00  0.000000D+00  0.100000D+01
     19  0.791423D+00  0.000000D+00  0.000000D+00  0.100000D+01
     20  0.000000D+00  0.791423D+00  0.000000D+00  0.000000D+00  0.100000D+01
     21  0.000000D+00  0.000000D+00  0.804857D+00  0.000000D+00  0.000000D+00
     22  0.434867D+00  0.000000D+00  0.000000D+00  0.804857D+00  0.000000D+00
     23  0.000000D+00  0.434867D+00  0.000000D+00  0.000000D+00  0.804857D+00
     24  0.000000D+00  0.000000D+00  0.456170D+00  0.000000D+00  0.000000D+00
     25  0.193966D+00  0.000000D+00  0.000000D+00  0.456170D+00  0.000000D+00
     26  0.000000D+00  0.193966D+00  0.000000D+00  0.000000D+00  0.456170D+00
     27  0.000000D+00  0.000000D+00  0.000000D+00  0.000000D+00  0.000000D+00
     28  0.000000D+00  0.000000D+00  0.000000D+00  0.000000D+00  0.000000D+00
     29  0.000000D+00  0.000000D+00  0.000000D+00  0.000000D+00  0.000000D+00
     30  0.000000D+00  0.000000D+00  0.000000D+00  0.000000D+00  0.000000D+00
     31  0.000000D+00  0.000000D+00  0.000000D+00  0.000000D+00  0.000000D+00
     32  0.000000D+00  0.000000D+00  0.000000D+00  0.000000D+00  0.000000D+00
     33  0.000000D+00  0.000000D+00  0.000000D+00  0.000000D+00  0.000000D+00
     34  0.000000D+00  0.000000D+00  0.000000D+00  0.000000D+00  0.000000D+00
     35  0.000000D+00  0.000000D+00  0.000000D+00  0.000000D+00  0.000000D+00
     36  0.000000D+00  0.000000D+00  0.000000D+00  0.000000D+00  0.000000D+00
     37  0.000000D+00  0.000000D+00  0.000000D+00  0.000000D+00  0.000000D+00
     38  0.000000D+00  0.000000D+00  0.000000D+00  0.000000D+00  0.000000D+00
     39  0.000000D+00  0.000000D+00  0.000000D+00  0.000000D+00  0.000000D+00
     40  0.000000D+00  0.000000D+00  0.000000D+00  0.000000D+00  0.000000D+00
     41  0.000000D+00  0.000000D+00  0.000000D+00  0.000000D+00  0.000000D+00
     42  0.000000D+00  0.000000D+00  0.000000D+00  0.000000D+00  0.000000D+00
     43  0.000000D+00  0.000000D+00  0.000000D+00  0.000000D+00  0.000000D+00
     44  0.000000D+00  0.000000D+00  0.000000D+00  0.000000D+00  0.000000D+00
     45  0.000000D+00  0.000000D+00  0.000000D+00  0.000000D+00  0.000000D+00
     46  0.000000D+00  0.000000D+00  0.000000D+00  0.000000D+00  0.000000D+00
     47  0.000000D+00  0.000000D+00  0.000000D+00  0.000000D+00  0.000000D+00
     48  0.000000D+00  0.000000D+00  0.000000D+00  0.000000D+00  0.000000D+00
     49  0.000000D+00  0.000000D+00  0.000000D+00  0.000000D+00  0.000000D+00
     50  0.000000D+00  0.000000D+00  0.000000D+00  0.000000D+00  0.000000D+00
     51  0.000000D+00  0.000000D+00  0.000000D+00  0.000000D+00  0.000000D+00
     52  0.000000D+00  0.000000D+00  0.000000D+00  0.000000D+00  0.000000D+00
     53  0.000000D+00  0.000000D+00  0.000000D+00  0.000000D+00  0.000000D+00
     54  0.000000D+00  0.000000D+00  0.000000D+00  0.000000D+00  0.000000D+00
     55  0.000000D+00  0.000000D+00  0.000000D+00  0.000000D+00  0.000000D+00
     56  0.000000D+00  0.000000D+00  0.000000D+00  0.000000D+00  0.000000D+00
     57  0.000000D+00  0.000000D+00  0.000000D+00  0.000000D+00  0.000000D+00
     58  0.000000D+00  0.000000D+00  0.000000D+00  0.000000D+00  0.000000D+00
     59  0.000000D+00  0.000000D+00  0.000000D+00  0.000000D+00  0.000000D+00
     60  0.000000D+00  0.000000D+00  0.000000D+00  0.000000D+00  0.000000D+00
     61  0.000000D+00  0.000000D+00  0.000000D+00  0.000000D+00  0.000000D+00
     62  0.000000D+00  0.000000D+00  0.000000D+00  0.000000D+00  0.000000D+00
     63  0.000000D+00  0.000000D+00  0.000000D+00  0.000000D+00  0.000000D+00
     64  0.000000D+00  0.000000D+00  0.000000D+00  0.000000D+00  0.000000D+00
     65  0.000000D+00  0.000000D+00  0.000000D+00  0.000000D+00  0.000000D+00
     66  0.000000D+00  0.000000D+00  0.000000D+00  0.000000D+00  0.000000D+00
     67  0.000000D+00  0.000000D+00  0.000000D+00  0.000000D+00  0.000000D+00
     68  0.000000D+00  0.000000D+00  0.000000D+00  0.000000D+00  0.000000D+00
     69  0.000000D+00  0.000000D+00  0.000000D+00  0.000000D+00  0.000000D+00
     70  0.000000D+00  0.000000D+00  0.000000D+00  0.000000D+00  0.000000D+00
     71  0.000000D+00  0.000000D+00  0.000000D+00  0.000000D+00  0.000000D+00
     72  0.000000D+00  0.000000D+00  0.000000D+00  0.000000D+00  0.000000D+00
     73  0.000000D+00  0.000000D+00  0.000000D+00  0.000000D+00  0.000000D+00
     74  0.000000D+00  0.000000D+00  0.000000D+00  0.000000D+00  0.000000D+00
     75  0.000000D+00  0.000000D+00  0.000000D+00  0.000000D+00  0.000000D+00
     76  0.000000D+00  0.000000D+00  0.000000D+00  0.000000D+00  0.000000D+00
     77  0.000000D+00  0.000000D+00  0.000000D+00  0.000000D+00  0.000000D+00
     78  0.000000D+00  0.000000D+00  0.000000D+00  0.000000D+00  0.000000D+00
     79  0.000000D+00  0.000000D+00  0.000000D+00  0.000000D+00  0.000000D+00
     80  0.000000D+00  0.000000D+00  0.000000D+00  0.000000D+00  0.000000D+00
     81  0.000000D+00  0.000000D+00  0.000000D+00  0.000000D+00  0.000000D+00
     82  0.000000D+00  0.000000D+00  0.000000D+00  0.000000D+00  0.000000D+00
     83  0.000000D+00  0.000000D+00  0.000000D+00  0.000000D+00  0.000000D+00
     84  0.000000D+00  0.000000D+00  0.000000D+00  0.000000D+00  0.000000D+00
     85  0.000000D+00  0.000000D+00  0.000000D+00  0.000000D+00  0.000000D+00
               21            22            23            24            25 
     21  0.100000D+01
     22  0.000000D+00  0.100000D+01
     23  0.000000D+00  0.000000D+00  0.100000D+01
     24  0.813754D+00  0.000000D+00  0.000000D+00  0.100000D+01
     25  0.000000D+00  0.813754D+00  0.000000D+00  0.000000D+00  0.100000D+01
     26  0.000000D+00  0.000000D+00  0.813754D+00  0.000000D+00  0.000000D+00
     27  0.000000D+00  0.000000D+00  0.000000D+00  0.000000D+00  0.000000D+00
     28  0.000000D+00  0.000000D+00  0.000000D+00  0.000000D+00  0.000000D+00
     29  0.000000D+00  0.000000D+00  0.000000D+00  0.000000D+00  0.000000D+00
     30  0.000000D+00  0.000000D+00  0.000000D+00  0.000000D+00  0.000000D+00
     31  0.000000D+00  0.000000D+00  0.000000D+00  0.000000D+00  0.000000D+00
     32  0.000000D+00  0.000000D+00  0.000000D+00  0.000000D+00  0.000000D+00
     33  0.000000D+00  0.000000D+00  0.000000D+00  0.000000D+00  0.000000D+00
     34  0.000000D+00  0.000000D+00  0.000000D+00  0.000000D+00  0.000000D+00
     35  0.000000D+00  0.000000D+00  0.000000D+00  0.000000D+00  0.000000D+00
     36  0.000000D+00  0.000000D+00  0.000000D+00  0.000000D+00  0.000000D+00
     37  0.000000D+00  0.000000D+00  0.000000D+00  0.000000D+00  0.000000D+00
     38  0.000000D+00  0.000000D+00  0.000000D+00  0.000000D+00  0.000000D+00
     39  0.000000D+00  0.000000D+00  0.000000D+00  0.000000D+00  0.000000D+00
     40  0.000000D+00  0.000000D+00  0.000000D+00  0.000000D+00  0.000000D+00
     41  0.000000D+00  0.000000D+00  0.000000D+00  0.000000D+00  0.000000D+00
     42  0.000000D+00  0.000000D+00  0.000000D+00  0.000000D+00  0.000000D+00
     43  0.000000D+00  0.000000D+00  0.000000D+00  0.000000D+00  0.000000D+00
     44  0.000000D+00  0.000000D+00  0.000000D+00  0.000000D+00  0.000000D+00
     45  0.000000D+00  0.000000D+00  0.000000D+00  0.000000D+00  0.000000D+00
     46  0.000000D+00  0.000000D+00  0.000000D+00  0.000000D+00  0.000000D+00
     47  0.000000D+00  0.000000D+00  0.000000D+00  0.000000D+00  0.000000D+00
     48  0.000000D+00  0.000000D+00  0.000000D+00  0.000000D+00  0.000000D+00
     49  0.000000D+00  0.000000D+00  0.000000D+00  0.000000D+00  0.000000D+00
     50  0.000000D+00  0.000000D+00  0.000000D+00  0.000000D+00  0.000000D+00
     51  0.000000D+00  0.000000D+00  0.000000D+00  0.000000D+00  0.000000D+00
     52  0.000000D+00  0.000000D+00  0.000000D+00  0.000000D+00  0.000000D+00
     53  0.000000D+00  0.000000D+00  0.000000D+00  0.000000D+00  0.000000D+00
     54  0.000000D+00  0.000000D+00  0.000000D+00  0.000000D+00  0.000000D+00
     55  0.000000D+00  0.000000D+00  0.000000D+00  0.000000D+00  0.000000D+00
     56  0.000000D+00  0.000000D+00  0.000000D+00  0.000000D+00  0.000000D+00
     57  0.000000D+00  0.000000D+00  0.000000D+00  0.000000D+00  0.000000D+00
     58  0.000000D+00  0.000000D+00  0.000000D+00  0.000000D+00  0.000000D+00
     59  0.000000D+00  0.000000D+00  0.000000D+00  0.000000D+00  0.000000D+00
     60  0.000000D+00  0.000000D+00  0.000000D+00  0.000000D+00  0.000000D+00
     61  0.000000D+00  0.000000D+00  0.000000D+00  0.000000D+00  0.000000D+00
     62  0.000000D+00  0.000000D+00  0.000000D+00  0.000000D+00  0.000000D+00
     63  0.000000D+00  0.000000D+00  0.000000D+00  0.000000D+00  0.000000D+00
     64  0.000000D+00  0.000000D+00  0.000000D+00  0.000000D+00  0.000000D+00
     65  0.000000D+00  0.000000D+00  0.000000D+00  0.000000D+00  0.000000D+00
     66  0.000000D+00  0.000000D+00  0.000000D+00  0.000000D+00  0.000000D+00
     67  0.000000D+00  0.000000D+00  0.000000D+00  0.000000D+00  0.000000D+00
     68  0.000000D+00  0.000000D+00  0.000000D+00  0.000000D+00  0.000000D+00
     69  0.000000D+00  0.000000D+00  0.000000D+00  0.000000D+00  0.000000D+00
     70  0.000000D+00  0.000000D+00  0.000000D+00  0.000000D+00  0.000000D+00
     71  0.000000D+00  0.000000D+00  0.000000D+00  0.000000D+00  0.000000D+00
     72  0.000000D+00  0.000000D+00  0.000000D+00  0.000000D+00  0.000000D+00
     73  0.000000D+00  0.000000D+00  0.000000D+00  0.000000D+00  0.000000D+00
     74  0.000000D+00  0.000000D+00  0.000000D+00  0.000000D+00  0.000000D+00
     75  0.000000D+00  0.000000D+00  0.000000D+00  0.000000D+00  0.000000D+00
     76  0.000000D+00  0.000000D+00  0.000000D+00  0.000000D+00  0.000000D+00
     77  0.000000D+00  0.000000D+00  0.000000D+00  0.000000D+00  0.000000D+00
     78  0.000000D+00  0.000000D+00  0.000000D+00  0.000000D+00  0.000000D+00
     79  0.000000D+00  0.000000D+00  0.000000D+00  0.000000D+00  0.000000D+00
     80  0.000000D+00  0.000000D+00  0.000000D+00  0.000000D+00  0.000000D+00
     81  0.000000D+00  0.000000D+00  0.000000D+00  0.000000D+00  0.000000D+00
     82  0.000000D+00  0.000000D+00  0.000000D+00  0.000000D+00  0.000000D+00
     83  0.000000D+00  0.000000D+00  0.000000D+00  0.000000D+00  0.000000D+00
     84  0.000000D+00  0.000000D+00  0.000000D+00  0.000000D+00  0.000000D+00
     85  0.000000D+00  0.000000D+00  0.000000D+00  0.000000D+00  0.000000D+00
               26            27            28            29            30 
     26  0.100000D+01
     27  0.000000D+00  0.100000D+01
     28  0.000000D+00  0.000000D+00  0.100000D+01
     29  0.000000D+00  0.000000D+00  0.000000D+00  0.100000D+01
     30  0.000000D+00  0.000000D+00  0.000000D+00  0.000000D+00  0.100000D+01
     31  0.000000D+00  0.000000D+00  0.000000D+00  0.000000D+00  0.000000D+00
     32  0.000000D+00  0.866799D+00  0.000000D+00  0.000000D+00  0.000000D+00
     33  0.000000D+00  0.000000D+00  0.866799D+00  0.000000D+00  0.000000D+00
     34  0.000000D+00  0.000000D+00  0.000000D+00  0.866799D+00  0.000000D+00
     35  0.000000D+00  0.000000D+00  0.000000D+00  0.000000D+00  0.866799D+00
     36  0.000000D+00  0.000000D+00  0.000000D+00  0.000000D+00  0.000000D+00
     37  0.000000D+00  0.577387D+00  0.000000D+00  0.000000D+00  0.000000D+00
     38  0.000000D+00  0.000000D+00  0.577387D+00  0.000000D+00  0.000000D+00
     39  0.000000D+00  0.000000D+00  0.000000D+00  0.577387D+00  0.000000D+00
     40  0.000000D+00  0.000000D+00  0.000000D+00  0.000000D+00  0.577387D+00
     41  0.000000D+00  0.000000D+00  0.000000D+00  0.000000D+00  0.000000D+00
     42  0.000000D+00  0.206866D+00  0.000000D+00  0.000000D+00  0.000000D+00
     43  0.000000D+00  0.000000D+00  0.206866D+00  0.000000D+00  0.000000D+00
     44  0.000000D+00  0.000000D+00  0.000000D+00  0.206866D+00  0.000000D+00
     45  0.000000D+00  0.000000D+00  0.000000D+00  0.000000D+00  0.206866D+00
     46  0.000000D+00  0.000000D+00  0.000000D+00  0.000000D+00  0.000000D+00
     47  0.000000D+00  0.000000D+00  0.000000D+00  0.000000D+00  0.000000D+00
     48  0.000000D+00  0.000000D+00  0.000000D+00  0.000000D+00  0.000000D+00
     49  0.000000D+00  0.000000D+00  0.000000D+00  0.000000D+00  0.000000D+00
     50  0.000000D+00  0.000000D+00  0.000000D+00  0.000000D+00  0.000000D+00
     51  0.000000D+00  0.000000D+00  0.000000D+00  0.000000D+00  0.000000D+00
     52  0.000000D+00  0.000000D+00  0.000000D+00  0.000000D+00  0.000000D+00
     53  0.000000D+00  0.000000D+00  0.000000D+00  0.000000D+00  0.000000D+00
     54  0.000000D+00  0.000000D+00  0.000000D+00  0.000000D+00  0.000000D+00
     55  0.000000D+00  0.000000D+00  0.000000D+00  0.000000D+00  0.000000D+00
     56  0.000000D+00  0.000000D+00  0.000000D+00  0.000000D+00  0.000000D+00
     57  0.000000D+00  0.000000D+00  0.000000D+00  0.000000D+00  0.000000D+00
     58  0.000000D+00  0.000000D+00  0.000000D+00  0.000000D+00  0.000000D+00
     59  0.000000D+00  0.000000D+00  0.000000D+00  0.000000D+00  0.000000D+00
     60  0.000000D+00  0.000000D+00  0.000000D+00  0.000000D+00  0.000000D+00
     61  0.000000D+00  0.000000D+00  0.000000D+00  0.000000D+00  0.000000D+00
     62  0.000000D+00  0.000000D+00  0.000000D+00  0.000000D+00  0.000000D+00
     63  0.000000D+00  0.000000D+00  0.000000D+00  0.000000D+00  0.000000D+00
     64  0.000000D+00  0.000000D+00  0.000000D+00  0.000000D+00  0.000000D+00
     65  0.000000D+00  0.000000D+00  0.000000D+00  0.000000D+00  0.000000D+00
     66  0.000000D+00  0.000000D+00  0.000000D+00  0.000000D+00  0.000000D+00
     67  0.000000D+00  0.000000D+00  0.000000D+00  0.000000D+00  0.000000D+00
[...]
 IDIUse=3 WtCom= 9.94D-01 WtEn= 5.93D-03
 Coeff-Com:  0.293D+00-0.586D+00 0.129D+01
 Coeff-En:   0.000D+00 0.000D+00 0.100D+01
 Coeff:      0.291D+00-0.582D+00 0.129D+01
 Gap=     0.263 Goal=   None    Shift=    0.000
 RMSDP=1.45D-04 MaxDP=3.97D-03 DE=-2.05D-02 OVMax= 8.30D-03

 Cycle   4  Pass 1  IDiag  1:
 E= -162.388632036400     Delta-E=       -0.000053696423 Rises=F Damp=F
 DIIS: error= 1.41D-04 at cycle   4 NSaved=   4.
 NSaved= 4 IEnMin= 4 EnMin= -162.388632036400     IErMin= 4 ErrMin= 1.41D-04
 ErrMax= 1.41D-04  0.00D+00 EMaxC= 1.00D-01 BMatC= 4.14D-07 BMatP= 1.18D-05
 IDIUse=3 WtCom= 9.99D-01 WtEn= 1.41D-03
 Coeff-Com: -0.751D-01 0.152D+00-0.444D+00 0.137D+01
 Coeff-En:   0.000D+00 0.000D+00 0.000D+00 0.100D+01
 Coeff:     -0.750D-01 0.152D+00-0.443D+00 0.137D+01
 Gap=     0.264 Goal=   None    Shift=    0.000
 RMSDP=2.61D-05 MaxDP=7.01D-04 DE=-5.37D-05 OVMax= 1.91D-03

 Cycle   5  Pass 1  IDiag  1:
 E= -162.388634178389     Delta-E=       -0.000002141989 Rises=F Damp=F
 DIIS: error= 2.37D-05 at cycle   5 NSaved=   5.
 NSaved= 5 IEnMin= 5 EnMin= -162.388634178389     IErMin= 5 ErrMin= 2.37D-05
 ErrMax= 2.37D-05  0.00D+00 EMaxC= 1.00D-01 BMatC= 7.67D-09 BMatP= 4.14D-07
 IDIUse=1 WtCom= 1.00D+00 WtEn= 0.00D+00
 Coeff-Com:  0.182D-01-0.368D-01 0.111D+00-0.324D+00 0.123D+01
 Coeff:      0.182D-01-0.368D-01 0.111D+00-0.324D+00 0.123D+01
 Gap=     0.264 Goal=   None    Shift=    0.000
 RMSDP=4.15D-06 MaxDP=1.01D-04 DE=-2.14D-06 OVMax= 2.74D-04

 Cycle   6  Pass 1  IDiag  1:
 E= -162.388634235576     Delta-E=       -0.000000057187 Rises=F Damp=F
 DIIS: error= 8.87D-06 at cycle   6 NSaved=   6.
 NSaved= 6 IEnMin= 6 EnMin= -162.388634235576     IErMin= 6 ErrMin= 8.87D-06
 ErrMax= 8.87D-06  0.00D+00 EMaxC= 1.00D-01 BMatC= 8.36D-10 BMatP= 7.67D-09
 IDIUse=1 WtCom= 1.00D+00 WtEn= 0.00D+00
 Coeff-Com: -0.159D-02 0.320D-02-0.105D-01-0.428D-02-0.310D+00 0.132D+01
 Coeff:     -0.159D-02 0.320D-02-0.105D-01-0.428D-02-0.310D+00 0.132D+01
 Gap=     0.264 Goal=   None    Shift=    0.000
 RMSDP=1.54D-06 MaxDP=3.36D-05 DE=-5.72D-08 OVMax= 1.47D-04

 Cycle   7  Pass 1  IDiag  1:
 E= -162.388634243549     Delta-E=       -0.000000007973 Rises=F Damp=F
 DIIS: error= 1.03D-06 at cycle   7 NSaved=   7.
 NSaved= 7 IEnMin= 7 EnMin= -162.388634243549     IErMin= 7 ErrMin= 1.03D-06
 ErrMax= 1.03D-06  0.00D+00 EMaxC= 1.00D-01 BMatC= 1.59D-11 BMatP= 8.36D-10
 IDIUse=1 WtCom= 1.00D+00 WtEn= 0.00D+00
 Coeff-Com:  0.284D-03-0.569D-03 0.190D-02 0.115D-01 0.803D-01-0.485D+00
 Coeff-Com:  0.139D+01
 Coeff:      0.284D-03-0.569D-03 0.190D-02 0.115D-01 0.803D-01-0.485D+00
 Coeff:      0.139D+01
 Gap=     0.264 Goal=   None    Shift=    0.000
 RMSDP=2.54D-07 MaxDP=6.93D-06 DE=-7.97D-09 OVMax= 1.51D-05

 Cycle   8  Pass 1  IDiag  1:
 E= -162.388634243667     Delta-E=       -0.000000000118 Rises=F Damp=F
 DIIS: error= 1.01D-07 at cycle   8 NSaved=   8.
 NSaved= 8 IEnMin= 8 EnMin= -162.388634243667     IErMin= 8 ErrMin= 1.01D-07
 ErrMax= 1.01D-07  0.00D+00 EMaxC= 1.00D-01 BMatC= 2.23D-13 BMatP= 1.59D-11
 IDIUse=1 WtCom= 1.00D+00 WtEn= 0.00D+00
 Coeff-Com: -0.357D-05 0.590D-05-0.741D-04-0.397D-02-0.133D-01 0.987D-01
 Coeff-Com: -0.365D+00 0.128D+01
 Coeff:     -0.357D-05 0.590D-05-0.741D-04-0.397D-02-0.133D-01 0.987D-01
 Coeff:     -0.365D+00 0.128D+01
 Gap=     0.264 Goal=   None    Shift=    0.000
 RMSDP=3.30D-08 MaxDP=8.60D-07 DE=-1.18D-10 OVMax= 1.97D-06

 Cycle   9  Pass 1  IDiag  1:
 E= -162.388634243669     Delta-E=       -0.000000000002 Rises=F Damp=F
 DIIS: error= 7.18D-09 at cycle   9 NSaved=   9.
 NSaved= 9 IEnMin= 9 EnMin= -162.388634243669     IErMin= 9 ErrMin= 7.18D-09
 ErrMax= 7.18D-09  0.00D+00 EMaxC= 1.00D-01 BMatC= 1.46D-15 BMatP= 2.23D-13
 IDIUse=1 WtCom= 1.00D+00 WtEn= 0.00D+00
 Coeff-Com:  0.215D-05-0.404D-05 0.268D-04 0.861D-03 0.302D-02-0.214D-01
 Coeff-Com:  0.814D-01-0.331D+00 0.127D+01
 Coeff:      0.215D-05-0.404D-05 0.268D-04 0.861D-03 0.302D-02-0.214D-01
 Coeff:      0.814D-01-0.331D+00 0.127D+01
 Gap=     0.264 Goal=   None    Shift=    0.000
 RMSDP=2.15D-09 MaxDP=5.45D-08 DE=-1.56D-12 OVMax= 1.40D-07

 SCF Done:  E(RHF) =  -162.388634244     A.U. after    9 cycles
            NFock=  9  Conv=0.21D-08     -V/T= 1.9999
 KE= 1.624099095443D+02 PE=-3.972118905282D+02 EE= 6.934968920331D+01
 Leave Link  502 at Mon Mar 28 14:22:27 2022, MaxMem=  9663676416 cpu:              34.3 elap:               1.0
 (Enter /nopt/nrel/apps/gaussian/g16C_1/g16/l801.exe)
 Windowed orbitals will be sorted by symmetry type.
 ExpMin= 5.89D-03 ExpMax= 1.22D+06 ExpMxC= 5.43D+02 IAcc=3 IRadAn=         5 AccDes= 0.00D+00
 HarFok:  IExCor=  205 AccDes= 0.00D+00 IRadAn=         5 IDoV=-2 UseB2=F ITyADJ=14
 ICtDFT= 12500011 ScaDFX=  1.000000  1.000000  1.000000  1.000000
 Largest valence mixing into a core orbital is  2.23D-04
 Largest core mixing into a valence orbital is  2.77D-05
 Range of M.O.s used for correlation:     6    85
 NBasis=    85 NAE=     6 NBE=     6 NFC=     5 NFV=     0
 NROrb=     80 NOA=     1 NOB=     1 NVA=    79 NVB=    79
 Leave Link  801 at Mon Mar 28 14:22:27 2022, MaxMem=  9663676416 cpu:               2.1 elap:               0.1
 (Enter /nopt/nrel/apps/gaussian/g16C_1/g16/l804.exe)
 Closed-shell transformation, MDV=  9663676416 ITran=4 ISComp=2.
 Unit  1 TFree=        237426 TCopy=        314388.
 Semi-Direct transformation.
 ModeAB=           2 MOrb=             1 LenV=    9663229161
 LASXX=        63906 LTotXX=       63906 LenRXX=       63906
 LTotAB=       67218 MaxLAS=      488400 LenRXY=      488400
 NonZer=      522240 LenScr=     1566720 LnRSAI=           0
 LnScr1=           0 LExtra=      321724 Total=      2440750
 MaxDsk= 34359738368 SrtSym=           F ITran=            4
 DoSDTr:  NPSUse= 36
 JobTyp=0 Pass  1:  I=   1 to   1.
 (rs|ai) integrals will be sorted in core.
 Complete sort for first half transformation.
 First half transformation complete.
 Complete sort for second half transformation.
 Second half transformation complete.
 Spin components of T(2) and E(2):
     alpha-alpha T2 =       0.0000000000D+00 E2=      0.0000000000D+00
     alpha-beta  T2 =       0.1542655593D-01 E2=     -0.2116546339D-01
     beta-beta   T2 =       0.0000000000D+00 E2=      0.0000000000D+00
 ANorm=    0.1007683758D+01
 E2 =    -0.2116546339D-01 EUMP2 =    -0.16240979970706D+03
 Leave Link  804 at Mon Mar 28 14:22:28 2022, MaxMem=  9663676416 cpu:              24.2 elap:               0.7
 (Enter /nopt/nrel/apps/gaussian/g16C_1/g16/l913.exe)
 CIDS:  MDV=  9663676416.
 Frozen-core window:  NFC=   5 NFV=   0.
 IFCWin=0 IBDFC=1 NFBD=     0     0 NFCmp=     0     0 NFFFC=     0     0
 Using DD3R+UMP44R for 1st iteration.
 Using DD4RQ for 2nd and later iterations.
 Keep R2 and R3 ints in memory in symmetry-blocked form, NReq=47443096.
 FoFCou: FMM=F IPFlag=           0 FMFlag=           0 FMFlg1=           0
         NFxFlg=           0 DoJE=F BraDBF=F KetDBF=F FulRan=T
         wScrn=  0.000000 ICntrl=       600 IOpCl=  0 I1Cent=           0 NGrid=           0
         NMat0=    1 NMatS0=   3655 NMatT0=    0 NMatD0=    1 NMtDS0=    0 NMtDT0=    0
 Petite list used in FoFCou.
 CIDS: In Core Option IDoMem=           1.
 Coupled Cluster theory with single and double substitutions
 ===========================================================
 Iterations= 200 Convergence= 0.100D-06
 Produce multiple copies of IABC intergrals
 Iteration Nr.   1
 **********************
 DD1Dir will call FoFMem   1 times, MxPair=         2
 NAB=     1 NAA=     0 NBB=     0.
 MP4(R+Q)=  0.32651020D-03
 Maximum subspace dimension=  5
 A-vector RMS=  3.2862851D-03 Max=  6.9170110D-03 conv= 1.00D-05.
 RLE energy=       -0.0286278370
 E3=       -0.58484602D-02        EUMP3=      -0.16241564817D+03
 E4(DQ)=   -0.19445484D-02        UMP4(DQ)=   -0.16241759272D+03
 E4(SDQ)=  -0.20787865D-02        UMP4(SDQ)=  -0.16241772695D+03
 VARIATIONAL ENERGIES WITH THE FIRST-ORDER WAVEFUNCTION:
 DE(Corr)= -0.26682633E-01 E(Corr)=     -162.41531688    
 NORM(A)=   0.10151426D+01
 Iteration Nr.   2
 **********************
 DD1Dir will call FoFMem   1 times, MxPair=         2
 NAB=     1 NAA=     0 NBB=     0.
 A-vector RMS=  1.6394038D-03 Max=  3.8325380D-03 conv= 1.00D-05.
 RLE energy=       -0.0301242760
 DE(Corr)= -0.29524663E-01 E(CORR)=     -162.41815891     Delta=-2.84D-03
 NORM(A)=   0.10180251D+01
 Iteration Nr.   3
 **********************
 DD1Dir will call FoFMem   1 times, MxPair=         2
 NAB=     1 NAA=     0 NBB=     0.
 A-vector RMS=  1.5851704D-03 Max=  4.4612975D-03 conv= 1.00D-05.
 RLE energy=       -0.0303766233
 DE(Corr)= -0.30112076E-01 E(CORR)=     -162.41874632     Delta=-5.87D-04
 NORM(A)=   0.10195005D+01
 Iteration Nr.   4
 **********************
 DD1Dir will call FoFMem   1 times, MxPair=         2
 NAB=     1 NAA=     0 NBB=     0.
 A-vector RMS=  5.6705783D-04 Max=  1.7999037D-03 conv= 1.00D-05.
 RLE energy=       -0.0305008892
 DE(Corr)= -0.30406992E-01 E(CORR)=     -162.41904124     Delta=-2.95D-04
 NORM(A)=   0.10204901D+01
 Iteration Nr.   5
 **********************
 DD1Dir will call FoFMem   1 times, MxPair=         2
 NAB=     1 NAA=     0 NBB=     0.
 A-vector RMS=  2.6828040D-04 Max=  8.3280475D-04 conv= 1.00D-05.
 RLE energy=       -0.0305167011
 DE(Corr)= -0.30498000E-01 E(CORR)=     -162.41913224     Delta=-9.10D-05
 NORM(A)=   0.10207604D+01
 Iteration Nr.   6
 **********************
 DD1Dir will call FoFMem   1 times, MxPair=         2
 NAB=     1 NAA=     0 NBB=     0.
 A-vector RMS=  9.0110539D-05 Max=  2.8727116D-04 conv= 1.00D-05.
 RLE energy=       -0.0305084204
 DE(Corr)= -0.30511845E-01 E(CORR)=     -162.41914609     Delta=-1.38D-05
 NORM(A)=   0.10207974D+01
 Iteration Nr.   7
 **********************
 DD1Dir will call FoFMem   1 times, MxPair=         2
 NAB=     1 NAA=     0 NBB=     0.
 A-vector RMS=  4.1538755D-05 Max=  8.8040263D-05 conv= 1.00D-05.
 RLE energy=       -0.0305098821
 DE(Corr)= -0.30510875E-01 E(CORR)=     -162.41914512     Delta= 9.70D-07
 NORM(A)=   0.10208105D+01
 Iteration Nr.   8
 **********************
 DD1Dir will call FoFMem   1 times, MxPair=         2
 NAB=     1 NAA=     0 NBB=     0.
 A-vector RMS=  1.3092105D-05 Max=  3.5660457D-05 conv= 1.00D-05.
 RLE energy=       -0.0305112973
 DE(Corr)= -0.30510834E-01 E(CORR)=     -162.41914508     Delta= 4.14D-08
 NORM(A)=   0.10208131D+01
 Iteration Nr.   9
 **********************
 DD1Dir will call FoFMem   1 times, MxPair=         2
 NAB=     1 NAA=     0 NBB=     0.
 A-vector RMS=  4.1621482D-06 Max=  9.8429896D-06 conv= 1.00D-05.
 RLE energy=       -0.0305117095
 DE(Corr)= -0.30511534E-01 E(CORR)=     -162.41914578     Delta=-7.00D-07
 NORM(A)=   0.10208137D+01
 Iteration Nr.  10
 **********************
 DD1Dir will call FoFMem   1 times, MxPair=         2
 NAB=     1 NAA=     0 NBB=     0.
 A-vector RMS=  1.9807450D-06 Max=  3.4492232D-06 conv= 1.00D-05.
 RLE energy=       -0.0305119547
 DE(Corr)= -0.30511779E-01 E(CORR)=     -162.41914602     Delta=-2.45D-07
 NORM(A)=   0.10208145D+01
 Iteration Nr.  11
 **********************
 DD1Dir will call FoFMem   1 times, MxPair=         2
 NAB=     1 NAA=     0 NBB=     0.
 A-vector RMS=  9.8526427D-07 Max=  2.1510537D-06 conv= 1.00D-05.
 RLE energy=       -0.0305120345
 DE(Corr)= -0.30511948E-01 E(CORR)=     -162.41914619     Delta=-1.69D-07
 NORM(A)=   0.10208153D+01
 Iteration Nr.  12
 **********************
 DD1Dir will call FoFMem   1 times, MxPair=         2
 NAB=     1 NAA=     0 NBB=     0.
 A-vector RMS=  5.7046765D-07 Max=  1.4650955D-06 conv= 1.00D-05.
 RLE energy=       -0.0305120930
 DE(Corr)= -0.30512034E-01 E(CORR)=     -162.41914628     Delta=-8.57D-08
 NORM(A)=   0.10208159D+01
 CI/CC converged in   12 iterations to DelEn=-8.57D-08 Conv= 1.00D-07 ErrA1= 5.70D-07 Conv= 1.00D-05
 Wavefunction amplitudes converged. E(Corr)=     -162.41914628    
 Largest amplitude= 3.07D-02
 Discarding MO integrals.
 Leave Link  913 at Mon Mar 28 14:22:29 2022, MaxMem=  9663676416 cpu:              31.5 elap:               0.9
 (Enter /nopt/nrel/apps/gaussian/g16C_1/g16/l601.exe)
 Copying SCF densities to generalized density rwf, IOpCl= 0 IROHF=0.

 **********************************************************************

            Population analysis using the SCF Density.

 **********************************************************************

 Orbital symmetries:
       Occupied  (SG) (SG) (PI) (PI) (SG) (SG)
       Virtual   (SG) (PI) (PI) (SG) (SG) (PI) (PI) (SG) (DLTA)
                 (DLTA) (PI) (PI) (SG) (SG) (PI) (PI) (SG) (DLTA)
                 (DLTA) (PI) (PI) (SG) (PHI) (PHI) (DLTA) (DLTA)
                 (PI) (PI) (SG) (PI) (PI) (SG) (SG) (DLTA) (DLTA)
                 (PI) (PI) (?A) (?A) (PHI) (PHI) (DLTA) (DLTA)
                 (SG) (PI) (PI) (SG) (PHI) (PHI) (PI) (PI) (DLTA)
                 (DLTA) (SG) (PI) (PI) (DLTA) (DLTA) (SG) (PI)
                 (PI) (SG) (PI) (PI) (PHI) (PHI) (SG) (DLTA) (DLTA)
                 (?A) (?A) (PHI) (PHI) (PI) (PI) (DLTA) (DLTA)
                 (SG) (SG)
 The electronic state is 1-SG.
 Alpha  occ. eigenvalues --  -40.46481  -2.78731  -1.50936  -1.50936  -1.50736
 Alpha  occ. eigenvalues --   -0.27310
 Alpha virt. eigenvalues --   -0.00903   0.00978   0.00978   0.01379   0.01906
 Alpha virt. eigenvalues --    0.03221   0.03221   0.04666   0.05557   0.05557
 Alpha virt. eigenvalues --    0.06342   0.06342   0.07163   0.08173   0.09387
 Alpha virt. eigenvalues --    0.09387   0.13725   0.16038   0.16038   0.16413
 Alpha virt. eigenvalues --    0.16413   0.17779   0.17808   0.17808   0.19186
 Alpha virt. eigenvalues --    0.19186   0.19999   0.19999   0.23889   0.26062
 Alpha virt. eigenvalues --    0.26062   0.26720   0.33979   0.39023   0.39023
 Alpha virt. eigenvalues --    0.39630   0.39630   0.42070   0.42070   0.42569
 Alpha virt. eigenvalues --    0.42569   0.42979   0.42979   0.43024   0.43208
 Alpha virt. eigenvalues --    0.43208   0.45773   0.49746   0.49746   0.50663
 Alpha virt. eigenvalues --    0.50663   0.51255   0.51255   0.78667   0.80400
 Alpha virt. eigenvalues --    0.80400   0.80451   0.80451   0.91541   0.92921
 Alpha virt. eigenvalues --    0.92921   0.97836   1.08713   1.08713   1.09316
 Alpha virt. eigenvalues --    1.09316   1.09353   1.09370   1.09370   1.09599
 Alpha virt. eigenvalues --    1.09599   1.14028   1.14028   1.14613   1.14613
 Alpha virt. eigenvalues --    1.15661   1.15661   1.63156   2.10687
          Condensed to atoms (all electrons):
               1          2
     1  H    0.399406   0.391150
     2  Na   0.391150  10.818294
 Mulliken charges:
               1
     1  H    0.209444
     2  Na  -0.209444
 Sum of Mulliken charges =   0.00000
 Mulliken charges with hydrogens summed into heavy atoms:
               1
     2  Na   0.000000
 N-N= 3.063657536905D+00 E-N=-3.972118905571D+02  KE= 1.624099095443D+02
 Symmetry A1   KE= 1.388467208963D+02
 Symmetry A2   KE=-1.314020286090D-51
 Symmetry B1   KE= 1.178159432399D+01
 Symmetry B2   KE= 1.178159432399D+01

 Atomic contributions to Alpha molecular orbitals:
 Alpha occ 1 OE=-40.465 is Na2-s=1.0000
 Alpha occ 2 OE=-2.787 is Na2-s=0.9996
 Alpha occ 3 OE=-1.509 is Na2-p=1.0000
 Alpha occ 4 OE=-1.509 is Na2-p=1.0000
 Alpha occ 5 OE=-1.507 is Na2-p=0.9989
 Alpha occ 6 OE=-0.273 is H1-s=0.3944 Na2-s=0.3299 Na2-p=0.1871
 Alpha vir 7 OE=-0.009 is Na2-s=0.5483 Na2-p=0.4369
 Alpha vir 8 OE=0.010 is Na2-p=0.9732
 Alpha vir 9 OE=0.010 is Na2-p=0.9732
 Alpha vir 10 OE=0.014 is Na2-p=0.5988 Na2-s=0.3941
 Alpha vir 11 OE=0.019 is Na2-s=0.5468 Na2-p=0.4252
 Alpha vir 12 OE=0.032 is Na2-p=0.8711 Na2-d=0.1283
 Alpha vir 13 OE=0.032 is Na2-p=0.8711 Na2-d=0.1283
 Alpha vir 14 OE=0.047 is Na2-d=0.5732 Na2-p=0.3198
 Alpha vir 15 OE=0.056 is Na2-d=0.9923
 Alpha vir 16 OE=0.056 is Na2-d=0.9923
 Alpha vir 17 OE=0.063 is Na2-d=0.8384 Na2-p=0.1486
 Alpha vir 18 OE=0.063 is Na2-d=0.8384 Na2-p=0.1486
 Alpha vir 19 OE=0.072 is Na2-p=0.4433 Na2-s=0.4082 Na2-d=0.1366
 Alpha vir 20 OE=0.082 is Na2-s=0.4867 Na2-p=0.2589 Na2-d=0.2412
 Alpha vir 21 OE=0.094 is Na2-p=0.9481
 Alpha vir 22 OE=0.094 is Na2-p=0.9481
 Alpha vir 23 OE=0.137 is Na2-d=0.6896 Na2-p=0.1844
 Alpha vir 24 OE=0.160 is Na2-d=0.7376 Na2-f=0.2616
 Alpha vir 25 OE=0.160 is Na2-d=0.7376 Na2-f=0.2616
 Alpha vir 26 OE=0.164 is Na2-d=0.5824 Na2-f=0.3759
 Alpha vir 27 OE=0.164 is Na2-d=0.5824 Na2-f=0.3759
 Alpha vir 28 OE=0.178 is Na2-f=0.8511
 Alpha vir 29 OE=0.178 is Na2-f=0.9961
 Alpha vir 30 OE=0.178 is Na2-f=0.9961
 Alpha vir 31 OE=0.192 is Na2-f=0.7249 Na2-d=0.2677
 Alpha vir 32 OE=0.192 is Na2-f=0.7249 Na2-d=0.2677
 Alpha vir 33 OE=0.200 is Na2-f=0.6008 Na2-d=0.3711
 Alpha vir 34 OE=0.200 is Na2-f=0.6008 Na2-d=0.3711
 Alpha vir 35 OE=0.239 is Na2-p=0.5948 Na2-s=0.2413
 Alpha vir 36 OE=0.261 is Na2-p=0.9665
 Alpha vir 37 OE=0.261 is Na2-p=0.9665
 Alpha vir 38 OE=0.267 is Na2-s=0.7213 Na2-p=0.1540
 Alpha vir 39 OE=0.340 is Na2-d=0.7246 Na2-p=0.1118
 Alpha vir 40 OE=0.390 is Na2-d=0.9499
 Alpha vir 41 OE=0.390 is Na2-d=0.9499
 Alpha vir 42 OE=0.396 is Na2-d=0.8682
 Alpha vir 43 OE=0.396 is Na2-d=0.8682
 Alpha vir 44 OE=0.421 is Na2-g=1.0000
 Alpha vir 45 OE=0.421 is Na2-g=1.0000
 Alpha vir 46 OE=0.426 is Na2-g=0.9570
 Alpha vir 47 OE=0.426 is Na2-g=0.9570
 Alpha vir 48 OE=0.430 is Na2-g=0.9315
 Alpha vir 49 OE=0.430 is Na2-g=0.9315
 Alpha vir 50 OE=0.430 is Na2-g=0.9070
 Alpha vir 51 OE=0.432 is Na2-g=0.9073
 Alpha vir 52 OE=0.432 is Na2-g=0.9073
 Alpha vir 53 OE=0.458 is Na2-f=0.8237
 Alpha vir 54 OE=0.497 is Na2-f=0.9598
 Alpha vir 55 OE=0.497 is Na2-f=0.9598
 Alpha vir 56 OE=0.507 is Na2-f=0.9167
 Alpha vir 57 OE=0.507 is Na2-f=0.9167
 Alpha vir 58 OE=0.513 is Na2-f=0.9053
 Alpha vir 59 OE=0.513 is Na2-f=0.9053
 Alpha vir 60 OE=0.787 is Na2-d=0.9372
 Alpha vir 61 OE=0.804 is Na2-d=0.9208
 Alpha vir 62 OE=0.804 is Na2-d=0.9208
 Alpha vir 63 OE=0.805 is Na2-d=0.9916
 Alpha vir 64 OE=0.805 is Na2-d=0.9916
 Alpha vir 65 OE=0.915 is Na2-p=0.8997
 Alpha vir 66 OE=0.929 is Na2-p=0.9298
 Alpha vir 67 OE=0.929 is Na2-p=0.9298
 Alpha vir 68 OE=0.978 is Na2-g=0.4268 Na2-f=0.1964 Na2-p=0.1367 H1-s=0.1175 Na2-d=0.1031
 Alpha vir 69 OE=1.087 is Na2-g=0.8698 Na2-f=0.1262
 Alpha vir 70 OE=1.087 is Na2-g=0.8698 Na2-f=0.1262
 Alpha vir 71 OE=1.093 is Na2-g=0.7230 Na2-f=0.2770
 Alpha vir 72 OE=1.093 is Na2-g=0.7230 Na2-f=0.2770
 Alpha vir 73 OE=1.094 is Na2-f=0.6542 Na2-g=0.3382
 Alpha vir 74 OE=1.094 is Na2-g=0.7359 Na2-f=0.2619
 Alpha vir 75 OE=1.094 is Na2-g=0.7359 Na2-f=0.2619
 Alpha vir 76 OE=1.096 is Na2-g=1.0000
 Alpha vir 77 OE=1.096 is Na2-g=1.0000
 Alpha vir 78 OE=1.140 is Na2-f=0.7241 Na2-g=0.2759
 Alpha vir 79 OE=1.140 is Na2-f=0.7241 Na2-g=0.2759
 Alpha vir 80 OE=1.146 is Na2-f=0.8598 Na2-g=0.1289
 Alpha vir 81 OE=1.146 is Na2-f=0.8598 Na2-g=0.1289
 Alpha vir 82 OE=1.157 is Na2-f=0.7317 Na2-g=0.2621
 Alpha vir 83 OE=1.157 is Na2-f=0.7317 Na2-g=0.2621
 Alpha vir 84 OE=1.632 is H1-s=0.2624 Na2-f=0.2183 Na2-g=0.1984 Na2-s=0.1689
 Alpha vir 85 OE=2.107 is Na2-s=0.8534
 
 Leave Link  601 at Mon Mar 28 14:22:29 2022, MaxMem=  9663676416 cpu:               6.9 elap:               0.2
 (Enter /nopt/nrel/apps/gaussian/g16C_1/g16/l9999.exe)

 Test job not archived.
 1\1\GINC-R102U34\SP\RCCSD-FC\Gen\H1Na1\USER\28-Mar-2022\0\\#P CCSD
 (MaxCyc=200,SaveAmplitudes,ReadAmplitudes)/GEN sp pop=AllOrbitals iop(
 3/33=1,3/36=-1)\\test\\0,1\H,0,0.,0.,0.\Na,0,0.,0.,1.9\\Version=ES64L-
 G16RevC.01\State=1-SG\HF=-162.3886342\MP2=-162.4097997\MP3=-162.415648
 2\MP4D=-162.4179192\MP4DQ=-162.4175927\MP4SDQ=-162.417727\CCSD=-162.41
 91463\RMSD=2.150e-09\PG=C*V [C*(H1Na1)]\\@


 WHERE THERE IS MUCH DESIRE TO LEARN, THERE OF NECESSITY WILL BE
 MUCH ARGUING, MUCH WRITING, MANY OPINIONS; FOR OPINION IN GOOD MEN
 IS BUT KNOWLEDGE IN THE MAKING. -- JOHN MILTON.
 Job cpu time:       0 days  0 hours  2 minutes  2.9 seconds.
 Elapsed time:       0 days  0 hours  0 minutes  3.8 seconds.
 File lengths (MBytes):  RWF=     23 Int=      0 D2E=      0 Chk=      2 Scr=      1
 Normal termination of Gaussian 16 at Mon Mar 28 14:22:29 2022.
