 Entering Gaussian System, Link 0=g16
 Initial command:
 /nopt/nrel/apps/gaussian/g16C_1/g16/l1.exe "/lustre/eaglefs/scratch/user/qc/kh-dissc/kh-1-ccsd-2.1-631g/Gau-20714.inp" -scrdir="/lustre/eaglefs/scratch/user/qc/kh-dissc/kh-1-ccsd-2.1-631g/"
 Default is to use a total of  36 processors:
                               36 via shared-memory
                                1 via Linda
 Entering Link 1 = /nopt/nrel/apps/gaussian/g16C_1/g16/l1.exe PID=     20715.
  
 Copyright (c) 1988-2019, Gaussian, Inc.  All Rights Reserved.
  
 This is part of the Gaussian(R) 16 program.  It is based on
 the Gaussian(R) 09 system (copyright 2009, Gaussian, Inc.),
 the Gaussian(R) 03 system (copyright 2003, Gaussian, Inc.),
 the Gaussian(R) 98 system (copyright 1998, Gaussian, Inc.),
 the Gaussian(R) 94 system (copyright 1995, Gaussian, Inc.),
 the Gaussian 92(TM) system (copyright 1992, Gaussian, Inc.),
 the Gaussian 90(TM) system (copyright 1990, Gaussian, Inc.),
 the Gaussian 88(TM) system (copyright 1988, Gaussian, Inc.),
 the Gaussian 86(TM) system (copyright 1986, Carnegie Mellon
 University), and the Gaussian 82(TM) system (copyright 1983,
 Carnegie Mellon University). Gaussian is a federally registered
 trademark of Gaussian, Inc.
  
 This software contains proprietary and confidential information,
 including trade secrets, belonging to Gaussian, Inc.
  
 This software is provided under written license and may be
 used, copied, transmitted, or stored only in accord with that
 written license.
  
 The following legend is applicable only to US Government
 contracts under FAR:
  
                    RESTRICTED RIGHTS LEGEND
  
 Use, reproduction and disclosure by the US Government is
 subject to restrictions as set forth in subparagraphs (a)
 and (c) of the Commercial Computer Software - Restricted
 Rights clause in FAR 52.227-19.
  
 Gaussian, Inc.
 340 Quinnipiac St., Bldg. 40, Wallingford CT 06492
  
  
 ---------------------------------------------------------------
 Warning -- This program may not be used in any manner that
 competes with the business of Gaussian, Inc. or will provide
 assistance to any competitor of Gaussian, Inc.  The licensee
 of this program is prohibited from giving any competitor of
 Gaussian, Inc. access to this program.  By using this program,
 the user acknowledges that Gaussian, Inc. is engaged in the
 business of creating and licensing software in the field of
 computational chemistry and represents and warrants to the
 licensee that it is not a competitor of Gaussian, Inc. and that
 it will not use this program in any manner prohibited above.
 ---------------------------------------------------------------
  

 Cite this work as:
 Gaussian 16, Revision C.01,
 M. J. Frisch, G. W. Trucks, H. B. Schlegel, G. E. Scuseria, 
 M. A. Robb, J. R. Cheeseman, G. Scalmani, V. Barone, 
 G. A. Petersson, H. Nakatsuji, X. Li, M. Caricato, A. V. Marenich, 
 J. Bloino, B. G. Janesko, R. Gomperts, B. Mennucci, H. P. Hratchian, 
 J. V. Ortiz, A. F. Izmaylov, J. L. Sonnenberg, D. Williams-Young, 
 F. Ding, F. Lipparini, F. Egidi, J. Goings, B. Peng, A. Petrone, 
 T. Henderson, D. Ranasinghe, V. G. Zakrzewski, J. Gao, N. Rega, 
 G. Zheng, W. Liang, M. Hada, M. Ehara, K. Toyota, R. Fukuda, 
 J. Hasegawa, M. Ishida, T. Nakajima, Y. Honda, O. Kitao, H. Nakai, 
 T. Vreven, K. Throssell, J. A. Montgomery, Jr., J. E. Peralta, 
 F. Ogliaro, M. J. Bearpark, J. J. Heyd, E. N. Brothers, K. N. Kudin, 
 V. N. Staroverov, T. A. Keith, R. Kobayashi, J. Normand, 
 K. Raghavachari, A. P. Rendell, J. C. Burant, S. S. Iyengar, 
 J. Tomasi, M. Cossi, J. M. Millam, M. Klene, C. Adamo, R. Cammi, 
 J. W. Ochterski, R. L. Martin, K. Morokuma, O. Farkas, 
 J. B. Foresman, and D. J. Fox, Gaussian, Inc., Wallingford CT, 2019.
 
 ******************************************
 Gaussian 16:  ES64L-G16RevC.01  3-Jul-2019
                28-Mar-2022 
 ******************************************
 %chk=molecule
 Default route: CacheSize=180224 MaxDisk=256GB
 ----------------------------------------------------------------------
 #P CCSD(MaxCyc=200,SaveAmplitudes,ReadAmplitudes)/GEN sp pop=AllOrbita
 ls iop(3/33=1,3/36=-1)
 ----------------------------------------------------------------------
 1/4=180224,38=1,172=1/1;
 2/4=180224,12=2,17=6,18=5,40=1/2;
 3/4=180224,5=7,11=9,25=1,30=1,33=1,36=-1/1,2,3;
 4/4=180224/1;
 5/4=180224,5=2,38=5/2;
 8/4=180224,6=4,9=120000,10=1,24=1/1,4;
 9/4=180224,5=7,6=200,77=1/13;
 6/4=180224,7=2,8=2,9=2,10=2,96=-1/1;
 99/4=180224,5=1,9=1/99;
 Leave Link    1 at Mon Mar 28 14:31:48 2022, MaxMem=           0 cpu:               1.8 elap:               0.1
 (Enter /nopt/nrel/apps/gaussian/g16C_1/g16/l101.exe)
 ----
 test
 ----
 Symbolic Z-matrix:
 Charge =  0 Multiplicity = 1
 H                     0.        0.        0. 
 K                     0.        0.        2.1 
 
 ITRead=  0  0
 MicOpt= -1 -1
 NAtoms=      2 NQM=        2 NQMF=       0 NMMI=      0 NMMIF=      0
                NMic=       0 NMicF=      0.
                    Isotopes and Nuclear Properties:
 (Nuclear quadrupole moments (NQMom) in fm**2, nuclear magnetic moments (NMagM)
  in nuclear magnetons)

  Atom         1           2
 IAtWgt=           1          39
 AtmWgt=   1.0078250  38.9637079
 NucSpn=           1           3
 AtZEff=  -0.0000000  -0.0000000
 NQMom=    0.0000000   5.8500000
 NMagM=    2.7928460   0.3914660
 AtZNuc=   1.0000000  19.0000000
 Leave Link  101 at Mon Mar 28 14:31:48 2022, MaxMem=  9663676416 cpu:               2.9 elap:               0.1
 (Enter /nopt/nrel/apps/gaussian/g16C_1/g16/l202.exe)
                          Input orientation:                          
 ---------------------------------------------------------------------
 Center     Atomic      Atomic             Coordinates (Angstroms)
 Number     Number       Type             X           Y           Z
 ---------------------------------------------------------------------
      1          1           0        0.000000    0.000000    0.000000
      2         19           0        0.000000    0.000000    2.100000
 ---------------------------------------------------------------------
 Stoichiometry    HK
 Framework group  C*V[C*(HK)]
 Deg. of freedom     1
 Full point group                 C*V     NOp   4
 Largest Abelian subgroup         C2V     NOp   4
 Largest concise Abelian subgroup C1      NOp   1
                         Standard orientation:                         
 ---------------------------------------------------------------------
 Center     Atomic      Atomic             Coordinates (Angstroms)
 Number     Number       Type             X           Y           Z
 ---------------------------------------------------------------------
      1          1           0        0.000000    0.000000   -1.995000
      2         19           0        0.000000    0.000000    0.105000
 ---------------------------------------------------------------------
 Rotational constants (GHZ):           0.0000000         116.6497983         116.6497983
 Leave Link  202 at Mon Mar 28 14:31:48 2022, MaxMem=  9663676416 cpu:               1.0 elap:               0.0
 (Enter /nopt/nrel/apps/gaussian/g16C_1/g16/l301.exe)
 General basis read from cards:  (5D, 7F)
                         Coordinates in L301:                         
 ---------------------------------------------------------------------
 Center     Atomic      Atomic             Coordinates (Angstroms)
 Number     Number       Type             X           Y           Z
 ---------------------------------------------------------------------
      1          1           0        0.000000    0.000000   -1.995000
      2         19           0        0.000000    0.000000    0.105000
 ---------------------------------------------------------------------
 Centers:       1
 STO-3G
 ****
 Centers:       2
 6-31G
 ****
 FixB: optimizing general contractions.
 Ernie: Thresh=  0.10000D-02 Tol=  0.10000D-05 Strict=F.
 IA=     1 ShT= 0 ShC= 0 NL=   1 NS=   0.
 IA=     1 L=0 SC=0 ISt=    0 NBk=    0 NP=    0 IndPr=    0.
 IA=     2 ShT= 0 ShC= 0 NL=   1 NS=   0.
 IA=     2 L=0 SC=0 ISt=    0 NBk=    0 NP=    0 IndPr=    0.
 IA=     2 ShT= 1 ShC= 0 NL=   4 NS=   1.
 IA=     2 L=1 SC=0 ISt=    1 NBk=    3 NP=   15 IndPr=    0.
 DoElim1:  L=1 select primitive    1 from    2 using    1 C=-2.50D-03
 DoElim1:  L=1 select primitive    1 from    3 using    1 C=-2.50D-03
 DoElim1:  L=1 select primitive    5 from    3 using    2 C= 1.28D-02
 DoElim2:  L=1 select primitive   15 from    2 using    3 C= 1.14D+00
 DoElim2:  L=1 select primitive   15 from    1 using    3 C= 1.14D+00
 DoElim2:  L=1 select primitive   10 from    1 using    2 C=-5.59D-01
 DoElim1:  L=1 select primitive    1 from    2 using    1 C= 4.09D-03
 DoElim1:  L=1 select primitive    1 from    3 using    1 C= 4.09D-03
 DoElim1:  L=1 select primitive    5 from    3 using    2 C=-1.22D-02
 DoElim2:  L=1 select primitive   15 from    2 using    3 C= 1.01D+00
 DoElim2:  L=1 select primitive   15 from    1 using    3 C= 1.01D+00
 DoElim2:  L=1 select primitive   10 from    1 using    2 C= 4.28D-01
 Delete L=1 primitive   14 from    3 C=  0.00D+00.
 Delete L=1 primitive   12 from    3 C=  0.00D+00.
 Delete L=1 primitive   10 from    3 C=  0.00D+00.
 Delete L=1 primitive    9 from    3 C=  0.00D+00.
 Delete L=1 primitive    8 from    3 C=  0.00D+00.
 Delete L=1 primitive    7 from    3 C=  0.00D+00.
 Delete L=1 primitive    6 from    3 C=  0.00D+00.
 Delete L=1 primitive    5 from    3 C=  0.00D+00.
 Delete L=1 primitive    4 from    3 C=  0.00D+00.
 Delete L=1 primitive    3 from    3 C=  0.00D+00.
 Delete L=1 primitive    2 from    3 C=  0.00D+00.
 Delete L=1 primitive    1 from    3 C=  0.00D+00.
 Delete L=1 primitive   15 from    2 C=  0.00D+00.
 Delete L=1 primitive   13 from    2 C=  0.00D+00.
 Delete L=1 primitive   11 from    2 C=  0.00D+00.
 Delete L=1 primitive    8 from    2 C=  0.00D+00.
 Delete L=1 primitive    6 from    2 C=  0.00D+00.
 Delete L=1 primitive    4 from    2 C=  0.00D+00.
 Delete L=1 primitive    3 from    2 C=  0.00D+00.
 Delete L=1 primitive    2 from    2 C=  0.00D+00.
 Delete L=1 primitive    1 from    2 C=  0.00D+00.
 Delete L=1 primitive   15 from    1 C=  0.00D+00.
 Delete L=1 primitive   14 from    1 C=  0.00D+00.
 Delete L=1 primitive   13 from    1 C=  0.00D+00.
 Delete L=1 primitive   12 from    1 C=  0.00D+00.
 Delete L=1 primitive   11 from    1 C=  0.00D+00.
 Delete L=1 primitive   10 from    1 C=  0.00D+00.
 Delete L=1 primitive    9 from    1 C=  0.00D+00.
 Delete L=1 primitive    7 from    1 C=  0.00D+00.
 Delete L=1 primitive    5 from    1 C=  0.00D+00.
 IA=     2 L=1 SC=0 ISt=    0 NBk=    0 NP=    0 IndPr=   15.
 LdAtmC:  AtmChg=     1.000000    19.000000
 AtZEff=     -1.0000000    -22.4200000
 NEqShl: 
              1            2            3            4
     1            1            1            1            1
     2            2            2            2            2
     3            3            3            3            3
     4            4            4            4            4
     5            5            5            5            5
     6            6            6            6            6
 NEqBas: 
              1            2            3            4
     1            1            1            1            1
     2            2            2            2            2
     3            3            3            3            3
     4            4           -4           -4            4
     5            5           -5            5           -5
     6            6            6            6            6
     7            7            7            7            7
     8            8           -8           -8            8
     9            9           -9            9           -9
    10           10           10           10           10
    11           11           11           11           11
    12           12          -12          -12           12
    13           13          -13           13          -13
    14           14           14           14           14
    15           15           15           15           15
    16           16          -16          -16           16
    17           17          -17           17          -17
    18           18           18           18           18
 There are    10 symmetry adapted cartesian basis functions of A1  symmetry.
   1         1   1   1   1
   2         2   2   2   2
   3         3   3   3   3
   4         6   6   6   6
   5         7   7   7   7
   6        10  10  10  10
   7        11  11  11  11
   8        14  14  14  14
   9        15  15  15  15
  10        18  18  18  18
 There are     0 symmetry adapted cartesian basis functions of A2  symmetry.
 There are     4 symmetry adapted cartesian basis functions of B1  symmetry.
  11         4   4   4   4
  12         8   8   8   8
  13        12  12  12  12
  14        16  16  16  16
 There are     4 symmetry adapted cartesian basis functions of B2  symmetry.
  15         5   5   5   5
  16         9   9   9   9
  17        13  13  13  13
  18        17  17  17  17
 Order= 1 2 4 3
 Reordered character table:
              1            2            3            4            5
     1            1            1            1            1            1
     2            2            1            1           -1           -1
     3            4            1           -1           -1            1
     4            3            1           -1            1           -1
 NEqShl: 
              1            2            3            4
     1            1            1            1            1
     2            2            2            2            2
     3            3            3            3            3
     4            4            4            4            4
     5            5            5            5            5
     6            6            6            6            6
 NEqBas: 
              1            2            3            4
     1            1            1            1            1
     2            2            2            2            2
     3            3            3            3            3
     4            4           -4           -4            4
     5            5           -5            5           -5
     6            6            6            6            6
     7            7            7            7            7
     8            8           -8           -8            8
     9            9           -9            9           -9
    10           10           10           10           10
    11           11           11           11           11
    12           12          -12          -12           12
    13           13          -13           13          -13
    14           14           14           14           14
    15           15           15           15           15
    16           16          -16          -16           16
    17           17          -17           17          -17
    18           18           18           18           18
 There are    10 symmetry adapted basis functions of A1  symmetry.
   1         1   1   1   1
   2         2   2   2   2
   3         3   3   3   3
   4         6   6   6   6
   5         7   7   7   7
   6        10  10  10  10
   7        11  11  11  11
   8        14  14  14  14
   9        15  15  15  15
  10        18  18  18  18
 There are     0 symmetry adapted basis functions of A2  symmetry.
 There are     4 symmetry adapted basis functions of B1  symmetry.
  11         4   4   4   4
  12         8   8   8   8
  13        12  12  12  12
  14        16  16  16  16
 There are     4 symmetry adapted basis functions of B2  symmetry.
  15         5   5   5   5
  16         9   9   9   9
  17        13  13  13  13
  18        17  17  17  17
 Order= 1 2 4 3
 Reordered character table:
              1            2            3            4            5
     1            1            1            1            1            1
     2            2            1            1           -1           -1
     3            4            1           -1           -1            1
     4            3            1           -1            1           -1
    18 basis functions,    73 primitive gaussians,    18 cartesian basis functions
    10 alpha electrons       10 beta electrons
       nuclear repulsion energy         4.7877938131 Hartrees.
 IS=     1 IAt=     1 ISR=     1 T=0 IP=      1 IndIP=      1 IndIPD=      0 C=  2.769344D-01  0.000000D+00                             NZ=T
 IS=     1 IAt=     1 ISR=     1 T=0 IP=      2 IndIP=      2 IndIPD=      1 C=  2.678389D-01  0.000000D+00                             NZ=T
 IS=     1 IAt=     1 ISR=     1 T=0 IP=      3 IndIP=      3 IndIPD=      2 C=  8.347367D-02  0.000000D+00                             NZ=T
 IS=     2 IAt=     2 ISR=     1 T=0 IP=      1 IndIP=      4 IndIPD=      0 C=  3.087425D+00  0.000000D+00                             NZ=T
 IS=     2 IAt=     2 ISR=     1 T=0 IP=      2 IndIP=      5 IndIPD=      1 C=  5.701433D+00  0.000000D+00                             NZ=T
 IS=     2 IAt=     2 ISR=     1 T=0 IP=      3 IndIP=      6 IndIPD=      2 C=  9.250015D+00  0.000000D+00                             NZ=T
 IS=     2 IAt=     2 ISR=     1 T=0 IP=      4 IndIP=      7 IndIPD=      3 C=  1.230326D+01  0.000000D+00                             NZ=T
 IS=     2 IAt=     2 ISR=     1 T=0 IP=      5 IndIP=      8 IndIPD=      4 C=  1.065796D+01  0.000000D+00                             NZ=T
 IS=     2 IAt=     2 ISR=     1 T=0 IP=      6 IndIP=      9 IndIPD=      5 C=  3.342971D+00  0.000000D+00                             NZ=T
 IS=     3 IAt=     2 ISR=     2 T=1 IP=      1 IndIP=     10 IndIPD=      0 C= -2.223866D-01  1.815760D+01                             NZ=T
 IS=     3 IAt=     2 ISR=     2 T=1 IP=      2 IndIP=     11 IndIPD=      1 C= -1.002089D+00  2.312008D+01                             NZ=T
 IS=     3 IAt=     2 ISR=     2 T=1 IP=      3 IndIP=     12 IndIPD=      2 C= -1.577145D+00  2.391470D+01                             NZ=T
 IS=     3 IAt=     2 ISR=     2 T=1 IP=      4 IndIP=     13 IndIPD=      3 C=  3.266752D-01  1.731669D+01                             NZ=T
 IS=     3 IAt=     2 ISR=     2 T=1 IP=      5 IndIP=     14 IndIPD=      4 C=  1.883992D+00  7.409963D+00                             NZ=T
 IS=     3 IAt=     2 ISR=     2 T=1 IP=      6 IndIP=     15 IndIPD=      5 C=  6.647292D-01  1.141461D+00                             NZ=T
 IS=     4 IAt=     2 ISR=     3 T=1 IP=      1 IndIP=     16 IndIPD=      0 C=  5.815266D-02 -3.826900D-01                             NZ=T
 IS=     4 IAt=     2 ISR=     3 T=1 IP=      2 IndIP=     17 IndIPD=      1 C=  4.293450D-01 -5.702211D-02                             NZ=T
 IS=     4 IAt=     2 ISR=     3 T=1 IP=      3 IndIP=     18 IndIPD=      2 C= -3.375882D-03  5.815028D-01                             NZ=T
 IS=     4 IAt=     2 ISR=     3 T=1 IP=      4 IndIP=     19 IndIPD=      3 C= -3.337346D-01  4.537484D-01                             NZ=T
 IS=     4 IAt=     2 ISR=     3 T=1 IP=      5 IndIP=     20 IndIPD=      4 C= -1.666638D-01  1.525572D-01                             NZ=T
 IS=     4 IAt=     2 ISR=     3 T=1 IP=      6 IndIP=     21 IndIPD=      5 C= -1.112643D-02  1.425313D-02                             NZ=T
 IS=     5 IAt=     2 ISR=     4 T=1 IP=      1 IndIP=     22 IndIPD=      0 C= -2.908072D-02  2.974856D-02                             NZ=T
 IS=     5 IAt=     2 ISR=     4 T=1 IP=      2 IndIP=     23 IndIPD=      1 C= -6.704811D-02 -9.373500D-03                             NZ=T
 IS=     5 IAt=     2 ISR=     4 T=1 IP=      3 IndIP=     24 IndIPD=      2 C=  7.095388D-02  2.474121D-02                             NZ=T
 IS=     6 IAt=     2 ISR=     5 T=1 IP=      1 IndIP=     25 IndIPD=      0 C=  3.284259D-02  8.442781D-03                             NZ=T
 IExCor=    0 DFT=F Ex=HF Corr=None ExCW=0 ScaHFX=  1.000000
 ScaDFX=  1.000000  1.000000  1.000000  1.000000 ScalE2=  1.000000  1.000000
 IRadAn=      5 IRanWt=     -1 IRanGd=            0 ICorTp=0 IEmpDi=  4
 NAtoms=    2 NActive=    2 NUniq=    2 SFac= 1.00D+00 NAtFMM=   60 NAOKFM=F Big=F
 Integral buffers will be    131072 words long.
 Raffenetti 1 integral format.
 Two-electron integral symmetry is turned on.
 Leave Link  301 at Mon Mar 28 14:31:48 2022, MaxMem=  9663676416 cpu:               2.1 elap:               0.1
 (Enter /nopt/nrel/apps/gaussian/g16C_1/g16/l302.exe)
 NPDir=0 NMtPBC=     1 NCelOv=     1 NCel=       1 NClECP=     1 NCelD=      1
         NCelK=      1 NCelE2=     1 NClLst=     1 CellRange=     0.0.
 One-electron integrals computed using PRISM.
 One-electron integral symmetry used in STVInt
 Entering OneElI...
 Calculate overlap and kinetic energy integrals
    NBasis =  18  MinDer = 0  MaxDer = 0
 Requested accuracy = 0.1000D-12
 Symmetry will be used
 PrmmSu-InSpLW:  IPartL=    0 NPrtUS=   36 NPrtUL=    1 DoSpLW=F IThBeg=    0 IThEnd=   35 NThAct=   36.
 PrSmSu:  IncTry=   512 NBBP=             21 NTPThr=   100 NPartT=   36 Incr=           1 LDynOK=F GPUOK=F.
 PrsmSu:  NPrtUS=  36 ThrOK=T IAlg=1 LenDen=           0 ISkipM=0 DoSpLW=F IThBeg=    0 IThEnd=   35.
 Prism:   IPart=     0 DynPar=F LinDyn=F Incr=           1.
 PRISM was handed   268430758 working-precision words and    21 shell-pairs
 PRISM was handed   268430758 working-precision words and    21 shell-pairs
 PRISM was handed   268430758 working-precision words and    21 shell-pairs
 PRISM was handed   268430758 working-precision words and    21 shell-pairs
 PRISM was handed   268430758 working-precision words and    21 shell-pairs
 PRISM was handed   268430758 working-precision words and    21 shell-pairs
 PRISM was handed   268430758 working-precision words and    21 shell-pairs
 IPart= 17 NShTot=           0 NBatch=           0 AvBLen=         0.0
 IPart= 16 NShTot=           0 NBatch=           0 AvBLen=         0.0
 IPart= 14 NShTot=           0 NBatch=           0 AvBLen=         0.0
 IPart=  6 NShTot=           0 NBatch=           0 AvBLen=         0.0
 IPart= 12 NShTot=           0 NBatch=           0 AvBLen=         0.0
 PRISM was handed   268430758 working-precision words and    21 shell-pairs
 PRISM was handed   268430758 working-precision words and    21 shell-pairs
 IPart= 21 NShTot=           0 NBatch=           0 AvBLen=         0.0
 IPart= 24 NShTot=           0 NBatch=           0 AvBLen=         0.0
 PRISM was handed   268430758 working-precision words and    21 shell-pairs
 IPart=  2 NShTot=           2 NBatch=           2 AvBLen=         1.0
 PRISM was handed   268430758 working-precision words and    21 shell-pairs
 IPart= 20 NShTot=           0 NBatch=           0 AvBLen=         0.0
 IPart= 32 NShTot=           0 NBatch=           0 AvBLen=         0.0
 PRISM was handed   268430758 working-precision words and    21 shell-pairs
 PRISM was handed   268430758 working-precision words and    21 shell-pairs
 PRISM was handed   268430758 working-precision words and    21 shell-pairs
 PRISM was handed   268430758 working-precision words and    21 shell-pairs
 IPart= 27 NShTot=           0 NBatch=           0 AvBLen=         0.0
 IPart= 11 NShTot=           0 NBatch=           0 AvBLen=         0.0
 PRISM was handed   268430758 working-precision words and    21 shell-pairs
 PRISM was handed   268430758 working-precision words and    21 shell-pairs
 PRISM was handed   268430758 working-precision words and    21 shell-pairs
 IPart=  9 NShTot=           0 NBatch=           0 AvBLen=         0.0
 PRISM was handed   268430758 working-precision words and    21 shell-pairs
 PRISM was handed   268430758 working-precision words and    21 shell-pairs
 IPart=  5 NShTot=           0 NBatch=           0 AvBLen=         0.0
 PRISM was handed   268430758 working-precision words and    21 shell-pairs
 PRISM was handed   268430758 working-precision words and    21 shell-pairs
 PRISM was handed   268430758 working-precision words and    21 shell-pairs
 PRISM was handed   268430758 working-precision words and    21 shell-pairs
 PRISM was handed   268430758 working-precision words and    21 shell-pairs
 PRISM was handed   268430758 working-precision words and    21 shell-pairs
 IPart= 15 NShTot=           0 NBatch=           0 AvBLen=         0.0
 IPart=  4 NShTot=           0 NBatch=           0 AvBLen=         0.0
 IPart= 30 NShTot=           0 NBatch=           0 AvBLen=         0.0
 IPart= 19 NShTot=           0 NBatch=           0 AvBLen=         0.0
 IPart= 35 NShTot=           0 NBatch=           0 AvBLen=         0.0
 PRISM was handed   268430758 working-precision words and    21 shell-pairs
 IPart= 10 NShTot=           0 NBatch=           0 AvBLen=         0.0
 PRISM was handed   268430758 working-precision words and    21 shell-pairs
 PRISM was handed   268430758 working-precision words and    21 shell-pairs
 IPart=  7 NShTot=           0 NBatch=           0 AvBLen=         0.0
 IPart= 29 NShTot=           0 NBatch=           0 AvBLen=         0.0
 IPart= 34 NShTot=           0 NBatch=           0 AvBLen=         0.0
 IPart= 23 NShTot=           0 NBatch=           0 AvBLen=         0.0
 IPart= 31 NShTot=           0 NBatch=           0 AvBLen=         0.0
 IPart= 13 NShTot=           0 NBatch=           0 AvBLen=         0.0
 IPart= 22 NShTot=           0 NBatch=           0 AvBLen=         0.0
 PRISM was handed   268430758 working-precision words and    21 shell-pairs
 PRISM was handed   268430758 working-precision words and    21 shell-pairs
 PRISM was handed   268430758 working-precision words and    21 shell-pairs
 PRISM was handed   268430758 working-precision words and    21 shell-pairs
 PRISM was handed   268430758 working-precision words and    21 shell-pairs
 IPart= 28 NShTot=           0 NBatch=           0 AvBLen=         0.0
 PRISM was handed   268430758 working-precision words and    21 shell-pairs
 IPart=  3 NShTot=           0 NBatch=           0 AvBLen=         0.0
 PRISM was handed   268430758 working-precision words and    21 shell-pairs
 IPart= 26 NShTot=           0 NBatch=           0 AvBLen=         0.0
 IPart= 18 NShTot=           0 NBatch=           0 AvBLen=         0.0
 IPart= 25 NShTot=           0 NBatch=           0 AvBLen=         0.0
 IPart=  8 NShTot=           0 NBatch=           0 AvBLen=         0.0
 IPart=  0 NShTot=          14 NBatch=          14 AvBLen=         1.0
 IPart=  1 NShTot=           5 NBatch=           5 AvBLen=         1.0
 IPart= 33 NShTot=           0 NBatch=           0 AvBLen=         0.0
 PrSmSu:  NxtVal=             37.
 *** Overlap *** 
                1             2             3             4             5 
      1  0.100000D+01
      2  0.102625D-02  0.100000D+01
      3  0.850347D-02  0.267715D+00  0.100000D+01
      4  0.000000D+00  0.000000D+00  0.000000D+00  0.100000D+01
      5  0.000000D+00  0.000000D+00  0.000000D+00  0.000000D+00  0.100000D+01
      6 -0.366761D-02  0.000000D+00  0.000000D+00  0.000000D+00  0.000000D+00
      7 -0.727367D-01 -0.141866D-01 -0.343708D+00  0.000000D+00  0.000000D+00
      8  0.000000D+00  0.000000D+00  0.000000D+00  0.295021D+00  0.000000D+00
      9  0.000000D+00  0.000000D+00  0.000000D+00  0.000000D+00  0.295021D+00
     10 -0.122871D+00  0.000000D+00  0.000000D+00  0.000000D+00  0.000000D+00
     11  0.295180D+00 -0.420963D-02 -0.188996D-01  0.000000D+00  0.000000D+00
     12  0.000000D+00  0.000000D+00  0.000000D+00  0.163990D-01  0.000000D+00
     13  0.000000D+00  0.000000D+00  0.000000D+00  0.000000D+00  0.163990D-01
     14 -0.388004D+00  0.000000D+00  0.000000D+00  0.000000D+00  0.000000D+00
     15  0.231201D+00  0.572576D-02  0.448310D-01  0.000000D+00  0.000000D+00
     16  0.000000D+00  0.000000D+00  0.000000D+00  0.380126D-02  0.000000D+00
     17  0.000000D+00  0.000000D+00  0.000000D+00  0.000000D+00  0.380126D-02
     18 -0.220159D+00  0.000000D+00  0.000000D+00  0.000000D+00  0.000000D+00
                6             7             8             9            10 
      6  0.100000D+01
      7  0.000000D+00  0.100000D+01
      8  0.000000D+00  0.000000D+00  0.100000D+01
      9  0.000000D+00  0.000000D+00  0.000000D+00  0.100000D+01
     10  0.295021D+00  0.000000D+00  0.000000D+00  0.000000D+00  0.100000D+01
     11  0.000000D+00 -0.172500D+00  0.000000D+00  0.000000D+00  0.000000D+00
     12  0.000000D+00  0.000000D+00  0.234662D+00  0.000000D+00  0.000000D+00
     13  0.000000D+00  0.000000D+00  0.000000D+00  0.234662D+00  0.000000D+00
     14  0.163990D-01  0.000000D+00  0.000000D+00  0.000000D+00  0.234662D+00
     15  0.000000D+00 -0.243058D+00  0.000000D+00  0.000000D+00  0.000000D+00
     16  0.000000D+00  0.000000D+00  0.967693D-01  0.000000D+00  0.000000D+00
     17  0.000000D+00  0.000000D+00  0.000000D+00  0.967693D-01  0.000000D+00
     18  0.380126D-02  0.000000D+00  0.000000D+00  0.000000D+00  0.967693D-01
               11            12            13            14            15 
     11  0.100000D+01
     12  0.000000D+00  0.100000D+01
     13  0.000000D+00  0.000000D+00  0.100000D+01
     14  0.000000D+00  0.000000D+00  0.000000D+00  0.100000D+01
     15  0.894230D+00  0.000000D+00  0.000000D+00  0.000000D+00  0.100000D+01
     16  0.000000D+00  0.807003D+00  0.000000D+00  0.000000D+00  0.000000D+00
     17  0.000000D+00  0.000000D+00  0.807003D+00  0.000000D+00  0.000000D+00
     18  0.000000D+00  0.000000D+00  0.000000D+00  0.807003D+00  0.000000D+00
               16            17            18 
     16  0.100000D+01
     17  0.000000D+00  0.100000D+01
     18  0.000000D+00  0.000000D+00  0.100000D+01
 *** Kinetic Energy *** 
                1             2             3             4             5 
      1  0.760032D+00
      2 -0.424415D-03  0.173384D+03
      3 -0.332875D-02 -0.928634D+01  0.818361D+01
      4  0.000000D+00  0.000000D+00  0.000000D+00  0.275843D+02
      5  0.000000D+00  0.000000D+00  0.000000D+00  0.000000D+00  0.275843D+02
      6  0.618730D-03  0.000000D+00  0.000000D+00  0.000000D+00  0.000000D+00
      7  0.160438D-01  0.803816D+00  0.546853D+00  0.000000D+00  0.000000D+00
      8  0.000000D+00  0.000000D+00  0.000000D+00  0.918943D+00  0.000000D+00
      9  0.000000D+00  0.000000D+00  0.000000D+00  0.000000D+00  0.918943D+00
     10  0.113724D-02  0.000000D+00  0.000000D+00  0.000000D+00  0.000000D+00
     11  0.263304D-01 -0.171808D-01 -0.100476D+00  0.000000D+00  0.000000D+00
     12  0.000000D+00  0.000000D+00  0.000000D+00  0.261790D-01  0.000000D+00
     13  0.000000D+00  0.000000D+00  0.000000D+00  0.000000D+00  0.261790D-01
     14 -0.510407D-01  0.000000D+00  0.000000D+00  0.000000D+00  0.000000D+00
     15  0.896246D-02  0.283688D-03  0.221202D-02  0.000000D+00  0.000000D+00
     16  0.000000D+00  0.000000D+00  0.000000D+00  0.312691D-03  0.000000D+00
     17  0.000000D+00  0.000000D+00  0.000000D+00  0.000000D+00  0.312691D-03
     18 -0.153397D-01  0.000000D+00  0.000000D+00  0.000000D+00  0.000000D+00
                6             7             8             9            10 
      6  0.275843D+02
      7  0.000000D+00  0.837208D+00
      8  0.000000D+00  0.000000D+00  0.154401D+01
      9  0.000000D+00  0.000000D+00  0.000000D+00  0.154401D+01
     10  0.918943D+00  0.000000D+00  0.000000D+00  0.000000D+00  0.154401D+01
     11  0.000000D+00  0.104916D+00  0.000000D+00  0.000000D+00  0.000000D+00
     12  0.000000D+00  0.000000D+00  0.663770D-01  0.000000D+00  0.000000D+00
     13  0.000000D+00  0.000000D+00  0.000000D+00  0.663770D-01  0.000000D+00
     14  0.261790D-01  0.000000D+00  0.000000D+00  0.000000D+00  0.663770D-01
     15  0.000000D+00 -0.115010D-01  0.000000D+00  0.000000D+00  0.000000D+00
     16  0.000000D+00  0.000000D+00  0.753429D-02  0.000000D+00  0.000000D+00
     17  0.000000D+00  0.000000D+00  0.000000D+00  0.753429D-02  0.000000D+00
     18  0.312691D-03  0.000000D+00  0.000000D+00  0.000000D+00  0.753429D-02
               11            12            13            14            15 
     11  0.774479D-01
     12  0.000000D+00  0.962091D-01
     13  0.000000D+00  0.000000D+00  0.962091D-01
     14  0.000000D+00  0.000000D+00  0.000000D+00  0.962091D-01
     15  0.298062D-01  0.000000D+00  0.000000D+00  0.000000D+00  0.247815D-01
     16  0.000000D+00  0.466086D-01  0.000000D+00  0.000000D+00  0.000000D+00
     17  0.000000D+00  0.000000D+00  0.466086D-01  0.000000D+00  0.000000D+00
     18  0.000000D+00  0.000000D+00  0.000000D+00  0.466086D-01  0.000000D+00
               16            17            18 
     16  0.413025D-01
     17  0.000000D+00  0.413025D-01
     18  0.000000D+00  0.000000D+00  0.413025D-01
 Entering OneElI...
 Calculate potential energy integrals
    NBasis =  18  MinDer = 0  MaxDer = 0
 Requested accuracy = 0.1000D-12
 Symmetry will be used
 PrmmSu-InSpLW:  IPartL=    0 NPrtUS=   36 NPrtUL=    1 DoSpLW=F IThBeg=    0 IThEnd=   35 NThAct=   36.
 PrSmSu:  IncTry=   512 NBBP=             42 NTPThr=   100 NPartT=   36 Incr=           1 LDynOK=F GPUOK=F.
 PrsmSu:  NPrtUS=  36 ThrOK=T IAlg=1 LenDen=           0 ISkipM=0 DoSpLW=F IThBeg=    0 IThEnd=   35.
 Prism:   IPart=     0 DynPar=F LinDyn=F Incr=           1.
 PRISM was handed   268431016 working-precision words and    21 shell-pairs
 PRISM was handed   268431016 working-precision words and    21 shell-pairs
 PRISM was handed   268431016 working-precision words and    21 shell-pairs
 PRISM was handed   268431016 working-precision words and    21 shell-pairs
 PRISM was handed   268431016 working-precision words and    21 shell-pairs
 PRISM was handed   268431016 working-precision words and    21 shell-pairs
 PRISM was handed   268431016 working-precision words and    21 shell-pairs
 PRISM was handed   268431016 working-precision words and    21 shell-pairs
 PRISM was handed   268431016 working-precision words and    21 shell-pairs
 PRISM was handed   268431016 working-precision words and    21 shell-pairs
 PRISM was handed   268431016 working-precision words and    21 shell-pairs
 PRISM was handed   268431016 working-precision words and    21 shell-pairs
 PRISM was handed   268431016 working-precision words and    21 shell-pairs
 PRISM was handed   268431016 working-precision words and    21 shell-pairs
 PRISM was handed   268431016 working-precision words and    21 shell-pairs
 PRISM was handed   268431016 working-precision words and    21 shell-pairs
 PRISM was handed   268431016 working-precision words and    21 shell-pairs
 PRISM was handed   268431016 working-precision words and    21 shell-pairs
 PRISM was handed   268431016 working-precision words and    21 shell-pairs
 PRISM was handed   268431016 working-precision words and    21 shell-pairs
 PRISM was handed   268431016 working-precision words and    21 shell-pairs
 PRISM was handed   268431016 working-precision words and    21 shell-pairs
 PRISM was handed   268431016 working-precision words and    21 shell-pairs
 PRISM was handed   268431016 working-precision words and    21 shell-pairs
 PRISM was handed   268431016 working-precision words and    21 shell-pairs
 PRISM was handed   268431016 working-precision words and    21 shell-pairs
 PRISM was handed   268431016 working-precision words and    21 shell-pairs
 PRISM was handed   268431016 working-precision words and    21 shell-pairs
 PRISM was handed   268431016 working-precision words and    21 shell-pairs
 PRISM was handed   268431016 working-precision words and    21 shell-pairs
 PRISM was handed   268431016 working-precision words and    21 shell-pairs
 PRISM was handed   268431016 working-precision words and    21 shell-pairs
 PRISM was handed   268431016 working-precision words and    21 shell-pairs
 PRISM was handed   268431016 working-precision words and    21 shell-pairs
 PRISM was handed   268431016 working-precision words and    21 shell-pairs
 PRISM was handed   268431016 working-precision words and    21 shell-pairs
 IPart= 24 NShTot=           0 NBatch=           0 AvBLen=         0.0
 IPart= 20 NShTot=           0 NBatch=           0 AvBLen=         0.0
 IPart= 34 NShTot=           0 NBatch=           0 AvBLen=         0.0
 IPart= 15 NShTot=           0 NBatch=           0 AvBLen=         0.0
 IPart=  5 NShTot=           0 NBatch=           0 AvBLen=         0.0
 IPart= 13 NShTot=           0 NBatch=           0 AvBLen=         0.0
 IPart= 29 NShTot=           0 NBatch=           0 AvBLen=         0.0
 IPart= 25 NShTot=           0 NBatch=           0 AvBLen=         0.0
 IPart= 18 NShTot=           0 NBatch=           0 AvBLen=         0.0
 IPart= 23 NShTot=           0 NBatch=           0 AvBLen=         0.0
 IPart=  4 NShTot=           0 NBatch=           0 AvBLen=         0.0
 IPart= 33 NShTot=           0 NBatch=           0 AvBLen=         0.0
 IPart= 14 NShTot=           0 NBatch=           0 AvBLen=         0.0
 IPart= 16 NShTot=           0 NBatch=           0 AvBLen=         0.0
 IPart= 30 NShTot=           0 NBatch=           0 AvBLen=         0.0
 IPart= 21 NShTot=           0 NBatch=           0 AvBLen=         0.0
 IPart= 32 NShTot=           0 NBatch=           0 AvBLen=         0.0
 IPart= 17 NShTot=           0 NBatch=           0 AvBLen=         0.0
 IPart=  7 NShTot=           0 NBatch=           0 AvBLen=         0.0
 IPart=  3 NShTot=           0 NBatch=           0 AvBLen=         0.0
 IPart= 26 NShTot=           0 NBatch=           0 AvBLen=         0.0
 IPart=  8 NShTot=           0 NBatch=           0 AvBLen=         0.0
 IPart= 27 NShTot=           0 NBatch=           0 AvBLen=         0.0
 IPart= 12 NShTot=           0 NBatch=           0 AvBLen=         0.0
 IPart=  6 NShTot=           0 NBatch=           0 AvBLen=         0.0
 IPart= 11 NShTot=           0 NBatch=           0 AvBLen=         0.0
 IPart=  9 NShTot=           0 NBatch=           0 AvBLen=         0.0
 IPart= 35 NShTot=           0 NBatch=           0 AvBLen=         0.0
 IPart= 22 NShTot=           0 NBatch=           0 AvBLen=         0.0
 IPart= 28 NShTot=           0 NBatch=           0 AvBLen=         0.0
 IPart=  2 NShTot=           2 NBatch=           1 AvBLen=         2.0
 IPart=  1 NShTot=           8 NBatch=           4 AvBLen=         2.0
 IPart=  0 NShTot=          32 NBatch=          16 AvBLen=         2.0
 IPart= 31 NShTot=           0 NBatch=           0 AvBLen=         0.0
 IPart= 10 NShTot=           0 NBatch=           0 AvBLen=         0.0
 IPart= 19 NShTot=           0 NBatch=           0 AvBLen=         0.0
 PrSmSu:  NxtVal=             37.
 ***** Potential Energy ***** 
                1             2             3             4             5 
      1  0.601336D+01
      2  0.183291D+00  0.354033D+03
      3  0.357423D+00  0.380357D+02  0.611924D+02
      4  0.000000D+00  0.000000D+00  0.000000D+00  0.706521D+02
      5  0.000000D+00  0.000000D+00  0.000000D+00  0.000000D+00  0.706521D+02
      6 -0.119603D+00 -0.203868D-02 -0.132059D-01  0.000000D+00  0.000000D+00
      7 -0.864084D+00 -0.179546D+01 -0.126536D+02  0.000000D+00  0.000000D+00
      8  0.000000D+00  0.000000D+00  0.000000D+00  0.110175D+02  0.000000D+00
      9  0.000000D+00  0.000000D+00  0.000000D+00  0.000000D+00  0.110175D+02
     10 -0.110726D+01 -0.100846D-03 -0.691786D-02  0.000000D+00  0.000000D+00
     11  0.166625D+01 -0.768602D+00 -0.103756D+01  0.000000D+00  0.000000D+00
     12  0.000000D+00  0.000000D+00  0.000000D+00  0.574906D+00  0.000000D+00
     13  0.000000D+00  0.000000D+00  0.000000D+00  0.000000D+00  0.574906D+00
     14 -0.209217D+01 -0.508001D-05 -0.408066D-03  0.000000D+00  0.000000D+00
     15  0.131756D+01  0.102497D+01  0.192614D+01  0.000000D+00  0.000000D+00
     16  0.000000D+00  0.000000D+00  0.000000D+00  0.124985D+00  0.000000D+00
     17  0.000000D+00  0.000000D+00  0.000000D+00  0.000000D+00  0.124985D+00
     18 -0.111521D+01  0.000000D+00 -0.990557D-04  0.000000D+00  0.000000D+00
                6             7             8             9            10 
      6  0.706536D+02
      7  0.759777D-02  0.184332D+02
      8  0.000000D+00  0.000000D+00  0.167155D+02
      9  0.000000D+00  0.000000D+00  0.000000D+00  0.167155D+02
     10  0.110188D+02  0.469884D-01  0.000000D+00  0.000000D+00  0.167374D+02
     11  0.246866D-03 -0.134555D+01  0.000000D+00  0.000000D+00 -0.245875D-01
     12  0.000000D+00  0.000000D+00  0.238504D+01  0.000000D+00  0.000000D+00
     13  0.000000D+00  0.000000D+00  0.000000D+00  0.238504D+01  0.000000D+00
     14  0.574994D+00  0.125163D-01  0.000000D+00  0.000000D+00  0.239849D+01
     15 -0.938951D-03 -0.331163D+01  0.000000D+00  0.000000D+00 -0.225479D-01
     16  0.000000D+00  0.000000D+00  0.877607D+00  0.000000D+00  0.000000D+00
     17  0.000000D+00  0.000000D+00  0.000000D+00  0.877607D+00  0.000000D+00
     18  0.125008D+00  0.515993D-02  0.000000D+00  0.000000D+00  0.883720D+00
               11            12            13            14            15 
     11  0.486993D+01
     12  0.000000D+00  0.410170D+01
     13  0.000000D+00  0.000000D+00  0.410170D+01
     14 -0.862943D-01  0.000000D+00  0.000000D+00  0.416744D+01
     15  0.401243D+01  0.000000D+00  0.000000D+00 -0.733006D-01  0.407157D+01
     16  0.000000D+00  0.281812D+01  0.000000D+00  0.000000D+00  0.000000D+00
     17  0.000000D+00  0.000000D+00  0.281812D+01  0.000000D+00  0.000000D+00
     18 -0.518480D-01  0.000000D+00  0.000000D+00  0.285858D+01 -0.515262D-01
               16            17            18 
     16  0.272202D+01
     17  0.000000D+00  0.272202D+01
     18  0.000000D+00  0.000000D+00  0.275165D+01
 ****** Core Hamiltonian ****** 
                1             2             3             4             5 
      1 -0.525333D+01
      2 -0.183716D+00 -0.180649D+03
      3 -0.360752D+00 -0.473221D+02 -0.530088D+02
      4  0.000000D+00  0.000000D+00  0.000000D+00 -0.430679D+02
      5  0.000000D+00  0.000000D+00  0.000000D+00  0.000000D+00 -0.430679D+02
      6  0.120222D+00  0.203868D-02  0.132059D-01  0.000000D+00  0.000000D+00
      7  0.880128D+00  0.259928D+01  0.132004D+02  0.000000D+00  0.000000D+00
      8  0.000000D+00  0.000000D+00  0.000000D+00 -0.100985D+02  0.000000D+00
      9  0.000000D+00  0.000000D+00  0.000000D+00  0.000000D+00 -0.100985D+02
     10  0.110840D+01  0.100846D-03  0.691786D-02  0.000000D+00  0.000000D+00
     11 -0.163992D+01  0.751421D+00  0.937081D+00  0.000000D+00  0.000000D+00
     12  0.000000D+00  0.000000D+00  0.000000D+00 -0.548727D+00  0.000000D+00
     13  0.000000D+00  0.000000D+00  0.000000D+00  0.000000D+00 -0.548727D+00
     14  0.204113D+01  0.508001D-05  0.408066D-03  0.000000D+00  0.000000D+00
     15 -0.130860D+01 -0.102469D+01 -0.192393D+01  0.000000D+00  0.000000D+00
     16  0.000000D+00  0.000000D+00  0.000000D+00 -0.124672D+00  0.000000D+00
     17  0.000000D+00  0.000000D+00  0.000000D+00  0.000000D+00 -0.124672D+00
     18  0.109987D+01  0.000000D+00  0.990557D-04  0.000000D+00  0.000000D+00
                6             7             8             9            10 
      6 -0.430693D+02
      7 -0.759777D-02 -0.175960D+02
      8  0.000000D+00  0.000000D+00 -0.151715D+02
      9  0.000000D+00  0.000000D+00  0.000000D+00 -0.151715D+02
     10 -0.100998D+02 -0.469884D-01  0.000000D+00  0.000000D+00 -0.151934D+02
     11 -0.246866D-03  0.145047D+01  0.000000D+00  0.000000D+00  0.245875D-01
     12  0.000000D+00  0.000000D+00 -0.231866D+01  0.000000D+00  0.000000D+00
     13  0.000000D+00  0.000000D+00  0.000000D+00 -0.231866D+01  0.000000D+00
     14 -0.548815D+00 -0.125163D-01  0.000000D+00  0.000000D+00 -0.233212D+01
     15  0.938951D-03  0.330013D+01  0.000000D+00  0.000000D+00  0.225479D-01
     16  0.000000D+00  0.000000D+00 -0.870073D+00  0.000000D+00  0.000000D+00
     17  0.000000D+00  0.000000D+00  0.000000D+00 -0.870073D+00  0.000000D+00
     18 -0.124695D+00 -0.515993D-02  0.000000D+00  0.000000D+00 -0.876186D+00
               11            12            13            14            15 
     11 -0.479248D+01
     12  0.000000D+00 -0.400549D+01
     13  0.000000D+00  0.000000D+00 -0.400549D+01
     14  0.862943D-01  0.000000D+00  0.000000D+00 -0.407123D+01
     15 -0.398262D+01  0.000000D+00  0.000000D+00  0.733006D-01 -0.404678D+01
     16  0.000000D+00 -0.277151D+01  0.000000D+00  0.000000D+00  0.000000D+00
     17  0.000000D+00  0.000000D+00 -0.277151D+01  0.000000D+00  0.000000D+00
     18  0.518480D-01  0.000000D+00  0.000000D+00 -0.281198D+01  0.515262D-01
               16            17            18 
     16 -0.268072D+01
     17  0.000000D+00 -0.268072D+01
     18  0.000000D+00  0.000000D+00 -0.271035D+01
 SVDSVc IOpt=   1 NormSV=T IR=1
 SVDSVc V= 2.22D+00 1.94D+00 1.40D+00 1.25D+00 9.55D-01 7.50D-01 6.71D-01 5.52D-01 1.62D-01 9.83D-02
 SVDSVc IOpt=   1 NormSV=T IR=3
 SVDSVc V= 1.88D+00 1.25D+00 6.91D-01 1.80D-01
 SVDSVc IOpt=   1 NormSV=T IR=4
 SVDSVc V= 1.88D+00 1.25D+00 6.91D-01 1.80D-01
 TstOVc:  Largest diagonal error= 2.66D-15 IB=1 I=    1.
 TstOVc:  Largest same sym error= 5.31D-15 IB=1 I=    4 J=    3.
 TstOVc:  Largest diff sym error= 0.00D+00 IB=0 JB=0 I=    0 J=    0.
 Orthogonalized basis functions: 
                 1             2             3             4             5 
      1   0.285577D+00 -0.727913D-01 -0.561397D-01  0.393038D-01  0.957219D-01
      2   0.134822D-01  0.233585D-01  0.414106D+00  0.109962D-01  0.792448D+00
      3   0.512183D-01  0.721364D-01  0.595813D+00  0.102726D-01 -0.996735D-01
      4   0.000000D+00  0.000000D+00  0.000000D+00  0.000000D+00  0.000000D+00
      5   0.000000D+00  0.000000D+00  0.000000D+00  0.000000D+00  0.000000D+00
      6  -0.308965D-01  0.573000D-01 -0.170102D-01  0.653767D+00  0.641227D-02
      7  -0.140538D+00 -0.156954D+00 -0.374435D+00  0.711178D-03  0.609686D+00
      8   0.000000D+00  0.000000D+00  0.000000D+00  0.000000D+00  0.000000D+00
      9   0.000000D+00  0.000000D+00  0.000000D+00  0.000000D+00  0.000000D+00
     10  -0.106450D+00  0.156638D+00 -0.215253D-01  0.563541D+00 -0.168285D-02
     11   0.321778D+00  0.301209D+00 -0.171108D+00 -0.152585D-01  0.136860D+00
     12   0.000000D+00  0.000000D+00  0.000000D+00  0.000000D+00  0.000000D+00
     13   0.000000D+00  0.000000D+00  0.000000D+00  0.000000D+00  0.000000D+00
     14  -0.268130D+00  0.372594D+00 -0.300090D-01 -0.120501D+00  0.237945D-01
     15   0.319436D+00  0.312411D+00 -0.115316D+00 -0.168324D-01  0.808104D-01
     16   0.000000D+00  0.000000D+00  0.000000D+00  0.000000D+00  0.000000D+00
     17   0.000000D+00  0.000000D+00  0.000000D+00  0.000000D+00  0.000000D+00
     18  -0.237078D+00  0.352837D+00 -0.351875D-01 -0.195574D+00  0.450665D-01
                 6             7             8             9            10 
      1   0.868993D+00  0.537896D+00 -0.459514D-01  0.394178D+00 -0.257398D+00
      2  -0.710608D-01 -0.359960D-01 -0.528054D+00 -0.137178D-02 -0.915071D-02
      3   0.651166D-01  0.446950D-01  0.924889D+00  0.104771D-01  0.106774D+00
      4   0.000000D+00  0.000000D+00  0.000000D+00  0.000000D+00  0.000000D+00
      5   0.000000D+00  0.000000D+00  0.000000D+00  0.000000D+00  0.000000D+00
      6   0.381082D+00 -0.719218D+00  0.925225D-02  0.755440D-01 -0.336966D-02
      7  -0.919491D-02  0.141132D-01  0.801529D+00 -0.966339D-02 -0.145490D+00
      8   0.000000D+00  0.000000D+00  0.000000D+00  0.000000D+00  0.000000D+00
      9   0.000000D+00  0.000000D+00  0.000000D+00  0.000000D+00  0.000000D+00
     10  -0.325108D+00  0.806826D+00 -0.143195D-01 -0.289341D+00  0.207452D-01
     11  -0.162315D+00 -0.846172D-01  0.124393D+00  0.150681D+00  0.225092D+01
     12   0.000000D+00  0.000000D+00  0.000000D+00  0.000000D+00  0.000000D+00
     13   0.000000D+00  0.000000D+00  0.000000D+00  0.000000D+00  0.000000D+00
     14   0.130575D+00  0.451391D-01 -0.117420D-02  0.180514D+01 -0.290721D+00
     15  -0.242239D+00 -0.142894D+00  0.124579D+00 -0.272946D+00 -0.221068D+01
     16   0.000000D+00  0.000000D+00  0.000000D+00  0.000000D+00  0.000000D+00
     17   0.000000D+00  0.000000D+00  0.000000D+00  0.000000D+00  0.000000D+00
     18   0.464181D+00  0.202007D-01 -0.174661D-01 -0.160202D+01  0.195125D+00
                11            12            13            14            15 
      1   0.000000D+00  0.000000D+00  0.000000D+00  0.000000D+00  0.000000D+00
      2   0.000000D+00  0.000000D+00  0.000000D+00  0.000000D+00  0.000000D+00
      3   0.000000D+00  0.000000D+00  0.000000D+00  0.000000D+00  0.000000D+00
      4   0.827827D-01  0.650522D+00 -0.813669D+00  0.900001D-01  0.000000D+00
      5   0.000000D+00  0.000000D+00  0.000000D+00  0.000000D+00  0.827827D-01
      6   0.000000D+00  0.000000D+00  0.000000D+00  0.000000D+00  0.000000D+00
      7   0.000000D+00  0.000000D+00  0.000000D+00  0.000000D+00  0.000000D+00
      8   0.213287D+00  0.558240D+00  0.856396D+00 -0.322873D+00  0.000000D+00
      9   0.000000D+00  0.000000D+00  0.000000D+00  0.000000D+00  0.213287D+00
     10   0.000000D+00  0.000000D+00  0.000000D+00  0.000000D+00  0.000000D+00
     11   0.000000D+00  0.000000D+00  0.000000D+00  0.000000D+00  0.000000D+00
     12   0.498483D+00 -0.137035D+00 -0.114594D-01  0.168244D+01  0.000000D+00
     13   0.000000D+00  0.000000D+00  0.000000D+00  0.000000D+00  0.498483D+00
     14   0.000000D+00  0.000000D+00  0.000000D+00  0.000000D+00  0.000000D+00
     15   0.000000D+00  0.000000D+00  0.000000D+00  0.000000D+00  0.000000D+00
     16   0.480441D+00 -0.217733D+00 -0.228099D+00 -0.161779D+01  0.000000D+00
     17   0.000000D+00  0.000000D+00  0.000000D+00  0.000000D+00  0.480441D+00
     18   0.000000D+00  0.000000D+00  0.000000D+00  0.000000D+00  0.000000D+00
                16            17            18 
      1   0.000000D+00  0.000000D+00  0.000000D+00
      2   0.000000D+00  0.000000D+00  0.000000D+00
      3   0.000000D+00  0.000000D+00  0.000000D+00
      4   0.000000D+00  0.000000D+00  0.000000D+00
      5   0.650522D+00 -0.813669D+00  0.900001D-01
      6   0.000000D+00  0.000000D+00  0.000000D+00
      7   0.000000D+00  0.000000D+00  0.000000D+00
      8   0.000000D+00  0.000000D+00  0.000000D+00
      9   0.558240D+00  0.856396D+00 -0.322873D+00
     10   0.000000D+00  0.000000D+00  0.000000D+00
     11   0.000000D+00  0.000000D+00  0.000000D+00
     12   0.000000D+00  0.000000D+00  0.000000D+00
     13  -0.137035D+00 -0.114594D-01  0.168244D+01
     14   0.000000D+00  0.000000D+00  0.000000D+00
     15   0.000000D+00  0.000000D+00  0.000000D+00
     16   0.000000D+00  0.000000D+00  0.000000D+00
     17  -0.217733D+00 -0.228099D+00 -0.161779D+01
     18   0.000000D+00  0.000000D+00  0.000000D+00
 NBasis=    18 RedAO= T EigKep=  9.83D-02  NBF=    10     0     4     4
 NBsUse=    18 1.00D-06 EigRej= -1.00D+00 NBFU=    10     0     4     4
 Leave Link  302 at Mon Mar 28 14:31:48 2022, MaxMem=  9663676416 cpu:               6.5 elap:               0.2
 (Enter /nopt/nrel/apps/gaussian/g16C_1/g16/l303.exe)
 DipDrv will not compute anything.
 Fermi contact integrals: 
                 1             2 
      1   0.628247D+00  0.585797D-02
      2   0.000000D+00  0.443431D+02
      3   0.000000D+00  0.737756D-01
      4   0.000000D+00  0.000000D+00
      5   0.000000D+00  0.000000D+00
      6   0.000000D+00  0.000000D+00
      7  -0.178060D-02 -0.274029D-01
      8   0.000000D+00  0.000000D+00
      9   0.000000D+00  0.000000D+00
     10  -0.808159D-02  0.000000D+00
     11   0.368990D-01 -0.251750D-01
     12   0.000000D+00  0.000000D+00
     13   0.000000D+00  0.000000D+00
     14  -0.524621D-01  0.000000D+00
     15   0.253188D-01  0.328426D-01
     16   0.000000D+00  0.000000D+00
     17   0.000000D+00  0.000000D+00
     18  -0.258291D-01  0.000000D+00
 Leave Link  303 at Mon Mar 28 14:31:48 2022, MaxMem=  9663676416 cpu:               1.1 elap:               0.1
 (Enter /nopt/nrel/apps/gaussian/g16C_1/g16/l401.exe)
 ExpMin= 1.65D-02 ExpMax= 3.16D+04 ExpMxC= 4.74D+03 IAcc=3 IRadAn=         5 AccDes= 0.00D+00
 Harris functional with IExCor=  205 and IRadAn=       5 diagonalized for initial guess.
 HarFok:  IExCor=  205 AccDes= 0.00D+00 IRadAn=         5 IDoV= 1 UseB2=F ITyADJ=14
 ICtDFT=  3500011 ScaDFX=  1.000000  1.000000  1.000000  1.000000
 FoFCou: FMM=F IPFlag=           0 FMFlag=      100000 FMFlg1=           0
         NFxFlg=           0 DoJE=T BraDBF=F KetDBF=T FulRan=T
         wScrn=  0.000000 ICntrl=       500 IOpCl=  0 I1Cent=   200000004 NGrid=           0
         NMat0=    1 NMatS0=      1 NMatT0=    0 NMatD0=    1 NMtDS0=    0 NMtDT0=    0
 Petite list used in FoFCou.
 Harris En= -599.046329737090    
 JPrj=0 DoOrth=F DoCkMO=F.
 Initial guess orbital symmetries:
       Occupied  (SG) (SG) (SG) (PI) (PI) (SG) (SG) (PI) (PI) (SG)
       Virtual   (SG) (PI) (PI) (SG) (SG) (PI) (PI) (SG)
 The electronic state of the initial guess is 1-SG.
 Leave Link  401 at Mon Mar 28 14:31:48 2022, MaxMem=  9663676416 cpu:               3.0 elap:               0.1
 (Enter /nopt/nrel/apps/gaussian/g16C_1/g16/l502.exe)
 Keep R1 ints in memory in symmetry-blocked form, NReq=7243541.
 FoFCou: FMM=F IPFlag=           0 FMFlag=           0 FMFlg1=           0
         NFxFlg=           0 DoJE=F BraDBF=F KetDBF=F FulRan=T
         wScrn=  0.000000 ICntrl=       600 IOpCl=  0 I1Cent=           0 NGrid=           0
         NMat0=    1 NMatS0=    171 NMatT0=    0 NMatD0=    1 NMtDS0=    0 NMtDT0=    0
 Petite list used in FoFCou.
 Closed shell SCF:
 Using DIIS extrapolation, IDIIS=  1040.
 NGot=  9663676416 LenX=  9663668636 LenY=  9663667754
 Requested convergence on RMS density matrix=1.00D-08 within 128 cycles.
 Requested convergence on MAX density matrix=1.00D-06.
 Requested convergence on             energy=1.00D-06.
 No special actions if energy rises.

 Cycle   1  Pass 1  IDiag  1:
 E= -599.552558824576    
 DIIS: error= 3.64D-02 at cycle   1 NSaved=   1.
 NSaved= 1 IEnMin= 1 EnMin= -599.552558824576     IErMin= 1 ErrMin= 3.64D-02
 ErrMax= 3.64D-02  0.00D+00 EMaxC= 1.00D-01 BMatC= 1.46D-02 BMatP= 1.46D-02
 IDIUse=3 WtCom= 6.36D-01 WtEn= 3.64D-01
 Coeff-Com:  0.100D+01
 Coeff-En:   0.100D+01
 Coeff:      0.100D+01
 Gap=     0.169 Goal=   None    Shift=    0.000
 GapD=    0.169 DampG=1.000 DampE=0.500 DampFc=0.5000 IDamp=-1.
 Damping current iteration by 5.00D-01
 RMSDP=2.06D-02 MaxDP=2.63D-01              OVMax= 0.00D+00

 Cycle   2  Pass 1  IDiag  1:
 E= -599.575878361003     Delta-E=       -0.023319536427 Rises=F Damp=T
 DIIS: error= 1.77D-02 at cycle   2 NSaved=   2.
 NSaved= 2 IEnMin= 2 EnMin= -599.575878361003     IErMin= 2 ErrMin= 1.77D-02
 ErrMax= 1.77D-02  0.00D+00 EMaxC= 1.00D-01 BMatC= 3.54D-03 BMatP= 1.46D-02
 IDIUse=3 WtCom= 8.23D-01 WtEn= 1.77D-01
 Coeff-Com: -0.962D+00 0.196D+01
 Coeff-En:   0.000D+00 0.100D+01
 Coeff:     -0.792D+00 0.179D+01
 Gap=     0.230 Goal=   None    Shift=    0.000
 RMSDP=9.42D-03 MaxDP=1.20D-01 DE=-2.33D-02 OVMax= 0.00D+00

 Cycle   3  Pass 1  IDiag  1:
 E= -599.599004355775     Delta-E=       -0.023125994771 Rises=F Damp=F
 DIIS: error= 2.82D-04 at cycle   3 NSaved=   3.
 NSaved= 3 IEnMin= 3 EnMin= -599.599004355775     IErMin= 3 ErrMin= 2.82D-04
 ErrMax= 2.82D-04  0.00D+00 EMaxC= 1.00D-01 BMatC= 2.15D-06 BMatP= 3.54D-03
 IDIUse=3 WtCom= 9.97D-01 WtEn= 2.82D-03
 Coeff-Com:  0.202D+00-0.410D+00 0.121D+01
 Coeff-En:   0.000D+00 0.000D+00 0.100D+01
 Coeff:      0.201D+00-0.409D+00 0.121D+01
 Gap=     0.234 Goal=   None    Shift=    0.000
 RMSDP=4.81D-04 MaxDP=3.64D-03 DE=-2.31D-02 OVMax= 0.00D+00

 Cycle   4  Pass 1  IDiag  1:
 E= -599.599011605598     Delta-E=       -0.000007249823 Rises=F Damp=F
 DIIS: error= 7.13D-05 at cycle   4 NSaved=   4.
 NSaved= 4 IEnMin= 4 EnMin= -599.599011605598     IErMin= 4 ErrMin= 7.13D-05
 ErrMax= 7.13D-05  0.00D+00 EMaxC= 1.00D-01 BMatC= 4.75D-08 BMatP= 2.15D-06
 IDIUse=1 WtCom= 1.00D+00 WtEn= 0.00D+00
 Coeff-Com:  0.213D-02-0.372D-02-0.109D+00 0.111D+01
 Coeff:      0.213D-02-0.372D-02-0.109D+00 0.111D+01
 Gap=     0.235 Goal=   None    Shift=    0.000
 RMSDP=1.36D-04 MaxDP=1.12D-03 DE=-7.25D-06 OVMax= 0.00D+00

 Cycle   5  Pass 1  IDiag  1:
 E= -599.599011988382     Delta-E=       -0.000000382784 Rises=F Damp=F
 DIIS: error= 1.87D-05 at cycle   5 NSaved=   5.
 NSaved= 5 IEnMin= 5 EnMin= -599.599011988382     IErMin= 5 ErrMin= 1.87D-05
 ErrMax= 1.87D-05  0.00D+00 EMaxC= 1.00D-01 BMatC= 3.59D-09 BMatP= 4.75D-08
 IDIUse=1 WtCom= 1.00D+00 WtEn= 0.00D+00
 Coeff-Com: -0.183D-02 0.348D-02 0.405D-01-0.618D+00 0.158D+01
 Coeff:     -0.183D-02 0.348D-02 0.405D-01-0.618D+00 0.158D+01
 Gap=     0.235 Goal=   None    Shift=    0.000
 RMSDP=5.49D-05 MaxDP=4.75D-04 DE=-3.83D-07 OVMax= 0.00D+00

 Cycle   6  Pass 1  IDiag  1:
 E= -599.599012028518     Delta-E=       -0.000000040136 Rises=F Damp=F
 DIIS: error= 1.67D-06 at cycle   6 NSaved=   6.
 NSaved= 6 IEnMin= 6 EnMin= -599.599012028518     IErMin= 6 ErrMin= 1.67D-06
 ErrMax= 1.67D-06  0.00D+00 EMaxC= 1.00D-01 BMatC= 4.78D-11 BMatP= 3.59D-09
 IDIUse=1 WtCom= 1.00D+00 WtEn= 0.00D+00
 Coeff-Com: -0.101D-02 0.210D-02-0.213D-01 0.231D+00-0.602D+00 0.139D+01
 Coeff:     -0.101D-02 0.210D-02-0.213D-01 0.231D+00-0.602D+00 0.139D+01
 Gap=     0.235 Goal=   None    Shift=    0.000
 RMSDP=2.44D-06 MaxDP=2.20D-05 DE=-4.01D-08 OVMax= 0.00D+00

 Cycle   7  Pass 1  IDiag  1:
 E= -599.599012028996     Delta-E=       -0.000000000478 Rises=F Damp=F
 DIIS: error= 4.19D-07 at cycle   7 NSaved=   7.
 NSaved= 7 IEnMin= 7 EnMin= -599.599012028996     IErMin= 7 ErrMin= 4.19D-07
 ErrMax= 4.19D-07  0.00D+00 EMaxC= 1.00D-01 BMatC= 2.47D-12 BMatP= 4.78D-11
 IDIUse=1 WtCom= 1.00D+00 WtEn= 0.00D+00
 Coeff-Com: -0.220D-03 0.436D-03 0.643D-03-0.206D-01 0.620D-01-0.253D+00
 Coeff-Com:  0.121D+01
 Coeff:     -0.220D-03 0.436D-03 0.643D-03-0.206D-01 0.620D-01-0.253D+00
 Coeff:      0.121D+01
 Gap=     0.235 Goal=   None    Shift=    0.000
 RMSDP=8.22D-07 MaxDP=6.04D-06 DE=-4.78D-10 OVMax= 0.00D+00

 Cycle   8  Pass 1  IDiag  1:
 E= -599.599012029020     Delta-E=       -0.000000000024 Rises=F Damp=F
 DIIS: error= 9.27D-08 at cycle   8 NSaved=   8.
 NSaved= 8 IEnMin= 8 EnMin= -599.599012029020     IErMin= 8 ErrMin= 9.27D-08
 ErrMax= 9.27D-08  0.00D+00 EMaxC= 1.00D-01 BMatC= 1.33D-13 BMatP= 2.47D-12
 IDIUse=1 WtCom= 1.00D+00 WtEn= 0.00D+00
 Coeff-Com: -0.166D-04 0.362D-04-0.707D-03 0.857D-02-0.233D-01 0.730D-01
 Coeff-Com: -0.455D+00 0.140D+01
 Coeff:     -0.166D-04 0.362D-04-0.707D-03 0.857D-02-0.233D-01 0.730D-01
 Coeff:     -0.455D+00 0.140D+01
 Gap=     0.235 Goal=   None    Shift=    0.000
 RMSDP=2.35D-07 MaxDP=1.66D-06 DE=-2.41D-11 OVMax= 0.00D+00

 Cycle   9  Pass 1  IDiag  1:
 E= -599.599012029021     Delta-E=       -0.000000000001 Rises=F Damp=F
 DIIS: error= 6.99D-09 at cycle   9 NSaved=   9.
 NSaved= 9 IEnMin= 9 EnMin= -599.599012029021     IErMin= 9 ErrMin= 6.99D-09
 ErrMax= 6.99D-09  0.00D+00 EMaxC= 1.00D-01 BMatC= 7.50D-16 BMatP= 1.33D-13
 IDIUse=1 WtCom= 1.00D+00 WtEn= 0.00D+00
 Coeff-Com: -0.829D-06 0.156D-05 0.130D-04-0.205D-03 0.600D-03-0.266D-02
 Coeff-Com:  0.331D-01-0.184D+00 0.115D+01
 Coeff:     -0.829D-06 0.156D-05 0.130D-04-0.205D-03 0.600D-03-0.266D-02
 Coeff:      0.331D-01-0.184D+00 0.115D+01
 Gap=     0.235 Goal=   None    Shift=    0.000
 RMSDP=1.80D-08 MaxDP=1.16D-07 DE=-1.48D-12 OVMax= 0.00D+00

 Cycle  10  Pass 1  IDiag  1:
 E= -599.599012029022     Delta-E=       -0.000000000001 Rises=F Damp=F
 DIIS: error= 3.86D-10 at cycle  10 NSaved=  10.
 NSaved=10 IEnMin=10 EnMin= -599.599012029022     IErMin=10 ErrMin= 3.86D-10
 ErrMax= 3.86D-10  0.00D+00 EMaxC= 1.00D-01 BMatC= 1.94D-18 BMatP= 7.50D-16
 IDIUse=1 WtCom= 1.00D+00 WtEn= 0.00D+00
 Coeff-Com:  0.270D-06-0.538D-06 0.153D-05-0.949D-05 0.184D-04 0.860D-04
 Coeff-Com: -0.389D-02 0.250D-01-0.233D+00 0.121D+01
 Coeff:      0.270D-06-0.538D-06 0.153D-05-0.949D-05 0.184D-04 0.860D-04
 Coeff:     -0.389D-02 0.250D-01-0.233D+00 0.121D+01
 Gap=     0.235 Goal=   None    Shift=    0.000
 RMSDP=1.26D-09 MaxDP=7.91D-09 DE=-6.82D-13 OVMax= 0.00D+00

 SCF Done:  E(RHF) =  -599.599012029     A.U. after   10 cycles
            NFock= 10  Conv=0.13D-08     -V/T= 1.9996
 KE= 5.998303538937D+02 PE=-1.434110522216D+03 EE= 2.298933624801D+02
 Leave Link  502 at Mon Mar 28 14:31:48 2022, MaxMem=  9663676416 cpu:               4.2 elap:               0.1
 (Enter /nopt/nrel/apps/gaussian/g16C_1/g16/l801.exe)
 Windowed orbitals will be sorted by symmetry type.
 ExpMin= 1.65D-02 ExpMax= 3.16D+04 ExpMxC= 4.74D+03 IAcc=3 IRadAn=         5 AccDes= 0.00D+00
 HarFok:  IExCor=  205 AccDes= 0.00D+00 IRadAn=         5 IDoV=-2 UseB2=F ITyADJ=14
 ICtDFT= 12500011 ScaDFX=  1.000000  1.000000  1.000000  1.000000
 Largest valence mixing into a core orbital is  1.43D-03
 Largest core mixing into a valence orbital is  8.62D-04
 Range of M.O.s used for correlation:    10    18
 NBasis=    18 NAE=    10 NBE=    10 NFC=     9 NFV=     0
 NROrb=      9 NOA=     1 NOB=     1 NVA=     8 NVB=     8
 Leave Link  801 at Mon Mar 28 14:31:48 2022, MaxMem=  9663676416 cpu:               2.0 elap:               0.1
 (Enter /nopt/nrel/apps/gaussian/g16C_1/g16/l804.exe)
 Closed-shell transformation, MDV=  9663676416 ITran=4 ISComp=2.
 Unit  1 TFree=         12474 TCopy=        221008.
 Semi-Direct transformation.
 ModeAB=           2 MOrb=             1 LenV=    9663550129
 LASXX=           88 LTotXX=          88 LenRXX=          88
 LTotAB=         141 MaxLAS=        1539 LenRXY=        1539
 NonZer=        1755 LenScr=      785920 LnRSAI=           0
 LnScr1=           0 LExtra=      222029 Total=      1009576
 MaxDsk= 34359738368 SrtSym=           F ITran=            4
 DoSDTr:  NPSUse= 36
 JobTyp=0 Pass  1:  I=   1 to   1.
 (rs|ai) integrals will be sorted in core.
 Complete sort for first half transformation.
 First half transformation complete.
 Complete sort for second half transformation.
 Second half transformation complete.
 Spin components of T(2) and E(2):
     alpha-alpha T2 =       0.0000000000D+00 E2=      0.0000000000D+00
     alpha-beta  T2 =       0.1933008105D-01 E2=     -0.1869722767D-01
     beta-beta   T2 =       0.0000000000D+00 E2=      0.0000000000D+00
 ANorm=    0.1009618780D+01
 E2 =    -0.1869722767D-01 EUMP2 =    -0.59961770925669D+03
 Leave Link  804 at Mon Mar 28 14:31:49 2022, MaxMem=  9663676416 cpu:               2.2 elap:               0.1
 (Enter /nopt/nrel/apps/gaussian/g16C_1/g16/l913.exe)
 CIDS:  MDV=  9663676416.
 Frozen-core window:  NFC=   9 NFV=   0.
 IFCWin=0 IBDFC=1 NFBD=     0     0 NFCmp=     0     0 NFFFC=     0     0
 Using DD3R+UMP44R for 1st iteration.
 Using DD4RQ for 2nd and later iterations.
 Keep R2 and R3 ints in memory in symmetry-blocked form, NReq=7245947.
 FoFCou: FMM=F IPFlag=           0 FMFlag=           0 FMFlg1=           0
         NFxFlg=           0 DoJE=F BraDBF=F KetDBF=F FulRan=T
         wScrn=  0.000000 ICntrl=       600 IOpCl=  0 I1Cent=           0 NGrid=           0
         NMat0=    1 NMatS0=    171 NMatT0=    0 NMatD0=    1 NMtDS0=    0 NMtDT0=    0
 Petite list used in FoFCou.
 CIDS: In Core Option IDoMem=           1.
 Coupled Cluster theory with single and double substitutions
 ===========================================================
 Iterations= 200 Convergence= 0.100D-06
 Produce multiple copies of IABC intergrals
 Iteration Nr.   1
 **********************
 DD1Dir will call FoFMem   1 times, MxPair=         2
 NAB=     1 NAA=     0 NBB=     0.
 MP4(R+Q)=  0.36141893D-03
 Maximum subspace dimension=  5
 A-vector RMS=  2.1329138D-02 Max=  4.2219041D-02 conv= 1.00D-05.
 RLE energy=       -0.0314791084
 E3=       -0.79603439D-02        EUMP3=      -0.59962566960D+03
 E4(DQ)=   -0.33171083D-02        UMP4(DQ)=   -0.59962898671D+03
 E4(SDQ)=  -0.35197262D-02        UMP4(SDQ)=  -0.59962918933D+03
 VARIATIONAL ENERGIES WITH THE FIRST-ORDER WAVEFUNCTION:
 DE(Corr)= -0.26289116E-01 E(Corr)=     -599.62530114    
 NORM(A)=   0.10281654D+01
 Iteration Nr.   2
 **********************
 DD1Dir will call FoFMem   1 times, MxPair=         2
 NAB=     1 NAA=     0 NBB=     0.
 A-vector RMS=  9.0300767D-03 Max=  9.8263027D-03 conv= 1.00D-05.
 RLE energy=       -0.0323434559
 DE(Corr)= -0.31920979E-01 E(CORR)=     -599.63093301     Delta=-5.63D-03
 NORM(A)=   0.10313895D+01
 Iteration Nr.   3
 **********************
 DD1Dir will call FoFMem   1 times, MxPair=         2
 NAB=     1 NAA=     0 NBB=     0.
 A-vector RMS=  7.7643559D-03 Max=  8.5511938D-03 conv= 1.00D-05.
 RLE energy=       -0.0326966460
 DE(Corr)= -0.32361149E-01 E(CORR)=     -599.63137318     Delta=-4.40D-04
 NORM(A)=   0.10361009D+01
 Iteration Nr.   4
 **********************
 DD1Dir will call FoFMem   1 times, MxPair=         2
 NAB=     1 NAA=     0 NBB=     0.
 A-vector RMS=  2.2601619D-03 Max=  4.5735443D-03 conv= 1.00D-05.
 RLE energy=       -0.0330258843
 DE(Corr)= -0.32811622E-01 E(CORR)=     -599.63182365     Delta=-4.50D-04
 NORM(A)=   0.10386753D+01
 Iteration Nr.   5
 **********************
 DD1Dir will call FoFMem   1 times, MxPair=         2
 NAB=     1 NAA=     0 NBB=     0.
 A-vector RMS=  1.0504527D-03 Max=  9.3443994D-04 conv= 1.00D-05.
 RLE energy=       -0.0330114032
 DE(Corr)= -0.33012810E-01 E(CORR)=     -599.63202484     Delta=-2.01D-04
 NORM(A)=   0.10388418D+01
 Iteration Nr.   6
 **********************
 DD1Dir will call FoFMem   1 times, MxPair=         2
 NAB=     1 NAA=     0 NBB=     0.
 A-vector RMS=  5.0743654D-04 Max=  4.0869688D-04 conv= 1.00D-05.
 RLE energy=       -0.0330049596
 DE(Corr)= -0.33007712E-01 E(CORR)=     -599.63201974     Delta= 5.10D-06
 NORM(A)=   0.10389143D+01
 Iteration Nr.   7
 **********************
 DD1Dir will call FoFMem   1 times, MxPair=         2
 NAB=     1 NAA=     0 NBB=     0.
 A-vector RMS=  1.1390563D-04 Max=  1.4156404D-04 conv= 1.00D-05.
 RLE energy=       -0.0330123136
 DE(Corr)= -0.33007289E-01 E(CORR)=     -599.63201932     Delta= 4.24D-07
 NORM(A)=   0.10389590D+01
 Iteration Nr.   8
 **********************
 DD1Dir will call FoFMem   1 times, MxPair=         2
 NAB=     1 NAA=     0 NBB=     0.
 A-vector RMS=  2.5188130D-05 Max=  2.3743675D-05 conv= 1.00D-05.
 RLE energy=       -0.0330115210
 DE(Corr)= -0.33011767E-01 E(CORR)=     -599.63202380     Delta=-4.48D-06
 NORM(A)=   0.10389567D+01
 Iteration Nr.   9
 **********************
 DD1Dir will call FoFMem   1 times, MxPair=         2
 NAB=     1 NAA=     0 NBB=     0.
 A-vector RMS=  1.4884336D-05 Max=  1.6087330D-05 conv= 1.00D-05.
 RLE energy=       -0.0330115342
 DE(Corr)= -0.33011482E-01 E(CORR)=     -599.63202351     Delta= 2.85D-07
 NORM(A)=   0.10389561D+01
 Iteration Nr.  10
 **********************
 DD1Dir will call FoFMem   1 times, MxPair=         2
 NAB=     1 NAA=     0 NBB=     0.
 A-vector RMS=  4.0817614D-06 Max=  2.9142479D-06 conv= 1.00D-05.
 RLE energy=       -0.0330115324
 DE(Corr)= -0.33011567E-01 E(CORR)=     -599.63202360     Delta=-8.55D-08
 NORM(A)=   0.10389552D+01
 CI/CC converged in   10 iterations to DelEn=-8.55D-08 Conv= 1.00D-07 ErrA1= 4.08D-06 Conv= 1.00D-05
 Wavefunction amplitudes converged. E(Corr)=     -599.63202360    
 Dominant configurations:
 ***********************
 Spin Case        I    J    A    B          Value
   ABAB          10   10   18   18      -0.166135D+00
 Largest amplitude= 1.66D-01
 Discarding MO integrals.
 Leave Link  913 at Mon Mar 28 14:31:49 2022, MaxMem=  9663676416 cpu:               4.0 elap:               0.2
 (Enter /nopt/nrel/apps/gaussian/g16C_1/g16/l601.exe)
 Copying SCF densities to generalized density rwf, IOpCl= 0 IROHF=0.

 **********************************************************************

            Population analysis using the SCF Density.

 **********************************************************************

 Orbital symmetries:
       Occupied  (SG) (SG) (PI) (PI) (SG) (SG) (SG) (PI) (PI) (SG)
       Virtual   (SG) (PI) (PI) (SG) (SG) (PI) (PI) (SG)
 The electronic state is 1-SG.
 Alpha  occ. eigenvalues -- -133.49309 -14.46824 -11.49760 -11.49760 -11.49730
 Alpha  occ. eigenvalues --   -1.73471  -0.94119  -0.94064  -0.94064  -0.23571
 Alpha virt. eigenvalues --   -0.00105   0.02868   0.02868   0.06853   0.08596
 Alpha virt. eigenvalues --    0.11687   0.11687   0.32976
          Condensed to atoms (all electrons):
               1          2
     1  H    0.689769   0.302944
     2  K    0.302944  18.704343
 Mulliken charges:
               1
     1  H    0.007287
     2  K   -0.007287
 Sum of Mulliken charges =   0.00000
 Mulliken charges with hydrogens summed into heavy atoms:
               1
     2  K    0.000000
 N-N= 4.787793813086D+00 E-N=-1.434110522222D+03  KE= 5.998303538937D+02
 Symmetry A1   KE= 4.746086217306D+02
 Symmetry A2   KE= 0.000000000000D+00
 Symmetry B1   KE= 6.261086608152D+01
 Symmetry B2   KE= 6.261086608152D+01

 Atomic contributions to Alpha molecular orbitals:
 Alpha occ 1 OE=-133.493 is K2-s=1.0000
 Alpha occ 2 OE=-14.468 is K2-s=1.0000
 Alpha occ 3 OE=-11.498 is K2-p=1.0000
 Alpha occ 4 OE=-11.498 is K2-p=1.0000
 Alpha occ 5 OE=-11.497 is K2-p=1.0000
 Alpha occ 6 OE=-1.735 is K2-s=0.9990
 Alpha occ 7 OE=-0.941 is K2-p=0.9947
 Alpha occ 8 OE=-0.941 is K2-p=1.0000
 Alpha occ 9 OE=-0.941 is K2-p=1.0000
 Alpha occ 10 OE=-0.236 is H1-s=0.4915 K2-s=0.3194 K2-p=0.1891
 Alpha vir 11 OE=-0.001 is K2-s=0.5248 K2-p=0.4616
 Alpha vir 12 OE=0.029 is K2-p=1.0000
 Alpha vir 13 OE=0.029 is K2-p=1.0000
 Alpha vir 14 OE=0.069 is K2-p=0.7967 K2-s=0.1683
 Alpha vir 15 OE=0.086 is K2-s=0.8065 K2-p=0.1934
 Alpha vir 16 OE=0.117 is K2-p=1.0000
 Alpha vir 17 OE=0.117 is K2-p=1.0000
 Alpha vir 18 OE=0.330 is H1-s=0.4550 K2-p=0.3637 K2-s=0.1813
 
 Leave Link  601 at Mon Mar 28 14:31:49 2022, MaxMem=  9663676416 cpu:               0.9 elap:               0.0
 (Enter /nopt/nrel/apps/gaussian/g16C_1/g16/l9999.exe)

 Test job not archived.
 1\1\GINC-R102U34\SP\RCCSD-FC\Gen\H1K1\USER\28-Mar-2022\0\\#P CCSD(
 MaxCyc=200,SaveAmplitudes,ReadAmplitudes)/GEN sp pop=AllOrbitals iop(3
 /33=1,3/36=-1)\\test\\0,1\H,0,0.,0.,0.\K,0,0.,0.,2.1\\Version=ES64L-G1
 6RevC.01\State=1-SG\HF=-599.599012\MP2=-599.6177093\MP3=-599.6256696\M
 P4D=-599.6293481\MP4DQ=-599.6289867\MP4SDQ=-599.6291893\CCSD=-599.6320
 236\RMSD=1.258e-09\PG=C*V [C*(H1K1)]\\@


 SOME THINGS ARE EASY, THEY ARE ONLY HARD TO DO.
            -- A. EINSTEIN TO J. O. HIRSCHFELDER
 THE ONLY TROUBLE WITH A SURE THING IS THE UNCERTAINTY.
     -- FROM A TEABAG (BELONGING TO W.H.?)
 Job cpu time:       0 days  0 hours  0 minutes 33.2 seconds.
 Elapsed time:       0 days  0 hours  0 minutes  1.3 seconds.
 File lengths (MBytes):  RWF=     13 Int=      0 D2E=      0 Chk=      1 Scr=      1
 Normal termination of Gaussian 16 at Mon Mar 28 14:31:49 2022.
