 Entering Gaussian System, Link 0=g16
 Initial command:
 /nopt/nrel/apps/gaussian/g16C_1/g16/l1.exe "/lustre/eaglefs/scratch/user/qc/kh-dissc/kh-1-ccsd-1.4-sto3g/Gau-23947.inp" -scrdir="/lustre/eaglefs/scratch/user/qc/kh-dissc/kh-1-ccsd-1.4-sto3g/"
 Default is to use a total of  36 processors:
                               36 via shared-memory
                                1 via Linda
 Entering Link 1 = /nopt/nrel/apps/gaussian/g16C_1/g16/l1.exe PID=     23948.
  
 Copyright (c) 1988-2019, Gaussian, Inc.  All Rights Reserved.
  
 This is part of the Gaussian(R) 16 program.  It is based on
 the Gaussian(R) 09 system (copyright 2009, Gaussian, Inc.),
 the Gaussian(R) 03 system (copyright 2003, Gaussian, Inc.),
 the Gaussian(R) 98 system (copyright 1998, Gaussian, Inc.),
 the Gaussian(R) 94 system (copyright 1995, Gaussian, Inc.),
 the Gaussian 92(TM) system (copyright 1992, Gaussian, Inc.),
 the Gaussian 90(TM) system (copyright 1990, Gaussian, Inc.),
 the Gaussian 88(TM) system (copyright 1988, Gaussian, Inc.),
 the Gaussian 86(TM) system (copyright 1986, Carnegie Mellon
 University), and the Gaussian 82(TM) system (copyright 1983,
 Carnegie Mellon University). Gaussian is a federally registered
 trademark of Gaussian, Inc.
  
 This software contains proprietary and confidential information,
 including trade secrets, belonging to Gaussian, Inc.
  
 This software is provided under written license and may be
 used, copied, transmitted, or stored only in accord with that
 written license.
  
 The following legend is applicable only to US Government
 contracts under FAR:
  
                    RESTRICTED RIGHTS LEGEND
  
 Use, reproduction and disclosure by the US Government is
 subject to restrictions as set forth in subparagraphs (a)
 and (c) of the Commercial Computer Software - Restricted
 Rights clause in FAR 52.227-19.
  
 Gaussian, Inc.
 340 Quinnipiac St., Bldg. 40, Wallingford CT 06492
  
  
 ---------------------------------------------------------------
 Warning -- This program may not be used in any manner that
 competes with the business of Gaussian, Inc. or will provide
 assistance to any competitor of Gaussian, Inc.  The licensee
 of this program is prohibited from giving any competitor of
 Gaussian, Inc. access to this program.  By using this program,
 the user acknowledges that Gaussian, Inc. is engaged in the
 business of creating and licensing software in the field of
 computational chemistry and represents and warrants to the
 licensee that it is not a competitor of Gaussian, Inc. and that
 it will not use this program in any manner prohibited above.
 ---------------------------------------------------------------
  

 Cite this work as:
 Gaussian 16, Revision C.01,
 M. J. Frisch, G. W. Trucks, H. B. Schlegel, G. E. Scuseria, 
 M. A. Robb, J. R. Cheeseman, G. Scalmani, V. Barone, 
 G. A. Petersson, H. Nakatsuji, X. Li, M. Caricato, A. V. Marenich, 
 J. Bloino, B. G. Janesko, R. Gomperts, B. Mennucci, H. P. Hratchian, 
 J. V. Ortiz, A. F. Izmaylov, J. L. Sonnenberg, D. Williams-Young, 
 F. Ding, F. Lipparini, F. Egidi, J. Goings, B. Peng, A. Petrone, 
 T. Henderson, D. Ranasinghe, V. G. Zakrzewski, J. Gao, N. Rega, 
 G. Zheng, W. Liang, M. Hada, M. Ehara, K. Toyota, R. Fukuda, 
 J. Hasegawa, M. Ishida, T. Nakajima, Y. Honda, O. Kitao, H. Nakai, 
 T. Vreven, K. Throssell, J. A. Montgomery, Jr., J. E. Peralta, 
 F. Ogliaro, M. J. Bearpark, J. J. Heyd, E. N. Brothers, K. N. Kudin, 
 V. N. Staroverov, T. A. Keith, R. Kobayashi, J. Normand, 
 K. Raghavachari, A. P. Rendell, J. C. Burant, S. S. Iyengar, 
 J. Tomasi, M. Cossi, J. M. Millam, M. Klene, C. Adamo, R. Cammi, 
 J. W. Ochterski, R. L. Martin, K. Morokuma, O. Farkas, 
 J. B. Foresman, and D. J. Fox, Gaussian, Inc., Wallingford CT, 2019.
 
 ******************************************
 Gaussian 16:  ES64L-G16RevC.01  3-Jul-2019
                28-Mar-2022 
 ******************************************
 %chk=molecule
 Default route: CacheSize=180224 MaxDisk=256GB
 ----------------------------------------------------------------------
 #P CCSD(MaxCyc=200,SaveAmplitudes,ReadAmplitudes)/GEN sp pop=AllOrbita
 ls iop(3/33=1,3/36=-1)
 ----------------------------------------------------------------------
 1/4=180224,38=1,172=1/1;
 2/4=180224,12=2,17=6,18=5,40=1/2;
 3/4=180224,5=7,11=9,25=1,30=1,33=1,36=-1/1,2,3;
 4/4=180224/1;
 5/4=180224,5=2,38=5/2;
 8/4=180224,6=4,9=120000,10=1,24=1/1,4;
 9/4=180224,5=7,6=200,77=1/13;
 6/4=180224,7=2,8=2,9=2,10=2,96=-1/1;
 99/4=180224,5=1,9=1/99;
 Leave Link    1 at Mon Mar 28 14:30:04 2022, MaxMem=           0 cpu:               2.8 elap:               0.1
 (Enter /nopt/nrel/apps/gaussian/g16C_1/g16/l101.exe)
 ----
 test
 ----
 Symbolic Z-matrix:
 Charge =  0 Multiplicity = 1
 H                     0.        0.        0. 
 K                     0.        0.        1.4 
 
 ITRead=  0  0
 MicOpt= -1 -1
 NAtoms=      2 NQM=        2 NQMF=       0 NMMI=      0 NMMIF=      0
                NMic=       0 NMicF=      0.
                    Isotopes and Nuclear Properties:
 (Nuclear quadrupole moments (NQMom) in fm**2, nuclear magnetic moments (NMagM)
  in nuclear magnetons)

  Atom         1           2
 IAtWgt=           1          39
 AtmWgt=   1.0078250  38.9637079
 NucSpn=           1           3
 AtZEff=  -0.0000000  -0.0000000
 NQMom=    0.0000000   5.8500000
 NMagM=    2.7928460   0.3914660
 AtZNuc=   1.0000000  19.0000000
 Leave Link  101 at Mon Mar 28 14:30:04 2022, MaxMem=  9663676416 cpu:               3.2 elap:               0.1
 (Enter /nopt/nrel/apps/gaussian/g16C_1/g16/l202.exe)
                          Input orientation:                          
 ---------------------------------------------------------------------
 Center     Atomic      Atomic             Coordinates (Angstroms)
 Number     Number       Type             X           Y           Z
 ---------------------------------------------------------------------
      1          1           0        0.000000    0.000000    0.000000
      2         19           0        0.000000    0.000000    1.400000
 ---------------------------------------------------------------------
 Stoichiometry    HK
 Framework group  C*V[C*(HK)]
 Deg. of freedom     1
 Full point group                 C*V     NOp   4
 Largest Abelian subgroup         C2V     NOp   4
 Largest concise Abelian subgroup C1      NOp   1
                         Standard orientation:                         
 ---------------------------------------------------------------------
 Center     Atomic      Atomic             Coordinates (Angstroms)
 Number     Number       Type             X           Y           Z
 ---------------------------------------------------------------------
      1          1           0        0.000000    0.000000   -1.330000
      2         19           0        0.000000    0.000000    0.070000
 ---------------------------------------------------------------------
 Rotational constants (GHZ):           0.0000000         262.4620462         262.4620462
 Leave Link  202 at Mon Mar 28 14:30:04 2022, MaxMem=  9663676416 cpu:               1.3 elap:               0.1
 (Enter /nopt/nrel/apps/gaussian/g16C_1/g16/l301.exe)
 General basis read from cards:  (5D, 7F)
                         Coordinates in L301:                         
 ---------------------------------------------------------------------
 Center     Atomic      Atomic             Coordinates (Angstroms)
 Number     Number       Type             X           Y           Z
 ---------------------------------------------------------------------
      1          1           0        0.000000    0.000000   -1.330000
      2         19           0        0.000000    0.000000    0.070000
 ---------------------------------------------------------------------
 Centers:       1
 STO-3G
 ****
 Centers:       2
 STO-3G
 ****
 FixB: optimizing general contractions.
 Ernie: Thresh=  0.10000D-02 Tol=  0.10000D-05 Strict=F.
 IA=     1 ShT= 0 ShC= 0 NL=   1 NS=   0.
 IA=     1 L=0 SC=0 ISt=    0 NBk=    0 NP=    0 IndPr=    0.
 IA=     2 ShT= 0 ShC= 0 NL=   1 NS=   0.
 IA=     2 L=0 SC=0 ISt=    0 NBk=    0 NP=    0 IndPr=    0.
 IA=     2 ShT= 1 ShC= 0 NL=   3 NS=   0.
 IA=     2 L=1 SC=0 ISt=    1 NBk=    3 NP=    9 IndPr=    0.
 DoElim1:  L=1 select primitive    1 from    2 using    1 C=-1.00D-01
 DoElim1:  L=1 select primitive    1 from    3 using    1 C=-1.00D-01
 DoElim1:  L=1 select primitive    4 from    3 using    2 C=-2.20D-01
 DoElim2:  L=1 select primitive    9 from    2 using    3 C= 1.13D+00
 DoElim2:  L=1 select primitive    9 from    1 using    3 C= 1.13D+00
 DoElim2:  L=1 select primitive    7 from    1 using    2 C= 9.00D-01
 DoElim1:  L=1 select primitive    1 from    2 using    1 C= 1.56D-01
 DoElim1:  L=1 select primitive    1 from    3 using    1 C= 1.56D-01
 DoElim1:  L=1 select primitive    4 from    3 using    2 C= 1.06D-02
 DoElim2:  L=1 select primitive    8 from    2 using    3 C= 5.72D-01
 DoElim2:  L=1 select primitive    8 from    1 using    3 C= 5.72D-01
 DoElim2:  L=1 select primitive    5 from    1 using    2 C= 5.95D-01
 Delete L=1 primitive    7 from    3 C=  0.00D+00.
 Delete L=1 primitive    5 from    3 C=  0.00D+00.
 Delete L=1 primitive    4 from    3 C=  0.00D+00.
 Delete L=1 primitive    3 from    3 C=  0.00D+00.
 Delete L=1 primitive    2 from    3 C=  0.00D+00.
 Delete L=1 primitive    1 from    3 C=  0.00D+00.
 Delete L=1 primitive    9 from    2 C=  0.00D+00.
 Delete L=1 primitive    8 from    2 C=  0.00D+00.
 Delete L=1 primitive    6 from    2 C=  0.00D+00.
 Delete L=1 primitive    3 from    2 C=  0.00D+00.
 Delete L=1 primitive    2 from    2 C=  0.00D+00.
 Delete L=1 primitive    1 from    2 C=  0.00D+00.
 Delete L=1 primitive    9 from    1 C=  0.00D+00.
 Delete L=1 primitive    8 from    1 C=  0.00D+00.
 Delete L=1 primitive    7 from    1 C=  0.00D+00.
 Delete L=1 primitive    6 from    1 C=  0.00D+00.
 Delete L=1 primitive    5 from    1 C=  0.00D+00.
 Delete L=1 primitive    4 from    1 C=  0.00D+00.
 IA=     2 L=1 SC=0 ISt=    0 NBk=    0 NP=    0 IndPr=    9.
 LdAtmC:  AtmChg=     1.000000    19.000000
 AtZEff=     -1.0000000    -22.4200000
 NEqShl: 
              1            2            3            4
     1            1            1            1            1
     2            2            2            2            2
     3            3            3            3            3
     4            4            4            4            4
     5            5            5            5            5
 NEqBas: 
              1            2            3            4
     1            1            1            1            1
     2            2            2            2            2
     3            3            3            3            3
     4            4           -4           -4            4
     5            5           -5            5           -5
     6            6            6            6            6
     7            7            7            7            7
     8            8           -8           -8            8
     9            9           -9            9           -9
    10           10           10           10           10
    11           11           11           11           11
    12           12          -12          -12           12
    13           13          -13           13          -13
    14           14           14           14           14
 There are     8 symmetry adapted cartesian basis functions of A1  symmetry.
   1         1   1   1   1
   2         2   2   2   2
   3         3   3   3   3
   4         6   6   6   6
   5         7   7   7   7
   6        10  10  10  10
   7        11  11  11  11
   8        14  14  14  14
 There are     0 symmetry adapted cartesian basis functions of A2  symmetry.
 There are     3 symmetry adapted cartesian basis functions of B1  symmetry.
   9         4   4   4   4
  10         8   8   8   8
  11        12  12  12  12
 There are     3 symmetry adapted cartesian basis functions of B2  symmetry.
  12         5   5   5   5
  13         9   9   9   9
  14        13  13  13  13
 Order= 1 2 4 3
 Reordered character table:
              1            2            3            4            5
     1            1            1            1            1            1
     2            2            1            1           -1           -1
     3            4            1           -1           -1            1
     4            3            1           -1            1           -1
 NEqShl: 
              1            2            3            4
     1            1            1            1            1
     2            2            2            2            2
     3            3            3            3            3
     4            4            4            4            4
     5            5            5            5            5
 NEqBas: 
              1            2            3            4
     1            1            1            1            1
     2            2            2            2            2
     3            3            3            3            3
     4            4           -4           -4            4
     5            5           -5            5           -5
     6            6            6            6            6
     7            7            7            7            7
     8            8           -8           -8            8
     9            9           -9            9           -9
    10           10           10           10           10
    11           11           11           11           11
    12           12          -12          -12           12
    13           13          -13           13          -13
    14           14           14           14           14
 There are     8 symmetry adapted basis functions of A1  symmetry.
   1         1   1   1   1
   2         2   2   2   2
   3         3   3   3   3
   4         6   6   6   6
   5         7   7   7   7
   6        10  10  10  10
   7        11  11  11  11
   8        14  14  14  14
 There are     0 symmetry adapted basis functions of A2  symmetry.
 There are     3 symmetry adapted basis functions of B1  symmetry.
   9         4   4   4   4
  10         8   8   8   8
  11        12  12  12  12
 There are     3 symmetry adapted basis functions of B2  symmetry.
  12         5   5   5   5
  13         9   9   9   9
  14        13  13  13  13
 Order= 1 2 4 3
 Reordered character table:
              1            2            3            4            5
     1            1            1            1            1            1
     2            2            1            1           -1           -1
     3            4            1           -1           -1            1
     4            3            1           -1            1           -1
    14 basis functions,    42 primitive gaussians,    14 cartesian basis functions
    10 alpha electrons       10 beta electrons
       nuclear repulsion energy         7.1816907196 Hartrees.
 IS=     1 IAt=     1 ISR=     1 T=0 IP=      1 IndIP=      1 IndIPD=      0 C=  2.769344D-01  0.000000D+00                             NZ=T
 IS=     1 IAt=     1 ISR=     1 T=0 IP=      2 IndIP=      2 IndIPD=      1 C=  2.678389D-01  0.000000D+00                             NZ=T
 IS=     1 IAt=     1 ISR=     1 T=0 IP=      3 IndIP=      3 IndIPD=      2 C=  8.347367D-02  0.000000D+00                             NZ=T
 IS=     2 IAt=     2 ISR=     1 T=0 IP=      1 IndIP=      4 IndIPD=      0 C=  1.610141D+01  0.000000D+00                             NZ=T
 IS=     2 IAt=     2 ISR=     1 T=0 IP=      2 IndIP=      5 IndIPD=      1 C=  1.557258D+01  0.000000D+00                             NZ=T
 IS=     2 IAt=     2 ISR=     1 T=0 IP=      3 IndIP=      6 IndIPD=      2 C=  4.853293D+00  0.000000D+00                             NZ=T
 IS=     3 IAt=     2 ISR=     2 T=1 IP=      1 IndIP=      7 IndIPD=      0 C= -1.387647D+00  3.133407D+01                             NZ=T
 IS=     3 IAt=     2 ISR=     2 T=1 IP=      2 IndIP=      8 IndIPD=      1 C=  1.856089D+00  1.970370D+01                             NZ=T
 IS=     3 IAt=     2 ISR=     2 T=1 IP=      3 IndIP=      9 IndIPD=      2 C=  1.400818D+00  3.121398D+00                             NZ=T
 IS=     4 IAt=     2 ISR=     3 T=1 IP=      1 IndIP=     10 IndIPD=      0 C= -4.134697D-01  7.617973D-02                             NZ=T
 IS=     4 IAt=     2 ISR=     3 T=1 IP=      2 IndIP=     11 IndIPD=      1 C=  1.630428D-01  8.683221D-01                             NZ=T
 IS=     4 IAt=     2 ISR=     3 T=1 IP=      3 IndIP=     12 IndIPD=      2 C=  3.220075D-01  2.086659D-01                             NZ=T
 IS=     5 IAt=     2 ISR=     4 T=1 IP=      1 IndIP=     13 IndIPD=      0 C= -1.316621D-01 -7.357036D-02                             NZ=T
 IS=     5 IAt=     2 ISR=     4 T=1 IP=      2 IndIP=     14 IndIPD=      1 C=  3.957719D-03  9.951033D-02                             NZ=T
 IS=     5 IAt=     2 ISR=     4 T=1 IP=      3 IndIP=     15 IndIPD=      2 C=  1.236808D-01  3.446781D-02                             NZ=T
 IExCor=    0 DFT=F Ex=HF Corr=None ExCW=0 ScaHFX=  1.000000
 ScaDFX=  1.000000  1.000000  1.000000  1.000000 ScalE2=  1.000000  1.000000
 IRadAn=      5 IRanWt=     -1 IRanGd=            0 ICorTp=0 IEmpDi=  4
 NAtoms=    2 NActive=    2 NUniq=    2 SFac= 1.00D+00 NAtFMM=   60 NAOKFM=F Big=F
 Integral buffers will be    131072 words long.
 Raffenetti 1 integral format.
 Two-electron integral symmetry is turned on.
 Leave Link  301 at Mon Mar 28 14:30:04 2022, MaxMem=  9663676416 cpu:               1.9 elap:               0.1
 (Enter /nopt/nrel/apps/gaussian/g16C_1/g16/l302.exe)
 NPDir=0 NMtPBC=     1 NCelOv=     1 NCel=       1 NClECP=     1 NCelD=      1
         NCelK=      1 NCelE2=     1 NClLst=     1 CellRange=     0.0.
 One-electron integrals computed using PRISM.
 One-electron integral symmetry used in STVInt
 Entering OneElI...
 Calculate overlap and kinetic energy integrals
    NBasis =  14  MinDer = 0  MaxDer = 0
 Requested accuracy = 0.1000D-12
 Symmetry will be used
 PrmmSu-InSpLW:  IPartL=    0 NPrtUS=   36 NPrtUL=    1 DoSpLW=F IThBeg=    0 IThEnd=   35 NThAct=   36.
 PrSmSu:  IncTry=   512 NBBP=             15 NTPThr=   100 NPartT=   36 Incr=           1 LDynOK=F GPUOK=F.
 PrsmSu:  NPrtUS=  36 ThrOK=T IAlg=1 LenDen=           0 ISkipM=0 DoSpLW=F IThBeg=    0 IThEnd=   35.
 Prism:   IPart=     0 DynPar=F LinDyn=F Incr=           1.
 PRISM was handed   268433335 working-precision words and    15 shell-pairs
 PRISM was handed   268433335 working-precision words and    15 shell-pairs
 PRISM was handed   268433335 working-precision words and    15 shell-pairs
 PRISM was handed   268433335 working-precision words and    15 shell-pairs
 PRISM was handed   268433335 working-precision words and    15 shell-pairs
 PRISM was handed   268433335 working-precision words and    15 shell-pairs
 PRISM was handed   268433335 working-precision words and    15 shell-pairs
 PRISM was handed   268433335 working-precision words and    15 shell-pairs
 PRISM was handed   268433335 working-precision words and    15 shell-pairs
 PRISM was handed   268433335 working-precision words and    15 shell-pairs
 PRISM was handed   268433335 working-precision words and    15 shell-pairs
 IPart= 16 NShTot=           0 NBatch=           0 AvBLen=         0.0
 IPart= 34 NShTot=           0 NBatch=           0 AvBLen=         0.0
 IPart= 13 NShTot=           0 NBatch=           0 AvBLen=         0.0
 IPart= 26 NShTot=           0 NBatch=           0 AvBLen=         0.0
 IPart= 32 NShTot=           0 NBatch=           0 AvBLen=         0.0
 IPart=  8 NShTot=           0 NBatch=           0 AvBLen=         0.0
 IPart= 24 NShTot=           0 NBatch=           0 AvBLen=         0.0
 IPart=  7 NShTot=           0 NBatch=           0 AvBLen=         0.0
 IPart= 17 NShTot=           0 NBatch=           0 AvBLen=         0.0
 PRISM was handed   268433335 working-precision words and    15 shell-pairs
 PRISM was handed   268433335 working-precision words and    15 shell-pairs
 PRISM was handed   268433335 working-precision words and    15 shell-pairs
 PRISM was handed   268433335 working-precision words and    15 shell-pairs
 PRISM was handed   268433335 working-precision words and    15 shell-pairs
 PRISM was handed   268433335 working-precision words and    15 shell-pairs
 PRISM was handed   268433335 working-precision words and    15 shell-pairs
 IPart= 22 NShTot=           0 NBatch=           0 AvBLen=         0.0
 IPart= 10 NShTot=           0 NBatch=           0 AvBLen=         0.0
 PRISM was handed   268433335 working-precision words and    15 shell-pairs
 IPart= 35 NShTot=           0 NBatch=           0 AvBLen=         0.0
 IPart=  1 NShTot=           3 NBatch=           3 AvBLen=         1.0
 IPart= 27 NShTot=           0 NBatch=           0 AvBLen=         0.0
 IPart= 18 NShTot=           0 NBatch=           0 AvBLen=         0.0
 IPart= 28 NShTot=           0 NBatch=           0 AvBLen=         0.0
 PRISM was handed   268433335 working-precision words and    15 shell-pairs
 IPart= 25 NShTot=           0 NBatch=           0 AvBLen=         0.0
 IPart= 29 NShTot=           0 NBatch=           0 AvBLen=         0.0
 PRISM was handed   268433335 working-precision words and    15 shell-pairs
 IPart=  0 NShTot=           3 NBatch=           3 AvBLen=         1.0
 IPart= 21 NShTot=           0 NBatch=           0 AvBLen=         0.0
 PRISM was handed   268433335 working-precision words and    15 shell-pairs
 PRISM was handed   268433335 working-precision words and    15 shell-pairs
 PRISM was handed   268433335 working-precision words and    15 shell-pairs
 IPart=  2 NShTot=           3 NBatch=           3 AvBLen=         1.0
 PRISM was handed   268433335 working-precision words and    15 shell-pairs
 PRISM was handed   268433335 working-precision words and    15 shell-pairs
 IPart= 19 NShTot=           0 NBatch=           0 AvBLen=         0.0
 IPart= 31 NShTot=           0 NBatch=           0 AvBLen=         0.0
 IPart= 15 NShTot=           0 NBatch=           0 AvBLen=         0.0
 PRISM was handed   268433335 working-precision words and    15 shell-pairs
 IPart=  6 NShTot=           0 NBatch=           0 AvBLen=         0.0
 PRISM was handed   268433335 working-precision words and    15 shell-pairs
 PRISM was handed   268433335 working-precision words and    15 shell-pairs
 PRISM was handed   268433335 working-precision words and    15 shell-pairs
 PRISM was handed   268433335 working-precision words and    15 shell-pairs
 PRISM was handed   268433335 working-precision words and    15 shell-pairs
 IPart= 20 NShTot=           0 NBatch=           0 AvBLen=         0.0
 PRISM was handed   268433335 working-precision words and    15 shell-pairs
 PRISM was handed   268433335 working-precision words and    15 shell-pairs
 PRISM was handed   268433335 working-precision words and    15 shell-pairs
 PRISM was handed   268433335 working-precision words and    15 shell-pairs
 IPart= 33 NShTot=           0 NBatch=           0 AvBLen=         0.0
 IPart=  9 NShTot=           0 NBatch=           0 AvBLen=         0.0
 IPart= 12 NShTot=           0 NBatch=           0 AvBLen=         0.0
 IPart= 30 NShTot=           0 NBatch=           0 AvBLen=         0.0
 IPart=  4 NShTot=           2 NBatch=           2 AvBLen=         1.0
 IPart=  3 NShTot=           2 NBatch=           2 AvBLen=         1.0
 IPart= 14 NShTot=           0 NBatch=           0 AvBLen=         0.0
 IPart= 11 NShTot=           0 NBatch=           0 AvBLen=         0.0
 IPart= 23 NShTot=           0 NBatch=           0 AvBLen=         0.0
 IPart=  5 NShTot=           2 NBatch=           2 AvBLen=         1.0
 PrSmSu:  NxtVal=             37.
 *** Overlap *** 
                1             2             3             4             5 
      1  0.100000D+01
      2  0.498823D-02  0.100000D+01
      3  0.364279D-01  0.354956D+00  0.100000D+01
      4  0.000000D+00  0.000000D+00  0.000000D+00  0.100000D+01
      5  0.000000D+00  0.000000D+00  0.000000D+00  0.000000D+00  0.100000D+01
      6 -0.137790D-01  0.000000D+00  0.000000D+00  0.000000D+00  0.000000D+00
      7  0.261694D+00  0.177465D-01  0.276696D+00  0.000000D+00  0.000000D+00
      8  0.000000D+00  0.000000D+00  0.000000D+00  0.290978D+00  0.000000D+00
      9  0.000000D+00  0.000000D+00  0.000000D+00  0.000000D+00  0.290978D+00
     10 -0.259924D+00  0.000000D+00  0.000000D+00  0.000000D+00  0.000000D+00
     11  0.451827D+00 -0.411512D-03  0.141138D-01  0.000000D+00  0.000000D+00
     12  0.000000D+00  0.000000D+00  0.000000D+00  0.256077D-01  0.000000D+00
     13  0.000000D+00  0.000000D+00  0.000000D+00  0.000000D+00  0.256077D-01
     14 -0.567053D+00  0.000000D+00  0.000000D+00  0.000000D+00  0.000000D+00
                6             7             8             9            10 
      6  0.100000D+01
      7  0.000000D+00  0.100000D+01
      8  0.000000D+00  0.000000D+00  0.100000D+01
      9  0.000000D+00  0.000000D+00  0.000000D+00  0.100000D+01
     10  0.290978D+00  0.000000D+00  0.000000D+00  0.000000D+00  0.100000D+01
     11  0.000000D+00  0.437056D+00  0.000000D+00  0.000000D+00  0.000000D+00
     12  0.000000D+00  0.000000D+00  0.445695D+00  0.000000D+00  0.000000D+00
     13  0.000000D+00  0.000000D+00  0.000000D+00  0.445695D+00  0.000000D+00
     14  0.256077D-01  0.000000D+00  0.000000D+00  0.000000D+00  0.445695D+00
               11            12            13            14 
     11  0.100000D+01
     12  0.000000D+00  0.100000D+01
     13  0.000000D+00  0.000000D+00  0.100000D+01
     14  0.000000D+00  0.000000D+00  0.000000D+00  0.100000D+01
 *** Kinetic Energy *** 
                1             2             3             4             5 
      1  0.760032D+00
      2 -0.161722D-02  0.171191D+03
      3 -0.111432D-01  0.616344D+00  0.841372D+01
      4  0.000000D+00  0.000000D+00  0.000000D+00  0.263276D+02
      5  0.000000D+00  0.000000D+00  0.000000D+00  0.000000D+00  0.263276D+02
      6  0.431108D-02  0.000000D+00  0.000000D+00  0.000000D+00  0.000000D+00
      7  0.100974D-01 -0.508771D+00 -0.622783D+00  0.000000D+00  0.000000D+00
      8  0.000000D+00  0.000000D+00  0.000000D+00  0.115183D+01  0.000000D+00
      9  0.000000D+00  0.000000D+00  0.000000D+00  0.000000D+00  0.115183D+01
     10 -0.711301D-01  0.000000D+00  0.000000D+00  0.000000D+00  0.000000D+00
     11  0.692276D-01 -0.277145D-01 -0.148074D+00  0.000000D+00  0.000000D+00
     12  0.000000D+00  0.000000D+00  0.000000D+00 -0.149366D-01  0.000000D+00
     13  0.000000D+00  0.000000D+00  0.000000D+00  0.000000D+00 -0.149366D-01
     14 -0.184892D+00  0.000000D+00  0.000000D+00  0.000000D+00  0.000000D+00
                6             7             8             9            10 
      6  0.263276D+02
      7  0.000000D+00  0.750794D+00
      8  0.000000D+00  0.000000D+00  0.175622D+01
      9  0.000000D+00  0.000000D+00  0.000000D+00  0.175622D+01
     10  0.115183D+01  0.000000D+00  0.000000D+00  0.000000D+00  0.175622D+01
     11  0.000000D+00 -0.454110D-01  0.000000D+00  0.000000D+00  0.000000D+00
     12  0.000000D+00  0.000000D+00  0.159934D+00  0.000000D+00  0.000000D+00
     13  0.000000D+00  0.000000D+00  0.000000D+00  0.159934D+00  0.000000D+00
     14 -0.149366D-01  0.000000D+00  0.000000D+00  0.000000D+00  0.159934D+00
               11            12            13            14 
     11  0.146782D+00
     12  0.000000D+00  0.289753D+00
     13  0.000000D+00  0.000000D+00  0.289753D+00
     14  0.000000D+00  0.000000D+00  0.000000D+00  0.289753D+00
 Entering OneElI...
 Calculate potential energy integrals
    NBasis =  14  MinDer = 0  MaxDer = 0
 Requested accuracy = 0.1000D-12
 Symmetry will be used
 PrmmSu-InSpLW:  IPartL=    0 NPrtUS=   36 NPrtUL=    1 DoSpLW=F IThBeg=    0 IThEnd=   35 NThAct=   36.
 PrSmSu:  IncTry=   512 NBBP=             30 NTPThr=   100 NPartT=   36 Incr=           1 LDynOK=F GPUOK=F.
 PrsmSu:  NPrtUS=  36 ThrOK=T IAlg=1 LenDen=           0 ISkipM=0 DoSpLW=F IThBeg=    0 IThEnd=   35.
 Prism:   IPart=     0 DynPar=F LinDyn=F Incr=           1.
 PRISM was handed   268433425 working-precision words and    15 shell-pairs
 PRISM was handed   268433425 working-precision words and    15 shell-pairs
 PRISM was handed   268433425 working-precision words and    15 shell-pairs
 PRISM was handed   268433425 working-precision words and    15 shell-pairs
 PRISM was handed   268433425 working-precision words and    15 shell-pairs
 PRISM was handed   268433425 working-precision words and    15 shell-pairs
 PRISM was handed   268433425 working-precision words and    15 shell-pairs
 PRISM was handed   268433425 working-precision words and    15 shell-pairs
 PRISM was handed   268433425 working-precision words and    15 shell-pairs
 PRISM was handed   268433425 working-precision words and    15 shell-pairs
 PRISM was handed   268433425 working-precision words and    15 shell-pairs
 PRISM was handed   268433425 working-precision words and    15 shell-pairs
 PRISM was handed   268433425 working-precision words and    15 shell-pairs
 PRISM was handed   268433425 working-precision words and    15 shell-pairs
 PRISM was handed   268433425 working-precision words and    15 shell-pairs
 PRISM was handed   268433425 working-precision words and    15 shell-pairs
 PRISM was handed   268433425 working-precision words and    15 shell-pairs
 PRISM was handed   268433425 working-precision words and    15 shell-pairs
 PRISM was handed   268433425 working-precision words and    15 shell-pairs
 PRISM was handed   268433425 working-precision words and    15 shell-pairs
 PRISM was handed   268433425 working-precision words and    15 shell-pairs
 PRISM was handed   268433425 working-precision words and    15 shell-pairs
 PRISM was handed   268433425 working-precision words and    15 shell-pairs
 PRISM was handed   268433425 working-precision words and    15 shell-pairs
 PRISM was handed   268433425 working-precision words and    15 shell-pairs
 PRISM was handed   268433425 working-precision words and    15 shell-pairs
 PRISM was handed   268433425 working-precision words and    15 shell-pairs
 PRISM was handed   268433425 working-precision words and    15 shell-pairs
 PRISM was handed   268433425 working-precision words and    15 shell-pairs
 PRISM was handed   268433425 working-precision words and    15 shell-pairs
 PRISM was handed   268433425 working-precision words and    15 shell-pairs
 PRISM was handed   268433425 working-precision words and    15 shell-pairs
 PRISM was handed   268433425 working-precision words and    15 shell-pairs
 PRISM was handed   268433425 working-precision words and    15 shell-pairs
 PRISM was handed   268433425 working-precision words and    15 shell-pairs
 PRISM was handed   268433425 working-precision words and    15 shell-pairs
 IPart=  5 NShTot=           4 NBatch=           2 AvBLen=         2.0
 IPart=  4 NShTot=           4 NBatch=           2 AvBLen=         2.0
 IPart=  1 NShTot=           6 NBatch=           3 AvBLen=         2.0
 IPart=  0 NShTot=           6 NBatch=           3 AvBLen=         2.0
 IPart=  2 NShTot=           6 NBatch=           3 AvBLen=         2.0
 IPart= 17 NShTot=           0 NBatch=           0 AvBLen=         0.0
 IPart=  8 NShTot=           0 NBatch=           0 AvBLen=         0.0
 IPart=  6 NShTot=           0 NBatch=           0 AvBLen=         0.0
 IPart= 14 NShTot=           0 NBatch=           0 AvBLen=         0.0
 IPart= 29 NShTot=           0 NBatch=           0 AvBLen=         0.0
 IPart= 32 NShTot=           0 NBatch=           0 AvBLen=         0.0
 IPart= 13 NShTot=           0 NBatch=           0 AvBLen=         0.0
 IPart= 35 NShTot=           0 NBatch=           0 AvBLen=         0.0
 IPart= 25 NShTot=           0 NBatch=           0 AvBLen=         0.0
 IPart= 33 NShTot=           0 NBatch=           0 AvBLen=         0.0
 IPart= 15 NShTot=           0 NBatch=           0 AvBLen=         0.0
 IPart=  7 NShTot=           0 NBatch=           0 AvBLen=         0.0
 IPart= 12 NShTot=           0 NBatch=           0 AvBLen=         0.0
 IPart= 24 NShTot=           0 NBatch=           0 AvBLen=         0.0
 IPart= 27 NShTot=           0 NBatch=           0 AvBLen=         0.0
 IPart= 21 NShTot=           0 NBatch=           0 AvBLen=         0.0
 IPart= 20 NShTot=           0 NBatch=           0 AvBLen=         0.0
 IPart= 26 NShTot=           0 NBatch=           0 AvBLen=         0.0
 IPart= 34 NShTot=           0 NBatch=           0 AvBLen=         0.0
 IPart= 30 NShTot=           0 NBatch=           0 AvBLen=         0.0
 IPart= 10 NShTot=           0 NBatch=           0 AvBLen=         0.0
 IPart= 19 NShTot=           0 NBatch=           0 AvBLen=         0.0
 IPart=  9 NShTot=           0 NBatch=           0 AvBLen=         0.0
 IPart= 23 NShTot=           0 NBatch=           0 AvBLen=         0.0
 IPart= 16 NShTot=           0 NBatch=           0 AvBLen=         0.0
 IPart= 31 NShTot=           0 NBatch=           0 AvBLen=         0.0
 IPart= 22 NShTot=           0 NBatch=           0 AvBLen=         0.0
 IPart= 11 NShTot=           0 NBatch=           0 AvBLen=         0.0
 IPart= 18 NShTot=           0 NBatch=           0 AvBLen=         0.0
 IPart= 28 NShTot=           0 NBatch=           0 AvBLen=         0.0
 IPart=  3 NShTot=           4 NBatch=           2 AvBLen=         2.0
 PrSmSu:  NxtVal=             37.
 ***** Potential Energy ***** 
                1             2             3             4             5 
      1  0.836391D+01
      2  0.901143D+00  0.350151D+03
      3  0.171305D+01  0.640244D+02  0.697459D+02
      4  0.000000D+00  0.000000D+00  0.000000D+00  0.691890D+02
      5  0.000000D+00  0.000000D+00  0.000000D+00  0.000000D+00  0.691890D+02
      6 -0.486513D+00 -0.432921D-02 -0.283901D-01  0.000000D+00  0.000000D+00
      7  0.359518D+01  0.277333D+01  0.111796D+02  0.000000D+00  0.000000D+00
      8  0.000000D+00  0.000000D+00  0.000000D+00  0.116722D+02  0.000000D+00
      9  0.000000D+00  0.000000D+00  0.000000D+00  0.000000D+00  0.116722D+02
     10 -0.315502D+01 -0.263377D-03 -0.132565D-01  0.000000D+00  0.000000D+00
     11  0.364194D+01 -0.974484D-01  0.364687D+00  0.000000D+00  0.000000D+00
     12  0.000000D+00  0.000000D+00  0.000000D+00  0.891225D+00  0.000000D+00
     13  0.000000D+00  0.000000D+00  0.000000D+00  0.000000D+00  0.891225D+00
     14 -0.447068D+01 -0.149158D-04 -0.128343D-02  0.000000D+00  0.000000D+00
                6             7             8             9            10 
      6  0.691936D+02
      7 -0.138712D-01  0.177997D+02
      8  0.000000D+00  0.000000D+00  0.178085D+02
      9  0.000000D+00  0.000000D+00  0.000000D+00  0.178085D+02
     10  0.116760D+02 -0.104432D+00  0.000000D+00  0.000000D+00  0.178675D+02
     11 -0.102910D-02  0.514886D+01  0.000000D+00  0.000000D+00 -0.645375D-01
     12  0.000000D+00  0.000000D+00  0.532404D+01  0.000000D+00  0.000000D+00
     13  0.000000D+00  0.000000D+00  0.000000D+00  0.532404D+01  0.000000D+00
     14  0.891660D+00 -0.635841D-01  0.000000D+00  0.000000D+00  0.537292D+01
               11            12            13            14 
     11  0.711162D+01
     12  0.000000D+00  0.707183D+01
     13  0.000000D+00  0.000000D+00  0.707183D+01
     14 -0.142437D+00  0.000000D+00  0.000000D+00  0.719203D+01
 ****** Core Hamiltonian ****** 
                1             2             3             4             5 
      1 -0.760388D+01
      2 -0.902760D+00 -0.178960D+03
      3 -0.172419D+01 -0.634081D+02 -0.613321D+02
      4  0.000000D+00  0.000000D+00  0.000000D+00 -0.428614D+02
      5  0.000000D+00  0.000000D+00  0.000000D+00  0.000000D+00 -0.428614D+02
      6  0.490824D+00  0.432921D-02  0.283901D-01  0.000000D+00  0.000000D+00
      7 -0.358508D+01 -0.328211D+01 -0.118024D+02  0.000000D+00  0.000000D+00
      8  0.000000D+00  0.000000D+00  0.000000D+00 -0.105204D+02  0.000000D+00
      9  0.000000D+00  0.000000D+00  0.000000D+00  0.000000D+00 -0.105204D+02
     10  0.308389D+01  0.263377D-03  0.132565D-01  0.000000D+00  0.000000D+00
     11 -0.357272D+01  0.697339D-01 -0.512761D+00  0.000000D+00  0.000000D+00
     12  0.000000D+00  0.000000D+00  0.000000D+00 -0.906162D+00  0.000000D+00
     13  0.000000D+00  0.000000D+00  0.000000D+00  0.000000D+00 -0.906162D+00
     14  0.428579D+01  0.149158D-04  0.128343D-02  0.000000D+00  0.000000D+00
                6             7             8             9            10 
      6 -0.428660D+02
      7  0.138712D-01 -0.170489D+02
      8  0.000000D+00  0.000000D+00 -0.160523D+02
      9  0.000000D+00  0.000000D+00  0.000000D+00 -0.160523D+02
     10 -0.105241D+02  0.104432D+00  0.000000D+00  0.000000D+00 -0.161113D+02
     11  0.102910D-02 -0.519427D+01  0.000000D+00  0.000000D+00  0.645375D-01
     12  0.000000D+00  0.000000D+00 -0.516411D+01  0.000000D+00  0.000000D+00
     13  0.000000D+00  0.000000D+00  0.000000D+00 -0.516411D+01  0.000000D+00
     14 -0.906597D+00  0.635841D-01  0.000000D+00  0.000000D+00 -0.521299D+01
               11            12            13            14 
     11 -0.696484D+01
     12  0.000000D+00 -0.678208D+01
     13  0.000000D+00  0.000000D+00 -0.678208D+01
     14  0.142437D+00  0.000000D+00  0.000000D+00 -0.690228D+01
 SVDSVc IOpt=   1 NormSV=T IR=1
 SVDSVc V= 2.07D+00 1.57D+00 1.31D+00 1.05D+00 7.34D-01 5.46D-01 4.55D-01 2.65D-01
 SVDSVc IOpt=   1 NormSV=T IR=3
 SVDSVc V= 1.54D+00 9.77D-01 4.79D-01
 SVDSVc IOpt=   1 NormSV=T IR=4
 SVDSVc V= 1.54D+00 9.77D-01 4.79D-01
 TstOVc:  Largest diagonal error= 1.44D-15 IB=1 I=    1.
 TstOVc:  Largest same sym error= 4.43D-15 IB=1 I=    5 J=    4.
 TstOVc:  Largest diff sym error= 0.00D+00 IB=0 JB=0 I=    0 J=    0.
 Orthogonalized basis functions: 
                 1             2             3             4             5 
      1   0.409394D+00 -0.198074D-01 -0.132233D+00  0.209188D+00  0.201341D+00
      2   0.352829D-01  0.222944D+00  0.537851D+00  0.176225D+00  0.718432D+00
      3   0.894048D-01  0.336309D+00  0.480794D+00  0.338578D-01 -0.517025D+00
      4   0.000000D+00  0.000000D+00  0.000000D+00  0.000000D+00  0.000000D+00
      5   0.000000D+00  0.000000D+00  0.000000D+00  0.000000D+00  0.000000D+00
      6  -0.829042D-01  0.188623D+00 -0.210588D+00  0.785475D+00 -0.204091D+00
      7   0.233356D+00  0.388899D+00 -0.112657D+00 -0.238169D+00 -0.474819D+00
      8   0.000000D+00  0.000000D+00  0.000000D+00  0.000000D+00  0.000000D+00
      9   0.000000D+00  0.000000D+00  0.000000D+00  0.000000D+00  0.000000D+00
     10  -0.257259D+00  0.339535D+00 -0.223991D+00  0.178989D+00  0.183729D+00
     11   0.268967D+00  0.293014D+00 -0.327628D+00 -0.181396D+00  0.466628D+00
     12   0.000000D+00  0.000000D+00  0.000000D+00  0.000000D+00  0.000000D+00
     13   0.000000D+00  0.000000D+00  0.000000D+00  0.000000D+00  0.000000D+00
     14  -0.325630D+00  0.296047D+00 -0.967384D-01 -0.370508D+00  0.140991D+00
                 6             7             8             9            10 
      1   0.459213D+00 -0.838217D-01  0.128230D+01  0.000000D+00  0.000000D+00
      2  -0.273564D+00  0.438038D+00  0.318072D-01  0.000000D+00  0.000000D+00
      3   0.357182D+00 -0.716885D+00 -0.882247D-01  0.000000D+00  0.000000D+00
      4   0.000000D+00  0.000000D+00  0.000000D+00  0.323218D+00  0.847647D+00
      5   0.000000D+00  0.000000D+00  0.000000D+00  0.000000D+00  0.000000D+00
      6  -0.568779D+00 -0.174330D+00  0.978727D-01  0.000000D+00  0.000000D+00
      7  -0.285191D+00  0.893385D+00  0.669884D-01  0.000000D+00  0.000000D+00
      8   0.000000D+00  0.000000D+00  0.000000D+00  0.562627D+00 -0.196580D-01
      9   0.000000D+00  0.000000D+00  0.000000D+00  0.000000D+00  0.000000D+00
     10   0.936031D+00  0.355108D+00 -0.288751D+00  0.000000D+00  0.000000D+00
     11  -0.193984D+00 -0.627953D+00 -0.825952D+00  0.000000D+00  0.000000D+00
     12   0.000000D+00  0.000000D+00  0.000000D+00  0.475981D+00 -0.552364D+00
     13   0.000000D+00  0.000000D+00  0.000000D+00  0.000000D+00  0.000000D+00
     14  -0.313527D+00 -0.369368D+00  0.116036D+01  0.000000D+00  0.000000D+00
                11            12            13            14 
      1   0.000000D+00  0.000000D+00  0.000000D+00  0.000000D+00
      2   0.000000D+00  0.000000D+00  0.000000D+00  0.000000D+00
      3   0.000000D+00  0.000000D+00  0.000000D+00  0.000000D+00
      4  -0.534697D+00  0.000000D+00  0.000000D+00  0.000000D+00
      5   0.000000D+00  0.323218D+00  0.847647D+00 -0.534697D+00
      6   0.000000D+00  0.000000D+00  0.000000D+00  0.000000D+00
      7   0.000000D+00  0.000000D+00  0.000000D+00  0.000000D+00
      8   0.103243D+01  0.000000D+00  0.000000D+00  0.000000D+00
      9   0.000000D+00  0.562627D+00 -0.196580D-01  0.103243D+01
     10   0.000000D+00  0.000000D+00  0.000000D+00  0.000000D+00
     11   0.000000D+00  0.000000D+00  0.000000D+00  0.000000D+00
     12  -0.857278D+00  0.000000D+00  0.000000D+00  0.000000D+00
     13   0.000000D+00  0.475981D+00 -0.552364D+00 -0.857278D+00
     14   0.000000D+00  0.000000D+00  0.000000D+00  0.000000D+00
 NBasis=    14 RedAO= T EigKep=  2.65D-01  NBF=     8     0     3     3
 NBsUse=    14 1.00D-06 EigRej= -1.00D+00 NBFU=     8     0     3     3
 Leave Link  302 at Mon Mar 28 14:30:04 2022, MaxMem=  9663676416 cpu:               3.3 elap:               0.1
 (Enter /nopt/nrel/apps/gaussian/g16C_1/g16/l303.exe)
 DipDrv will not compute anything.
 Fermi contact integrals: 
                 1             2 
      1   0.628247D+00  0.290007D-01
      2   0.000000D+00  0.365273D+02
      3   0.000000D+00  0.186926D+01
      4   0.000000D+00  0.000000D+00
      5   0.000000D+00  0.000000D+00
      6   0.000000D+00  0.000000D+00
      7   0.198902D-01  0.715806D-01
      8   0.000000D+00  0.000000D+00
      9   0.000000D+00  0.000000D+00
     10  -0.357142D-01  0.000000D+00
     11   0.668099D-01 -0.402363D-02
     12   0.000000D+00  0.000000D+00
     13   0.000000D+00  0.000000D+00
     14  -0.117212D+00  0.000000D+00
 Leave Link  303 at Mon Mar 28 14:30:04 2022, MaxMem=  9663676416 cpu:               1.3 elap:               0.1
 (Enter /nopt/nrel/apps/gaussian/g16C_1/g16/l401.exe)
 ExpMin= 8.21D-02 ExpMax= 7.72D+02 ExpMxC= 7.72D+02 IAcc=3 IRadAn=         5 AccDes= 0.00D+00
 Harris functional with IExCor=  205 and IRadAn=       5 diagonalized for initial guess.
 HarFok:  IExCor=  205 AccDes= 0.00D+00 IRadAn=         5 IDoV= 1 UseB2=F ITyADJ=14
 ICtDFT=  3500011 ScaDFX=  1.000000  1.000000  1.000000  1.000000
 FoFCou: FMM=F IPFlag=           0 FMFlag=      100000 FMFlg1=           0
         NFxFlg=           0 DoJE=T BraDBF=F KetDBF=T FulRan=T
         wScrn=  0.000000 ICntrl=       500 IOpCl=  0 I1Cent=   200000004 NGrid=           0
         NMat0=    1 NMatS0=      1 NMatT0=    0 NMatD0=    1 NMtDS0=    0 NMtDT0=    0
 Petite list used in FoFCou.
 Harris En= -592.770140971886    
 JPrj=0 DoOrth=F DoCkMO=F.
 Initial guess orbital symmetries:
       Occupied  (SG) (SG) (SG) (PI) (PI) (SG) (SG) (PI) (PI) (SG)
       Virtual   (SG) (PI) (PI) (SG)
 The electronic state of the initial guess is 1-SG.
 Leave Link  401 at Mon Mar 28 14:30:04 2022, MaxMem=  9663676416 cpu:               3.3 elap:               0.1
 (Enter /nopt/nrel/apps/gaussian/g16C_1/g16/l502.exe)
 Keep R1 ints in memory in symmetry-blocked form, NReq=7216806.
 FoFCou: FMM=F IPFlag=           0 FMFlag=           0 FMFlg1=           0
         NFxFlg=           0 DoJE=F BraDBF=F KetDBF=F FulRan=T
         wScrn=  0.000000 ICntrl=       600 IOpCl=  0 I1Cent=           0 NGrid=           0
         NMat0=    1 NMatS0=    105 NMatT0=    0 NMatD0=    1 NMtDS0=    0 NMtDT0=    0
 Petite list used in FoFCou.
 Closed shell SCF:
 Using DIIS extrapolation, IDIIS=  1040.
 NGot=  9663676416 LenX=  9663671753 LenY=  9663670871
 Requested convergence on RMS density matrix=1.00D-08 within 128 cycles.
 Requested convergence on MAX density matrix=1.00D-06.
 Requested convergence on             energy=1.00D-06.
 No special actions if energy rises.

 Cycle   1  Pass 1  IDiag  1:
 E= -593.396179709284    
 DIIS: error= 3.76D-02 at cycle   1 NSaved=   1.
 NSaved= 1 IEnMin= 1 EnMin= -593.396179709284     IErMin= 1 ErrMin= 3.76D-02
 ErrMax= 3.76D-02  0.00D+00 EMaxC= 1.00D-01 BMatC= 3.01D-02 BMatP= 3.01D-02
 IDIUse=3 WtCom= 6.24D-01 WtEn= 3.76D-01
 Coeff-Com:  0.100D+01
 Coeff-En:   0.100D+01
 Coeff:      0.100D+01
 Gap=     0.381 Goal=   None    Shift=    0.000
 GapD=    0.381 DampG=1.000 DampE=0.500 DampFc=0.5000 IDamp=-1.
 Damping current iteration by 5.00D-01
 RMSDP=2.74D-02 MaxDP=2.36D-01              OVMax= 0.00D+00

 Cycle   2  Pass 1  IDiag  1:
 E= -593.413005516846     Delta-E=       -0.016825807562 Rises=F Damp=T
 DIIS: error= 1.87D-02 at cycle   2 NSaved=   2.
 NSaved= 2 IEnMin= 2 EnMin= -593.413005516846     IErMin= 2 ErrMin= 1.87D-02
 ErrMax= 1.87D-02  0.00D+00 EMaxC= 1.00D-01 BMatC= 7.59D-03 BMatP= 3.01D-02
 IDIUse=3 WtCom= 8.13D-01 WtEn= 1.87D-01
 Coeff-Com: -0.100D+01 0.200D+01
 Coeff-En:   0.000D+00 0.100D+01
 Coeff:     -0.814D+00 0.181D+01
 Gap=     0.410 Goal=   None    Shift=    0.000
 RMSDP=1.55D-02 MaxDP=1.29D-01 DE=-1.68D-02 OVMax= 0.00D+00

 Cycle   3  Pass 1  IDiag  1:
 E= -593.430763984380     Delta-E=       -0.017758467534 Rises=F Damp=F
 DIIS: error= 1.11D-03 at cycle   3 NSaved=   3.
 NSaved= 3 IEnMin= 3 EnMin= -593.430763984380     IErMin= 3 ErrMin= 1.11D-03
 ErrMax= 1.11D-03  0.00D+00 EMaxC= 1.00D-01 BMatC= 1.49D-05 BMatP= 7.59D-03
 IDIUse=3 WtCom= 9.89D-01 WtEn= 1.11D-02
 Coeff-Com:  0.447D+00-0.895D+00 0.145D+01
 Coeff-En:   0.000D+00 0.000D+00 0.100D+01
 Coeff:      0.442D+00-0.885D+00 0.144D+01
 Gap=     0.415 Goal=   None    Shift=    0.000
 RMSDP=1.00D-03 MaxDP=4.94D-03 DE=-1.78D-02 OVMax= 0.00D+00

 Cycle   4  Pass 1  IDiag  1:
 E= -593.430799745690     Delta-E=       -0.000035761310 Rises=F Damp=F
 DIIS: error= 6.41D-05 at cycle   4 NSaved=   4.
 NSaved= 4 IEnMin= 4 EnMin= -593.430799745690     IErMin= 4 ErrMin= 6.41D-05
 ErrMax= 6.41D-05  0.00D+00 EMaxC= 1.00D-01 BMatC= 1.05D-07 BMatP= 1.49D-05
 IDIUse=1 WtCom= 1.00D+00 WtEn= 0.00D+00
 Coeff-Com:  0.355D-02-0.627D-02-0.674D-01 0.107D+01
 Coeff:      0.355D-02-0.627D-02-0.674D-01 0.107D+01
 Gap=     0.415 Goal=   None    Shift=    0.000
 RMSDP=8.00D-05 MaxDP=4.38D-04 DE=-3.58D-05 OVMax= 0.00D+00

 Cycle   5  Pass 1  IDiag  1:
 E= -593.430800063965     Delta-E=       -0.000000318275 Rises=F Damp=F
 DIIS: error= 1.11D-05 at cycle   5 NSaved=   5.
 NSaved= 5 IEnMin= 5 EnMin= -593.430800063965     IErMin= 5 ErrMin= 1.11D-05
 ErrMax= 1.11D-05  0.00D+00 EMaxC= 1.00D-01 BMatC= 4.09D-09 BMatP= 1.05D-07
 IDIUse=1 WtCom= 1.00D+00 WtEn= 0.00D+00
 Coeff-Com: -0.274D-02 0.518D-02 0.226D-01-0.488D+00 0.146D+01
 Coeff:     -0.274D-02 0.518D-02 0.226D-01-0.488D+00 0.146D+01
 Gap=     0.415 Goal=   None    Shift=    0.000
 RMSDP=2.44D-05 MaxDP=1.11D-04 DE=-3.18D-07 OVMax= 0.00D+00

 Cycle   6  Pass 1  IDiag  1:
 E= -593.430800082977     Delta-E=       -0.000000019011 Rises=F Damp=F
 DIIS: error= 1.14D-06 at cycle   6 NSaved=   6.
 NSaved= 6 IEnMin= 6 EnMin= -593.430800082977     IErMin= 6 ErrMin= 1.14D-06
 ErrMax= 1.14D-06  0.00D+00 EMaxC= 1.00D-01 BMatC= 2.41D-11 BMatP= 4.09D-09
 IDIUse=1 WtCom= 1.00D+00 WtEn= 0.00D+00
 Coeff-Com:  0.408D-03-0.788D-03-0.556D-03 0.302D-01-0.151D+00 0.112D+01
 Coeff:      0.408D-03-0.788D-03-0.556D-03 0.302D-01-0.151D+00 0.112D+01
 Gap=     0.415 Goal=   None    Shift=    0.000
 RMSDP=2.06D-06 MaxDP=9.58D-06 DE=-1.90D-08 OVMax= 0.00D+00

 Cycle   7  Pass 1  IDiag  1:
 E= -593.430800083101     Delta-E=       -0.000000000124 Rises=F Damp=F
 DIIS: error= 1.59D-07 at cycle   7 NSaved=   7.
 NSaved= 7 IEnMin= 7 EnMin= -593.430800083101     IErMin= 7 ErrMin= 1.59D-07
 ErrMax= 1.59D-07  0.00D+00 EMaxC= 1.00D-01 BMatC= 3.16D-13 BMatP= 2.41D-11
 IDIUse=1 WtCom= 1.00D+00 WtEn= 0.00D+00
 Coeff-Com: -0.262D-04 0.508D-04-0.103D-03 0.136D-03 0.793D-02-0.200D+00
 Coeff-Com:  0.119D+01
 Coeff:     -0.262D-04 0.508D-04-0.103D-03 0.136D-03 0.793D-02-0.200D+00
 Coeff:      0.119D+01
 Gap=     0.415 Goal=   None    Shift=    0.000
 RMSDP=2.13D-07 MaxDP=9.68D-07 DE=-1.24D-10 OVMax= 0.00D+00

 Cycle   8  Pass 1  IDiag  1:
 E= -593.430800083102     Delta-E=       -0.000000000001 Rises=F Damp=F
 DIIS: error= 1.35D-08 at cycle   8 NSaved=   8.
 NSaved= 8 IEnMin= 8 EnMin= -593.430800083102     IErMin= 8 ErrMin= 1.35D-08
 ErrMax= 1.35D-08  0.00D+00 EMaxC= 1.00D-01 BMatC= 3.89D-15 BMatP= 3.16D-13
 IDIUse=1 WtCom= 1.00D+00 WtEn= 0.00D+00
 Coeff-Com:  0.655D-05-0.126D-04 0.122D-04 0.373D-04-0.103D-02 0.311D-01
 Coeff-Com: -0.231D+00 0.120D+01
 Coeff:      0.655D-05-0.126D-04 0.122D-04 0.373D-04-0.103D-02 0.311D-01
 Coeff:     -0.231D+00 0.120D+01
 Gap=     0.415 Goal=   None    Shift=    0.000
 RMSDP=1.25D-08 MaxDP=7.32D-08 DE=-1.02D-12 OVMax= 0.00D+00

 Cycle   9  Pass 1  IDiag  1:
 E= -593.430800083102     Delta-E=        0.000000000000 Rises=F Damp=F
 DIIS: error= 1.16D-09 at cycle   9 NSaved=   9.
 NSaved= 9 IEnMin= 8 EnMin= -593.430800083102     IErMin= 9 ErrMin= 1.16D-09
 ErrMax= 1.16D-09  0.00D+00 EMaxC= 1.00D-01 BMatC= 3.31D-17 BMatP= 3.89D-15
 IDIUse=1 WtCom= 1.00D+00 WtEn= 0.00D+00
 Coeff-Com: -0.157D-07 0.267D-07-0.614D-06 0.240D-04-0.135D-03 0.930D-04
 Coeff-Com:  0.204D-02-0.102D+00 0.110D+01
 Coeff:     -0.157D-07 0.267D-07-0.614D-06 0.240D-04-0.135D-03 0.930D-04
 Coeff:      0.204D-02-0.102D+00 0.110D+01
 Gap=     0.415 Goal=   None    Shift=    0.000
 RMSDP=1.96D-09 MaxDP=8.47D-09 DE= 0.00D+00 OVMax= 0.00D+00

 SCF Done:  E(RHF) =  -593.430800083     A.U. after    9 cycles
            NFock=  9  Conv=0.20D-08     -V/T= 1.9978
 KE= 5.947138527608D+02 PE=-1.427704733717D+03 EE= 2.323783901532D+02
 Leave Link  502 at Mon Mar 28 14:30:05 2022, MaxMem=  9663676416 cpu:               3.6 elap:               0.1
 (Enter /nopt/nrel/apps/gaussian/g16C_1/g16/l801.exe)
 Windowed orbitals will be sorted by symmetry type.
 ExpMin= 8.21D-02 ExpMax= 7.72D+02 ExpMxC= 7.72D+02 IAcc=3 IRadAn=         5 AccDes= 0.00D+00
 HarFok:  IExCor=  205 AccDes= 0.00D+00 IRadAn=         5 IDoV=-2 UseB2=F ITyADJ=14
 ICtDFT= 12500011 ScaDFX=  1.000000  1.000000  1.000000  1.000000
 Largest valence mixing into a core orbital is  2.07D-02
 Largest core mixing into a valence orbital is  1.14D-02
 Range of M.O.s used for correlation:    10    14
 NBasis=    14 NAE=    10 NBE=    10 NFC=     9 NFV=     0
 NROrb=      5 NOA=     1 NOB=     1 NVA=     4 NVB=     4
 Leave Link  801 at Mon Mar 28 14:30:05 2022, MaxMem=  9663676416 cpu:               2.7 elap:               0.1
 (Enter /nopt/nrel/apps/gaussian/g16C_1/g16/l804.exe)
 Closed-shell transformation, MDV=  9663676416 ITran=4 ISComp=2.
 Unit  1 TFree=          8174 TCopy=        219116.
 Semi-Direct transformation.
 ModeAB=           2 MOrb=             1 LenV=    9663555700
 LASXX=           12 LTotXX=          12 LenRXX=          12
 LTotAB=          28 MaxLAS=         525 LenRXY=         525
 NonZer=         615 LenScr=      785920 LnRSAI=           0
 LnScr1=           0 LExtra=      220081 Total=      1006538
 MaxDsk= 34359738368 SrtSym=           F ITran=            4
 DoSDTr:  NPSUse= 36
 JobTyp=0 Pass  1:  I=   1 to   1.
 (rs|ai) integrals will be sorted in core.
 Complete sort for first half transformation.
 First half transformation complete.
 Complete sort for second half transformation.
 Second half transformation complete.
 Spin components of T(2) and E(2):
     alpha-alpha T2 =       0.0000000000D+00 E2=      0.0000000000D+00
     alpha-beta  T2 =       0.1500213048D-01 E2=     -0.1581992596D-01
     beta-beta   T2 =       0.0000000000D+00 E2=      0.0000000000D+00
 ANorm=    0.1007473141D+01
 E2 =    -0.1581992596D-01 EUMP2 =    -0.59344662000906D+03
 Leave Link  804 at Mon Mar 28 14:30:05 2022, MaxMem=  9663676416 cpu:               1.3 elap:               0.1
 (Enter /nopt/nrel/apps/gaussian/g16C_1/g16/l913.exe)
 CIDS:  MDV=  9663676416.
 Frozen-core window:  NFC=   9 NFV=   0.
 IFCWin=0 IBDFC=1 NFBD=     0     0 NFCmp=     0     0 NFFFC=     0     0
 Using DD3R+UMP44R for 1st iteration.
 Using DD4RQ for 2nd and later iterations.
 Keep R2 and R3 ints in memory in symmetry-blocked form, NReq=7219192.
 FoFCou: FMM=F IPFlag=           0 FMFlag=           0 FMFlg1=           0
         NFxFlg=           0 DoJE=F BraDBF=F KetDBF=F FulRan=T
         wScrn=  0.000000 ICntrl=       600 IOpCl=  0 I1Cent=           0 NGrid=           0
         NMat0=    1 NMatS0=    105 NMatT0=    0 NMatD0=    1 NMtDS0=    0 NMtDT0=    0
 Petite list used in FoFCou.
 CIDS: In Core Option IDoMem=           1.
 Coupled Cluster theory with single and double substitutions
 ===========================================================
 Iterations= 200 Convergence= 0.100D-06
 Produce multiple copies of IABC intergrals
 Iteration Nr.   1
 **********************
 DD1Dir will call FoFMem   1 times, MxPair=         2
 NAB=     1 NAA=     0 NBB=     0.
 MP4(R+Q)=  0.23733259D-03
 Maximum subspace dimension=  5
 A-vector RMS=  3.0327420D-02 Max=  3.0259062D-02 conv= 1.00D-05.
 RLE energy=       -0.0266560401
 E3=       -0.66813149D-02        EUMP3=      -0.59345330132D+03
 E4(DQ)=   -0.28987235D-02        UMP4(DQ)=   -0.59345620005D+03
 E4(SDQ)=  -0.31560950D-02        UMP4(SDQ)=  -0.59345645742D+03
 VARIATIONAL ENERGIES WITH THE FIRST-ORDER WAVEFUNCTION:
 DE(Corr)= -0.22251001E-01 E(Corr)=     -593.45305108    
 NORM(A)=   0.10222144D+01
 Iteration Nr.   2
 **********************
 DD1Dir will call FoFMem   1 times, MxPair=         2
 NAB=     1 NAA=     0 NBB=     0.
 A-vector RMS=  1.1186472D-02 Max=  1.0561726D-02 conv= 1.00D-05.
 RLE energy=       -0.0283627992
 DE(Corr)= -0.27367440E-01 E(CORR)=     -593.45816752     Delta=-5.12D-03
 NORM(A)=   0.10267951D+01
 Iteration Nr.   3
 **********************
 DD1Dir will call FoFMem   1 times, MxPair=         2
 NAB=     1 NAA=     0 NBB=     0.
 A-vector RMS=  4.4320212D-03 Max=  4.0484823D-03 conv= 1.00D-05.
 RLE energy=       -0.0287146627
 DE(Corr)= -0.28409771E-01 E(CORR)=     -593.45920985     Delta=-1.04D-03
 NORM(A)=   0.10287575D+01
 Iteration Nr.   4
 **********************
 DD1Dir will call FoFMem   1 times, MxPair=         2
 NAB=     1 NAA=     0 NBB=     0.
 A-vector RMS=  1.0313306D-03 Max=  8.1628064D-04 conv= 1.00D-05.
 RLE energy=       -0.0287186791
 DE(Corr)= -0.28706304E-01 E(CORR)=     -593.45950639     Delta=-2.97D-04
 NORM(A)=   0.10290103D+01
 Iteration Nr.   5
 **********************
 DD1Dir will call FoFMem   1 times, MxPair=         2
 NAB=     1 NAA=     0 NBB=     0.
 A-vector RMS=  8.5181922D-05 Max=  6.9290693D-05 conv= 1.00D-05.
 RLE energy=       -0.0287229431
 DE(Corr)= -0.28721712E-01 E(CORR)=     -593.45952179     Delta=-1.54D-05
 NORM(A)=   0.10290132D+01
 Iteration Nr.   6
 **********************
 DD1Dir will call FoFMem   1 times, MxPair=         2
 NAB=     1 NAA=     0 NBB=     0.
 A-vector RMS=  1.5900257D-05 Max=  1.2753329D-05 conv= 1.00D-05.
 RLE energy=       -0.0287206691
 DE(Corr)= -0.28721310E-01 E(CORR)=     -593.45952139     Delta= 4.02D-07
 NORM(A)=   0.10290110D+01
 Iteration Nr.   7
 **********************
 DD1Dir will call FoFMem   1 times, MxPair=         2
 NAB=     1 NAA=     0 NBB=     0.
 A-vector RMS=  6.5141084D-07 Max=  8.7136616D-07 conv= 1.00D-05.
 RLE energy=       -0.0287209666
 DE(Corr)= -0.28720812E-01 E(CORR)=     -593.45952090     Delta= 4.97D-07
 NORM(A)=   0.10290118D+01
 Iteration Nr.   8
 **********************
 DD1Dir will call FoFMem   1 times, MxPair=         2
 NAB=     1 NAA=     0 NBB=     0.
 A-vector RMS=  2.1818705D-07 Max=  1.6968605D-07 conv= 1.00D-05.
 RLE energy=       -0.0287209386
 DE(Corr)= -0.28720955E-01 E(CORR)=     -593.45952104     Delta=-1.43D-07
 NORM(A)=   0.10290117D+01
 Iteration Nr.   9
 **********************
 DD1Dir will call FoFMem   1 times, MxPair=         2
 NAB=     1 NAA=     0 NBB=     0.
 A-vector RMS=  2.0643162D-08 Max=  2.3898235D-08 conv= 1.00D-05.
 RLE energy=       -0.0287209466
 DE(Corr)= -0.28720942E-01 E(CORR)=     -593.45952103     Delta= 1.30D-08
 NORM(A)=   0.10290117D+01
 CI/CC converged in    9 iterations to DelEn= 1.30D-08 Conv= 1.00D-07 ErrA1= 2.06D-08 Conv= 1.00D-05
 Wavefunction amplitudes converged. E(Corr)=     -593.45952103    
 Dominant configurations:
 ***********************
 Spin Case        I    J    A    B          Value
   ABAB          10   10   11   11      -0.159300D+00
 Largest amplitude= 1.59D-01
 Discarding MO integrals.
 Leave Link  913 at Mon Mar 28 14:30:05 2022, MaxMem=  9663676416 cpu:               4.0 elap:               0.1
 (Enter /nopt/nrel/apps/gaussian/g16C_1/g16/l601.exe)
 Copying SCF densities to generalized density rwf, IOpCl= 0 IROHF=0.

 **********************************************************************

            Population analysis using the SCF Density.

 **********************************************************************

 Orbital symmetries:
       Occupied  (SG) (SG) (SG) (PI) (PI) (SG) (SG) (PI) (PI) (SG)
       Virtual   (SG) (PI) (PI) (SG)
 The electronic state is 1-SG.
 Alpha  occ. eigenvalues -- -131.88528 -14.11981 -11.22088 -11.21973 -11.21973
 Alpha  occ. eigenvalues --   -1.65705  -0.90410  -0.86005  -0.86005  -0.17036
 Alpha virt. eigenvalues --    0.24479   0.35168   0.35168   0.53882
          Condensed to atoms (all electrons):
               1          2
     1  H    0.813506   0.260874
     2  K    0.260874  18.664745
 Mulliken charges:
               1
     1  H   -0.074381
     2  K    0.074381
 Sum of Mulliken charges =  -0.00000
 Mulliken charges with hydrogens summed into heavy atoms:
               1
     2  K   -0.000000
 N-N= 7.181690719629D+00 E-N=-1.427704733713D+03  KE= 5.947138527608D+02
 Symmetry A1   KE= 4.777406931490D+02
 Symmetry A2   KE= 0.000000000000D+00
 Symmetry B1   KE= 5.848657980592D+01
 Symmetry B2   KE= 5.848657980592D+01

 Atomic contributions to Alpha molecular orbitals:
 Alpha occ 1 OE=-131.885 is K2-s=1.0000
 Alpha occ 2 OE=-14.120 is K2-s=1.0000
 Alpha occ 3 OE=-11.221 is K2-p=1.0000
 Alpha occ 4 OE=-11.220 is K2-p=1.0000
 Alpha occ 5 OE=-11.220 is K2-p=1.0000
 Alpha occ 6 OE=-1.657 is K2-s=0.9908
 Alpha occ 7 OE=-0.904 is K2-p=0.9295
 Alpha occ 8 OE=-0.860 is K2-p=1.0000
 Alpha occ 9 OE=-0.860 is K2-p=1.0000
 Alpha occ 10 OE=-0.170 is H1-s=0.4568 K2-s=0.4550
 Alpha vir 11 OE=0.245 is K2-p=0.4564 K2-s=0.4126 H1-s=0.1310
 Alpha vir 12 OE=0.352 is K2-p=1.0000
 Alpha vir 13 OE=0.352 is K2-p=1.0000
 Alpha vir 14 OE=0.539 is K2-p=0.5258 H1-s=0.3318 K2-s=0.1424
 
 Leave Link  601 at Mon Mar 28 14:30:05 2022, MaxMem=  9663676416 cpu:               1.6 elap:               0.1
 (Enter /nopt/nrel/apps/gaussian/g16C_1/g16/l9999.exe)

 Test job not archived.
 1\1\GINC-R102U34\SP\RCCSD-FC\Gen\H1K1\USER\28-Mar-2022\0\\#P CCSD(
 MaxCyc=200,SaveAmplitudes,ReadAmplitudes)/GEN sp pop=AllOrbitals iop(3
 /33=1,3/36=-1)\\test\\0,1\H,0,0.,0.,0.\K,0,0.,0.,1.4\\Version=ES64L-G1
 6RevC.01\State=1-SG\HF=-593.4308001\MP2=-593.44662\MP3=-593.4533013\MP
 4D=-593.4564374\MP4DQ=-593.4562\MP4SDQ=-593.4564574\CCSD=-593.459521\R
 MSD=1.960e-09\PG=C*V [C*(H1K1)]\\@


 I take a simple view of life: keep your eyes open and get on with it.
 -- Laurence Olivier
 Job cpu time:       0 days  0 hours  0 minutes 31.5 seconds.
 Elapsed time:       0 days  0 hours  0 minutes  1.2 seconds.
 File lengths (MBytes):  RWF=     13 Int=      0 D2E=      0 Chk=      1 Scr=      1
 Normal termination of Gaussian 16 at Mon Mar 28 14:30:05 2022.
