 Entering Gaussian System, Link 0=g16
 Initial command:
 /nopt/nrel/apps/gaussian/g16C_1/g16/l1.exe "/lustre/eaglefs/scratch/user/qc/nah-dissc/nah-1-ccsd-2.4-321g/Gau-2615.inp" -scrdir="/lustre/eaglefs/scratch/user/qc/nah-dissc/nah-1-ccsd-2.4-321g/"
 Default is to use a total of  36 processors:
                               36 via shared-memory
                                1 via Linda
 Entering Link 1 = /nopt/nrel/apps/gaussian/g16C_1/g16/l1.exe PID=      2616.
  
 Copyright (c) 1988-2019, Gaussian, Inc.  All Rights Reserved.
  
 This is part of the Gaussian(R) 16 program.  It is based on
 the Gaussian(R) 09 system (copyright 2009, Gaussian, Inc.),
 the Gaussian(R) 03 system (copyright 2003, Gaussian, Inc.),
 the Gaussian(R) 98 system (copyright 1998, Gaussian, Inc.),
 the Gaussian(R) 94 system (copyright 1995, Gaussian, Inc.),
 the Gaussian 92(TM) system (copyright 1992, Gaussian, Inc.),
 the Gaussian 90(TM) system (copyright 1990, Gaussian, Inc.),
 the Gaussian 88(TM) system (copyright 1988, Gaussian, Inc.),
 the Gaussian 86(TM) system (copyright 1986, Carnegie Mellon
 University), and the Gaussian 82(TM) system (copyright 1983,
 Carnegie Mellon University). Gaussian is a federally registered
 trademark of Gaussian, Inc.
  
 This software contains proprietary and confidential information,
 including trade secrets, belonging to Gaussian, Inc.
  
 This software is provided under written license and may be
 used, copied, transmitted, or stored only in accord with that
 written license.
  
 The following legend is applicable only to US Government
 contracts under FAR:
  
                    RESTRICTED RIGHTS LEGEND
  
 Use, reproduction and disclosure by the US Government is
 subject to restrictions as set forth in subparagraphs (a)
 and (c) of the Commercial Computer Software - Restricted
 Rights clause in FAR 52.227-19.
  
 Gaussian, Inc.
 340 Quinnipiac St., Bldg. 40, Wallingford CT 06492
  
  
 ---------------------------------------------------------------
 Warning -- This program may not be used in any manner that
 competes with the business of Gaussian, Inc. or will provide
 assistance to any competitor of Gaussian, Inc.  The licensee
 of this program is prohibited from giving any competitor of
 Gaussian, Inc. access to this program.  By using this program,
 the user acknowledges that Gaussian, Inc. is engaged in the
 business of creating and licensing software in the field of
 computational chemistry and represents and warrants to the
 licensee that it is not a competitor of Gaussian, Inc. and that
 it will not use this program in any manner prohibited above.
 ---------------------------------------------------------------
  

 Cite this work as:
 Gaussian 16, Revision C.01,
 M. J. Frisch, G. W. Trucks, H. B. Schlegel, G. E. Scuseria, 
 M. A. Robb, J. R. Cheeseman, G. Scalmani, V. Barone, 
 G. A. Petersson, H. Nakatsuji, X. Li, M. Caricato, A. V. Marenich, 
 J. Bloino, B. G. Janesko, R. Gomperts, B. Mennucci, H. P. Hratchian, 
 J. V. Ortiz, A. F. Izmaylov, J. L. Sonnenberg, D. Williams-Young, 
 F. Ding, F. Lipparini, F. Egidi, J. Goings, B. Peng, A. Petrone, 
 T. Henderson, D. Ranasinghe, V. G. Zakrzewski, J. Gao, N. Rega, 
 G. Zheng, W. Liang, M. Hada, M. Ehara, K. Toyota, R. Fukuda, 
 J. Hasegawa, M. Ishida, T. Nakajima, Y. Honda, O. Kitao, H. Nakai, 
 T. Vreven, K. Throssell, J. A. Montgomery, Jr., J. E. Peralta, 
 F. Ogliaro, M. J. Bearpark, J. J. Heyd, E. N. Brothers, K. N. Kudin, 
 V. N. Staroverov, T. A. Keith, R. Kobayashi, J. Normand, 
 K. Raghavachari, A. P. Rendell, J. C. Burant, S. S. Iyengar, 
 J. Tomasi, M. Cossi, J. M. Millam, M. Klene, C. Adamo, R. Cammi, 
 J. W. Ochterski, R. L. Martin, K. Morokuma, O. Farkas, 
 J. B. Foresman, and D. J. Fox, Gaussian, Inc., Wallingford CT, 2019.
 
 ******************************************
 Gaussian 16:  ES64L-G16RevC.01  3-Jul-2019
                28-Mar-2022 
 ******************************************
 %chk=molecule
 Default route: CacheSize=180224 MaxDisk=256GB
 ----------------------------------------------------------------------
 #P CCSD(MaxCyc=200,SaveAmplitudes,ReadAmplitudes)/GEN sp pop=AllOrbita
 ls iop(3/33=1,3/36=-1)
 ----------------------------------------------------------------------
 1/4=180224,38=1,172=1/1;
 2/4=180224,12=2,17=6,18=5,40=1/2;
 3/4=180224,5=7,11=9,25=1,30=1,33=1,36=-1/1,2,3;
 4/4=180224/1;
 5/4=180224,5=2,38=5/2;
 8/4=180224,6=4,9=120000,10=1,24=1/1,4;
 9/4=180224,5=7,6=200,77=1/13;
 6/4=180224,7=2,8=2,9=2,10=2,96=-1/1;
 99/4=180224,5=1,9=1/99;
 Leave Link    1 at Mon Mar 28 14:19:30 2022, MaxMem=           0 cpu:               2.9 elap:               0.1
 (Enter /nopt/nrel/apps/gaussian/g16C_1/g16/l101.exe)
 ----
 test
 ----
 Symbolic Z-matrix:
 Charge =  0 Multiplicity = 1
 H                     0.        0.        0. 
 Na                    0.        0.        2.4 
 
 ITRead=  0  0
 MicOpt= -1 -1
 NAtoms=      2 NQM=        2 NQMF=       0 NMMI=      0 NMMIF=      0
                NMic=       0 NMicF=      0.
                    Isotopes and Nuclear Properties:
 (Nuclear quadrupole moments (NQMom) in fm**2, nuclear magnetic moments (NMagM)
  in nuclear magnetons)

  Atom         1           2
 IAtWgt=           1          23
 AtmWgt=   1.0078250  22.9897697
 NucSpn=           1           3
 AtZEff=  -0.0000000  -0.0000000
 NQMom=    0.0000000  10.4000000
 NMagM=    2.7928460   2.2175200
 AtZNuc=   1.0000000  11.0000000
 Leave Link  101 at Mon Mar 28 14:19:31 2022, MaxMem=  9663676416 cpu:               2.8 elap:               0.1
 (Enter /nopt/nrel/apps/gaussian/g16C_1/g16/l202.exe)
                          Input orientation:                          
 ---------------------------------------------------------------------
 Center     Atomic      Atomic             Coordinates (Angstroms)
 Number     Number       Type             X           Y           Z
 ---------------------------------------------------------------------
      1          1           0        0.000000    0.000000    0.000000
      2         11           0        0.000000    0.000000    2.400000
 ---------------------------------------------------------------------
 Stoichiometry    HNa
 Framework group  C*V[C*(HNa)]
 Deg. of freedom     1
 Full point group                 C*V     NOp   4
 Largest Abelian subgroup         C2V     NOp   4
 Largest concise Abelian subgroup C1      NOp   1
                         Standard orientation:                         
 ---------------------------------------------------------------------
 Center     Atomic      Atomic             Coordinates (Angstroms)
 Number     Number       Type             X           Y           Z
 ---------------------------------------------------------------------
      1          1           0        0.000000    0.000000   -2.200000
      2         11           0        0.000000    0.000000    0.200000
 ---------------------------------------------------------------------
 Rotational constants (GHZ):           0.0000000          90.8746324          90.8746324
 Leave Link  202 at Mon Mar 28 14:19:31 2022, MaxMem=  9663676416 cpu:               0.4 elap:               0.0
 (Enter /nopt/nrel/apps/gaussian/g16C_1/g16/l301.exe)
 General basis read from cards:  (5D, 7F)
                         Coordinates in L301:                         
 ---------------------------------------------------------------------
 Center     Atomic      Atomic             Coordinates (Angstroms)
 Number     Number       Type             X           Y           Z
 ---------------------------------------------------------------------
      1          1           0        0.000000    0.000000   -2.200000
      2         11           0        0.000000    0.000000    0.200000
 ---------------------------------------------------------------------
 Centers:       1
 STO-3G
 ****
 Centers:       2
 3-21G
 ****
 FixB: optimizing general contractions.
 Ernie: Thresh=  0.10000D-02 Tol=  0.10000D-05 Strict=F.
 IA=     1 ShT= 0 ShC= 0 NL=   1 NS=   0.
 IA=     1 L=0 SC=0 ISt=    0 NBk=    0 NP=    0 IndPr=    0.
 IA=     2 ShT= 0 ShC= 0 NL=   1 NS=   0.
 IA=     2 L=0 SC=0 ISt=    0 NBk=    0 NP=    0 IndPr=    0.
 IA=     2 ShT= 1 ShC= 0 NL=   3 NS=   1.
 IA=     2 L=1 SC=0 ISt=    1 NBk=    2 NP=    5 IndPr=    0.
 DoElim1:  L=1 select primitive    1 from    2 using    1 C=-1.12D-01
 DoElim2:  L=1 select primitive    5 from    1 using    2 C= 1.09D+00
 DoElim1:  L=1 select primitive    1 from    2 using    1 C= 1.28D-01
 DoElim2:  L=1 select primitive    5 from    1 using    2 C= 9.97D-01
 Delete L=1 primitive    3 from    2 C=  0.00D+00.
 Delete L=1 primitive    2 from    2 C=  0.00D+00.
 Delete L=1 primitive    1 from    2 C=  0.00D+00.
 Delete L=1 primitive    5 from    1 C=  0.00D+00.
 Delete L=1 primitive    4 from    1 C=  0.00D+00.
 IA=     2 L=1 SC=0 ISt=    0 NBk=    0 NP=    0 IndPr=    5.
 LdAtmC:  AtmChg=     1.000000    11.000000
 AtZEff=     -1.0000000    -10.0400000
 NEqShl: 
              1            2            3            4
     1            1            1            1            1
     2            2            2            2            2
     3            3            3            3            3
     4            4            4            4            4
     5            5            5            5            5
 NEqBas: 
              1            2            3            4
     1            1            1            1            1
     2            2            2            2            2
     3            3            3            3            3
     4            4           -4           -4            4
     5            5           -5            5           -5
     6            6            6            6            6
     7            7            7            7            7
     8            8           -8           -8            8
     9            9           -9            9           -9
    10           10           10           10           10
    11           11           11           11           11
    12           12          -12          -12           12
    13           13          -13           13          -13
    14           14           14           14           14
 There are     8 symmetry adapted cartesian basis functions of A1  symmetry.
   1         1   1   1   1
   2         2   2   2   2
   3         3   3   3   3
   4         6   6   6   6
   5         7   7   7   7
   6        10  10  10  10
   7        11  11  11  11
   8        14  14  14  14
 There are     0 symmetry adapted cartesian basis functions of A2  symmetry.
 There are     3 symmetry adapted cartesian basis functions of B1  symmetry.
   9         4   4   4   4
  10         8   8   8   8
  11        12  12  12  12
 There are     3 symmetry adapted cartesian basis functions of B2  symmetry.
  12         5   5   5   5
  13         9   9   9   9
  14        13  13  13  13
 Order= 1 2 4 3
 Reordered character table:
              1            2            3            4            5
     1            1            1            1            1            1
     2            2            1            1           -1           -1
     3            4            1           -1           -1            1
     4            3            1           -1            1           -1
 NEqShl: 
              1            2            3            4
     1            1            1            1            1
     2            2            2            2            2
     3            3            3            3            3
     4            4            4            4            4
     5            5            5            5            5
 NEqBas: 
              1            2            3            4
     1            1            1            1            1
     2            2            2            2            2
     3            3            3            3            3
     4            4           -4           -4            4
     5            5           -5            5           -5
     6            6            6            6            6
     7            7            7            7            7
     8            8           -8           -8            8
     9            9           -9            9           -9
    10           10           10           10           10
    11           11           11           11           11
    12           12          -12          -12           12
    13           13          -13           13          -13
    14           14           14           14           14
 There are     8 symmetry adapted basis functions of A1  symmetry.
   1         1   1   1   1
   2         2   2   2   2
   3         3   3   3   3
   4         6   6   6   6
   5         7   7   7   7
   6        10  10  10  10
   7        11  11  11  11
   8        14  14  14  14
 There are     0 symmetry adapted basis functions of A2  symmetry.
 There are     3 symmetry adapted basis functions of B1  symmetry.
   9         4   4   4   4
  10         8   8   8   8
  11        12  12  12  12
 There are     3 symmetry adapted basis functions of B2  symmetry.
  12         5   5   5   5
  13         9   9   9   9
  14        13  13  13  13
 Order= 1 2 4 3
 Reordered character table:
              1            2            3            4            5
     1            1            1            1            1            1
     2            2            1            1           -1           -1
     3            4            1           -1           -1            1
     4            3            1           -1            1           -1
    14 basis functions,    30 primitive gaussians,    14 cartesian basis functions
     6 alpha electrons        6 beta electrons
       nuclear repulsion energy         2.4253955501 Hartrees.
 IS=     1 IAt=     1 ISR=     1 T=0 IP=      1 IndIP=      1 IndIPD=      0 C=  2.769344D-01  0.000000D+00                             NZ=T
 IS=     1 IAt=     1 ISR=     1 T=0 IP=      2 IndIP=      2 IndIPD=      1 C=  2.678389D-01  0.000000D+00                             NZ=T
 IS=     1 IAt=     1 ISR=     1 T=0 IP=      3 IndIP=      3 IndIPD=      2 C=  8.347367D-02  0.000000D+00                             NZ=T
 IS=     2 IAt=     2 ISR=     1 T=0 IP=      1 IndIP=      4 IndIPD=      0 C=  5.445177D+00  0.000000D+00                             NZ=T
 IS=     2 IAt=     2 ISR=     1 T=0 IP=      2 IndIP=      5 IndIPD=      1 C=  7.646982D+00  0.000000D+00                             NZ=T
 IS=     2 IAt=     2 ISR=     1 T=0 IP=      3 IndIP=      6 IndIPD=      2 C=  4.092173D+00  0.000000D+00                             NZ=T
 IS=     3 IAt=     2 ISR=     2 T=1 IP=      1 IndIP=      7 IndIPD=      0 C= -6.837842D-01  6.561431D+00                             NZ=T
 IS=     3 IAt=     2 ISR=     2 T=1 IP=      2 IndIP=      8 IndIPD=      1 C=  4.933805D-01  3.558943D+00                             NZ=T
 IS=     3 IAt=     2 ISR=     2 T=1 IP=      3 IndIP=      9 IndIPD=      2 C=  5.590773D-01  7.618119D-01                             NZ=T
 IS=     4 IAt=     2 ISR=     3 T=1 IP=      1 IndIP=     10 IndIPD=      0 C= -9.334168D-02  5.458439D-03                             NZ=T
 IS=     4 IAt=     2 ISR=     3 T=1 IP=      2 IndIP=     11 IndIPD=      1 C=  9.521265D-02  4.304303D-02                             NZ=T
 IS=     5 IAt=     2 ISR=     4 T=1 IP=      1 IndIP=     12 IndIPD=      0 C=  4.404717D-02  1.377061D-02                             NZ=T
 IExCor=    0 DFT=F Ex=HF Corr=None ExCW=0 ScaHFX=  1.000000
 ScaDFX=  1.000000  1.000000  1.000000  1.000000 ScalE2=  1.000000  1.000000
 IRadAn=      5 IRanWt=     -1 IRanGd=            0 ICorTp=0 IEmpDi=  4
 NAtoms=    2 NActive=    2 NUniq=    2 SFac= 1.00D+00 NAtFMM=   60 NAOKFM=F Big=F
 Integral buffers will be    131072 words long.
 Raffenetti 1 integral format.
 Two-electron integral symmetry is turned on.
 Leave Link  301 at Mon Mar 28 14:19:31 2022, MaxMem=  9663676416 cpu:               2.2 elap:               0.1
 (Enter /nopt/nrel/apps/gaussian/g16C_1/g16/l302.exe)
 NPDir=0 NMtPBC=     1 NCelOv=     1 NCel=       1 NClECP=     1 NCelD=      1
         NCelK=      1 NCelE2=     1 NClLst=     1 CellRange=     0.0.
 One-electron integrals computed using PRISM.
 One-electron integral symmetry used in STVInt
 Entering OneElI...
 Calculate overlap and kinetic energy integrals
    NBasis =  14  MinDer = 0  MaxDer = 0
 Requested accuracy = 0.1000D-12
 Symmetry will be used
 PrmmSu-InSpLW:  IPartL=    0 NPrtUS=   36 NPrtUL=    1 DoSpLW=F IThBeg=    0 IThEnd=   35 NThAct=   36.
 PrSmSu:  IncTry=   512 NBBP=             15 NTPThr=   100 NPartT=   36 Incr=           1 LDynOK=F GPUOK=F.
 PrsmSu:  NPrtUS=  36 ThrOK=T IAlg=1 LenDen=           0 ISkipM=0 DoSpLW=F IThBeg=    0 IThEnd=   35.
 Prism:   IPart=     0 DynPar=F LinDyn=F Incr=           1.
 PRISM was handed   268433858 working-precision words and    15 shell-pairs
 PRISM was handed   268433858 working-precision words and    15 shell-pairs
 PRISM was handed   268433858 working-precision words and    15 shell-pairs
 PRISM was handed   268433858 working-precision words and    15 shell-pairs
 PRISM was handed   268433858 working-precision words and    15 shell-pairs
 PRISM was handed   268433858 working-precision words and    15 shell-pairs
 PRISM was handed   268433858 working-precision words and    15 shell-pairs
 PRISM was handed   268433858 working-precision words and    15 shell-pairs
 PRISM was handed   268433858 working-precision words and    15 shell-pairs
 PRISM was handed   268433858 working-precision words and    15 shell-pairs
 IPart= 13 NShTot=           0 NBatch=           0 AvBLen=         0.0
 IPart= 32 NShTot=           0 NBatch=           0 AvBLen=         0.0
 PRISM was handed   268433858 working-precision words and    15 shell-pairs
 IPart= 17 NShTot=           0 NBatch=           0 AvBLen=         0.0
 IPart=  9 NShTot=           0 NBatch=           0 AvBLen=         0.0
 IPart= 16 NShTot=           0 NBatch=           0 AvBLen=         0.0
 IPart=  4 NShTot=           0 NBatch=           0 AvBLen=         0.0
 IPart=  3 NShTot=           0 NBatch=           0 AvBLen=         0.0
 IPart= 12 NShTot=           0 NBatch=           0 AvBLen=         0.0
 PRISM was handed   268433858 working-precision words and    15 shell-pairs
 IPart= 23 NShTot=           0 NBatch=           0 AvBLen=         0.0
 IPart= 27 NShTot=           0 NBatch=           0 AvBLen=         0.0
 IPart= 21 NShTot=           0 NBatch=           0 AvBLen=         0.0
 PRISM was handed   268433858 working-precision words and    15 shell-pairs
 PRISM was handed   268433858 working-precision words and    15 shell-pairs
 PRISM was handed   268433858 working-precision words and    15 shell-pairs
 PRISM was handed   268433858 working-precision words and    15 shell-pairs
 PRISM was handed   268433858 working-precision words and    15 shell-pairs
 IPart= 14 NShTot=           0 NBatch=           0 AvBLen=         0.0
 PRISM was handed   268433858 working-precision words and    15 shell-pairs
 IPart=  1 NShTot=           3 NBatch=           3 AvBLen=         1.0
 IPart= 15 NShTot=           0 NBatch=           0 AvBLen=         0.0
 IPart= 22 NShTot=           0 NBatch=           0 AvBLen=         0.0
 IPart= 34 NShTot=           0 NBatch=           0 AvBLen=         0.0
 PRISM was handed   268433858 working-precision words and    15 shell-pairs
 PRISM was handed   268433858 working-precision words and    15 shell-pairs
 PRISM was handed   268433858 working-precision words and    15 shell-pairs
 IPart=  7 NShTot=           0 NBatch=           0 AvBLen=         0.0
 PRISM was handed   268433858 working-precision words and    15 shell-pairs
 PRISM was handed   268433858 working-precision words and    15 shell-pairs
 PRISM was handed   268433858 working-precision words and    15 shell-pairs
 IPart= 29 NShTot=           0 NBatch=           0 AvBLen=         0.0
 IPart= 10 NShTot=           0 NBatch=           0 AvBLen=         0.0
 IPart=  6 NShTot=           0 NBatch=           0 AvBLen=         0.0
 PRISM was handed   268433858 working-precision words and    15 shell-pairs
 PRISM was handed   268433858 working-precision words and    15 shell-pairs
 PRISM was handed   268433858 working-precision words and    15 shell-pairs
 IPart= 30 NShTot=           0 NBatch=           0 AvBLen=         0.0
 IPart= 35 NShTot=           0 NBatch=           0 AvBLen=         0.0
 IPart= 33 NShTot=           0 NBatch=           0 AvBLen=         0.0
 IPart= 24 NShTot=           0 NBatch=           0 AvBLen=         0.0
 IPart= 18 NShTot=           0 NBatch=           0 AvBLen=         0.0
 PRISM was handed   268433858 working-precision words and    15 shell-pairs
 PRISM was handed   268433858 working-precision words and    15 shell-pairs
 IPart=  5 NShTot=           0 NBatch=           0 AvBLen=         0.0
 PRISM was handed   268433858 working-precision words and    15 shell-pairs
 PRISM was handed   268433858 working-precision words and    15 shell-pairs
 PRISM was handed   268433858 working-precision words and    15 shell-pairs
 PRISM was handed   268433858 working-precision words and    15 shell-pairs
 PRISM was handed   268433858 working-precision words and    15 shell-pairs
 PRISM was handed   268433858 working-precision words and    15 shell-pairs
 PRISM was handed   268433858 working-precision words and    15 shell-pairs
 IPart=  0 NShTot=          12 NBatch=          12 AvBLen=         1.0
 IPart=  8 NShTot=           0 NBatch=           0 AvBLen=         0.0
 IPart= 19 NShTot=           0 NBatch=           0 AvBLen=         0.0
 IPart= 11 NShTot=           0 NBatch=           0 AvBLen=         0.0
 IPart= 20 NShTot=           0 NBatch=           0 AvBLen=         0.0
 IPart= 28 NShTot=           0 NBatch=           0 AvBLen=         0.0
 IPart= 26 NShTot=           0 NBatch=           0 AvBLen=         0.0
 IPart= 25 NShTot=           0 NBatch=           0 AvBLen=         0.0
 IPart= 31 NShTot=           0 NBatch=           0 AvBLen=         0.0
 IPart=  2 NShTot=           0 NBatch=           0 AvBLen=         0.0
 PrSmSu:  NxtVal=             37.
 *** Overlap *** 
                1             2             3             4             5 
      1  0.100000D+01
      2  0.963058D-03  0.100000D+01
      3  0.136014D-01  0.226762D+00  0.100000D+01
      4  0.000000D+00  0.000000D+00  0.000000D+00  0.100000D+01
      5  0.000000D+00  0.000000D+00  0.000000D+00  0.000000D+00  0.100000D+01
      6 -0.141777D-01  0.000000D+00  0.000000D+00  0.000000D+00  0.000000D+00
      7  0.240206D+00  0.175172D-02  0.143132D+00  0.000000D+00  0.000000D+00
      8  0.000000D+00  0.000000D+00  0.000000D+00  0.120813D+00  0.000000D+00
      9  0.000000D+00  0.000000D+00  0.000000D+00  0.000000D+00  0.120813D+00
     10 -0.403992D+00  0.000000D+00  0.000000D+00  0.000000D+00  0.000000D+00
     11  0.239323D+00  0.160858D-01  0.166618D+00  0.000000D+00  0.000000D+00
     12  0.000000D+00  0.000000D+00  0.000000D+00  0.399192D-01  0.000000D+00
     13  0.000000D+00  0.000000D+00  0.000000D+00  0.000000D+00  0.399192D-01
     14 -0.307287D+00  0.000000D+00  0.000000D+00  0.000000D+00  0.000000D+00
                6             7             8             9            10 
      6  0.100000D+01
      7  0.000000D+00  0.100000D+01
      8  0.000000D+00  0.000000D+00  0.100000D+01
      9  0.000000D+00  0.000000D+00  0.000000D+00  0.100000D+01
     10  0.120813D+00  0.000000D+00  0.000000D+00  0.000000D+00  0.100000D+01
     11  0.000000D+00  0.876080D+00  0.000000D+00  0.000000D+00  0.000000D+00
     12  0.000000D+00  0.000000D+00  0.775774D+00  0.000000D+00  0.000000D+00
     13  0.000000D+00  0.000000D+00  0.000000D+00  0.775774D+00  0.000000D+00
     14  0.399192D-01  0.000000D+00  0.000000D+00  0.000000D+00  0.775774D+00
               11            12            13            14 
     11  0.100000D+01
     12  0.000000D+00  0.100000D+01
     13  0.000000D+00  0.000000D+00  0.100000D+01
     14  0.000000D+00  0.000000D+00  0.000000D+00  0.100000D+01
 *** Kinetic Energy *** 
                1             2             3             4             5 
      1  0.760032D+00
      2 -0.631869D-03  0.570648D+02
      3 -0.660334D-02 -0.145971D+01  0.183414D+01
      4  0.000000D+00  0.000000D+00  0.000000D+00  0.585712D+01
      5  0.000000D+00  0.000000D+00  0.000000D+00  0.000000D+00  0.585712D+01
      6  0.403065D-02  0.000000D+00  0.000000D+00  0.000000D+00  0.000000D+00
      7  0.142234D-01 -0.420609D-01 -0.141303D+00  0.000000D+00  0.000000D+00
      8  0.000000D+00  0.000000D+00  0.000000D+00  0.441422D-01  0.000000D+00
      9  0.000000D+00  0.000000D+00  0.000000D+00  0.000000D+00  0.441422D-01
     10 -0.584920D-01  0.000000D+00  0.000000D+00  0.000000D+00  0.000000D+00
     11  0.110549D-01  0.117775D-02  0.119127D-01  0.000000D+00  0.000000D+00
     12  0.000000D+00  0.000000D+00  0.000000D+00  0.476129D-02  0.000000D+00
     13  0.000000D+00  0.000000D+00  0.000000D+00  0.000000D+00  0.476129D-02
     14 -0.278432D-01  0.000000D+00  0.000000D+00  0.000000D+00  0.000000D+00
                6             7             8             9            10 
      6  0.585712D+01
      7  0.000000D+00  0.106538D+00
      8  0.000000D+00  0.000000D+00  0.153112D+00
      9  0.000000D+00  0.000000D+00  0.000000D+00  0.153112D+00
     10  0.441422D-01  0.000000D+00  0.000000D+00  0.000000D+00  0.153112D+00
     11  0.000000D+00  0.447876D-01  0.000000D+00  0.000000D+00  0.000000D+00
     12  0.000000D+00  0.000000D+00  0.676855D-01  0.000000D+00  0.000000D+00
     13  0.000000D+00  0.000000D+00  0.000000D+00  0.676855D-01  0.000000D+00
     14  0.476129D-02  0.000000D+00  0.000000D+00  0.000000D+00  0.676855D-01
               11            12            13            14 
     11  0.366524D-01
     12  0.000000D+00  0.610873D-01
     13  0.000000D+00  0.000000D+00  0.610873D-01
     14  0.000000D+00  0.000000D+00  0.000000D+00  0.610873D-01
 Entering OneElI...
 Calculate potential energy integrals
    NBasis =  14  MinDer = 0  MaxDer = 0
 Requested accuracy = 0.1000D-12
 Symmetry will be used
 PrmmSu-InSpLW:  IPartL=    0 NPrtUS=   36 NPrtUL=    1 DoSpLW=F IThBeg=    0 IThEnd=   35 NThAct=   36.
 PrSmSu:  IncTry=   512 NBBP=             30 NTPThr=   100 NPartT=   36 Incr=           1 LDynOK=F GPUOK=F.
 PrsmSu:  NPrtUS=  36 ThrOK=T IAlg=1 LenDen=           0 ISkipM=0 DoSpLW=F IThBeg=    0 IThEnd=   35.
 Prism:   IPart=     0 DynPar=F LinDyn=F Incr=           1.
 PRISM was handed   268433958 working-precision words and    15 shell-pairs
 PRISM was handed   268433958 working-precision words and    15 shell-pairs
 PRISM was handed   268433958 working-precision words and    15 shell-pairs
 PRISM was handed   268433958 working-precision words and    15 shell-pairs
 PRISM was handed   268433958 working-precision words and    15 shell-pairs
 PRISM was handed   268433958 working-precision words and    15 shell-pairs
 PRISM was handed   268433958 working-precision words and    15 shell-pairs
 PRISM was handed   268433958 working-precision words and    15 shell-pairs
 PRISM was handed   268433958 working-precision words and    15 shell-pairs
 PRISM was handed   268433958 working-precision words and    15 shell-pairs
 PRISM was handed   268433958 working-precision words and    15 shell-pairs
 PRISM was handed   268433958 working-precision words and    15 shell-pairs
 PRISM was handed   268433958 working-precision words and    15 shell-pairs
 PRISM was handed   268433958 working-precision words and    15 shell-pairs
 PRISM was handed   268433958 working-precision words and    15 shell-pairs
 PRISM was handed   268433958 working-precision words and    15 shell-pairs
 PRISM was handed   268433958 working-precision words and    15 shell-pairs
 PRISM was handed   268433958 working-precision words and    15 shell-pairs
 PRISM was handed   268433958 working-precision words and    15 shell-pairs
 PRISM was handed   268433958 working-precision words and    15 shell-pairs
 PRISM was handed   268433958 working-precision words and    15 shell-pairs
 PRISM was handed   268433958 working-precision words and    15 shell-pairs
 PRISM was handed   268433958 working-precision words and    15 shell-pairs
 PRISM was handed   268433958 working-precision words and    15 shell-pairs
 PRISM was handed   268433958 working-precision words and    15 shell-pairs
 PRISM was handed   268433958 working-precision words and    15 shell-pairs
 PRISM was handed   268433958 working-precision words and    15 shell-pairs
 PRISM was handed   268433958 working-precision words and    15 shell-pairs
 PRISM was handed   268433958 working-precision words and    15 shell-pairs
 PRISM was handed   268433958 working-precision words and    15 shell-pairs
 PRISM was handed   268433958 working-precision words and    15 shell-pairs
 PRISM was handed   268433958 working-precision words and    15 shell-pairs
 PRISM was handed   268433958 working-precision words and    15 shell-pairs
 PRISM was handed   268433958 working-precision words and    15 shell-pairs
 PRISM was handed   268433958 working-precision words and    15 shell-pairs
 PRISM was handed   268433958 working-precision words and    15 shell-pairs
 IPart= 33 NShTot=           0 NBatch=           0 AvBLen=         0.0
 IPart= 32 NShTot=           0 NBatch=           0 AvBLen=         0.0
 IPart=  3 NShTot=           0 NBatch=           0 AvBLen=         0.0
 IPart=  5 NShTot=           0 NBatch=           0 AvBLen=         0.0
 IPart=  8 NShTot=           0 NBatch=           0 AvBLen=         0.0
 IPart=  9 NShTot=           0 NBatch=           0 AvBLen=         0.0
 IPart= 17 NShTot=           0 NBatch=           0 AvBLen=         0.0
 IPart=  2 NShTot=           0 NBatch=           0 AvBLen=         0.0
 IPart= 18 NShTot=           0 NBatch=           0 AvBLen=         0.0
 IPart= 23 NShTot=           0 NBatch=           0 AvBLen=         0.0
 IPart= 29 NShTot=           0 NBatch=           0 AvBLen=         0.0
 IPart= 22 NShTot=           0 NBatch=           0 AvBLen=         0.0
 IPart=  6 NShTot=           0 NBatch=           0 AvBLen=         0.0
 IPart= 19 NShTot=           0 NBatch=           0 AvBLen=         0.0
 IPart= 12 NShTot=           0 NBatch=           0 AvBLen=         0.0
 IPart= 10 NShTot=           0 NBatch=           0 AvBLen=         0.0
 IPart=  7 NShTot=           0 NBatch=           0 AvBLen=         0.0
 IPart= 25 NShTot=           0 NBatch=           0 AvBLen=         0.0
 IPart= 31 NShTot=           0 NBatch=           0 AvBLen=         0.0
 IPart= 13 NShTot=           0 NBatch=           0 AvBLen=         0.0
 IPart= 26 NShTot=           0 NBatch=           0 AvBLen=         0.0
 IPart= 21 NShTot=           0 NBatch=           0 AvBLen=         0.0
 IPart= 24 NShTot=           0 NBatch=           0 AvBLen=         0.0
 IPart= 34 NShTot=           0 NBatch=           0 AvBLen=         0.0
 IPart= 16 NShTot=           0 NBatch=           0 AvBLen=         0.0
 IPart= 30 NShTot=           0 NBatch=           0 AvBLen=         0.0
 IPart= 28 NShTot=           0 NBatch=           0 AvBLen=         0.0
 IPart= 15 NShTot=           0 NBatch=           0 AvBLen=         0.0
 IPart= 35 NShTot=           0 NBatch=           0 AvBLen=         0.0
 IPart= 11 NShTot=           0 NBatch=           0 AvBLen=         0.0
 IPart= 27 NShTot=           0 NBatch=           0 AvBLen=         0.0
 IPart=  4 NShTot=           0 NBatch=           0 AvBLen=         0.0
 IPart= 14 NShTot=           0 NBatch=           0 AvBLen=         0.0
 IPart= 20 NShTot=           0 NBatch=           0 AvBLen=         0.0
 IPart=  1 NShTot=           6 NBatch=           3 AvBLen=         2.0
 IPart=  0 NShTot=          24 NBatch=          12 AvBLen=         2.0
 PrSmSu:  NxtVal=             37.
 ***** Potential Energy ***** 
                1             2             3             4             5 
      1  0.365192D+01
      2  0.606413D-01  0.117375D+03
      3  0.157980D+00  0.127927D+02  0.183367D+02
      4  0.000000D+00  0.000000D+00  0.000000D+00  0.188561D+02
      5  0.000000D+00  0.000000D+00  0.000000D+00  0.000000D+00  0.188561D+02
      6 -0.126397D+00 -0.183355D-02 -0.214708D-01  0.000000D+00  0.000000D+00
      7  0.858286D+00  0.828151D-01  0.136366D+01  0.000000D+00  0.000000D+00
      8  0.000000D+00  0.000000D+00  0.000000D+00  0.116687D+01  0.000000D+00
      9  0.000000D+00  0.000000D+00  0.000000D+00  0.000000D+00  0.116687D+01
     10 -0.135857D+01 -0.209211D-04 -0.381887D-02  0.000000D+00  0.000000D+00
     11  0.795470D+00  0.102059D+01  0.213998D+01  0.000000D+00  0.000000D+00
     12  0.000000D+00  0.000000D+00  0.000000D+00  0.371693D+00  0.000000D+00
     13  0.000000D+00  0.000000D+00  0.000000D+00  0.000000D+00  0.371693D+00
     14 -0.939943D+00 -0.600865D-05 -0.127773D-02  0.000000D+00  0.000000D+00
                6             7             8             9            10 
      6  0.188610D+02
      7 -0.697820D-02  0.377126D+01
      8  0.000000D+00  0.000000D+00  0.308636D+01
      9  0.000000D+00  0.000000D+00  0.000000D+00  0.308636D+01
     10  0.116864D+01 -0.866193D-01  0.000000D+00  0.000000D+00  0.316337D+01
     11 -0.620763D-02  0.303552D+01  0.000000D+00  0.000000D+00 -0.821871D-01
     12  0.000000D+00  0.000000D+00  0.200699D+01  0.000000D+00  0.000000D+00
     13  0.000000D+00  0.000000D+00  0.000000D+00  0.200699D+01  0.000000D+00
     14  0.372316D+00 -0.558590D-01  0.000000D+00  0.000000D+00  0.206225D+01
               11            12            13            14 
     11  0.292994D+01
     12  0.000000D+00  0.196818D+01
     13  0.000000D+00  0.000000D+00  0.196818D+01
     14 -0.668294D-01  0.000000D+00  0.000000D+00  0.201829D+01
 ****** Core Hamiltonian ****** 
                1             2             3             4             5 
      1 -0.289188D+01
      2 -0.612731D-01 -0.603100D+02
      3 -0.164584D+00 -0.142524D+02 -0.165026D+02
      4  0.000000D+00  0.000000D+00  0.000000D+00 -0.129990D+02
      5  0.000000D+00  0.000000D+00  0.000000D+00  0.000000D+00 -0.129990D+02
      6  0.130427D+00  0.183355D-02  0.214708D-01  0.000000D+00  0.000000D+00
      7 -0.844063D+00 -0.124876D+00 -0.150496D+01  0.000000D+00  0.000000D+00
      8  0.000000D+00  0.000000D+00  0.000000D+00 -0.112273D+01  0.000000D+00
      9  0.000000D+00  0.000000D+00  0.000000D+00  0.000000D+00 -0.112273D+01
     10  0.130007D+01  0.209211D-04  0.381887D-02  0.000000D+00  0.000000D+00
     11 -0.784415D+00 -0.101942D+01 -0.212807D+01  0.000000D+00  0.000000D+00
     12  0.000000D+00  0.000000D+00  0.000000D+00 -0.366931D+00  0.000000D+00
     13  0.000000D+00  0.000000D+00  0.000000D+00  0.000000D+00 -0.366931D+00
     14  0.912100D+00  0.600865D-05  0.127773D-02  0.000000D+00  0.000000D+00
                6             7             8             9            10 
      6 -0.130038D+02
      7  0.697820D-02 -0.366472D+01
      8  0.000000D+00  0.000000D+00 -0.293324D+01
      9  0.000000D+00  0.000000D+00  0.000000D+00 -0.293324D+01
     10 -0.112450D+01  0.866193D-01  0.000000D+00  0.000000D+00 -0.301026D+01
     11  0.620763D-02 -0.299073D+01  0.000000D+00  0.000000D+00  0.821871D-01
     12  0.000000D+00  0.000000D+00 -0.193931D+01  0.000000D+00  0.000000D+00
     13  0.000000D+00  0.000000D+00  0.000000D+00 -0.193931D+01  0.000000D+00
     14 -0.367555D+00  0.558590D-01  0.000000D+00  0.000000D+00 -0.199456D+01
               11            12            13            14 
     11 -0.289329D+01
     12  0.000000D+00 -0.190709D+01
     13  0.000000D+00  0.000000D+00 -0.190709D+01
     14  0.668294D-01  0.000000D+00  0.000000D+00 -0.195720D+01
 SVDSVc IOpt=   1 NormSV=T IR=1
 SVDSVc V= 2.16D+00 1.88D+00 1.20D+00 9.94D-01 7.65D-01 6.69D-01 2.11D-01 1.24D-01
 SVDSVc IOpt=   1 NormSV=T IR=3
 SVDSVc V= 1.79D+00 9.88D-01 2.20D-01
 SVDSVc IOpt=   1 NormSV=T IR=4
 SVDSVc V= 1.79D+00 9.88D-01 2.20D-01
 TstOVc:  Largest diagonal error= 2.00D-15 IB=1 I=    1.
 TstOVc:  Largest same sym error= 1.04D-15 IB=1 I=    7 J=    5.
 TstOVc:  Largest diff sym error= 0.00D+00 IB=0 JB=0 I=    0 J=    0.
 Orthogonalized basis functions: 
                 1             2             3             4             5 
      1   0.307023D+00 -0.858755D-01 -0.781932D-01  0.120064D+00 -0.339098D+00
      2   0.224242D-01  0.423316D-01  0.671343D+00  0.381303D-01 -0.744461D+00
      3   0.895420D-01  0.136079D+00  0.589513D+00  0.112139D-02  0.775149D+00
      4   0.000000D+00  0.000000D+00  0.000000D+00  0.000000D+00  0.000000D+00
      5   0.000000D+00  0.000000D+00  0.000000D+00  0.000000D+00  0.000000D+00
      6  -0.446623D-01  0.655528D-01 -0.292358D-01  0.989598D+00  0.521724D-01
      7   0.305590D+00  0.357526D+00 -0.126493D+00 -0.334960D-01 -0.350060D-01
      8   0.000000D+00  0.000000D+00  0.000000D+00  0.000000D+00  0.000000D+00
      9   0.000000D+00  0.000000D+00  0.000000D+00  0.000000D+00  0.000000D+00
     10  -0.300210D+00  0.352749D+00 -0.412519D-01 -0.268620D-02 -0.892196D-01
     11   0.306646D+00  0.359736D+00 -0.104541D+00 -0.329595D-01 -0.227852D-01
     12   0.000000D+00  0.000000D+00  0.000000D+00  0.000000D+00  0.000000D+00
     13   0.000000D+00  0.000000D+00  0.000000D+00  0.000000D+00  0.000000D+00
     14  -0.283028D+00  0.344523D+00 -0.465986D-01 -0.915675D-01 -0.157676D+00
                 6             7             8             9            10 
      1   0.991238D+00  0.270677D+00  0.491141D-03  0.000000D+00  0.000000D+00
      2  -0.215300D+00 -0.284109D-02 -0.199662D-01  0.000000D+00  0.000000D+00
      3   0.328619D+00  0.118854D-01 -0.503217D-01  0.000000D+00  0.000000D+00
      4   0.000000D+00  0.000000D+00  0.000000D+00  0.106366D+00  0.993078D+00
      5   0.000000D+00  0.000000D+00  0.000000D+00  0.000000D+00  0.000000D+00
      6  -0.869608D-01 -0.165285D+00 -0.348172D-04  0.000000D+00  0.000000D+00
      7  -0.240890D+00 -0.400686D-01 -0.200681D+01  0.000000D+00  0.000000D+00
      8   0.000000D+00  0.000000D+00  0.000000D+00  0.525558D+00 -0.486986D-01
      9   0.000000D+00  0.000000D+00  0.000000D+00  0.000000D+00  0.000000D+00
     10   0.209104D+00  0.159000D+01  0.357296D-03  0.000000D+00  0.000000D+00
     11  -0.233997D+00 -0.400750D-01  0.201577D+01  0.000000D+00  0.000000D+00
     12   0.000000D+00  0.000000D+00  0.000000D+00  0.520070D+00 -0.153894D+00
     13   0.000000D+00  0.000000D+00  0.000000D+00  0.000000D+00  0.000000D+00
     14   0.440493D+00 -0.144997D+01 -0.142473D-03  0.000000D+00  0.000000D+00
                11            12            13            14 
      1   0.000000D+00  0.000000D+00  0.000000D+00  0.000000D+00
      2   0.000000D+00  0.000000D+00  0.000000D+00  0.000000D+00
      3   0.000000D+00  0.000000D+00  0.000000D+00  0.000000D+00
      4  -0.157598D+00  0.000000D+00  0.000000D+00  0.000000D+00
      5   0.000000D+00  0.106366D+00  0.993078D+00 -0.157598D+00
      6   0.000000D+00  0.000000D+00  0.000000D+00  0.000000D+00
      7   0.000000D+00  0.000000D+00  0.000000D+00  0.000000D+00
      8   0.151160D+01  0.000000D+00  0.000000D+00  0.000000D+00
      9   0.000000D+00  0.525558D+00 -0.486986D-01  0.151160D+01
     10   0.000000D+00  0.000000D+00  0.000000D+00  0.000000D+00
     11   0.000000D+00  0.000000D+00  0.000000D+00  0.000000D+00
     12  -0.149532D+01  0.000000D+00  0.000000D+00  0.000000D+00
     13   0.000000D+00  0.520070D+00 -0.153894D+00 -0.149532D+01
     14   0.000000D+00  0.000000D+00  0.000000D+00  0.000000D+00
 NBasis=    14 RedAO= T EigKep=  1.24D-01  NBF=     8     0     3     3
 NBsUse=    14 1.00D-06 EigRej= -1.00D+00 NBFU=     8     0     3     3
 Leave Link  302 at Mon Mar 28 14:19:31 2022, MaxMem=  9663676416 cpu:               2.9 elap:               0.1
 (Enter /nopt/nrel/apps/gaussian/g16C_1/g16/l303.exe)
 DipDrv will not compute anything.
 Fermi contact integrals: 
                 1             2 
      1   0.628247D+00  0.258976D-02
      2   0.000000D+00  0.171843D+02
      3   0.000000D+00  0.368674D+00
      4   0.000000D+00  0.000000D+00
      5   0.000000D+00  0.000000D+00
      6   0.000000D+00  0.000000D+00
      7   0.271774D-01  0.187097D-02
      8   0.000000D+00  0.000000D+00
      9   0.000000D+00  0.000000D+00
     10  -0.557290D-01  0.000000D+00
     11   0.266463D-01  0.440472D-01
     12   0.000000D+00  0.000000D+00
     13   0.000000D+00  0.000000D+00
     14  -0.377818D-01  0.000000D+00
 Leave Link  303 at Mon Mar 28 14:19:31 2022, MaxMem=  9663676416 cpu:               1.1 elap:               0.1
 (Enter /nopt/nrel/apps/gaussian/g16C_1/g16/l401.exe)
 ExpMin= 2.44D-02 ExpMax= 5.48D+02 ExpMxC= 5.48D+02 IAcc=3 IRadAn=         5 AccDes= 0.00D+00
 Harris functional with IExCor=  205 and IRadAn=       5 diagonalized for initial guess.
 HarFok:  IExCor=  205 AccDes= 0.00D+00 IRadAn=         5 IDoV= 1 UseB2=F ITyADJ=14
 ICtDFT=  3500011 ScaDFX=  1.000000  1.000000  1.000000  1.000000
 FoFCou: FMM=F IPFlag=           0 FMFlag=      100000 FMFlg1=           0
         NFxFlg=           0 DoJE=T BraDBF=F KetDBF=T FulRan=T
         wScrn=  0.000000 ICntrl=       500 IOpCl=  0 I1Cent=   200000004 NGrid=           0
         NMat0=    1 NMatS0=      1 NMatT0=    0 NMatD0=    1 NMtDS0=    0 NMtDT0=    0
 Petite list used in FoFCou.
 Harris En= -161.196471659521    
 JPrj=0 DoOrth=F DoCkMO=F.
 Initial guess orbital symmetries:
       Occupied  (SG) (SG) (SG) (PI) (PI) (SG)
       Virtual   (SG) (PI) (PI) (SG) (SG) (PI) (PI) (SG)
 The electronic state of the initial guess is 1-SG.
 Leave Link  401 at Mon Mar 28 14:19:31 2022, MaxMem=  9663676416 cpu:               3.2 elap:               0.1
 (Enter /nopt/nrel/apps/gaussian/g16C_1/g16/l502.exe)
 Keep R1 ints in memory in symmetry-blocked form, NReq=7213080.
 FoFCou: FMM=F IPFlag=           0 FMFlag=           0 FMFlg1=           0
         NFxFlg=           0 DoJE=F BraDBF=F KetDBF=F FulRan=T
         wScrn=  0.000000 ICntrl=       600 IOpCl=  0 I1Cent=           0 NGrid=           0
         NMat0=    1 NMatS0=    105 NMatT0=    0 NMatD0=    1 NMtDS0=    0 NMtDT0=    0
 Petite list used in FoFCou.
 Closed shell SCF:
 Using DIIS extrapolation, IDIIS=  1040.
 NGot=  9663676416 LenX=  9663671753 LenY=  9663670871
 Requested convergence on RMS density matrix=1.00D-08 within 128 cycles.
 Requested convergence on MAX density matrix=1.00D-06.
 Requested convergence on             energy=1.00D-06.
 No special actions if energy rises.

 Cycle   1  Pass 1  IDiag  1:
 E= -161.298085722265    
 DIIS: error= 3.81D-02 at cycle   1 NSaved=   1.
 NSaved= 1 IEnMin= 1 EnMin= -161.298085722265     IErMin= 1 ErrMin= 3.81D-02
 ErrMax= 3.81D-02  0.00D+00 EMaxC= 1.00D-01 BMatC= 1.66D-02 BMatP= 1.66D-02
 IDIUse=3 WtCom= 6.19D-01 WtEn= 3.81D-01
 Coeff-Com:  0.100D+01
 Coeff-En:   0.100D+01
 Coeff:      0.100D+01
 Gap=     0.179 Goal=   None    Shift=    0.000
 GapD=    0.179 DampG=1.000 DampE=0.500 DampFc=0.5000 IDamp=-1.
 Damping current iteration by 5.00D-01
 RMSDP=2.06D-02 MaxDP=2.24D-01              OVMax= 1.33D-02

 Cycle   2  Pass 1  IDiag  1:
 E= -161.319789158266     Delta-E=       -0.021703436001 Rises=F Damp=T
 DIIS: error= 1.76D-02 at cycle   2 NSaved=   2.
 NSaved= 2 IEnMin= 2 EnMin= -161.319789158266     IErMin= 2 ErrMin= 1.76D-02
 ErrMax= 1.76D-02  0.00D+00 EMaxC= 1.00D-01 BMatC= 4.00D-03 BMatP= 1.66D-02
 IDIUse=3 WtCom= 8.24D-01 WtEn= 1.76D-01
 Coeff-Com: -0.953D+00 0.195D+01
 Coeff-En:   0.000D+00 0.100D+01
 Coeff:     -0.785D+00 0.178D+01
 Gap=     0.239 Goal=   None    Shift=    0.000
 RMSDP=9.49D-03 MaxDP=9.84D-02 DE=-2.17D-02 OVMax= 6.44D-04

 Cycle   3  Pass 1  IDiag  1:
 E= -161.340862629850     Delta-E=       -0.021073471584 Rises=F Damp=F
 DIIS: error= 2.65D-04 at cycle   3 NSaved=   3.
 NSaved= 3 IEnMin= 3 EnMin= -161.340862629850     IErMin= 3 ErrMin= 2.65D-04
 ErrMax= 2.65D-04  0.00D+00 EMaxC= 1.00D-01 BMatC= 1.76D-06 BMatP= 4.00D-03
 IDIUse=3 WtCom= 9.97D-01 WtEn= 2.65D-03
 Coeff-Com:  0.184D+00-0.380D+00 0.120D+01
 Coeff-En:   0.000D+00 0.000D+00 0.100D+01
 Coeff:      0.183D+00-0.379D+00 0.120D+01
 Gap=     0.243 Goal=   None    Shift=    0.000
 RMSDP=2.85D-04 MaxDP=1.46D-03 DE=-2.11D-02 OVMax= 2.14D-04

 Cycle   4  Pass 1  IDiag  1:
 E= -161.340867712070     Delta-E=       -0.000005082220 Rises=F Damp=F
 DIIS: error= 6.11D-05 at cycle   4 NSaved=   4.
 NSaved= 4 IEnMin= 4 EnMin= -161.340867712070     IErMin= 4 ErrMin= 6.11D-05
 ErrMax= 6.11D-05  0.00D+00 EMaxC= 1.00D-01 BMatC= 4.04D-08 BMatP= 1.76D-06
 IDIUse=1 WtCom= 1.00D+00 WtEn= 0.00D+00
 Coeff-Com:  0.500D-01-0.102D+00 0.239D+00 0.813D+00
 Coeff:      0.500D-01-0.102D+00 0.239D+00 0.813D+00
 Gap=     0.243 Goal=   None    Shift=    0.000
 RMSDP=5.41D-05 MaxDP=2.95D-04 DE=-5.08D-06 OVMax= 4.73D-06

 Cycle   5  Pass 1  IDiag  1:
 E= -161.340868011840     Delta-E=       -0.000000299770 Rises=F Damp=F
 DIIS: error= 3.51D-05 at cycle   5 NSaved=   5.
 NSaved= 5 IEnMin= 5 EnMin= -161.340868011840     IErMin= 5 ErrMin= 3.51D-05
 ErrMax= 3.51D-05  0.00D+00 EMaxC= 1.00D-01 BMatC= 1.09D-08 BMatP= 4.04D-08
 IDIUse=1 WtCom= 1.00D+00 WtEn= 0.00D+00
 Coeff-Com:  0.100D-01-0.206D-01 0.693D-01-0.961D+00 0.190D+01
 Coeff:      0.100D-01-0.206D-01 0.693D-01-0.961D+00 0.190D+01
 Gap=     0.243 Goal=   None    Shift=    0.000
 RMSDP=4.35D-05 MaxDP=2.32D-04 DE=-3.00D-07 OVMax= 3.96D-07

 Cycle   6  Pass 1  IDiag  1:
 E= -161.340868129463     Delta-E=       -0.000000117622 Rises=F Damp=F
 DIIS: error= 7.45D-06 at cycle   6 NSaved=   6.
 NSaved= 6 IEnMin= 6 EnMin= -161.340868129463     IErMin= 6 ErrMin= 7.45D-06
 ErrMax= 7.45D-06  0.00D+00 EMaxC= 1.00D-01 BMatC= 3.63D-10 BMatP= 1.09D-08
 IDIUse=1 WtCom= 1.00D+00 WtEn= 0.00D+00
 Coeff-Com: -0.122D-02 0.251D-02-0.124D-01 0.615D+00-0.145D+01 0.185D+01
 Coeff:     -0.122D-02 0.251D-02-0.124D-01 0.615D+00-0.145D+01 0.185D+01
 Gap=     0.243 Goal=   None    Shift=    0.000
 RMSDP=8.34D-06 MaxDP=3.84D-05 DE=-1.18D-07 OVMax= 7.74D-07

 Cycle   7  Pass 1  IDiag  1:
 E= -161.340868134235     Delta-E=       -0.000000004773 Rises=F Damp=F
 DIIS: error= 4.43D-07 at cycle   7 NSaved=   7.
 NSaved= 7 IEnMin= 7 EnMin= -161.340868134235     IErMin= 7 ErrMin= 4.43D-07
 ErrMax= 4.43D-07  0.00D+00 EMaxC= 1.00D-01 BMatC= 2.37D-12 BMatP= 3.63D-10
 IDIUse=1 WtCom= 1.00D+00 WtEn= 0.00D+00
 Coeff-Com:  0.163D-04-0.331D-04 0.674D-03-0.762D-01 0.203D+00-0.280D+00
 Coeff-Com:  0.115D+01
 Coeff:      0.163D-04-0.331D-04 0.674D-03-0.762D-01 0.203D+00-0.280D+00
 Coeff:      0.115D+01
 Gap=     0.243 Goal=   None    Shift=    0.000
 RMSDP=8.48D-07 MaxDP=4.61D-06 DE=-4.77D-09 OVMax= 1.46D-07

 Cycle   8  Pass 1  IDiag  1:
 E= -161.340868134255     Delta-E=       -0.000000000020 Rises=F Damp=F
 DIIS: error= 1.76D-08 at cycle   8 NSaved=   8.
 NSaved= 8 IEnMin= 8 EnMin= -161.340868134255     IErMin= 8 ErrMin= 1.76D-08
 ErrMax= 1.76D-08  0.00D+00 EMaxC= 1.00D-01 BMatC= 2.40D-15 BMatP= 2.37D-12
 IDIUse=1 WtCom= 1.00D+00 WtEn= 0.00D+00
 Coeff-Com: -0.603D-05 0.124D-04-0.129D-03 0.125D-01-0.338D-01 0.460D-01
 Coeff-Com: -0.213D+00 0.119D+01
 Coeff:     -0.603D-05 0.124D-04-0.129D-03 0.125D-01-0.338D-01 0.460D-01
 Coeff:     -0.213D+00 0.119D+01
 Gap=     0.243 Goal=   None    Shift=    0.000
 RMSDP=1.19D-08 MaxDP=4.50D-08 DE=-1.98D-11 OVMax= 5.56D-10

 Cycle   9  Pass 1  IDiag  1:
 E= -161.340868134255     Delta-E=       -0.000000000000 Rises=F Damp=F
 DIIS: error= 2.62D-09 at cycle   9 NSaved=   9.
 NSaved= 9 IEnMin= 9 EnMin= -161.340868134255     IErMin= 9 ErrMin= 2.62D-09
 ErrMax= 2.62D-09  0.00D+00 EMaxC= 1.00D-01 BMatC= 5.73D-17 BMatP= 2.40D-15
 IDIUse=1 WtCom= 1.00D+00 WtEn= 0.00D+00
 Coeff-Com:  0.353D-07-0.753D-07 0.536D-05-0.684D-03 0.191D-02-0.242D-02
 Coeff-Com:  0.120D-01-0.851D-01 0.107D+01
 Coeff:      0.353D-07-0.753D-07 0.536D-05-0.684D-03 0.191D-02-0.242D-02
 Coeff:      0.120D-01-0.851D-01 0.107D+01
 Gap=     0.243 Goal=   None    Shift=    0.000
 RMSDP=3.18D-09 MaxDP=1.74D-08 DE=-1.71D-13 OVMax= 1.15D-10

 SCF Done:  E(RHF) =  -161.340868134     A.U. after    9 cycles
            NFock=  9  Conv=0.32D-08     -V/T= 2.0036
 KE= 1.607658911152D+02 PE=-3.927526230881D+02 EE= 6.822046828859D+01
 Leave Link  502 at Mon Mar 28 14:19:31 2022, MaxMem=  9663676416 cpu:               3.0 elap:               0.1
 (Enter /nopt/nrel/apps/gaussian/g16C_1/g16/l801.exe)
 Windowed orbitals will be sorted by symmetry type.
 ExpMin= 2.44D-02 ExpMax= 5.48D+02 ExpMxC= 5.48D+02 IAcc=3 IRadAn=         5 AccDes= 0.00D+00
 HarFok:  IExCor=  205 AccDes= 0.00D+00 IRadAn=         5 IDoV=-2 UseB2=F ITyADJ=14
 ICtDFT= 12500011 ScaDFX=  1.000000  1.000000  1.000000  1.000000
 Largest valence mixing into a core orbital is  2.51D-04
 Largest core mixing into a valence orbital is  1.78D-04
 Range of M.O.s used for correlation:     6    14
 NBasis=    14 NAE=     6 NBE=     6 NFC=     5 NFV=     0
 NROrb=      9 NOA=     1 NOB=     1 NVA=     8 NVB=     8
 Leave Link  801 at Mon Mar 28 14:19:31 2022, MaxMem=  9663676416 cpu:               2.3 elap:               0.1
 (Enter /nopt/nrel/apps/gaussian/g16C_1/g16/l804.exe)
 Closed-shell transformation, MDV=  9663676416 ITran=4 ISComp=2.
 Unit  1 TFree=          8118 TCopy=        116765.
 Semi-Direct transformation.
 ModeAB=           2 MOrb=             1 LenV=    9663555891
 LASXX=           88 LTotXX=          88 LenRXX=          88
 LTotAB=         141 MaxLAS=         945 LenRXY=         945
 NonZer=        1107 LenScr=      785920 LnRSAI=           0
 LnScr1=           0 LExtra=      220189 Total=      1007142
 MaxDsk= 34359738368 SrtSym=           F ITran=            4
 DoSDTr:  NPSUse= 36
 JobTyp=0 Pass  1:  I=   1 to   1.
 (rs|ai) integrals will be sorted in core.
 Complete sort for first half transformation.
 First half transformation complete.
 Complete sort for second half transformation.
 Second half transformation complete.
 Spin components of T(2) and E(2):
     alpha-alpha T2 =       0.0000000000D+00 E2=      0.0000000000D+00
     alpha-beta  T2 =       0.2154426588D-01 E2=     -0.2047574124D-01
     beta-beta   T2 =       0.0000000000D+00 E2=      0.0000000000D+00
 ANorm=    0.1010714730D+01
 E2 =    -0.2047574124D-01 EUMP2 =    -0.16136134387549D+03
 Leave Link  804 at Mon Mar 28 14:19:31 2022, MaxMem=  9663676416 cpu:               2.1 elap:               0.1
 (Enter /nopt/nrel/apps/gaussian/g16C_1/g16/l913.exe)
 CIDS:  MDV=  9663676416.
 Frozen-core window:  NFC=   5 NFV=   0.
 IFCWin=0 IBDFC=1 NFBD=     0     0 NFCmp=     0     0 NFFFC=     0     0
 Using DD3R+UMP44R for 1st iteration.
 Using DD4RQ for 2nd and later iterations.
 Keep R2 and R3 ints in memory in symmetry-blocked form, NReq=7215474.
 FoFCou: FMM=F IPFlag=           0 FMFlag=           0 FMFlg1=           0
         NFxFlg=           0 DoJE=F BraDBF=F KetDBF=F FulRan=T
         wScrn=  0.000000 ICntrl=       600 IOpCl=  0 I1Cent=           0 NGrid=           0
         NMat0=    1 NMatS0=    105 NMatT0=    0 NMatD0=    1 NMtDS0=    0 NMtDT0=    0
 Petite list used in FoFCou.
 CIDS: In Core Option IDoMem=           1.
 Coupled Cluster theory with single and double substitutions
 ===========================================================
 Iterations= 200 Convergence= 0.100D-06
 Produce multiple copies of IABC intergrals
 Iteration Nr.   1
 **********************
 DD1Dir will call FoFMem   1 times, MxPair=         2
 NAB=     1 NAA=     0 NBB=     0.
 MP4(R+Q)=  0.44113481D-03
 Maximum subspace dimension=  5
 A-vector RMS=  2.1460025D-02 Max=  3.9777761D-02 conv= 1.00D-05.
 RLE energy=       -0.0343406844
 E3=       -0.87107054D-02        EUMP3=      -0.16137005458D+03
 E4(DQ)=   -0.36468144D-02        UMP4(DQ)=   -0.16137370140D+03
 E4(SDQ)=  -0.38528155D-02        UMP4(SDQ)=  -0.16137390740D+03
 VARIATIONAL ENERGIES WITH THE FIRST-ORDER WAVEFUNCTION:
 DE(Corr)= -0.28742758E-01 E(Corr)=     -161.36961089    
 NORM(A)=   0.10309913D+01
 Iteration Nr.   2
 **********************
 DD1Dir will call FoFMem   1 times, MxPair=         2
 NAB=     1 NAA=     0 NBB=     0.
 A-vector RMS=  1.1023608D-02 Max=  1.2979249D-02 conv= 1.00D-05.
 RLE energy=       -0.0354259605
 DE(Corr)= -0.34853955E-01 E(CORR)=     -161.37572209     Delta=-6.11D-03
 NORM(A)=   0.10352708D+01
 Iteration Nr.   3
 **********************
 DD1Dir will call FoFMem   1 times, MxPair=         2
 NAB=     1 NAA=     0 NBB=     0.
 A-vector RMS=  9.2462097D-03 Max=  1.0901146D-02 conv= 1.00D-05.
 RLE energy=       -0.0360730689
 DE(Corr)= -0.35495015E-01 E(CORR)=     -161.37636315     Delta=-6.41D-04
 NORM(A)=   0.10420849D+01
 Iteration Nr.   4
 **********************
 DD1Dir will call FoFMem   1 times, MxPair=         2
 NAB=     1 NAA=     0 NBB=     0.
 A-vector RMS=  3.0240611D-03 Max=  5.4356913D-03 conv= 1.00D-05.
 RLE energy=       -0.0366028341
 DE(Corr)= -0.36195972E-01 E(CORR)=     -161.37706411     Delta=-7.01D-04
 NORM(A)=   0.10469845D+01
 Iteration Nr.   5
 **********************
 DD1Dir will call FoFMem   1 times, MxPair=         2
 NAB=     1 NAA=     0 NBB=     0.
 A-vector RMS=  4.9063586D-04 Max=  4.6649094D-04 conv= 1.00D-05.
 RLE energy=       -0.0364814971
 DE(Corr)= -0.36538114E-01 E(CORR)=     -161.37740625     Delta=-3.42D-04
 NORM(A)=   0.10467094D+01
 Iteration Nr.   6
 **********************
 DD1Dir will call FoFMem   1 times, MxPair=         2
 NAB=     1 NAA=     0 NBB=     0.
 A-vector RMS=  2.1603559D-04 Max=  1.7926307D-04 conv= 1.00D-05.
 RLE energy=       -0.0364866317
 DE(Corr)= -0.36483121E-01 E(CORR)=     -161.37735126     Delta= 5.50D-05
 NORM(A)=   0.10467644D+01
 Iteration Nr.   7
 **********************
 DD1Dir will call FoFMem   1 times, MxPair=         2
 NAB=     1 NAA=     0 NBB=     0.
 A-vector RMS=  1.0618801D-04 Max=  1.1911782D-04 conv= 1.00D-05.
 RLE energy=       -0.0364899683
 DE(Corr)= -0.36487405E-01 E(CORR)=     -161.37735554     Delta=-4.28D-06
 NORM(A)=   0.10467866D+01
 Iteration Nr.   8
 **********************
 DD1Dir will call FoFMem   1 times, MxPair=         2
 NAB=     1 NAA=     0 NBB=     0.
 A-vector RMS=  1.5535803D-05 Max=  1.5501963D-05 conv= 1.00D-05.
 RLE energy=       -0.0364876517
 DE(Corr)= -0.36488856E-01 E(CORR)=     -161.37735699     Delta=-1.45D-06
 NORM(A)=   0.10467744D+01
 Iteration Nr.   9
 **********************
 DD1Dir will call FoFMem   1 times, MxPair=         2
 NAB=     1 NAA=     0 NBB=     0.
 A-vector RMS=  2.2530175D-06 Max=  2.3734777D-06 conv= 1.00D-05.
 RLE energy=       -0.0364880249
 DE(Corr)= -0.36487838E-01 E(CORR)=     -161.37735597     Delta= 1.02D-06
 NORM(A)=   0.10467758D+01
 Iteration Nr.  10
 **********************
 DD1Dir will call FoFMem   1 times, MxPair=         2
 NAB=     1 NAA=     0 NBB=     0.
 A-vector RMS=  4.2277152D-07 Max=  1.2451604D-06 conv= 1.00D-05.
 RLE energy=       -0.0364880695
 DE(Corr)= -0.36488048E-01 E(CORR)=     -161.37735618     Delta=-2.10D-07
 NORM(A)=   0.10467761D+01
 Iteration Nr.  11
 **********************
 DD1Dir will call FoFMem   1 times, MxPair=         2
 NAB=     1 NAA=     0 NBB=     0.
 A-vector RMS=  2.1272900D-07 Max=  2.0357117D-07 conv= 1.00D-05.
 RLE energy=       -0.0364880654
 DE(Corr)= -0.36488062E-01 E(CORR)=     -161.37735620     Delta=-1.46D-08
 NORM(A)=   0.10467762D+01
 CI/CC converged in   11 iterations to DelEn=-1.46D-08 Conv= 1.00D-07 ErrA1= 2.13D-07 Conv= 1.00D-05
 Wavefunction amplitudes converged. E(Corr)=     -161.37735620    
 Dominant configurations:
 ***********************
 Spin Case        I    J    A    B          Value
   ABAB           6    6   14   14      -0.156020D+00
 Largest amplitude= 1.56D-01
 Discarding MO integrals.
 Leave Link  913 at Mon Mar 28 14:19:31 2022, MaxMem=  9663676416 cpu:               4.1 elap:               0.1
 (Enter /nopt/nrel/apps/gaussian/g16C_1/g16/l601.exe)
 Copying SCF densities to generalized density rwf, IOpCl= 0 IROHF=0.

 **********************************************************************

            Population analysis using the SCF Density.

 **********************************************************************

 Orbital symmetries:
       Occupied  (SG) (SG) (PI) (PI) (SG) (SG)
       Virtual   (SG) (PI) (PI) (SG) (SG) (PI) (PI) (SG)
 The electronic state is 1-SG.
 Alpha  occ. eigenvalues --  -40.23216  -2.78480  -1.50295  -1.50295  -1.50157
 Alpha  occ. eigenvalues --   -0.24846
 Alpha virt. eigenvalues --   -0.00552   0.03789   0.03789   0.11248   0.13424
 Alpha virt. eigenvalues --    0.16479   0.16479   0.32471
          Condensed to atoms (all electrons):
               1          2
     1  H    0.624808   0.298895
     2  Na   0.298895  10.777402
 Mulliken charges:
               1
     1  H    0.076297
     2  Na  -0.076297
 Sum of Mulliken charges =   0.00000
 Mulliken charges with hydrogens summed into heavy atoms:
               1
     2  Na   0.000000
 N-N= 2.425395550050D+00 E-N=-3.927526230808D+02  KE= 1.607658911152D+02
 Symmetry A1   KE= 1.376927075275D+02
 Symmetry A2   KE= 0.000000000000D+00
 Symmetry B1   KE= 1.153659179386D+01
 Symmetry B2   KE= 1.153659179386D+01

 Atomic contributions to Alpha molecular orbitals:
 Alpha occ 1 OE=-40.232 is Na2-s=1.0000
 Alpha occ 2 OE=-2.785 is Na2-s=0.9998
 Alpha occ 3 OE=-1.503 is Na2-p=1.0000
 Alpha occ 4 OE=-1.503 is Na2-p=1.0000
 Alpha occ 5 OE=-1.502 is Na2-p=0.9999
 Alpha occ 6 OE=-0.248 is H1-s=0.4620 Na2-s=0.3258 Na2-p=0.2122
 Alpha vir 7 OE=-0.006 is Na2-s=0.5192 Na2-p=0.4583
 Alpha vir 8 OE=0.038 is Na2-p=1.0000
 Alpha vir 9 OE=0.038 is Na2-p=1.0000
 Alpha vir 10 OE=0.112 is Na2-p=0.7264 Na2-s=0.2195
 Alpha vir 11 OE=0.134 is Na2-s=0.8216 Na2-p=0.1587
 Alpha vir 12 OE=0.165 is Na2-p=1.0000
 Alpha vir 13 OE=0.165 is Na2-p=1.0000
 Alpha vir 14 OE=0.325 is Na2-p=0.4443 H1-s=0.4419 Na2-s=0.1138
 
 Leave Link  601 at Mon Mar 28 14:19:32 2022, MaxMem=  9663676416 cpu:               2.2 elap:               0.1
 (Enter /nopt/nrel/apps/gaussian/g16C_1/g16/l9999.exe)

 Test job not archived.
 1\1\GINC-R102U34\SP\RCCSD-FC\Gen\H1Na1\USER\28-Mar-2022\0\\#P CCSD
 (MaxCyc=200,SaveAmplitudes,ReadAmplitudes)/GEN sp pop=AllOrbitals iop(
 3/33=1,3/36=-1)\\test\\0,1\H,0,0.,0.,0.\Na,0,0.,0.,2.4\\Version=ES64L-
 G16RevC.01\State=1-SG\HF=-161.3408681\MP2=-161.3613439\MP3=-161.370054
 6\MP4D=-161.3741425\MP4DQ=-161.3737014\MP4SDQ=-161.3739074\CCSD=-161.3
 773562\RMSD=3.180e-09\PG=C*V [C*(H1Na1)]\\@


 "MATHEMATICS IS THE ART OF GIVING THE SAME NAME
 TO DIFFERENT THINGS."
                    - H. POINCARE
 Job cpu time:       0 days  0 hours  0 minutes 30.5 seconds.
 Elapsed time:       0 days  0 hours  0 minutes  1.2 seconds.
 File lengths (MBytes):  RWF=     13 Int=      0 D2E=      0 Chk=      1 Scr=      1
 Normal termination of Gaussian 16 at Mon Mar 28 14:19:32 2022.
