 Entering Gaussian System, Link 0=g16
 Initial command:
 /nopt/nrel/apps/gaussian/g16C_1/g16/l1.exe "/lustre/eaglefs/scratch/user/qc/tih-dissc-sto3g/tih-4-ccsd-1.8-sto3g/Gau-6468.inp" -scrdir="/lustre/eaglefs/scratch/user/qc/tih-dissc-sto3g/tih-4-ccsd-1.8-sto3g/"
 Default is to use a total of  36 processors:
                               36 via shared-memory
                                1 via Linda
 Entering Link 1 = /nopt/nrel/apps/gaussian/g16C_1/g16/l1.exe PID=      6469.
  
 Copyright (c) 1988-2019, Gaussian, Inc.  All Rights Reserved.
  
 This is part of the Gaussian(R) 16 program.  It is based on
 the Gaussian(R) 09 system (copyright 2009, Gaussian, Inc.),
 the Gaussian(R) 03 system (copyright 2003, Gaussian, Inc.),
 the Gaussian(R) 98 system (copyright 1998, Gaussian, Inc.),
 the Gaussian(R) 94 system (copyright 1995, Gaussian, Inc.),
 the Gaussian 92(TM) system (copyright 1992, Gaussian, Inc.),
 the Gaussian 90(TM) system (copyright 1990, Gaussian, Inc.),
 the Gaussian 88(TM) system (copyright 1988, Gaussian, Inc.),
 the Gaussian 86(TM) system (copyright 1986, Carnegie Mellon
 University), and the Gaussian 82(TM) system (copyright 1983,
 Carnegie Mellon University). Gaussian is a federally registered
 trademark of Gaussian, Inc.
  
 This software contains proprietary and confidential information,
 including trade secrets, belonging to Gaussian, Inc.
  
 This software is provided under written license and may be
 used, copied, transmitted, or stored only in accord with that
 written license.
  
 The following legend is applicable only to US Government
 contracts under FAR:
  
                    RESTRICTED RIGHTS LEGEND
  
 Use, reproduction and disclosure by the US Government is
 subject to restrictions as set forth in subparagraphs (a)
 and (c) of the Commercial Computer Software - Restricted
 Rights clause in FAR 52.227-19.
  
 Gaussian, Inc.
 340 Quinnipiac St., Bldg. 40, Wallingford CT 06492
  
  
 ---------------------------------------------------------------
 Warning -- This program may not be used in any manner that
 competes with the business of Gaussian, Inc. or will provide
 assistance to any competitor of Gaussian, Inc.  The licensee
 of this program is prohibited from giving any competitor of
 Gaussian, Inc. access to this program.  By using this program,
 the user acknowledges that Gaussian, Inc. is engaged in the
 business of creating and licensing software in the field of
 computational chemistry and represents and warrants to the
 licensee that it is not a competitor of Gaussian, Inc. and that
 it will not use this program in any manner prohibited above.
 ---------------------------------------------------------------
  

 Cite this work as:
 Gaussian 16, Revision C.01,
 M. J. Frisch, G. W. Trucks, H. B. Schlegel, G. E. Scuseria, 
 M. A. Robb, J. R. Cheeseman, G. Scalmani, V. Barone, 
 G. A. Petersson, H. Nakatsuji, X. Li, M. Caricato, A. V. Marenich, 
 J. Bloino, B. G. Janesko, R. Gomperts, B. Mennucci, H. P. Hratchian, 
 J. V. Ortiz, A. F. Izmaylov, J. L. Sonnenberg, D. Williams-Young, 
 F. Ding, F. Lipparini, F. Egidi, J. Goings, B. Peng, A. Petrone, 
 T. Henderson, D. Ranasinghe, V. G. Zakrzewski, J. Gao, N. Rega, 
 G. Zheng, W. Liang, M. Hada, M. Ehara, K. Toyota, R. Fukuda, 
 J. Hasegawa, M. Ishida, T. Nakajima, Y. Honda, O. Kitao, H. Nakai, 
 T. Vreven, K. Throssell, J. A. Montgomery, Jr., J. E. Peralta, 
 F. Ogliaro, M. J. Bearpark, J. J. Heyd, E. N. Brothers, K. N. Kudin, 
 V. N. Staroverov, T. A. Keith, R. Kobayashi, J. Normand, 
 K. Raghavachari, A. P. Rendell, J. C. Burant, S. S. Iyengar, 
 J. Tomasi, M. Cossi, J. M. Millam, M. Klene, C. Adamo, R. Cammi, 
 J. W. Ochterski, R. L. Martin, K. Morokuma, O. Farkas, 
 J. B. Foresman, and D. J. Fox, Gaussian, Inc., Wallingford CT, 2019.
 
 ******************************************
 Gaussian 16:  ES64L-G16RevC.01  3-Jul-2019
                25-Mar-2022 
 ******************************************
 %chk=molecule
 Default route: CacheSize=180224 MaxDisk=256GB
 --------------------------------------------------
 #P CCSD/GEN sp pop=AllOrbitals iop(3/33=1,3/36=-1)
 --------------------------------------------------
 1/4=180224,38=1,172=1/1;
 2/4=180224,12=2,17=6,18=5,40=1/2;
 3/4=180224,5=7,11=9,25=1,30=1,33=1,36=-1/1,2,3;
 4/4=180224/1;
 5/4=180224,5=2,38=5/2;
 8/4=180224,6=4,9=120000,10=1/1,4;
 9/4=180224,5=7/13;
 6/4=180224,7=2,8=2,9=2,10=2,96=-1/1;
 99/4=180224,5=1,9=1/99;
 Leave Link    1 at Fri Mar 25 14:38:51 2022, MaxMem=           0 cpu:               1.9 elap:               0.1
 (Enter /nopt/nrel/apps/gaussian/g16C_1/g16/l101.exe)
 ----
 test
 ----
 Symbolic Z-matrix:
 Charge =  0 Multiplicity = 4
 H                     0.        0.        0. 
 Ti                    0.        0.        1.8 
 
 ITRead=  0  0
 MicOpt= -1 -1
 NAtoms=      2 NQM=        2 NQMF=       0 NMMI=      0 NMMIF=      0
                NMic=       0 NMicF=      0.
                    Isotopes and Nuclear Properties:
 (Nuclear quadrupole moments (NQMom) in fm**2, nuclear magnetic moments (NMagM)
  in nuclear magnetons)

  Atom         1           2
 IAtWgt=           1          48
 AtmWgt=   1.0078250  47.9479467
 NucSpn=           1           0
 AtZEff=  -0.0000000  -0.0000000
 NQMom=    0.0000000   0.0000000
 NMagM=    2.7928460   0.0000000
 AtZNuc=   1.0000000  22.0000000
 Leave Link  101 at Fri Mar 25 14:38:52 2022, MaxMem=  9663676416 cpu:               3.1 elap:               0.1
 (Enter /nopt/nrel/apps/gaussian/g16C_1/g16/l202.exe)
                          Input orientation:                          
 ---------------------------------------------------------------------
 Center     Atomic      Atomic             Coordinates (Angstroms)
 Number     Number       Type             X           Y           Z
 ---------------------------------------------------------------------
      1          1           0        0.000000    0.000000    0.000000
      2         22           0        0.000000    0.000000    1.800000
 ---------------------------------------------------------------------
 Stoichiometry    HTi(4)
 Framework group  C*V[C*(HTi)]
 Deg. of freedom     1
 Full point group                 C*V     NOp   4
 Largest Abelian subgroup         C2V     NOp   4
 Largest concise Abelian subgroup C1      NOp   1
                         Standard orientation:                         
 ---------------------------------------------------------------------
 Center     Atomic      Atomic             Coordinates (Angstroms)
 Number     Number       Type             X           Y           Z
 ---------------------------------------------------------------------
      1          1           0        0.000000    0.000000   -1.721739
      2         22           0        0.000000    0.000000    0.078261
 ---------------------------------------------------------------------
 Rotational constants (GHZ):           0.0000000         158.0232296         158.0232296
 Leave Link  202 at Fri Mar 25 14:38:52 2022, MaxMem=  9663676416 cpu:               0.9 elap:               0.0
 (Enter /nopt/nrel/apps/gaussian/g16C_1/g16/l301.exe)
 General basis read from cards:  (5D, 7F)
                         Coordinates in L301:                         
 ---------------------------------------------------------------------
 Center     Atomic      Atomic             Coordinates (Angstroms)
 Number     Number       Type             X           Y           Z
 ---------------------------------------------------------------------
      1          1           0        0.000000    0.000000   -1.721739
      2         22           0        0.000000    0.000000    0.078261
 ---------------------------------------------------------------------
 Centers:       1
 STO-3G
 ****
 Centers:       2
 STO-3G
 ****
 FixB: optimizing general contractions.
 Ernie: Thresh=  0.10000D-02 Tol=  0.10000D-05 Strict=F.
 IA=     1 ShT= 0 ShC= 0 NL=   1 NS=   0.
 IA=     1 L=0 SC=0 ISt=    0 NBk=    0 NP=    0 IndPr=    0.
 IA=     2 ShT= 0 ShC= 0 NL=   1 NS=   0.
 IA=     2 L=0 SC=0 ISt=    0 NBk=    0 NP=    0 IndPr=    0.
 IA=     2 ShT= 1 ShC= 0 NL=   3 NS=   0.
 IA=     2 L=1 SC=0 ISt=    1 NBk=    3 NP=    9 IndPr=    0.
 DoElim1:  L=1 select primitive    1 from    2 using    1 C=-1.00D-01
 DoElim1:  L=1 select primitive    1 from    3 using    1 C=-1.00D-01
 DoElim1:  L=1 select primitive    4 from    3 using    2 C=-2.28D-01
 DoElim2:  L=1 select primitive    9 from    2 using    3 C= 1.13D+00
 DoElim2:  L=1 select primitive    9 from    1 using    3 C= 1.13D+00
 DoElim2:  L=1 select primitive    7 from    1 using    2 C= 9.17D-01
 DoElim1:  L=1 select primitive    1 from    2 using    1 C= 1.56D-01
 DoElim1:  L=1 select primitive    1 from    3 using    1 C= 1.56D-01
 DoElim1:  L=1 select primitive    4 from    3 using    2 C= 4.95D-03
 DoElim2:  L=1 select primitive    8 from    2 using    3 C= 5.72D-01
 DoElim2:  L=1 select primitive    8 from    1 using    3 C= 5.72D-01
 DoElim2:  L=1 select primitive    5 from    1 using    2 C= 5.78D-01
 Delete L=1 primitive    7 from    3 C=  0.00D+00.
 Delete L=1 primitive    5 from    3 C=  0.00D+00.
 Delete L=1 primitive    4 from    3 C=  0.00D+00.
 Delete L=1 primitive    3 from    3 C=  0.00D+00.
 Delete L=1 primitive    2 from    3 C=  0.00D+00.
 Delete L=1 primitive    1 from    3 C=  0.00D+00.
 Delete L=1 primitive    9 from    2 C=  0.00D+00.
 Delete L=1 primitive    8 from    2 C=  0.00D+00.
 Delete L=1 primitive    6 from    2 C=  0.00D+00.
 Delete L=1 primitive    3 from    2 C=  0.00D+00.
 Delete L=1 primitive    2 from    2 C=  0.00D+00.
 Delete L=1 primitive    1 from    2 C=  0.00D+00.
 Delete L=1 primitive    9 from    1 C=  0.00D+00.
 Delete L=1 primitive    8 from    1 C=  0.00D+00.
 Delete L=1 primitive    7 from    1 C=  0.00D+00.
 Delete L=1 primitive    6 from    1 C=  0.00D+00.
 Delete L=1 primitive    5 from    1 C=  0.00D+00.
 Delete L=1 primitive    4 from    1 C=  0.00D+00.
 IA=     2 L=1 SC=0 ISt=    0 NBk=    0 NP=    0 IndPr=    9.
 IA=     2 ShT= 2 ShC= 2 NL=   1 NS=   0.
 IA=     2 L=2 SC=2 ISt=    0 NBk=    0 NP=    0 IndPr=    0.
 LdAtmC:  AtmChg=     1.000000    22.000000
 AtZEff=     -1.0000000    -23.9800000
 NEqShl: 
              1            2            3            4
     1            1            1            1            1
     2            2            2            2            2
     3            3            3            3            3
     4            4            4            4            4
     5            5            5            5            5
     6            6            6            6            6
 NEqBas: 
              1            2            3            4
     1            1            1            1            1
     2            2            2            2            2
     3            3            3            3            3
     4            4           -4           -4            4
     5            5           -5            5           -5
     6            6            6            6            6
     7            7            7            7            7
     8            8           -8           -8            8
     9            9           -9            9           -9
    10           10           10           10           10
    11           11           11           11           11
    12           12          -12          -12           12
    13           13          -13           13          -13
    14           14           14           14           14
    15           15           15           15           15
    16           16           16           16           16
    17           17           17           17           17
    18           18           18          -18          -18
    19           19          -19          -19           19
    20           20          -20           20          -20
 There are    11 symmetry adapted cartesian basis functions of A1  symmetry.
   1         1   1   1   1
   2         2   2   2   2
   3         3   3   3   3
   4         6   6   6   6
   5         7   7   7   7
   6        10  10  10  10
   7        11  11  11  11
   8        14  14  14  14
   9        15  15  15  15
  10        16  16  16  16
  11        17  17  17  17
 There are     1 symmetry adapted cartesian basis functions of A2  symmetry.
  12        18  18  18  18
 There are     4 symmetry adapted cartesian basis functions of B1  symmetry.
  13         4   4   4   4
  14         8   8   8   8
  15        12  12  12  12
  16        19  19  19  19
 There are     4 symmetry adapted cartesian basis functions of B2  symmetry.
  17         5   5   5   5
  18         9   9   9   9
  19        13  13  13  13
  20        20  20  20  20
 Order= 1 2 4 3
 Reordered character table:
              1            2            3            4            5
     1            1            1            1            1            1
     2            2            1            1           -1           -1
     3            4            1           -1           -1            1
     4            3            1           -1            1           -1
 NEqShl: 
              1            2            3            4
     1            1            1            1            1
     2            2            2            2            2
     3            3            3            3            3
     4            4            4            4            4
     5            5            5            5            5
     6            6            6            6            6
 NEqBas: 
              1            2            3            4
     1            1            1            1            1
     2            2            2            2            2
     3            3            3            3            3
     4            4           -4           -4            4
     5            5           -5            5           -5
     6            6            6            6            6
     7            7            7            7            7
     8            8           -8           -8            8
     9            9           -9            9           -9
    10           10           10           10           10
    11           11           11           11           11
    12           12          -12          -12           12
    13           13          -13           13          -13
    14           14           14           14           14
    15           15           15           15           15
    16           16          -16          -16           16
    17           17          -17           17          -17
    18           18           18           18           18
    19           19           19          -19          -19
 There are    10 symmetry adapted basis functions of A1  symmetry.
   1         1   1   1   1
   2         2   2   2   2
   3         3   3   3   3
   4         6   6   6   6
   5         7   7   7   7
   6        10  10  10  10
   7        11  11  11  11
   8        14  14  14  14
   9        15  15  15  15
  10        18  18  18  18
 There are     1 symmetry adapted basis functions of A2  symmetry.
  11        19  19  19  19
 There are     4 symmetry adapted basis functions of B1  symmetry.
  12         4   4   4   4
  13         8   8   8   8
  14        12  12  12  12
  15        16  16  16  16
 There are     4 symmetry adapted basis functions of B2  symmetry.
  16         5   5   5   5
  17         9   9   9   9
  18        13  13  13  13
  19        17  17  17  17
 Order= 1 2 4 3
 Reordered character table:
              1            2            3            4            5
     1            1            1            1            1            1
     2            2            1            1           -1           -1
     3            4            1           -1           -1            1
     4            3            1           -1            1           -1
    19 basis functions,    60 primitive gaussians,    20 cartesian basis functions
    13 alpha electrons       10 beta electrons
       nuclear repulsion energy         6.4677214668 Hartrees.
 IS=     1 IAt=     1 ISR=     1 T=0 IP=      1 IndIP=      1 IndIPD=      0 C=  2.769344D-01  0.000000D+00                             NZ=T
 IS=     1 IAt=     1 ISR=     1 T=0 IP=      2 IndIP=      2 IndIPD=      1 C=  2.678389D-01  0.000000D+00                             NZ=T
 IS=     1 IAt=     1 ISR=     1 T=0 IP=      3 IndIP=      3 IndIPD=      2 C=  8.347367D-02  0.000000D+00                             NZ=T
 IS=     2 IAt=     2 ISR=     1 T=0 IP=      1 IndIP=      4 IndIPD=      0 C=  2.004993D+01  0.000000D+00                             NZ=T
 IS=     2 IAt=     2 ISR=     1 T=0 IP=      2 IndIP=      5 IndIPD=      1 C=  1.939142D+01  0.000000D+00                             NZ=T
 IS=     2 IAt=     2 ISR=     1 T=0 IP=      3 IndIP=      6 IndIPD=      2 C=  6.043458D+00  0.000000D+00                             NZ=T
 IS=     3 IAt=     2 ISR=     2 T=1 IP=      1 IndIP=      7 IndIPD=      0 C= -1.820341D+00  4.925761D+01                             NZ=T
 IS=     3 IAt=     2 ISR=     2 T=1 IP=      2 IndIP=      8 IndIPD=      1 C=  2.434854D+00  3.097451D+01                             NZ=T
 IS=     3 IAt=     2 ISR=     2 T=1 IP=      3 IndIP=      9 IndIPD=      2 C=  1.837620D+00  4.906883D+00                             NZ=T
 IS=     4 IAt=     2 ISR=     3 T=1 IP=      1 IndIP=     10 IndIPD=      0 C= -5.746721D-01  5.803915D-02                             NZ=T
 IS=     4 IAt=     2 ISR=     3 T=1 IP=      2 IndIP=     11 IndIPD=      1 C=  2.252897D-01  1.535208D+00                             NZ=T
 IS=     4 IAt=     2 ISR=     3 T=1 IP=      3 IndIP=     12 IndIPD=      2 C=  4.647390D-01  3.915940D-01                             NZ=T
 IS=     5 IAt=     2 ISR=     4 T=1 IP=      1 IndIP=     13 IndIPD=      0 C= -1.706594D-01 -1.133666D-01                             NZ=T
 IS=     5 IAt=     2 ISR=     4 T=1 IP=      2 IndIP=     14 IndIPD=      1 C=  5.129963D-03  1.533382D-01                             NZ=T
 IS=     5 IAt=     2 ISR=     4 T=1 IP=      3 IndIP=     15 IndIPD=      2 C=  1.603140D-01  5.311239D-02                             NZ=T
 IS=     6 IAt=     2 ISR=     5 T=2 IP=      1 IndIP=     16 IndIPD=      1 C=  0.000000D+00  0.000000D+00  8.652016D-01  0.000000D+00 NZ=T
 IS=     6 IAt=     2 ISR=     5 T=2 IP=      2 IndIP=     17 IndIPD=      2 C=  0.000000D+00  0.000000D+00  3.231180D-01  0.000000D+00 NZ=T
 IS=     6 IAt=     2 ISR=     5 T=2 IP=      3 IndIP=     18 IndIPD=      3 C=  0.000000D+00  0.000000D+00  2.668013D-02  0.000000D+00 NZ=T
 IExCor=    0 DFT=F Ex=HF Corr=None ExCW=0 ScaHFX=  1.000000
 ScaDFX=  1.000000  1.000000  1.000000  1.000000 ScalE2=  1.000000  1.000000
 IRadAn=      5 IRanWt=     -1 IRanGd=            0 ICorTp=0 IEmpDi=  4
 NAtoms=    2 NActive=    2 NUniq=    2 SFac= 1.00D+00 NAtFMM=   60 NAOKFM=F Big=F
 Integral buffers will be    131072 words long.
 Raffenetti 2 integral format.
 Two-electron integral symmetry is turned on.
 Leave Link  301 at Fri Mar 25 14:38:52 2022, MaxMem=  9663676416 cpu:               1.9 elap:               0.1
 (Enter /nopt/nrel/apps/gaussian/g16C_1/g16/l302.exe)
 NPDir=0 NMtPBC=     1 NCelOv=     1 NCel=       1 NClECP=     1 NCelD=      1
         NCelK=      1 NCelE2=     1 NClLst=     1 CellRange=     0.0.
 One-electron integrals computed using PRISM.
 One-electron integral symmetry used in STVInt
 Entering OneElI...
 Calculate overlap and kinetic energy integrals
    NBasis =  19  MinDer = 0  MaxDer = 0
 Requested accuracy = 0.1000D-12
 Symmetry will be used
 PrmmSu-InSpLW:  IPartL=    0 NPrtUS=   36 NPrtUL=    1 DoSpLW=F IThBeg=    0 IThEnd=   35 NThAct=   36.
 PrSmSu:  IncTry=   512 NBBP=             21 NTPThr=   100 NPartT=   36 Incr=           1 LDynOK=F GPUOK=F.
 PrsmSu:  NPrtUS=  36 ThrOK=T IAlg=1 LenDen=           0 ISkipM=0 DoSpLW=F IThBeg=    0 IThEnd=   35.
 Prism:   IPart=     0 DynPar=F LinDyn=F Incr=           1.
 PRISM was handed   268432635 working-precision words and    21 shell-pairs
 PRISM was handed   268432635 working-precision words and    21 shell-pairs
 PRISM was handed   268432635 working-precision words and    21 shell-pairs
 PRISM was handed   268432635 working-precision words and    21 shell-pairs
 PRISM was handed   268432635 working-precision words and    21 shell-pairs
 PRISM was handed   268432635 working-precision words and    21 shell-pairs
 PRISM was handed   268432635 working-precision words and    21 shell-pairs
 PRISM was handed   268432635 working-precision words and    21 shell-pairs
 PRISM was handed   268432635 working-precision words and    21 shell-pairs
 PRISM was handed   268432635 working-precision words and    21 shell-pairs
 PRISM was handed   268432635 working-precision words and    21 shell-pairs
 PRISM was handed   268432635 working-precision words and    21 shell-pairs
 PRISM was handed   268432635 working-precision words and    21 shell-pairs
 IPart= 20 NShTot=           0 NBatch=           0 AvBLen=         0.0
 IPart= 24 NShTot=           0 NBatch=           0 AvBLen=         0.0
 IPart=  8 NShTot=           0 NBatch=           0 AvBLen=         0.0
 IPart= 16 NShTot=           0 NBatch=           0 AvBLen=         0.0
 IPart= 26 NShTot=           0 NBatch=           0 AvBLen=         0.0
 IPart=  9 NShTot=           0 NBatch=           0 AvBLen=         0.0
 IPart= 32 NShTot=           0 NBatch=           0 AvBLen=         0.0
 IPart= 15 NShTot=           0 NBatch=           0 AvBLen=         0.0
 PRISM was handed   268432635 working-precision words and    21 shell-pairs
 PRISM was handed   268432635 working-precision words and    21 shell-pairs
 PRISM was handed   268432635 working-precision words and    21 shell-pairs
 PRISM was handed   268432635 working-precision words and    21 shell-pairs
 PRISM was handed   268432635 working-precision words and    21 shell-pairs
 PRISM was handed   268432635 working-precision words and    21 shell-pairs
 PRISM was handed   268432635 working-precision words and    21 shell-pairs
 IPart= 30 NShTot=           0 NBatch=           0 AvBLen=         0.0
 IPart=  5 NShTot=           2 NBatch=           2 AvBLen=         1.0
 IPart= 29 NShTot=           0 NBatch=           0 AvBLen=         0.0
 IPart=  1 NShTot=           5 NBatch=           5 AvBLen=         1.0
 PRISM was handed   268432635 working-precision words and    21 shell-pairs
 PRISM was handed   268432635 working-precision words and    21 shell-pairs
 PRISM was handed   268432635 working-precision words and    21 shell-pairs
 PRISM was handed   268432635 working-precision words and    21 shell-pairs
 PRISM was handed   268432635 working-precision words and    21 shell-pairs
 IPart= 28 NShTot=           0 NBatch=           0 AvBLen=         0.0
 IPart=  2 NShTot=           4 NBatch=           4 AvBLen=         1.0
 IPart=  7 NShTot=           0 NBatch=           0 AvBLen=         0.0
 IPart=  6 NShTot=           0 NBatch=           0 AvBLen=         0.0
 IPart= 10 NShTot=           0 NBatch=           0 AvBLen=         0.0
 IPart= 35 NShTot=           0 NBatch=           0 AvBLen=         0.0
 IPart= 13 NShTot=           0 NBatch=           0 AvBLen=         0.0
 PRISM was handed   268432635 working-precision words and    21 shell-pairs
 PRISM was handed   268432635 working-precision words and    21 shell-pairs
 PRISM was handed   268432635 working-precision words and    21 shell-pairs
 PRISM was handed   268432635 working-precision words and    21 shell-pairs
 PRISM was handed   268432635 working-precision words and    21 shell-pairs
 IPart= 14 NShTot=           0 NBatch=           0 AvBLen=         0.0
 IPart= 23 NShTot=           0 NBatch=           0 AvBLen=         0.0
 IPart= 18 NShTot=           0 NBatch=           0 AvBLen=         0.0
 IPart= 11 NShTot=           0 NBatch=           0 AvBLen=         0.0
 IPart=  4 NShTot=           2 NBatch=           2 AvBLen=         1.0
 PRISM was handed   268432635 working-precision words and    21 shell-pairs
 PRISM was handed   268432635 working-precision words and    21 shell-pairs
 IPart= 27 NShTot=           0 NBatch=           0 AvBLen=         0.0
 PRISM was handed   268432635 working-precision words and    21 shell-pairs
 PRISM was handed   268432635 working-precision words and    21 shell-pairs
 PRISM was handed   268432635 working-precision words and    21 shell-pairs
 PRISM was handed   268432635 working-precision words and    21 shell-pairs
 IPart=  0 NShTot=           6 NBatch=           6 AvBLen=         1.0
 IPart= 25 NShTot=           0 NBatch=           0 AvBLen=         0.0
 IPart= 19 NShTot=           0 NBatch=           0 AvBLen=         0.0
 IPart= 31 NShTot=           0 NBatch=           0 AvBLen=         0.0
 IPart=  3 NShTot=           2 NBatch=           2 AvBLen=         1.0
 IPart= 21 NShTot=           0 NBatch=           0 AvBLen=         0.0
 IPart= 17 NShTot=           0 NBatch=           0 AvBLen=         0.0
 IPart= 22 NShTot=           0 NBatch=           0 AvBLen=         0.0
 IPart= 33 NShTot=           0 NBatch=           0 AvBLen=         0.0
 IPart= 34 NShTot=           0 NBatch=           0 AvBLen=         0.0
 IPart= 12 NShTot=           0 NBatch=           0 AvBLen=         0.0
 PrSmSu:  NxtVal=             37.
 *** Overlap *** 
                1             2             3             4             5 
      1  0.100000D+01
      2  0.165946D-02  0.100000D+01
      3  0.113575D-01  0.371775D+00  0.100000D+01
      4  0.000000D+00  0.000000D+00  0.000000D+00  0.100000D+01
      5  0.000000D+00  0.000000D+00  0.000000D+00  0.000000D+00  0.100000D+01
      6 -0.361741D-02  0.000000D+00  0.000000D+00  0.000000D+00  0.000000D+00
      7  0.817414D-01  0.223608D-01  0.300384D+00  0.000000D+00  0.000000D+00
      8  0.000000D+00  0.000000D+00  0.000000D+00  0.313309D+00  0.000000D+00
      9  0.000000D+00  0.000000D+00  0.000000D+00  0.000000D+00  0.313309D+00
     10 -0.763430D-01  0.000000D+00  0.000000D+00  0.000000D+00  0.000000D+00
     11  0.332563D+00 -0.412730D-03  0.136941D-01  0.000000D+00  0.000000D+00
     12  0.000000D+00  0.000000D+00  0.000000D+00  0.250808D-01  0.000000D+00
     13  0.000000D+00  0.000000D+00  0.000000D+00  0.000000D+00  0.250808D-01
     14 -0.446410D+00  0.000000D+00  0.000000D+00  0.000000D+00  0.000000D+00
     15  0.235019D+00  0.000000D+00  0.000000D+00  0.000000D+00  0.000000D+00
     16  0.000000D+00  0.000000D+00  0.000000D+00  0.000000D+00  0.000000D+00
     17  0.000000D+00  0.000000D+00  0.000000D+00  0.000000D+00  0.000000D+00
     18  0.000000D+00  0.000000D+00  0.000000D+00  0.000000D+00  0.000000D+00
     19  0.000000D+00  0.000000D+00  0.000000D+00  0.000000D+00  0.000000D+00
                6             7             8             9            10 
      6  0.100000D+01
      7  0.000000D+00  0.100000D+01
      8  0.000000D+00  0.000000D+00  0.100000D+01
      9  0.000000D+00  0.000000D+00  0.000000D+00  0.100000D+01
     10  0.313309D+00  0.000000D+00  0.000000D+00  0.000000D+00  0.100000D+01
     11  0.000000D+00  0.395149D+00  0.000000D+00  0.000000D+00  0.000000D+00
     12  0.000000D+00  0.000000D+00  0.407435D+00  0.000000D+00  0.000000D+00
     13  0.000000D+00  0.000000D+00  0.000000D+00  0.407435D+00  0.000000D+00
     14  0.250808D-01  0.000000D+00  0.000000D+00  0.000000D+00  0.407435D+00
     15  0.000000D+00  0.000000D+00  0.000000D+00  0.000000D+00  0.000000D+00
     16  0.000000D+00  0.000000D+00  0.000000D+00  0.000000D+00  0.000000D+00
     17  0.000000D+00  0.000000D+00  0.000000D+00  0.000000D+00  0.000000D+00
     18  0.000000D+00  0.000000D+00  0.000000D+00  0.000000D+00  0.000000D+00
     19  0.000000D+00  0.000000D+00  0.000000D+00  0.000000D+00  0.000000D+00
               11            12            13            14            15 
     11  0.100000D+01
     12  0.000000D+00  0.100000D+01
     13  0.000000D+00  0.000000D+00  0.100000D+01
     14  0.000000D+00  0.000000D+00  0.000000D+00  0.100000D+01
     15  0.000000D+00  0.000000D+00  0.000000D+00  0.000000D+00  0.100000D+01
     16  0.000000D+00  0.000000D+00  0.000000D+00  0.000000D+00  0.000000D+00
     17  0.000000D+00  0.000000D+00  0.000000D+00  0.000000D+00  0.000000D+00
     18  0.000000D+00  0.000000D+00  0.000000D+00  0.000000D+00  0.000000D+00
     19  0.000000D+00  0.000000D+00  0.000000D+00  0.000000D+00  0.000000D+00
               16            17            18            19 
     16  0.100000D+01
     17  0.000000D+00  0.100000D+01
     18  0.000000D+00  0.000000D+00  0.100000D+01
     19  0.000000D+00  0.000000D+00  0.000000D+00  0.100000D+01
 *** Kinetic Energy *** 
                1             2             3             4             5 
      1  0.760032D+00
      2 -0.445576D-03  0.229340D+03
      3 -0.319516D-02  0.137973D+01  0.120824D+02
      4  0.000000D+00  0.000000D+00  0.000000D+00  0.378073D+02
      5  0.000000D+00  0.000000D+00  0.000000D+00  0.000000D+00  0.378073D+02
      6  0.767647D-03  0.000000D+00  0.000000D+00  0.000000D+00  0.000000D+00
      7 -0.204595D-01 -0.798994D+00 -0.840664D+00  0.000000D+00  0.000000D+00
      8  0.000000D+00  0.000000D+00  0.000000D+00  0.187471D+01  0.000000D+00
      9  0.000000D+00  0.000000D+00  0.000000D+00  0.000000D+00  0.187471D+01
     10  0.978269D-02  0.000000D+00  0.000000D+00  0.000000D+00  0.000000D+00
     11  0.365692D-01 -0.407071D-01 -0.207745D+00  0.000000D+00  0.000000D+00
     12  0.000000D+00  0.000000D+00  0.000000D+00 -0.209473D-01  0.000000D+00
     13  0.000000D+00  0.000000D+00  0.000000D+00  0.000000D+00 -0.209473D-01
     14 -0.106556D+00  0.000000D+00  0.000000D+00  0.000000D+00  0.000000D+00
     15  0.873748D-01  0.000000D+00  0.000000D+00  0.000000D+00  0.000000D+00
     16  0.000000D+00  0.000000D+00  0.000000D+00  0.000000D+00  0.000000D+00
     17  0.000000D+00  0.000000D+00  0.000000D+00  0.000000D+00  0.000000D+00
     18  0.000000D+00  0.000000D+00  0.000000D+00  0.000000D+00  0.000000D+00
     19  0.000000D+00  0.000000D+00  0.000000D+00  0.000000D+00  0.000000D+00
                6             7             8             9            10 
      6  0.378073D+02
      7  0.000000D+00  0.116813D+01
      8  0.000000D+00  0.000000D+00  0.275070D+01
      9  0.000000D+00  0.000000D+00  0.000000D+00  0.275070D+01
     10  0.187471D+01  0.000000D+00  0.000000D+00  0.000000D+00  0.275070D+01
     11  0.000000D+00 -0.927537D-01  0.000000D+00  0.000000D+00  0.000000D+00
     12  0.000000D+00  0.000000D+00  0.199329D+00  0.000000D+00  0.000000D+00
     13  0.000000D+00  0.000000D+00  0.000000D+00  0.199329D+00  0.000000D+00
     14 -0.209473D-01  0.000000D+00  0.000000D+00  0.000000D+00  0.199329D+00
     15  0.000000D+00  0.000000D+00  0.000000D+00  0.000000D+00  0.000000D+00
     16  0.000000D+00  0.000000D+00  0.000000D+00  0.000000D+00  0.000000D+00
     17  0.000000D+00  0.000000D+00  0.000000D+00  0.000000D+00  0.000000D+00
     18  0.000000D+00  0.000000D+00  0.000000D+00  0.000000D+00  0.000000D+00
     19  0.000000D+00  0.000000D+00  0.000000D+00  0.000000D+00  0.000000D+00
               11            12            13            14            15 
     11  0.207443D+00
     12  0.000000D+00  0.409500D+00
     13  0.000000D+00  0.000000D+00  0.409500D+00
     14  0.000000D+00  0.000000D+00  0.000000D+00  0.409500D+00
     15  0.000000D+00  0.000000D+00  0.000000D+00  0.000000D+00  0.180044D+01
     16  0.000000D+00  0.000000D+00  0.000000D+00  0.000000D+00  0.000000D+00
     17  0.000000D+00  0.000000D+00  0.000000D+00  0.000000D+00  0.000000D+00
     18  0.000000D+00  0.000000D+00  0.000000D+00  0.000000D+00  0.000000D+00
     19  0.000000D+00  0.000000D+00  0.000000D+00  0.000000D+00  0.000000D+00
               16            17            18            19 
     16  0.180044D+01
     17  0.000000D+00  0.180044D+01
     18  0.000000D+00  0.000000D+00  0.180044D+01
     19  0.000000D+00  0.000000D+00  0.000000D+00  0.180044D+01
 Entering OneElI...
 Calculate potential energy integrals
    NBasis =  19  MinDer = 0  MaxDer = 0
 Requested accuracy = 0.1000D-12
 Symmetry will be used
 PrmmSu-InSpLW:  IPartL=    0 NPrtUS=   36 NPrtUL=    1 DoSpLW=F IThBeg=    0 IThEnd=   35 NThAct=   36.
 PrSmSu:  IncTry=   512 NBBP=             42 NTPThr=   100 NPartT=   36 Incr=           1 LDynOK=F GPUOK=F.
 PrsmSu:  NPrtUS=  36 ThrOK=T IAlg=1 LenDen=           0 ISkipM=0 DoSpLW=F IThBeg=    0 IThEnd=   35.
 Prism:   IPart=     0 DynPar=F LinDyn=F Incr=           1.
 PRISM was handed   268432869 working-precision words and    21 shell-pairs
 PRISM was handed   268432869 working-precision words and    21 shell-pairs
 PRISM was handed   268432869 working-precision words and    21 shell-pairs
 PRISM was handed   268432869 working-precision words and    21 shell-pairs
 PRISM was handed   268432869 working-precision words and    21 shell-pairs
 PRISM was handed   268432869 working-precision words and    21 shell-pairs
 PRISM was handed   268432869 working-precision words and    21 shell-pairs
 PRISM was handed   268432869 working-precision words and    21 shell-pairs
 PRISM was handed   268432869 working-precision words and    21 shell-pairs
 PRISM was handed   268432869 working-precision words and    21 shell-pairs
 PRISM was handed   268432869 working-precision words and    21 shell-pairs
 PRISM was handed   268432869 working-precision words and    21 shell-pairs
 PRISM was handed   268432869 working-precision words and    21 shell-pairs
 PRISM was handed   268432869 working-precision words and    21 shell-pairs
 PRISM was handed   268432869 working-precision words and    21 shell-pairs
 PRISM was handed   268432869 working-precision words and    21 shell-pairs
 PRISM was handed   268432869 working-precision words and    21 shell-pairs
 PRISM was handed   268432869 working-precision words and    21 shell-pairs
 PRISM was handed   268432869 working-precision words and    21 shell-pairs
 PRISM was handed   268432869 working-precision words and    21 shell-pairs
 PRISM was handed   268432869 working-precision words and    21 shell-pairs
 PRISM was handed   268432869 working-precision words and    21 shell-pairs
 PRISM was handed   268432869 working-precision words and    21 shell-pairs
 PRISM was handed   268432869 working-precision words and    21 shell-pairs
 PRISM was handed   268432869 working-precision words and    21 shell-pairs
 PRISM was handed   268432869 working-precision words and    21 shell-pairs
 PRISM was handed   268432869 working-precision words and    21 shell-pairs
 PRISM was handed   268432869 working-precision words and    21 shell-pairs
 PRISM was handed   268432869 working-precision words and    21 shell-pairs
 PRISM was handed   268432869 working-precision words and    21 shell-pairs
 PRISM was handed   268432869 working-precision words and    21 shell-pairs
 PRISM was handed   268432869 working-precision words and    21 shell-pairs
 PRISM was handed   268432869 working-precision words and    21 shell-pairs
 PRISM was handed   268432869 working-precision words and    21 shell-pairs
 PRISM was handed   268432869 working-precision words and    21 shell-pairs
 PRISM was handed   268432869 working-precision words and    21 shell-pairs
 IPart= 17 NShTot=           0 NBatch=           0 AvBLen=         0.0
 IPart= 35 NShTot=           0 NBatch=           0 AvBLen=         0.0
 IPart= 31 NShTot=           0 NBatch=           0 AvBLen=         0.0
 IPart= 21 NShTot=           0 NBatch=           0 AvBLen=         0.0
 IPart= 10 NShTot=           0 NBatch=           0 AvBLen=         0.0
 IPart= 29 NShTot=           0 NBatch=           0 AvBLen=         0.0
 IPart= 13 NShTot=           0 NBatch=           0 AvBLen=         0.0
 IPart=  6 NShTot=           0 NBatch=           0 AvBLen=         0.0
 IPart= 18 NShTot=           0 NBatch=           0 AvBLen=         0.0
 IPart= 33 NShTot=           0 NBatch=           0 AvBLen=         0.0
 IPart= 28 NShTot=           0 NBatch=           0 AvBLen=         0.0
 IPart= 34 NShTot=           0 NBatch=           0 AvBLen=         0.0
 IPart= 14 NShTot=           0 NBatch=           0 AvBLen=         0.0
 IPart= 12 NShTot=           0 NBatch=           0 AvBLen=         0.0
 IPart= 20 NShTot=           0 NBatch=           0 AvBLen=         0.0
 IPart= 23 NShTot=           0 NBatch=           0 AvBLen=         0.0
 IPart= 16 NShTot=           0 NBatch=           0 AvBLen=         0.0
 IPart= 30 NShTot=           0 NBatch=           0 AvBLen=         0.0
 IPart= 15 NShTot=           0 NBatch=           0 AvBLen=         0.0
 IPart= 25 NShTot=           0 NBatch=           0 AvBLen=         0.0
 IPart= 26 NShTot=           0 NBatch=           0 AvBLen=         0.0
 IPart=  7 NShTot=           0 NBatch=           0 AvBLen=         0.0
 IPart= 19 NShTot=           0 NBatch=           0 AvBLen=         0.0
 IPart=  8 NShTot=           0 NBatch=           0 AvBLen=         0.0
 IPart= 11 NShTot=           0 NBatch=           0 AvBLen=         0.0
 IPart= 24 NShTot=           0 NBatch=           0 AvBLen=         0.0
 IPart= 22 NShTot=           0 NBatch=           0 AvBLen=         0.0
 IPart= 32 NShTot=           0 NBatch=           0 AvBLen=         0.0
 IPart=  3 NShTot=           4 NBatch=           2 AvBLen=         2.0
 IPart= 27 NShTot=           0 NBatch=           0 AvBLen=         0.0
 IPart=  9 NShTot=           0 NBatch=           0 AvBLen=         0.0
 IPart=  4 NShTot=           4 NBatch=           2 AvBLen=         2.0
 IPart=  5 NShTot=           2 NBatch=           1 AvBLen=         2.0
 IPart=  2 NShTot=           6 NBatch=           3 AvBLen=         2.0
 IPart=  1 NShTot=          10 NBatch=           5 AvBLen=         2.0
 IPart=  0 NShTot=          16 NBatch=           8 AvBLen=         2.0
 PrSmSu:  NxtVal=             37.
 ***** Potential Energy ***** 
                1             2             3             4             5 
      1  0.768767D+01
      2  0.401645D+00  0.469058D+03
      3  0.741812D+00  0.902552D+02  0.965461D+02
      4  0.000000D+00  0.000000D+00  0.000000D+00  0.957750D+02
      5  0.000000D+00  0.000000D+00  0.000000D+00  0.000000D+00  0.957750D+02
      6 -0.176954D+00 -0.235465D-02 -0.143316D-01  0.000000D+00  0.000000D+00
      7  0.151460D+01  0.472666D+01  0.170499D+02  0.000000D+00  0.000000D+00
      8  0.000000D+00  0.000000D+00  0.000000D+00  0.174778D+02  0.000000D+00
      9  0.000000D+00  0.000000D+00  0.000000D+00  0.000000D+00  0.174778D+02
     10 -0.117713D+01 -0.163541D-03 -0.717024D-02  0.000000D+00  0.000000D+00
     11  0.292122D+01 -0.133789D+00  0.485434D+00  0.000000D+00  0.000000D+00
     12  0.000000D+00  0.000000D+00  0.000000D+00  0.120568D+01  0.000000D+00
     13  0.000000D+00  0.000000D+00  0.000000D+00  0.000000D+00  0.120568D+01
     14 -0.378222D+01 -0.834126D-05 -0.634518D-03  0.000000D+00  0.000000D+00
     15  0.219731D+01  0.000000D+00  0.286264D-03  0.000000D+00  0.000000D+00
     16  0.000000D+00  0.000000D+00  0.000000D+00 -0.169178D-02  0.000000D+00
     17  0.000000D+00  0.000000D+00  0.000000D+00  0.000000D+00 -0.169178D-02
     18  0.000000D+00  0.000000D+00  0.000000D+00  0.000000D+00  0.000000D+00
     19  0.000000D+00  0.000000D+00  0.000000D+00  0.000000D+00  0.000000D+00
                6             7             8             9            10 
      6  0.957765D+02
      7 -0.748840D-02  0.255279D+02
      8  0.000000D+00  0.000000D+00  0.255657D+02
      9  0.000000D+00  0.000000D+00  0.000000D+00  0.255657D+02
     10  0.174791D+02 -0.507366D-01  0.000000D+00  0.000000D+00  0.255838D+02
     11 -0.505454D-03  0.655791D+01  0.000000D+00  0.000000D+00 -0.312519D-01
     12  0.000000D+00  0.000000D+00  0.687283D+01  0.000000D+00  0.000000D+00
     13  0.000000D+00  0.000000D+00  0.000000D+00  0.687283D+01  0.000000D+00
     14  0.120582D+01 -0.299884D-01  0.000000D+00  0.000000D+00  0.688931D+01
     15 -0.203867D-02  0.159054D-01  0.000000D+00  0.000000D+00 -0.491619D-01
     16  0.000000D+00  0.000000D+00 -0.339185D-01  0.000000D+00  0.000000D+00
     17  0.000000D+00  0.000000D+00  0.000000D+00 -0.339185D-01  0.000000D+00
     18  0.000000D+00  0.000000D+00  0.000000D+00  0.000000D+00  0.000000D+00
     19  0.000000D+00  0.000000D+00  0.000000D+00  0.000000D+00  0.000000D+00
               11            12            13            14            15 
     11  0.964156D+01
     12  0.000000D+00  0.961056D+01
     13  0.000000D+00  0.000000D+00  0.961056D+01
     14 -0.118297D+00  0.000000D+00  0.000000D+00  0.970401D+01
     15  0.492087D-01  0.000000D+00  0.000000D+00 -0.109615D+00  0.142301D+02
     16  0.000000D+00 -0.561291D-01  0.000000D+00  0.000000D+00  0.000000D+00
     17  0.000000D+00  0.000000D+00 -0.561291D-01  0.000000D+00  0.000000D+00
     18  0.000000D+00  0.000000D+00  0.000000D+00  0.000000D+00  0.000000D+00
     19  0.000000D+00  0.000000D+00  0.000000D+00  0.000000D+00  0.000000D+00
               16            17            18            19 
     16  0.141958D+02
     17  0.000000D+00  0.141958D+02
     18  0.000000D+00  0.000000D+00  0.141659D+02
     19  0.000000D+00  0.000000D+00  0.000000D+00  0.141659D+02
 ****** Core Hamiltonian ****** 
                1             2             3             4             5 
      1 -0.692764D+01
      2 -0.402091D+00 -0.239718D+03
      3 -0.745007D+00 -0.888755D+02 -0.844636D+02
      4  0.000000D+00  0.000000D+00  0.000000D+00 -0.579677D+02
      5  0.000000D+00  0.000000D+00  0.000000D+00  0.000000D+00 -0.579677D+02
      6  0.177722D+00  0.235465D-02  0.143316D-01  0.000000D+00  0.000000D+00
      7 -0.153506D+01 -0.552566D+01 -0.178906D+02  0.000000D+00  0.000000D+00
      8  0.000000D+00  0.000000D+00  0.000000D+00 -0.156031D+02  0.000000D+00
      9  0.000000D+00  0.000000D+00  0.000000D+00  0.000000D+00 -0.156031D+02
     10  0.118692D+01  0.163541D-03  0.717024D-02  0.000000D+00  0.000000D+00
     11 -0.288465D+01  0.930822D-01 -0.693180D+00  0.000000D+00  0.000000D+00
     12  0.000000D+00  0.000000D+00  0.000000D+00 -0.122663D+01  0.000000D+00
     13  0.000000D+00  0.000000D+00  0.000000D+00  0.000000D+00 -0.122663D+01
     14  0.367567D+01  0.834126D-05  0.634518D-03  0.000000D+00  0.000000D+00
     15 -0.210994D+01  0.000000D+00 -0.286264D-03  0.000000D+00  0.000000D+00
     16  0.000000D+00  0.000000D+00  0.000000D+00  0.169178D-02  0.000000D+00
     17  0.000000D+00  0.000000D+00  0.000000D+00  0.000000D+00  0.169178D-02
     18  0.000000D+00  0.000000D+00  0.000000D+00  0.000000D+00  0.000000D+00
     19  0.000000D+00  0.000000D+00  0.000000D+00  0.000000D+00  0.000000D+00
                6             7             8             9            10 
      6 -0.579692D+02
      7  0.748840D-02 -0.243598D+02
      8  0.000000D+00  0.000000D+00 -0.228150D+02
      9  0.000000D+00  0.000000D+00  0.000000D+00 -0.228150D+02
     10 -0.156044D+02  0.507366D-01  0.000000D+00  0.000000D+00 -0.228331D+02
     11  0.505454D-03 -0.665067D+01  0.000000D+00  0.000000D+00  0.312519D-01
     12  0.000000D+00  0.000000D+00 -0.667350D+01  0.000000D+00  0.000000D+00
     13  0.000000D+00  0.000000D+00  0.000000D+00 -0.667350D+01  0.000000D+00
     14 -0.122677D+01  0.299884D-01  0.000000D+00  0.000000D+00 -0.668998D+01
     15  0.203867D-02 -0.159054D-01  0.000000D+00  0.000000D+00  0.491619D-01
     16  0.000000D+00  0.000000D+00  0.339185D-01  0.000000D+00  0.000000D+00
     17  0.000000D+00  0.000000D+00  0.000000D+00  0.339185D-01  0.000000D+00
     18  0.000000D+00  0.000000D+00  0.000000D+00  0.000000D+00  0.000000D+00
     19  0.000000D+00  0.000000D+00  0.000000D+00  0.000000D+00  0.000000D+00
               11            12            13            14            15 
     11 -0.943412D+01
     12  0.000000D+00 -0.920106D+01
     13  0.000000D+00  0.000000D+00 -0.920106D+01
     14  0.118297D+00  0.000000D+00  0.000000D+00 -0.929451D+01
     15 -0.492087D-01  0.000000D+00  0.000000D+00  0.109615D+00 -0.124297D+02
     16  0.000000D+00  0.561291D-01  0.000000D+00  0.000000D+00  0.000000D+00
     17  0.000000D+00  0.000000D+00  0.561291D-01  0.000000D+00  0.000000D+00
     18  0.000000D+00  0.000000D+00  0.000000D+00  0.000000D+00  0.000000D+00
     19  0.000000D+00  0.000000D+00  0.000000D+00  0.000000D+00  0.000000D+00
               16            17            18            19 
     16 -0.123953D+02
     17  0.000000D+00 -0.123953D+02
     18  0.000000D+00  0.000000D+00 -0.123655D+02
     19  0.000000D+00  0.000000D+00  0.000000D+00 -0.123655D+02
 SVDSVc IOpt=   1 NormSV=T IR=1
 SVDSVc V= 1.80D+00 1.56D+00 1.34D+00 1.14D+00 1.00D+00 9.89D-01 7.71D-01 6.15D-01 4.63D-01 3.15D-01
 SVDSVc IOpt=   1 NormSV=T IR=2
 SVDSVc V= 1.00D+00
 SVDSVc IOpt=   1 NormSV=T IR=3
 SVDSVc V= 1.53D+00 1.00D+00 9.76D-01 4.98D-01
 SVDSVc IOpt=   1 NormSV=T IR=4
 SVDSVc V= 1.53D+00 1.00D+00 9.76D-01 4.98D-01
 TstOVc:  Largest diagonal error= 6.66D-16 IB=1 I=    7.
 TstOVc:  Largest same sym error= 9.71D-16 IB=1 I=   10 J=    8.
 TstOVc:  Largest diff sym error= 0.00D+00 IB=0 JB=0 I=    0 J=    0.
 Orthogonalized basis functions: 
                 1             2             3             4             5 
      1   0.406692D+00 -0.535797D-01 -0.259189D+00  0.270337D+00  0.000000D+00
      2   0.656192D-01  0.273412D+00  0.422136D+00  0.344072D+00  0.000000D+00
      3   0.126639D+00  0.391499D+00  0.385874D+00  0.152619D+00  0.000000D+00
      4   0.000000D+00  0.000000D+00  0.000000D+00  0.000000D+00  0.000000D+00
      5   0.000000D+00  0.000000D+00  0.000000D+00  0.000000D+00  0.000000D+00
      6  -0.118638D+00  0.180829D+00 -0.312789D+00  0.405432D+00  0.000000D+00
      7   0.229556D+00  0.386385D+00 -0.669592D-01 -0.348416D+00  0.000000D+00
      8   0.000000D+00  0.000000D+00  0.000000D+00  0.000000D+00  0.000000D+00
      9   0.000000D+00  0.000000D+00  0.000000D+00  0.000000D+00  0.000000D+00
     10  -0.270494D+00  0.302880D+00 -0.331529D+00  0.204515D+00  0.000000D+00
     11   0.283089D+00  0.248755D+00 -0.320471D+00 -0.318336D+00  0.000000D+00
     12   0.000000D+00  0.000000D+00  0.000000D+00  0.000000D+00  0.000000D+00
     13   0.000000D+00  0.000000D+00  0.000000D+00  0.000000D+00  0.000000D+00
     14  -0.366486D+00  0.269613D+00 -0.811032D-01 -0.188858D+00  0.000000D+00
     15   0.118848D+00 -0.223567D-01 -0.181516D+00  0.441366D+00  0.000000D+00
     16   0.000000D+00  0.000000D+00  0.000000D+00  0.000000D+00  0.000000D+00
     17   0.000000D+00  0.000000D+00  0.000000D+00  0.000000D+00  0.000000D+00
     18   0.000000D+00  0.000000D+00  0.000000D+00  0.000000D+00  0.100000D+01
     19   0.000000D+00  0.000000D+00  0.000000D+00  0.000000D+00  0.000000D+00
                 6             7             8             9            10 
      1  -0.338413D-01  0.300361D+00  0.469474D+00 -0.117183D+00  0.993550D+00
      2  -0.220810D-01  0.581506D+00 -0.442331D+00  0.502396D+00  0.108912D+00
      3  -0.903988D-03 -0.329697D+00  0.457954D+00 -0.773181D+00 -0.228703D+00
      4   0.000000D+00  0.000000D+00  0.000000D+00  0.000000D+00  0.000000D+00
      5   0.000000D+00  0.000000D+00  0.000000D+00  0.000000D+00  0.000000D+00
      6  -0.538547D+00 -0.350267D+00 -0.539112D+00 -0.241107D+00  0.236726D+00
      7   0.282681D-01 -0.499539D+00 -0.398760D-01  0.787302D+00  0.380774D+00
      8   0.000000D+00  0.000000D+00  0.000000D+00  0.000000D+00  0.000000D+00
      9   0.000000D+00  0.000000D+00  0.000000D+00  0.000000D+00  0.000000D+00
     10  -0.146563D-01  0.244965D+00  0.679042D+00  0.445950D+00 -0.584908D+00
     11   0.817104D-02  0.445659D+00 -0.381360D+00 -0.486566D+00 -0.697654D+00
     12   0.000000D+00  0.000000D+00  0.000000D+00  0.000000D+00  0.000000D+00
     13   0.000000D+00  0.000000D+00  0.000000D+00  0.000000D+00  0.000000D+00
     14   0.408176D+00  0.187672D+00 -0.139131D+00 -0.424426D+00  0.987115D+00
     15   0.742611D+00 -0.307647D+00 -0.286580D+00  0.512756D-01 -0.341016D+00
     16   0.000000D+00  0.000000D+00  0.000000D+00  0.000000D+00  0.000000D+00
     17   0.000000D+00  0.000000D+00  0.000000D+00  0.000000D+00  0.000000D+00
     18   0.000000D+00  0.000000D+00  0.000000D+00  0.000000D+00  0.000000D+00
     19   0.000000D+00  0.000000D+00  0.000000D+00  0.000000D+00  0.000000D+00
                11            12            13            14            15 
      1   0.000000D+00  0.000000D+00  0.000000D+00  0.000000D+00  0.000000D+00
      2   0.000000D+00  0.000000D+00  0.000000D+00  0.000000D+00  0.000000D+00
      3   0.000000D+00  0.000000D+00  0.000000D+00  0.000000D+00  0.000000D+00
      4   0.000000D+00  0.358362D+00  0.000000D+00  0.802807D+00 -0.593005D+00
      5   0.000000D+00  0.000000D+00  0.000000D+00  0.000000D+00  0.000000D+00
      6   0.000000D+00  0.000000D+00  0.000000D+00  0.000000D+00  0.000000D+00
      7   0.000000D+00  0.000000D+00  0.000000D+00  0.000000D+00  0.000000D+00
      8   0.000000D+00  0.565532D+00  0.000000D+00 -0.127423D-01  0.101370D+01
      9   0.000000D+00  0.000000D+00  0.000000D+00  0.000000D+00  0.000000D+00
     10   0.000000D+00  0.000000D+00  0.000000D+00  0.000000D+00  0.000000D+00
     11   0.000000D+00  0.000000D+00  0.000000D+00  0.000000D+00  0.000000D+00
     12   0.000000D+00  0.454909D+00  0.000000D+00 -0.616584D+00 -0.793056D+00
     13   0.000000D+00  0.000000D+00  0.000000D+00  0.000000D+00  0.000000D+00
     14   0.000000D+00  0.000000D+00  0.000000D+00  0.000000D+00  0.000000D+00
     15   0.000000D+00  0.000000D+00  0.000000D+00  0.000000D+00  0.000000D+00
     16   0.000000D+00  0.000000D+00  0.100000D+01  0.000000D+00  0.000000D+00
     17   0.000000D+00  0.000000D+00  0.000000D+00  0.000000D+00  0.000000D+00
     18   0.000000D+00  0.000000D+00  0.000000D+00  0.000000D+00  0.000000D+00
     19   0.100000D+01  0.000000D+00  0.000000D+00  0.000000D+00  0.000000D+00
                16            17            18            19 
      1   0.000000D+00  0.000000D+00  0.000000D+00  0.000000D+00
      2   0.000000D+00  0.000000D+00  0.000000D+00  0.000000D+00
      3   0.000000D+00  0.000000D+00  0.000000D+00  0.000000D+00
      4   0.000000D+00  0.000000D+00  0.000000D+00  0.000000D+00
      5   0.358362D+00  0.000000D+00  0.802807D+00 -0.593005D+00
      6   0.000000D+00  0.000000D+00  0.000000D+00  0.000000D+00
      7   0.000000D+00  0.000000D+00  0.000000D+00  0.000000D+00
      8   0.000000D+00  0.000000D+00  0.000000D+00  0.000000D+00
      9   0.565532D+00  0.000000D+00 -0.127423D-01  0.101370D+01
     10   0.000000D+00  0.000000D+00  0.000000D+00  0.000000D+00
     11   0.000000D+00  0.000000D+00  0.000000D+00  0.000000D+00
     12   0.000000D+00  0.000000D+00  0.000000D+00  0.000000D+00
     13   0.454909D+00  0.000000D+00 -0.616584D+00 -0.793056D+00
     14   0.000000D+00  0.000000D+00  0.000000D+00  0.000000D+00
     15   0.000000D+00  0.000000D+00  0.000000D+00  0.000000D+00
     16   0.000000D+00  0.000000D+00  0.000000D+00  0.000000D+00
     17   0.000000D+00  0.100000D+01  0.000000D+00  0.000000D+00
     18   0.000000D+00  0.000000D+00  0.000000D+00  0.000000D+00
     19   0.000000D+00  0.000000D+00  0.000000D+00  0.000000D+00
 NBasis=    19 RedAO= T EigKep=  3.15D-01  NBF=    10     1     4     4
 NBsUse=    19 1.00D-06 EigRej= -1.00D+00 NBFU=    10     1     4     4
 Leave Link  302 at Fri Mar 25 14:38:52 2022, MaxMem=  9663676416 cpu:               3.5 elap:               0.1
 (Enter /nopt/nrel/apps/gaussian/g16C_1/g16/l303.exe)
 DipDrv will not compute anything.
 Fermi contact integrals: 
                 1             2 
      1   0.628247D+00  0.120285D-01
      2   0.000000D+00  0.454848D+02
      3   0.000000D+00  0.245213D+01
      4   0.000000D+00  0.000000D+00
      5   0.000000D+00  0.000000D+00
      6   0.000000D+00  0.000000D+00
      7   0.299487D-03  0.115357D+00
      8   0.000000D+00  0.000000D+00
      9   0.000000D+00  0.000000D+00
     10  -0.858398D-03  0.000000D+00
     11   0.420457D-01 -0.521539D-02
     12   0.000000D+00  0.000000D+00
     13   0.000000D+00  0.000000D+00
     14  -0.719683D-01  0.000000D+00
     15   0.440345D-01  0.000000D+00
     16   0.000000D+00  0.000000D+00
     17   0.000000D+00  0.000000D+00
     18   0.000000D+00  0.000000D+00
     19   0.000000D+00  0.000000D+00
 Leave Link  303 at Fri Mar 25 14:38:52 2022, MaxMem=  9663676416 cpu:               1.1 elap:               0.1
 (Enter /nopt/nrel/apps/gaussian/g16C_1/g16/l401.exe)
 ExpMin= 1.16D-01 ExpMax= 1.03D+03 ExpMxC= 1.03D+03 IAcc=3 IRadAn=         5 AccDes= 0.00D+00
 Harris functional with IExCor=  205 and IRadAn=       5 diagonalized for initial guess.
 HarFok:  IExCor=  205 AccDes= 0.00D+00 IRadAn=         5 IDoV= 1 UseB2=F ITyADJ=14
 ICtDFT=  3500011 ScaDFX=  1.000000  1.000000  1.000000  1.000000
 FoFCou: FMM=F IPFlag=           0 FMFlag=      100000 FMFlg1=           0
         NFxFlg=           0 DoJE=T BraDBF=F KetDBF=T FulRan=T
         wScrn=  0.000000 ICntrl=       500 IOpCl=  0 I1Cent=   200000004 NGrid=           0
         NMat0=    1 NMatS0=      1 NMatT0=    0 NMatD0=    1 NMtDS0=    0 NMtDT0=    0
 Petite list used in FoFCou.
 Harris En= -839.418928589440    
 JPrj=0 DoOrth=F DoCkMO=F.
 Initial guess orbital symmetries:
 Alpha Orbitals:
       Occupied  (SG) (SG) (SG) (PI) (PI) (SG) (SG) (PI) (PI) (SG)
                 (SG) (PI) (PI)
       Virtual   (DLTA) (DLTA) (SG) (PI) (PI) (SG)
 Beta  Orbitals:
       Occupied  (SG) (SG) (SG) (PI) (PI) (SG) (SG) (PI) (PI) (SG)
       Virtual   (SG) (PI) (PI) (DLTA) (DLTA) (SG) (PI) (PI) (SG)
 The electronic state of the initial guess is 4-SG.
 Initial guess <Sx>= 0.0000 <Sy>= 0.0000 <Sz>= 1.5000 <S**2>= 3.7500 S= 1.5000
 Leave Link  401 at Fri Mar 25 14:38:52 2022, MaxMem=  9663676416 cpu:               4.0 elap:               0.1
 (Enter /nopt/nrel/apps/gaussian/g16C_1/g16/l502.exe)
 Keep R1 and R2 ints in memory in symmetry-blocked form, NReq=7413336.
 FoFCou: FMM=F IPFlag=           0 FMFlag=           0 FMFlg1=           0
         NFxFlg=           0 DoJE=F BraDBF=F KetDBF=F FulRan=T
         wScrn=  0.000000 ICntrl=       600 IOpCl=  0 I1Cent=           0 NGrid=           0
         NMat0=    1 NMatS0=    190 NMatT0=    0 NMatD0=    1 NMtDS0=    0 NMtDT0=    0
 Petite list used in FoFCou.
 UHF open shell SCF:
 Using DIIS extrapolation, IDIIS=  1040.
 NGot=  9663676416 LenX=  9663662661 LenY=  9663661779
 Requested convergence on RMS density matrix=1.00D-08 within 128 cycles.
 Requested convergence on MAX density matrix=1.00D-06.
 Requested convergence on             energy=1.00D-06.
 No special actions if energy rises.

 Cycle   1  Pass 1  IDiag  1:
 E= -839.997055590336    
 DIIS: error= 7.70D-02 at cycle   1 NSaved=   1.
 NSaved= 1 IEnMin= 1 EnMin= -839.997055590336     IErMin= 1 ErrMin= 7.70D-02
 ErrMax= 7.70D-02  0.00D+00 EMaxC= 1.00D-01 BMatC= 3.47D-01 BMatP= 3.47D-01
 IDIUse=3 WtCom= 2.30D-01 WtEn= 7.70D-01
 Coeff-Com:  0.100D+01
 Coeff-En:   0.100D+01
 Coeff:      0.100D+01
 Gap=     0.354 Goal=   None    Shift=    0.000
 Gap=     0.330 Goal=   None    Shift=    0.000
 GapD=    0.330 DampG=1.000 DampE=0.250 DampFc=0.2500 IDamp=-1.
 Damping current iteration by 2.50D-01
 RMSDP=2.30D-02 MaxDP=1.90D-01              OVMax= 0.00D+00

 Cycle   2  Pass 1  IDiag  1:
 E= -840.016115108312     Delta-E=       -0.019059517975 Rises=F Damp=T
 DIIS: error= 5.73D-02 at cycle   2 NSaved=   2.
 NSaved= 2 IEnMin= 2 EnMin= -840.016115108312     IErMin= 2 ErrMin= 5.73D-02
 ErrMax= 5.73D-02  0.00D+00 EMaxC= 1.00D-01 BMatC= 1.95D-01 BMatP= 3.47D-01
 IDIUse=3 WtCom= 4.27D-01 WtEn= 5.73D-01
 Coeff-Com: -0.293D+01 0.393D+01
 Coeff-En:   0.000D+00 0.100D+01
 Coeff:     -0.125D+01 0.225D+01
 Gap=     0.359 Goal=   None    Shift=    0.000
 Gap=     0.380 Goal=   None    Shift=    0.000
 RMSDP=2.02D-02 MaxDP=1.43D-01 DE=-1.91D-02 OVMax= 0.00D+00

 Cycle   3  Pass 1  IDiag  1:
 E= -840.085808744762     Delta-E=       -0.069693636450 Rises=F Damp=F
 DIIS: error= 1.01D-02 at cycle   3 NSaved=   3.
 NSaved= 3 IEnMin= 3 EnMin= -840.085808744762     IErMin= 3 ErrMin= 1.01D-02
 ErrMax= 1.01D-02  0.00D+00 EMaxC= 1.00D-01 BMatC= 4.61D-03 BMatP= 1.95D-01
 IDIUse=3 WtCom= 8.99D-01 WtEn= 1.01D-01
 Coeff-Com:  0.241D+01-0.322D+01 0.181D+01
 Coeff-En:   0.000D+00 0.000D+00 0.100D+01
 Coeff:      0.216D+01-0.289D+01 0.173D+01
 Gap=     0.365 Goal=   None    Shift=    0.000
 Gap=     0.439 Goal=   None    Shift=    0.000
 RMSDP=1.01D-02 MaxDP=1.08D-01 DE=-6.97D-02 OVMax= 0.00D+00

 Cycle   4  Pass 1  IDiag  1:
 E= -840.098284447385     Delta-E=       -0.012475702623 Rises=F Damp=F
 DIIS: error= 8.98D-03 at cycle   4 NSaved=   4.
 NSaved= 4 IEnMin= 4 EnMin= -840.098284447385     IErMin= 4 ErrMin= 8.98D-03
 ErrMax= 8.98D-03  0.00D+00 EMaxC= 1.00D-01 BMatC= 2.94D-03 BMatP= 4.61D-03
 IDIUse=3 WtCom= 9.10D-01 WtEn= 8.98D-02
 Coeff-Com: -0.278D+01 0.373D+01-0.245D+01 0.250D+01
 Coeff-En:   0.000D+00 0.000D+00 0.000D+00 0.100D+01
 Coeff:     -0.253D+01 0.340D+01-0.223D+01 0.236D+01
 Gap=     0.381 Goal=   None    Shift=    0.000
 Gap=     0.473 Goal=   None    Shift=    0.000
 RMSDP=1.40D-02 MaxDP=1.58D-01 DE=-1.25D-02 OVMax= 0.00D+00

 Cycle   5  Pass 1  IDiag  1:
 E= -840.111521053439     Delta-E=       -0.013236606054 Rises=F Damp=F
 DIIS: error= 6.86D-03 at cycle   5 NSaved=   5.
 NSaved= 5 IEnMin= 5 EnMin= -840.111521053439     IErMin= 5 ErrMin= 6.86D-03
 ErrMax= 6.86D-03  0.00D+00 EMaxC= 1.00D-01 BMatC= 1.51D-03 BMatP= 2.94D-03
 IDIUse=3 WtCom= 9.31D-01 WtEn= 6.86D-02
 Coeff-Com: -0.767D+00 0.101D+01 0.639D+00-0.228D+01 0.240D+01
 Coeff-En:   0.000D+00 0.000D+00 0.000D+00 0.000D+00 0.100D+01
 Coeff:     -0.715D+00 0.940D+00 0.595D+00-0.212D+01 0.230D+01
 Gap=     0.385 Goal=   None    Shift=    0.000
 Gap=     0.499 Goal=   None    Shift=    0.000
 RMSDP=1.29D-02 MaxDP=1.37D-01 DE=-1.32D-02 OVMax= 0.00D+00

 Cycle   6  Pass 1  IDiag  1:
 E= -840.120033853715     Delta-E=       -0.008512800276 Rises=F Damp=F
 DIIS: error= 4.45D-03 at cycle   6 NSaved=   6.
 NSaved= 6 IEnMin= 6 EnMin= -840.120033853715     IErMin= 6 ErrMin= 4.45D-03
 ErrMax= 4.45D-03  0.00D+00 EMaxC= 1.00D-01 BMatC= 6.99D-04 BMatP= 1.51D-03
 IDIUse=3 WtCom= 9.55D-01 WtEn= 4.45D-02
 Coeff-Com: -0.262D+00 0.357D+00-0.981D+00 0.245D+01-0.380D+01 0.325D+01
 Coeff-En:   0.000D+00 0.000D+00 0.000D+00 0.000D+00 0.000D+00 0.100D+01
 Coeff:     -0.251D+00 0.341D+00-0.937D+00 0.234D+01-0.364D+01 0.315D+01
 Gap=     0.397 Goal=   None    Shift=    0.000
 Gap=     0.529 Goal=   None    Shift=    0.000
 RMSDP=1.56D-02 MaxDP=1.34D-01 DE=-8.51D-03 OVMax= 0.00D+00

 Cycle   7  Pass 1  IDiag  1:
 E= -840.125778766880     Delta-E=       -0.005744913165 Rises=F Damp=F
 DIIS: error= 1.66D-03 at cycle   7 NSaved=   7.
 NSaved= 7 IEnMin= 7 EnMin= -840.125778766880     IErMin= 7 ErrMin= 1.66D-03
 ErrMax= 1.66D-03  0.00D+00 EMaxC= 1.00D-01 BMatC= 1.63D-04 BMatP= 6.99D-04
 IDIUse=3 WtCom= 9.83D-01 WtEn= 1.66D-02
 Coeff-Com:  0.230D+00-0.315D+00-0.309D-02 0.449D+00-0.382D+00-0.465D+00
 Coeff-Com:  0.149D+01
 Coeff-En:   0.000D+00 0.000D+00 0.000D+00 0.000D+00 0.000D+00 0.000D+00
 Coeff-En:   0.100D+01
 Coeff:      0.227D+00-0.310D+00-0.304D-02 0.442D+00-0.376D+00-0.457D+00
 Coeff:      0.148D+01
 Gap=     0.395 Goal=   None    Shift=    0.000
 Gap=     0.532 Goal=   None    Shift=    0.000
 RMSDP=5.56D-03 MaxDP=5.01D-02 DE=-5.74D-03 OVMax= 0.00D+00

 Cycle   8  Pass 1  IDiag  1:
 E= -840.126588440329     Delta-E=       -0.000809673449 Rises=F Damp=F
 DIIS: error= 5.82D-04 at cycle   8 NSaved=   8.
 NSaved= 8 IEnMin= 8 EnMin= -840.126588440329     IErMin= 8 ErrMin= 5.82D-04
 ErrMax= 5.82D-04  0.00D+00 EMaxC= 1.00D-01 BMatC= 2.25D-05 BMatP= 1.63D-04
 IDIUse=3 WtCom= 9.94D-01 WtEn= 5.82D-03
 Coeff-Com:  0.156D-01-0.193D-01 0.232D+00-0.695D+00 0.951D+00-0.715D+00
 Coeff-Com: -0.129D+00 0.136D+01
 Coeff-En:   0.000D+00 0.000D+00 0.000D+00 0.000D+00 0.000D+00 0.000D+00
 Coeff-En:   0.000D+00 0.100D+01
 Coeff:      0.155D-01-0.192D-01 0.231D+00-0.691D+00 0.945D+00-0.711D+00
 Coeff:     -0.129D+00 0.136D+01
 Gap=     0.406 Goal=   None    Shift=    0.000
 Gap=     0.539 Goal=   None    Shift=    0.000
 RMSDP=3.22D-03 MaxDP=3.29D-02 DE=-8.10D-04 OVMax= 0.00D+00

 Cycle   9  Pass 1  IDiag  1:
 E= -840.126711596860     Delta-E=       -0.000123156531 Rises=F Damp=F
 DIIS: error= 1.82D-04 at cycle   9 NSaved=   9.
 NSaved= 9 IEnMin= 9 EnMin= -840.126711596860     IErMin= 9 ErrMin= 1.82D-04
 ErrMax= 1.82D-04  0.00D+00 EMaxC= 1.00D-01 BMatC= 4.54D-06 BMatP= 2.25D-05
 IDIUse=3 WtCom= 9.98D-01 WtEn= 1.82D-03
 Coeff-Com:  0.447D-01-0.600D-01-0.458D-01 0.184D+00-0.326D+00 0.391D+00
 Coeff-Com: -0.321D+00-0.636D-01 0.120D+01
 Coeff-En:   0.000D+00 0.000D+00 0.000D+00 0.000D+00 0.000D+00 0.000D+00
 Coeff-En:   0.000D+00 0.000D+00 0.100D+01
 Coeff:      0.446D-01-0.599D-01-0.457D-01 0.184D+00-0.326D+00 0.390D+00
 Coeff:     -0.321D+00-0.635D-01 0.120D+01
 Gap=     0.402 Goal=   None    Shift=    0.000
 Gap=     0.537 Goal=   None    Shift=    0.000
 RMSDP=1.58D-04 MaxDP=1.44D-03 DE=-1.23D-04 OVMax= 0.00D+00

 Cycle  10  Pass 1  IDiag  1:
 E= -840.126713952214     Delta-E=       -0.000002355354 Rises=F Damp=F
 DIIS: error= 5.95D-05 at cycle  10 NSaved=  10.
 NSaved=10 IEnMin=10 EnMin= -840.126713952214     IErMin=10 ErrMin= 5.95D-05
 ErrMax= 5.95D-05  0.00D+00 EMaxC= 1.00D-01 BMatC= 1.59D-07 BMatP= 4.54D-06
 IDIUse=1 WtCom= 1.00D+00 WtEn= 0.00D+00
 Coeff-Com: -0.321D-02 0.426D-02 0.237D-01-0.586D-01 0.117D+00-0.177D+00
 Coeff-Com:  0.202D+00-0.918D-01-0.633D+00 0.162D+01
 Coeff:     -0.321D-02 0.426D-02 0.237D-01-0.586D-01 0.117D+00-0.177D+00
 Coeff:      0.202D+00-0.918D-01-0.633D+00 0.162D+01
 Gap=     0.402 Goal=   None    Shift=    0.000
 Gap=     0.537 Goal=   None    Shift=    0.000
 RMSDP=6.53D-05 MaxDP=5.42D-04 DE=-2.36D-06 OVMax= 0.00D+00

 Cycle  11  Pass 1  IDiag  1:
 E= -840.126714176953     Delta-E=       -0.000000224739 Rises=F Damp=F
 DIIS: error= 2.10D-05 at cycle  11 NSaved=  11.
 NSaved=11 IEnMin=11 EnMin= -840.126714176953     IErMin=11 ErrMin= 2.10D-05
 ErrMax= 2.10D-05  0.00D+00 EMaxC= 1.00D-01 BMatC= 6.45D-08 BMatP= 1.59D-07
 IDIUse=1 WtCom= 1.00D+00 WtEn= 0.00D+00
 Coeff-Com: -0.116D-01 0.155D-01-0.776D-02 0.140D-02 0.101D-02 0.668D-02
 Coeff-Com: -0.706D-02 0.335D-03 0.129D+00-0.787D+00 0.166D+01
 Coeff:     -0.116D-01 0.155D-01-0.776D-02 0.140D-02 0.101D-02 0.668D-02
 Coeff:     -0.706D-02 0.335D-03 0.129D+00-0.787D+00 0.166D+01
 Gap=     0.403 Goal=   None    Shift=    0.000
 Gap=     0.538 Goal=   None    Shift=    0.000
 RMSDP=3.38D-05 MaxDP=3.25D-04 DE=-2.25D-07 OVMax= 0.00D+00

 Cycle  12  Pass 1  IDiag  1:
 E= -840.126714243871     Delta-E=       -0.000000066918 Rises=F Damp=F
 DIIS: error= 1.10D-05 at cycle  12 NSaved=  12.
 NSaved=12 IEnMin=12 EnMin= -840.126714243871     IErMin=12 ErrMin= 1.10D-05
 ErrMax= 1.10D-05  0.00D+00 EMaxC= 1.00D-01 BMatC= 9.37D-09 BMatP= 6.45D-08
 IDIUse=1 WtCom= 1.00D+00 WtEn= 0.00D+00
 Coeff-Com:  0.105D-02-0.141D-02 0.112D-02-0.920D-03 0.119D-02-0.297D-02
 Coeff-Com: -0.566D-02 0.236D-01-0.792D-01 0.240D+00-0.670D+00 0.149D+01
 Coeff:      0.105D-02-0.141D-02 0.112D-02-0.920D-03 0.119D-02-0.297D-02
 Coeff:     -0.566D-02 0.236D-01-0.792D-01 0.240D+00-0.670D+00 0.149D+01
 Gap=     0.402 Goal=   None    Shift=    0.000
 Gap=     0.538 Goal=   None    Shift=    0.000
 RMSDP=1.02D-05 MaxDP=1.18D-04 DE=-6.69D-08 OVMax= 0.00D+00

 Cycle  13  Pass 1  IDiag  1:
 E= -840.126714251635     Delta-E=       -0.000000007764 Rises=F Damp=F
 DIIS: error= 2.09D-06 at cycle  13 NSaved=  13.
 NSaved=13 IEnMin=13 EnMin= -840.126714251635     IErMin=13 ErrMin= 2.09D-06
 ErrMax= 2.09D-06  0.00D+00 EMaxC= 1.00D-01 BMatC= 2.79D-10 BMatP= 9.37D-09
 IDIUse=1 WtCom= 1.00D+00 WtEn= 0.00D+00
 Coeff-Com:  0.503D-03-0.667D-03 0.257D-03-0.345D-03-0.371D-03 0.160D-02
 Coeff-Com:  0.174D-02-0.838D-02 0.267D-01-0.668D-01 0.178D+00-0.692D+00
 Coeff-Com:  0.156D+01
 Coeff:      0.503D-03-0.667D-03 0.257D-03-0.345D-03-0.371D-03 0.160D-02
 Coeff:      0.174D-02-0.838D-02 0.267D-01-0.668D-01 0.178D+00-0.692D+00
 Coeff:      0.156D+01
 Gap=     0.402 Goal=   None    Shift=    0.000
 Gap=     0.538 Goal=   None    Shift=    0.000
 RMSDP=3.27D-06 MaxDP=3.26D-05 DE=-7.76D-09 OVMax= 0.00D+00

 Cycle  14  Pass 1  IDiag  1:
 E= -840.126714252150     Delta-E=       -0.000000000515 Rises=F Damp=F
 DIIS: error= 4.56D-07 at cycle  14 NSaved=  14.
 NSaved=14 IEnMin=14 EnMin= -840.126714252150     IErMin=14 ErrMin= 4.56D-07
 ErrMax= 4.56D-07  0.00D+00 EMaxC= 1.00D-01 BMatC= 2.97D-11 BMatP= 2.79D-10
 IDIUse=1 WtCom= 1.00D+00 WtEn= 0.00D+00
 Coeff-Com:  0.801D-04-0.109D-03-0.177D-03 0.511D-03-0.808D-03 0.100D-02
 Coeff-Com: -0.122D-02 0.841D-03 0.329D-02-0.141D-01 0.284D-01 0.348D-01
 Coeff-Com: -0.291D+00 0.124D+01
 Coeff:      0.801D-04-0.109D-03-0.177D-03 0.511D-03-0.808D-03 0.100D-02
 Coeff:     -0.122D-02 0.841D-03 0.329D-02-0.141D-01 0.284D-01 0.348D-01
 Coeff:     -0.291D+00 0.124D+01
 Gap=     0.402 Goal=   None    Shift=    0.000
 Gap=     0.538 Goal=   None    Shift=    0.000
 RMSDP=3.30D-07 MaxDP=1.86D-06 DE=-5.15D-10 OVMax= 0.00D+00

 Cycle  15  Pass 1  IDiag  1:
 E= -840.126714252168     Delta-E=       -0.000000000018 Rises=F Damp=F
 DIIS: error= 7.76D-08 at cycle  15 NSaved=  15.
 NSaved=15 IEnMin=15 EnMin= -840.126714252168     IErMin=15 ErrMin= 7.76D-08
 ErrMax= 7.76D-08  0.00D+00 EMaxC= 1.00D-01 BMatC= 9.96D-13 BMatP= 2.97D-11
 IDIUse=1 WtCom= 1.00D+00 WtEn= 0.00D+00
 Coeff-Com:  0.962D-05-0.127D-04 0.174D-04-0.250D-04 0.132D-04-0.204D-06
 Coeff-Com: -0.318D-04 0.984D-04-0.351D-03 0.111D-02-0.449D-02 0.383D-02
 Coeff-Com:  0.325D-01-0.285D+00 0.125D+01
 Coeff:      0.962D-05-0.127D-04 0.174D-04-0.250D-04 0.132D-04-0.204D-06
 Coeff:     -0.318D-04 0.984D-04-0.351D-03 0.111D-02-0.449D-02 0.383D-02
 Coeff:      0.325D-01-0.285D+00 0.125D+01
 Gap=     0.402 Goal=   None    Shift=    0.000
 Gap=     0.538 Goal=   None    Shift=    0.000
 RMSDP=1.35D-07 MaxDP=1.29D-06 DE=-1.77D-11 OVMax= 0.00D+00

 Cycle  16  Pass 1  IDiag  1:
 E= -840.126714252168     Delta-E=       -0.000000000000 Rises=F Damp=F
 DIIS: error= 6.79D-09 at cycle  16 NSaved=  16.
 NSaved=16 IEnMin=16 EnMin= -840.126714252168     IErMin=16 ErrMin= 6.79D-09
 ErrMax= 6.79D-09  0.00D+00 EMaxC= 1.00D-01 BMatC= 4.27D-15 BMatP= 9.96D-13
 IDIUse=1 WtCom= 1.00D+00 WtEn= 0.00D+00
 Large coefficients: NSaved= 16 BigCof=    0.00 CofMax=   10.00 Det=-6.10D-15
 Inversion failed.  Reducing to 15 matrices.
 Coeff-Com: -0.232D-07-0.205D-06-0.714D-06 0.182D-05-0.297D-05 0.167D-04
 Coeff-Com: -0.368D-04 0.607D-04-0.913D-04 0.421D-03-0.135D-02 0.468D-03
 Coeff-Com:  0.185D-01-0.144D+00 0.113D+01
 Coeff:     -0.232D-07-0.205D-06-0.714D-06 0.182D-05-0.297D-05 0.167D-04
 Coeff:     -0.368D-04 0.607D-04-0.913D-04 0.421D-03-0.135D-02 0.468D-03
 Coeff:      0.185D-01-0.144D+00 0.113D+01
 Gap=     0.402 Goal=   None    Shift=    0.000
 Gap=     0.538 Goal=   None    Shift=    0.000
 RMSDP=1.39D-08 MaxDP=1.43D-07 DE=-3.41D-13 OVMax= 0.00D+00

 Cycle  17  Pass 1  IDiag  1:
 E= -840.126714252169     Delta-E=       -0.000000000001 Rises=F Damp=F
 DIIS: error= 2.37D-09 at cycle  17 NSaved=  16.
 NSaved=16 IEnMin=16 EnMin= -840.126714252169     IErMin=16 ErrMin= 2.37D-09
 ErrMax= 2.37D-09  0.00D+00 EMaxC= 1.00D-01 BMatC= 7.05D-16 BMatP= 4.27D-15
 IDIUse=1 WtCom= 1.00D+00 WtEn= 0.00D+00
 Large coefficients: NSaved= 16 BigCof=    0.00 CofMax=   10.00 Det=-1.18D-16
 Inversion failed.  Reducing to 15 matrices.
 Coeff-Com: -0.116D-06-0.229D-07-0.140D-06 0.105D-05-0.293D-05 0.460D-05
 Coeff-Com:  0.251D-05-0.388D-04 0.117D-03-0.477D-04-0.554D-03 0.310D-02
 Coeff-Com: -0.817D-02-0.106D+00 0.111D+01
 Coeff:     -0.116D-06-0.229D-07-0.140D-06 0.105D-05-0.293D-05 0.460D-05
 Coeff:      0.251D-05-0.388D-04 0.117D-03-0.477D-04-0.554D-03 0.310D-02
 Coeff:     -0.817D-02-0.106D+00 0.111D+01
 Gap=     0.402 Goal=   None    Shift=    0.000
 Gap=     0.538 Goal=   None    Shift=    0.000
 RMSDP=2.31D-09 MaxDP=2.39D-08 DE=-5.68D-13 OVMax= 0.00D+00

 SCF Done:  E(UHF) =  -840.126714252     A.U. after   17 cycles
            NFock= 17  Conv=0.23D-08     -V/T= 2.0044
 <Sx>= 0.0000 <Sy>= 0.0000 <Sz>= 1.5000 <S**2>= 3.7535 S= 1.5009
 <L.S>= 0.000000000000E+00
 KE= 8.364648798852D+02 PE=-1.997663232402D+03 EE= 3.146039167977D+02
 Annihilation of the first spin contaminant:
 S**2 before annihilation     3.7535,   after     3.7500
 Leave Link  502 at Fri Mar 25 14:38:52 2022, MaxMem=  9663676416 cpu:               7.5 elap:               0.3
 (Enter /nopt/nrel/apps/gaussian/g16C_1/g16/l801.exe)
 Windowed orbitals will be sorted by symmetry type.
 ExpMin= 1.16D-01 ExpMax= 1.03D+03 ExpMxC= 1.03D+03 IAcc=3 IRadAn=         5 AccDes= 0.00D+00
 HarFok:  IExCor=  205 AccDes= 0.00D+00 IRadAn=         5 IDoV=-2 UseB2=F ITyADJ=14
 ICtDFT= 12500011 ScaDFX=  1.000000  1.000000  1.000000  1.000000
 Largest valence mixing into a core orbital is  4.36D-04
 Largest core mixing into a valence orbital is  2.49D-04
 Largest valence mixing into a core orbital is  1.11D-03
 Largest core mixing into a valence orbital is  1.85D-04
 Range of M.O.s used for correlation:    10    19
 NBasis=    19 NAE=    13 NBE=    10 NFC=     9 NFV=     0
 NROrb=     10 NOA=     4 NOB=     1 NVA=     6 NVB=     9
 Leave Link  801 at Fri Mar 25 14:38:52 2022, MaxMem=  9663676416 cpu:               2.8 elap:               0.1
 (Enter /nopt/nrel/apps/gaussian/g16C_1/g16/l804.exe)
 Open-shell transformation, MDV=  9663676416 ITran=4 ISComp=2.
 Unit  1 TFree=         25012 TCopy=        222819.
 Semi-Direct transformation.
 ModeAB=           2 MOrb=             4 LenV=    9663501517
 LASXX=          307 LTotXX=         307 LenRXX=         307
 LTotAB=         523 MaxLAS=        8400 LenRXY=        8400
 NonZer=        9720 LenScr=      785920 LnRSAI=           0
 LnScr1=           0 LExtra=      224069 Total=      1018696
 MaxDsk= 34359738368 SrtSym=           F ITran=            4
 DoSDTr:  NPSUse= 36
 JobTyp=1 Pass  1:  I=   1 to   4.
 (rs|ai) integrals will be sorted in core.
 Complete sort for first half transformation.
 First half transformation complete.
 Complete sort for second half transformation.
 Second half transformation complete.
 ModeAB=           2 MOrb=             1 LenV=    9663501517
 LASXX=          105 LTotXX=         105 LenRXX=        2100
 LTotAB=          65 MaxLAS=        2100 LenRXY=          65
 NonZer=        2430 LenScr=      785920 LnRSAI=           0
 LnScr1=           0 LExtra=      232776 Total=      1020861
 MaxDsk= 34359738368 SrtSym=           F ITran=            4
 DoSDTr:  NPSUse= 36
 JobTyp=2 Pass  1:  I=   1 to   1.
 (rs|ai) integrals will be sorted in core.
 Complete sort for first half transformation.
 First half transformation complete.
 Complete sort for second half transformation.
 Second half transformation complete.
 Spin components of T(2) and E(2):
     alpha-alpha T2 =       0.1703355489D-02 E2=     -0.1498920072D-02
     alpha-beta  T2 =       0.7427957469D-02 E2=     -0.1259958609D-01
     beta-beta   T2 =       0.0000000000D+00 E2=      0.0000000000D+00
 ANorm=    0.1004555281D+01
 E2 =    -0.1409850616D-01 EUMP2 =    -0.84014081275833D+03
 (S**2,0)=  0.37535D+01           (S**2,1)=  0.37517D+01
 E(PUHF)=      -0.84012694060D+03        E(PMP2)=      -0.84014098042D+03
 Leave Link  804 at Fri Mar 25 14:38:53 2022, MaxMem=  9663676416 cpu:              14.5 elap:               0.5
 (Enter /nopt/nrel/apps/gaussian/g16C_1/g16/l913.exe)
 CIDS:  MDV=  9663676416.
 Frozen-core window:  NFC=   9 NFV=   0.
 IFCWin=0 IBDFC=1 NFBD=     0     0 NFCmp=     0     0 NFFFC=     0     0
 Using original routines for 1st iteration.
 Using DD4UQ or CC4UQ for 2nd and later iterations.
 Keep R2 and R3 ints in memory in symmetry-blocked form, NReq=7415794.
 FoFCou: FMM=F IPFlag=           0 FMFlag=           0 FMFlg1=           0
         NFxFlg=           0 DoJE=F BraDBF=F KetDBF=F FulRan=T
         wScrn=  0.000000 ICntrl=       600 IOpCl=  0 I1Cent=           0 NGrid=           0
         NMat0=    1 NMatS0=    190 NMatT0=    0 NMatD0=    1 NMtDS0=    0 NMtDT0=    0
 Petite list used in FoFCou.
 CIDS: In Core Option IDoMem=           1.
 Coupled Cluster theory with single and double substitutions
 ===========================================================
 Iterations=  50 Convergence= 0.100D-06
 Produce multiple copies of IABC intergrals
 Iteration Nr.   1
 **********************
 DD1Dir will call FoFMem   1 times, MxPair=        14
 NAB=     4 NAA=     6 NBB=     0.
 E(PMP3)=      -0.84014691098D+03
 MP4(R+Q)=  0.10248263D-03
 Maximum subspace dimension=  5
 A-vector RMS=  1.0677308D-02 Max=  2.5492179D-02 conv= 1.00D-05.
 RLE energy=       -0.0241421541
 E3=       -0.59711420D-02        EUMP3=      -0.84014678390D+03
 E4(DQ)=   -0.28755808D-02        UMP4(DQ)=   -0.84014965948D+03
 E4(SDQ)=  -0.29694295D-02        UMP4(SDQ)=  -0.84014975333D+03
 VARIATIONAL ENERGIES WITH THE FIRST-ORDER WAVEFUNCTION:
 DE(Corr)= -0.19963785E-01 E(Corr)=     -840.14667804    
 NORM(A)=   0.10153445D+01
 Iteration Nr.   2
 **********************
 DD1Dir will call FoFMem   1 times, MxPair=        14
 NAB=     4 NAA=     6 NBB=     0.
 A-vector RMS=  6.8689081D-03 Max=  2.2936452D-02 conv= 1.00D-05.
 RLE energy=       -0.0282564174
 DE(Corr)= -0.24957239E-01 E(CORR)=     -840.15167149     Delta=-4.99D-03
 NORM(A)=   0.10312447D+01
 Iteration Nr.   3
 **********************
 DD1Dir will call FoFMem   1 times, MxPair=        14
 NAB=     4 NAA=     6 NBB=     0.
 A-vector RMS=  3.5220324D-03 Max=  1.8531337D-02 conv= 1.00D-05.
 RLE energy=       -0.0318278585
 DE(Corr)= -0.28414708E-01 E(CORR)=     -840.15512896     Delta=-3.46D-03
 NORM(A)=   0.10593761D+01
 Iteration Nr.   4
 **********************
 DD1Dir will call FoFMem   1 times, MxPair=        14
 NAB=     4 NAA=     6 NBB=     0.
 A-vector RMS=  4.0787968D-03 Max=  1.2238321D-02 conv= 1.00D-05.
 RLE energy=       -0.0326882505
 DE(Corr)= -0.31699563E-01 E(CORR)=     -840.15841381     Delta=-3.28D-03
 NORM(A)=   0.10817140D+01
 Iteration Nr.   5
 **********************
 DD1Dir will call FoFMem   1 times, MxPair=        14
 NAB=     4 NAA=     6 NBB=     0.
 A-vector RMS=  3.0081908D-03 Max=  7.7104141D-03 conv= 1.00D-05.
 RLE energy=       -0.0356511371
 DE(Corr)= -0.32875984E-01 E(CORR)=     -840.15959024     Delta=-1.18D-03
 NORM(A)=   0.11343585D+01
 Iteration Nr.   6
 **********************
 DD1Dir will call FoFMem   1 times, MxPair=        14
 NAB=     4 NAA=     6 NBB=     0.
 A-vector RMS=  2.4577086D-03 Max=  6.0650375D-03 conv= 1.00D-05.
 RLE energy=       -0.0345859489
 DE(Corr)= -0.35461063E-01 E(CORR)=     -840.16217532     Delta=-2.59D-03
 NORM(A)=   0.11261071D+01
 Iteration Nr.   7
 **********************
 DD1Dir will call FoFMem   1 times, MxPair=        14
 NAB=     4 NAA=     6 NBB=     0.
 A-vector RMS=  1.6015414D-03 Max=  1.9935397D-03 conv= 1.00D-05.
 RLE energy=       -0.0357134866
 DE(Corr)= -0.34665400E-01 E(CORR)=     -840.16137965     Delta= 7.96D-04
 NORM(A)=   0.11504212D+01
 Iteration Nr.   8
 **********************
 DD1Dir will call FoFMem   1 times, MxPair=        14
 NAB=     4 NAA=     6 NBB=     0.
 A-vector RMS=  1.1707406D-03 Max=  1.4387410D-03 conv= 1.00D-05.
 RLE energy=       -0.0353914556
 DE(Corr)= -0.35686613E-01 E(CORR)=     -840.16240087     Delta=-1.02D-03
 NORM(A)=   0.11434232D+01
 Iteration Nr.   9
 **********************
 DD1Dir will call FoFMem   1 times, MxPair=        14
 NAB=     4 NAA=     6 NBB=     0.
 A-vector RMS=  6.2380721D-04 Max=  1.0567131D-03 conv= 1.00D-05.
 RLE energy=       -0.0354303030
 DE(Corr)= -0.35403961E-01 E(CORR)=     -840.16211821     Delta= 2.83D-04
 NORM(A)=   0.11448164D+01
 Iteration Nr.  10
 **********************
 DD1Dir will call FoFMem   1 times, MxPair=        14
 NAB=     4 NAA=     6 NBB=     0.
 A-vector RMS=  2.9938575D-04 Max=  5.4044315D-04 conv= 1.00D-05.
 RLE energy=       -0.0353887817
 DE(Corr)= -0.35426257E-01 E(CORR)=     -840.16214051     Delta=-2.23D-05
 NORM(A)=   0.11441295D+01
 Iteration Nr.  11
 **********************
 DD1Dir will call FoFMem   1 times, MxPair=        14
 NAB=     4 NAA=     6 NBB=     0.
 A-vector RMS=  2.0576282D-04 Max=  3.6239157D-04 conv= 1.00D-05.
 RLE energy=       -0.0353943229
 DE(Corr)= -0.35387238E-01 E(CORR)=     -840.16210149     Delta= 3.90D-05
 NORM(A)=   0.11443490D+01
 Iteration Nr.  12
 **********************
 DD1Dir will call FoFMem   1 times, MxPair=        14
 NAB=     4 NAA=     6 NBB=     0.
 A-vector RMS=  8.2592343D-05 Max=  1.3829399D-04 conv= 1.00D-05.
 RLE energy=       -0.0353947100
 DE(Corr)= -0.35394045E-01 E(CORR)=     -840.16210830     Delta=-6.81D-06
 NORM(A)=   0.11443338D+01
 Iteration Nr.  13
 **********************
 DD1Dir will call FoFMem   1 times, MxPair=        14
 NAB=     4 NAA=     6 NBB=     0.
 A-vector RMS=  5.3956436D-05 Max=  7.6103418D-05 conv= 1.00D-05.
 RLE energy=       -0.0353922902
 DE(Corr)= -0.35395713E-01 E(CORR)=     -840.16210997     Delta=-1.67D-06
 NORM(A)=   0.11441490D+01
 Iteration Nr.  14
 **********************
 DD1Dir will call FoFMem   1 times, MxPair=        14
 NAB=     4 NAA=     6 NBB=     0.
 A-vector RMS=  2.8648454D-05 Max=  3.9404139D-05 conv= 1.00D-05.
 RLE energy=       -0.0353877518
 DE(Corr)= -0.35391103E-01 E(CORR)=     -840.16210536     Delta= 4.61D-06
 NORM(A)=   0.11441320D+01
 Iteration Nr.  15
 **********************
 DD1Dir will call FoFMem   1 times, MxPair=        14
 NAB=     4 NAA=     6 NBB=     0.
 A-vector RMS=  1.1946559D-05 Max=  1.5590480D-05 conv= 1.00D-05.
 RLE energy=       -0.0353915238
 DE(Corr)= -0.35387558E-01 E(CORR)=     -840.16210181     Delta= 3.54D-06
 NORM(A)=   0.11442462D+01
 Iteration Nr.  16
 **********************
 DD1Dir will call FoFMem   1 times, MxPair=        14
 NAB=     4 NAA=     6 NBB=     0.
 A-vector RMS=  6.4716985D-06 Max=  8.7179169D-06 conv= 1.00D-05.
 RLE energy=       -0.0353910663
 DE(Corr)= -0.35391308E-01 E(CORR)=     -840.16210556     Delta=-3.75D-06
 NORM(A)=   0.11442575D+01
 Iteration Nr.  17
 **********************
 DD1Dir will call FoFMem   1 times, MxPair=        14
 NAB=     4 NAA=     6 NBB=     0.
 A-vector RMS=  4.0304957D-06 Max=  7.0614970D-06 conv= 1.00D-05.
 RLE energy=       -0.0353913110
 DE(Corr)= -0.35391180E-01 E(CORR)=     -840.16210543     Delta= 1.28D-07
 NORM(A)=   0.11442659D+01
 Iteration Nr.  18
 **********************
 DD1Dir will call FoFMem   1 times, MxPair=        14
 NAB=     4 NAA=     6 NBB=     0.
 A-vector RMS=  2.6944742D-06 Max=  5.1049850D-06 conv= 1.00D-05.
 RLE energy=       -0.0353909786
 DE(Corr)= -0.35391240E-01 E(CORR)=     -840.16210549     Delta=-6.03D-08
 NORM(A)=   0.11442671D+01
 CI/CC converged in   18 iterations to DelEn=-6.03D-08 Conv= 1.00D-07 ErrA1= 2.69D-06 Conv= 1.00D-05
 Wavefunction amplitudes converged. E(Corr)=     -840.16210549    
 Dominant configurations:
 ***********************
 Spin Case        I    J    A    B          Value
   AAAA          12   13   16   17      -0.519066D+00
 Largest amplitude= 5.19D-01

 S**2, projected HF & approx projected MPn energies after annihilation of
 unwanted spin states (see manual for definitions):

 spins       (S**2,0) (S**2,1)    PUHF        PMP2        PMP3        PMP4
 annihilated
 s+1         3.75000  3.75000 -840.126941 -840.140980 -840.146911

 Discarding MO integrals.
 Leave Link  913 at Fri Mar 25 14:38:53 2022, MaxMem=  9663676416 cpu:              14.0 elap:               0.4
 (Enter /nopt/nrel/apps/gaussian/g16C_1/g16/l601.exe)
 Copying SCF densities to generalized density rwf, IOpCl= 1 IROHF=0.

 **********************************************************************

            Population analysis using the SCF Density.

 **********************************************************************

 Orbital symmetries:
 Alpha Orbitals:
       Occupied  (SG) (SG) (PI) (PI) (SG) (SG) (SG) (PI) (PI) (SG)
                 (SG) (PI) (PI)
       Virtual   (PI) (PI) (DLTA) (DLTA) (SG) (SG)
 Beta  Orbitals:
       Occupied  (SG) (SG) (PI) (PI) (SG) (SG) (PI) (PI) (SG) (SG)
       Virtual   (SG) (PI) (PI) (DLTA) (DLTA) (SG) (PI) (PI) (SG)
 The electronic state is 4-SG.
 Alpha  occ. eigenvalues -- -181.59471 -21.36879 -17.95344 -17.95344 -17.94758
 Alpha  occ. eigenvalues --   -2.99189  -1.93923  -1.92748  -1.92748  -0.36745
 Alpha  occ. eigenvalues --   -0.21235  -0.13908  -0.13908
 Alpha virt. eigenvalues --    0.26337   0.26337   0.28436   0.28436   0.31325
 Alpha virt. eigenvalues --    0.65552
  Beta  occ. eigenvalues -- -181.58967 -21.35901 -17.94694 -17.94694 -17.94012
  Beta  occ. eigenvalues --   -2.91222  -1.85207  -1.85207  -1.80874  -0.32073
  Beta virt. eigenvalues --    0.21695   0.33017   0.33017   0.36131   0.36131
  Beta virt. eigenvalues --    0.40945   0.42083   0.42083   0.71162
          Condensed to atoms (all electrons):
               1          2
     1  H    0.878104   0.330362
     2  Ti   0.330362  21.461172
          Atomic-Atomic Spin Densities.
               1          2
     1  H    0.113801  -0.022349
     2  Ti  -0.022349   2.930897
 Mulliken charges and spin densities:
               1          2
     1  H   -0.208466   0.091452
     2  Ti   0.208466   2.908548
 Sum of Mulliken charges =  -0.00000   3.00000
 Mulliken charges and spin densities with hydrogens summed into heavy atoms:
               1          2
     2  Ti  -0.000000   3.000000
 N-N= 6.467721466800D+00 E-N=-1.997663232580D+03  KE= 8.364648798852D+02
 Symmetry A1   KE= 6.595925865965D+02
 Symmetry A2   KE=-1.301620490898D-50
 Symmetry B1   KE= 8.843614664431D+01
 Symmetry B2   KE= 8.843614664431D+01
 Symmetry A1   SP= 1.000000000000D+00
 Symmetry A2   SP=-3.080692524929D-52
 Symmetry B1   SP= 1.000000000000D+00
 Symmetry B2   SP= 1.000000000000D+00

 Atomic contributions to Alpha molecular orbitals:
 Alpha occ 1 OE=-181.595 is Ti2-s=1.0000
 Alpha occ 2 OE=-21.369 is Ti2-s=0.9999
 Alpha occ 3 OE=-17.953 is Ti2-p=1.0000
 Alpha occ 4 OE=-17.953 is Ti2-p=1.0000
 Alpha occ 5 OE=-17.948 is Ti2-p=1.0000
 Alpha occ 6 OE=-2.992 is Ti2-s=0.9989
 Alpha occ 7 OE=-1.939 is Ti2-p=0.9987
 Alpha occ 8 OE=-1.927 is Ti2-p=0.9999
 Alpha occ 9 OE=-1.927 is Ti2-p=0.9999
 Alpha occ 10 OE=-0.367 is H1-s=0.5356 Ti2-s=0.3494
 Alpha occ 11 OE=-0.212 is Ti2-s=0.5545 Ti2-p=0.2432 H1-s=0.1122
 Alpha occ 12 OE=-0.139 is Ti2-d=0.7539 Ti2-p=0.2461
 Alpha occ 13 OE=-0.139 is Ti2-d=0.7539 Ti2-p=0.2461
 Alpha vir 14 OE=0.263 is Ti2-p=0.7540 Ti2-d=0.2460
 Alpha vir 15 OE=0.263 is Ti2-p=0.7540 Ti2-d=0.2460
 Alpha vir 16 OE=0.284 is Ti2-d=1.0000
 Alpha vir 17 OE=0.284 is Ti2-d=1.0000
 Alpha vir 18 OE=0.313 is Ti2-d=0.6434 Ti2-p=0.3554
 Alpha vir 19 OE=0.656 is H1-s=0.3525 Ti2-p=0.3359 Ti2-d=0.2182

 Atomic contributions to Beta  molecular orbitals:
 Beta  occ 1 OE=-181.590 is Ti2-s=1.0000
 Beta  occ 2 OE=-21.359 is Ti2-s=0.9999
 Beta  occ 3 OE=-17.947 is Ti2-p=1.0000
 Beta  occ 4 OE=-17.947 is Ti2-p=1.0000
 Beta  occ 5 OE=-17.940 is Ti2-p=1.0000
 Beta  occ 6 OE=-2.912 is Ti2-s=0.9987
 Beta  occ 7 OE=-1.852 is Ti2-p=0.9999
 Beta  occ 8 OE=-1.852 is Ti2-p=0.9999
 Beta  occ 9 OE=-1.809 is Ti2-p=0.9985
 Beta  occ 10 OE=-0.321 is H1-s=0.5560 Ti2-s=0.2378 Ti2-p=0.1466
 Beta  vir 11 OE=0.217 is Ti2-s=0.7069 Ti2-d=0.1484
 Beta  vir 12 OE=0.330 is Ti2-p=0.7899 Ti2-d=0.2101
 Beta  vir 13 OE=0.330 is Ti2-p=0.7899 Ti2-d=0.2101
 Beta  vir 14 OE=0.361 is Ti2-d=1.0000
 Beta  vir 15 OE=0.361 is Ti2-d=1.0000
 Beta  vir 16 OE=0.409 is Ti2-d=0.5903 Ti2-p=0.3875
 Beta  vir 17 OE=0.421 is Ti2-d=0.7898 Ti2-p=0.2102
 Beta  vir 18 OE=0.421 is Ti2-d=0.7898 Ti2-p=0.2102
 Beta  vir 19 OE=0.712 is Ti2-p=0.4057 H1-s=0.3583 Ti2-d=0.2015
 
 Leave Link  601 at Fri Mar 25 14:38:53 2022, MaxMem=  9663676416 cpu:               2.4 elap:               0.1
 (Enter /nopt/nrel/apps/gaussian/g16C_1/g16/l9999.exe)

 Test job not archived.
 1\1\GINC-R3I7N35\SP\UCCSD-FC\Gen\H1Ti1(4)\USER\25-Mar-2022\0\\#P C
 CSD/GEN sp pop=AllOrbitals iop(3/33=1,3/36=-1)\\test\\0,4\H,0,0.,0.,0.
 \Ti,0,0.,0.,1.8\\Version=ES64L-G16RevC.01\State=4-SG\HF=-840.1267143\M
 P2=-840.1408128\MP3=-840.1467839\MP4D=-840.149762\MP4DQ=-840.1496595\P
 UHF=-840.1269406\PMP2-0=-840.1409804\PMP3-0=-840.146911\MP4SDQ=-840.14
 97533\CCSD=-840.1621055\S2=3.753477\S2-1=3.751673\S2A=3.750002\RMSD=2.
 310e-09\PG=C*V [C*(H1Ti1)]\\@


 FESTINA LENTE!
     - IMPERATOR AUGUSTUS 
 Job cpu time:       0 days  0 hours  0 minutes 59.1 seconds.
 Elapsed time:       0 days  0 hours  0 minutes  2.1 seconds.
 File lengths (MBytes):  RWF=     13 Int=      0 D2E=      0 Chk=      1 Scr=      1
 Normal termination of Gaussian 16 at Fri Mar 25 14:38:54 2022.
