 Entering Gaussian System, Link 0=g16
 Initial command:
 /nopt/nrel/apps/gaussian/g16C_1/g16/l1.exe "/lustre/eaglefs/scratch/user/qc/nah-dissc/nah-3-ccsd-1.8-321g/Gau-1489.inp" -scrdir="/lustre/eaglefs/scratch/user/qc/nah-dissc/nah-3-ccsd-1.8-321g/"
 Default is to use a total of  36 processors:
                               36 via shared-memory
                                1 via Linda
 Entering Link 1 = /nopt/nrel/apps/gaussian/g16C_1/g16/l1.exe PID=      1490.
  
 Copyright (c) 1988-2019, Gaussian, Inc.  All Rights Reserved.
  
 This is part of the Gaussian(R) 16 program.  It is based on
 the Gaussian(R) 09 system (copyright 2009, Gaussian, Inc.),
 the Gaussian(R) 03 system (copyright 2003, Gaussian, Inc.),
 the Gaussian(R) 98 system (copyright 1998, Gaussian, Inc.),
 the Gaussian(R) 94 system (copyright 1995, Gaussian, Inc.),
 the Gaussian 92(TM) system (copyright 1992, Gaussian, Inc.),
 the Gaussian 90(TM) system (copyright 1990, Gaussian, Inc.),
 the Gaussian 88(TM) system (copyright 1988, Gaussian, Inc.),
 the Gaussian 86(TM) system (copyright 1986, Carnegie Mellon
 University), and the Gaussian 82(TM) system (copyright 1983,
 Carnegie Mellon University). Gaussian is a federally registered
 trademark of Gaussian, Inc.
  
 This software contains proprietary and confidential information,
 including trade secrets, belonging to Gaussian, Inc.
  
 This software is provided under written license and may be
 used, copied, transmitted, or stored only in accord with that
 written license.
  
 The following legend is applicable only to US Government
 contracts under FAR:
  
                    RESTRICTED RIGHTS LEGEND
  
 Use, reproduction and disclosure by the US Government is
 subject to restrictions as set forth in subparagraphs (a)
 and (c) of the Commercial Computer Software - Restricted
 Rights clause in FAR 52.227-19.
  
 Gaussian, Inc.
 340 Quinnipiac St., Bldg. 40, Wallingford CT 06492
  
  
 ---------------------------------------------------------------
 Warning -- This program may not be used in any manner that
 competes with the business of Gaussian, Inc. or will provide
 assistance to any competitor of Gaussian, Inc.  The licensee
 of this program is prohibited from giving any competitor of
 Gaussian, Inc. access to this program.  By using this program,
 the user acknowledges that Gaussian, Inc. is engaged in the
 business of creating and licensing software in the field of
 computational chemistry and represents and warrants to the
 licensee that it is not a competitor of Gaussian, Inc. and that
 it will not use this program in any manner prohibited above.
 ---------------------------------------------------------------
  

 Cite this work as:
 Gaussian 16, Revision C.01,
 M. J. Frisch, G. W. Trucks, H. B. Schlegel, G. E. Scuseria, 
 M. A. Robb, J. R. Cheeseman, G. Scalmani, V. Barone, 
 G. A. Petersson, H. Nakatsuji, X. Li, M. Caricato, A. V. Marenich, 
 J. Bloino, B. G. Janesko, R. Gomperts, B. Mennucci, H. P. Hratchian, 
 J. V. Ortiz, A. F. Izmaylov, J. L. Sonnenberg, D. Williams-Young, 
 F. Ding, F. Lipparini, F. Egidi, J. Goings, B. Peng, A. Petrone, 
 T. Henderson, D. Ranasinghe, V. G. Zakrzewski, J. Gao, N. Rega, 
 G. Zheng, W. Liang, M. Hada, M. Ehara, K. Toyota, R. Fukuda, 
 J. Hasegawa, M. Ishida, T. Nakajima, Y. Honda, O. Kitao, H. Nakai, 
 T. Vreven, K. Throssell, J. A. Montgomery, Jr., J. E. Peralta, 
 F. Ogliaro, M. J. Bearpark, J. J. Heyd, E. N. Brothers, K. N. Kudin, 
 V. N. Staroverov, T. A. Keith, R. Kobayashi, J. Normand, 
 K. Raghavachari, A. P. Rendell, J. C. Burant, S. S. Iyengar, 
 J. Tomasi, M. Cossi, J. M. Millam, M. Klene, C. Adamo, R. Cammi, 
 J. W. Ochterski, R. L. Martin, K. Morokuma, O. Farkas, 
 J. B. Foresman, and D. J. Fox, Gaussian, Inc., Wallingford CT, 2019.
 
 ******************************************
 Gaussian 16:  ES64L-G16RevC.01  3-Jul-2019
                28-Mar-2022 
 ******************************************
 %chk=molecule
 Default route: CacheSize=180224 MaxDisk=256GB
 ----------------------------------------------------------------------
 #P CCSD(MaxCyc=200,SaveAmplitudes,ReadAmplitudes)/GEN sp pop=AllOrbita
 ls iop(3/33=1,3/36=-1)
 ----------------------------------------------------------------------
 1/4=180224,38=1,172=1/1;
 2/4=180224,12=2,17=6,18=5,40=1/2;
 3/4=180224,5=7,11=9,25=1,30=1,33=1,36=-1/1,2,3;
 4/4=180224/1;
 5/4=180224,5=2,38=5/2;
 8/4=180224,6=4,9=120000,10=1,24=1/1,4;
 9/4=180224,5=7,6=200,77=1/13;
 6/4=180224,7=2,8=2,9=2,10=2,96=-1/1;
 99/4=180224,5=1,9=1/99;
 Leave Link    1 at Mon Mar 28 14:24:38 2022, MaxMem=           0 cpu:               2.0 elap:               0.1
 (Enter /nopt/nrel/apps/gaussian/g16C_1/g16/l101.exe)
 ----
 test
 ----
 Symbolic Z-matrix:
 Charge =  0 Multiplicity = 3
 H                     0.        0.        0. 
 Na                    0.        0.        1.8 
 
 ITRead=  0  0
 MicOpt= -1 -1
 NAtoms=      2 NQM=        2 NQMF=       0 NMMI=      0 NMMIF=      0
                NMic=       0 NMicF=      0.
                    Isotopes and Nuclear Properties:
 (Nuclear quadrupole moments (NQMom) in fm**2, nuclear magnetic moments (NMagM)
  in nuclear magnetons)

  Atom         1           2
 IAtWgt=           1          23
 AtmWgt=   1.0078250  22.9897697
 NucSpn=           1           3
 AtZEff=  -0.0000000  -0.0000000
 NQMom=    0.0000000  10.4000000
 NMagM=    2.7928460   2.2175200
 AtZNuc=   1.0000000  11.0000000
 Leave Link  101 at Mon Mar 28 14:24:38 2022, MaxMem=  9663676416 cpu:               3.0 elap:               0.1
 (Enter /nopt/nrel/apps/gaussian/g16C_1/g16/l202.exe)
                          Input orientation:                          
 ---------------------------------------------------------------------
 Center     Atomic      Atomic             Coordinates (Angstroms)
 Number     Number       Type             X           Y           Z
 ---------------------------------------------------------------------
      1          1           0        0.000000    0.000000    0.000000
      2         11           0        0.000000    0.000000    1.800000
 ---------------------------------------------------------------------
 Stoichiometry    HNa(3)
 Framework group  C*V[C*(HNa)]
 Deg. of freedom     1
 Full point group                 C*V     NOp   4
 Largest Abelian subgroup         C2V     NOp   4
 Largest concise Abelian subgroup C1      NOp   1
                         Standard orientation:                         
 ---------------------------------------------------------------------
 Center     Atomic      Atomic             Coordinates (Angstroms)
 Number     Number       Type             X           Y           Z
 ---------------------------------------------------------------------
      1          1           0        0.000000    0.000000   -1.650000
      2         11           0        0.000000    0.000000    0.150000
 ---------------------------------------------------------------------
 Rotational constants (GHZ):           0.0000000         161.5549021         161.5549021
 Leave Link  202 at Mon Mar 28 14:24:38 2022, MaxMem=  9663676416 cpu:               0.9 elap:               0.0
 (Enter /nopt/nrel/apps/gaussian/g16C_1/g16/l301.exe)
 General basis read from cards:  (5D, 7F)
                         Coordinates in L301:                         
 ---------------------------------------------------------------------
 Center     Atomic      Atomic             Coordinates (Angstroms)
 Number     Number       Type             X           Y           Z
 ---------------------------------------------------------------------
      1          1           0        0.000000    0.000000   -1.650000
      2         11           0        0.000000    0.000000    0.150000
 ---------------------------------------------------------------------
 Centers:       1
 STO-3G
 ****
 Centers:       2
 3-21G
 ****
 FixB: optimizing general contractions.
 Ernie: Thresh=  0.10000D-02 Tol=  0.10000D-05 Strict=F.
 IA=     1 ShT= 0 ShC= 0 NL=   1 NS=   0.
 IA=     1 L=0 SC=0 ISt=    0 NBk=    0 NP=    0 IndPr=    0.
 IA=     2 ShT= 0 ShC= 0 NL=   1 NS=   0.
 IA=     2 L=0 SC=0 ISt=    0 NBk=    0 NP=    0 IndPr=    0.
 IA=     2 ShT= 1 ShC= 0 NL=   3 NS=   1.
 IA=     2 L=1 SC=0 ISt=    1 NBk=    2 NP=    5 IndPr=    0.
 DoElim1:  L=1 select primitive    1 from    2 using    1 C=-1.12D-01
 DoElim2:  L=1 select primitive    5 from    1 using    2 C= 1.09D+00
 DoElim1:  L=1 select primitive    1 from    2 using    1 C= 1.28D-01
 DoElim2:  L=1 select primitive    5 from    1 using    2 C= 9.97D-01
 Delete L=1 primitive    3 from    2 C=  0.00D+00.
 Delete L=1 primitive    2 from    2 C=  0.00D+00.
 Delete L=1 primitive    1 from    2 C=  0.00D+00.
 Delete L=1 primitive    5 from    1 C=  0.00D+00.
 Delete L=1 primitive    4 from    1 C=  0.00D+00.
 IA=     2 L=1 SC=0 ISt=    0 NBk=    0 NP=    0 IndPr=    5.
 LdAtmC:  AtmChg=     1.000000    11.000000
 AtZEff=     -1.0000000    -10.0400000
 NEqShl: 
              1            2            3            4
     1            1            1            1            1
     2            2            2            2            2
     3            3            3            3            3
     4            4            4            4            4
     5            5            5            5            5
 NEqBas: 
              1            2            3            4
     1            1            1            1            1
     2            2            2            2            2
     3            3            3            3            3
     4            4           -4           -4            4
     5            5           -5            5           -5
     6            6            6            6            6
     7            7            7            7            7
     8            8           -8           -8            8
     9            9           -9            9           -9
    10           10           10           10           10
    11           11           11           11           11
    12           12          -12          -12           12
    13           13          -13           13          -13
    14           14           14           14           14
 There are     8 symmetry adapted cartesian basis functions of A1  symmetry.
   1         1   1   1   1
   2         2   2   2   2
   3         3   3   3   3
   4         6   6   6   6
   5         7   7   7   7
   6        10  10  10  10
   7        11  11  11  11
   8        14  14  14  14
 There are     0 symmetry adapted cartesian basis functions of A2  symmetry.
 There are     3 symmetry adapted cartesian basis functions of B1  symmetry.
   9         4   4   4   4
  10         8   8   8   8
  11        12  12  12  12
 There are     3 symmetry adapted cartesian basis functions of B2  symmetry.
  12         5   5   5   5
  13         9   9   9   9
  14        13  13  13  13
 Order= 1 2 4 3
 Reordered character table:
              1            2            3            4            5
     1            1            1            1            1            1
     2            2            1            1           -1           -1
     3            4            1           -1           -1            1
     4            3            1           -1            1           -1
 NEqShl: 
              1            2            3            4
     1            1            1            1            1
     2            2            2            2            2
     3            3            3            3            3
     4            4            4            4            4
     5            5            5            5            5
 NEqBas: 
              1            2            3            4
     1            1            1            1            1
     2            2            2            2            2
     3            3            3            3            3
     4            4           -4           -4            4
     5            5           -5            5           -5
     6            6            6            6            6
     7            7            7            7            7
     8            8           -8           -8            8
     9            9           -9            9           -9
    10           10           10           10           10
    11           11           11           11           11
    12           12          -12          -12           12
    13           13          -13           13          -13
    14           14           14           14           14
 There are     8 symmetry adapted basis functions of A1  symmetry.
   1         1   1   1   1
   2         2   2   2   2
   3         3   3   3   3
   4         6   6   6   6
   5         7   7   7   7
   6        10  10  10  10
   7        11  11  11  11
   8        14  14  14  14
 There are     0 symmetry adapted basis functions of A2  symmetry.
 There are     3 symmetry adapted basis functions of B1  symmetry.
   9         4   4   4   4
  10         8   8   8   8
  11        12  12  12  12
 There are     3 symmetry adapted basis functions of B2  symmetry.
  12         5   5   5   5
  13         9   9   9   9
  14        13  13  13  13
 Order= 1 2 4 3
 Reordered character table:
              1            2            3            4            5
     1            1            1            1            1            1
     2            2            1            1           -1           -1
     3            4            1           -1           -1            1
     4            3            1           -1            1           -1
    14 basis functions,    30 primitive gaussians,    14 cartesian basis functions
     7 alpha electrons        5 beta electrons
       nuclear repulsion energy         3.2338607334 Hartrees.
 IS=     1 IAt=     1 ISR=     1 T=0 IP=      1 IndIP=      1 IndIPD=      0 C=  2.769344D-01  0.000000D+00                             NZ=T
 IS=     1 IAt=     1 ISR=     1 T=0 IP=      2 IndIP=      2 IndIPD=      1 C=  2.678389D-01  0.000000D+00                             NZ=T
 IS=     1 IAt=     1 ISR=     1 T=0 IP=      3 IndIP=      3 IndIPD=      2 C=  8.347367D-02  0.000000D+00                             NZ=T
 IS=     2 IAt=     2 ISR=     1 T=0 IP=      1 IndIP=      4 IndIPD=      0 C=  5.445177D+00  0.000000D+00                             NZ=T
 IS=     2 IAt=     2 ISR=     1 T=0 IP=      2 IndIP=      5 IndIPD=      1 C=  7.646982D+00  0.000000D+00                             NZ=T
 IS=     2 IAt=     2 ISR=     1 T=0 IP=      3 IndIP=      6 IndIPD=      2 C=  4.092173D+00  0.000000D+00                             NZ=T
 IS=     3 IAt=     2 ISR=     2 T=1 IP=      1 IndIP=      7 IndIPD=      0 C= -6.837842D-01  6.561431D+00                             NZ=T
 IS=     3 IAt=     2 ISR=     2 T=1 IP=      2 IndIP=      8 IndIPD=      1 C=  4.933805D-01  3.558943D+00                             NZ=T
 IS=     3 IAt=     2 ISR=     2 T=1 IP=      3 IndIP=      9 IndIPD=      2 C=  5.590773D-01  7.618119D-01                             NZ=T
 IS=     4 IAt=     2 ISR=     3 T=1 IP=      1 IndIP=     10 IndIPD=      0 C= -9.334168D-02  5.458439D-03                             NZ=T
 IS=     4 IAt=     2 ISR=     3 T=1 IP=      2 IndIP=     11 IndIPD=      1 C=  9.521265D-02  4.304303D-02                             NZ=T
 IS=     5 IAt=     2 ISR=     4 T=1 IP=      1 IndIP=     12 IndIPD=      0 C=  4.404717D-02  1.377061D-02                             NZ=T
 IExCor=    0 DFT=F Ex=HF Corr=None ExCW=0 ScaHFX=  1.000000
 ScaDFX=  1.000000  1.000000  1.000000  1.000000 ScalE2=  1.000000  1.000000
 IRadAn=      5 IRanWt=     -1 IRanGd=            0 ICorTp=0 IEmpDi=  4
 NAtoms=    2 NActive=    2 NUniq=    2 SFac= 1.00D+00 NAtFMM=   60 NAOKFM=F Big=F
 Integral buffers will be    131072 words long.
 Raffenetti 2 integral format.
 Two-electron integral symmetry is turned on.
 Leave Link  301 at Mon Mar 28 14:24:38 2022, MaxMem=  9663676416 cpu:               2.2 elap:               0.1
 (Enter /nopt/nrel/apps/gaussian/g16C_1/g16/l302.exe)
 NPDir=0 NMtPBC=     1 NCelOv=     1 NCel=       1 NClECP=     1 NCelD=      1
         NCelK=      1 NCelE2=     1 NClLst=     1 CellRange=     0.0.
 One-electron integrals computed using PRISM.
 One-electron integral symmetry used in STVInt
 Entering OneElI...
 Calculate overlap and kinetic energy integrals
    NBasis =  14  MinDer = 0  MaxDer = 0
 Requested accuracy = 0.1000D-12
 Symmetry will be used
 PrmmSu-InSpLW:  IPartL=    0 NPrtUS=   36 NPrtUL=    1 DoSpLW=F IThBeg=    0 IThEnd=   35 NThAct=   36.
 PrSmSu:  IncTry=   512 NBBP=             15 NTPThr=   100 NPartT=   36 Incr=           1 LDynOK=F GPUOK=F.
 PrsmSu:  NPrtUS=  36 ThrOK=T IAlg=1 LenDen=           0 ISkipM=0 DoSpLW=F IThBeg=    0 IThEnd=   35.
 Prism:   IPart=     0 DynPar=F LinDyn=F Incr=           1.
 PRISM was handed   268433825 working-precision words and    15 shell-pairs
 PRISM was handed   268433825 working-precision words and    15 shell-pairs
 PRISM was handed   268433825 working-precision words and    15 shell-pairs
 PRISM was handed   268433825 working-precision words and    15 shell-pairs
 PRISM was handed   268433825 working-precision words and    15 shell-pairs
 PRISM was handed   268433825 working-precision words and    15 shell-pairs
 PRISM was handed   268433825 working-precision words and    15 shell-pairs
 PRISM was handed   268433825 working-precision words and    15 shell-pairs
 PRISM was handed   268433825 working-precision words and    15 shell-pairs
 PRISM was handed   268433825 working-precision words and    15 shell-pairs
 PRISM was handed   268433825 working-precision words and    15 shell-pairs
 PRISM was handed   268433825 working-precision words and    15 shell-pairs
 IPart= 21 NShTot=           0 NBatch=           0 AvBLen=         0.0
 IPart=  4 NShTot=           0 NBatch=           0 AvBLen=         0.0
 IPart= 28 NShTot=           0 NBatch=           0 AvBLen=         0.0
 IPart= 31 NShTot=           0 NBatch=           0 AvBLen=         0.0
 IPart= 10 NShTot=           0 NBatch=           0 AvBLen=         0.0
 IPart= 32 NShTot=           0 NBatch=           0 AvBLen=         0.0
 IPart=  3 NShTot=           0 NBatch=           0 AvBLen=         0.0
 IPart= 30 NShTot=           0 NBatch=           0 AvBLen=         0.0
 IPart= 33 NShTot=           0 NBatch=           0 AvBLen=         0.0
 PRISM was handed   268433825 working-precision words and    15 shell-pairs
 IPart= 23 NShTot=           0 NBatch=           0 AvBLen=         0.0
 PRISM was handed   268433825 working-precision words and    15 shell-pairs
 IPart=  1 NShTot=           4 NBatch=           4 AvBLen=         1.0
 IPart= 22 NShTot=           0 NBatch=           0 AvBLen=         0.0
 PRISM was handed   268433825 working-precision words and    15 shell-pairs
 PRISM was handed   268433825 working-precision words and    15 shell-pairs
 PRISM was handed   268433825 working-precision words and    15 shell-pairs
 IPart=  7 NShTot=           0 NBatch=           0 AvBLen=         0.0
 IPart=  0 NShTot=          10 NBatch=          10 AvBLen=         1.0
 PRISM was handed   268433825 working-precision words and    15 shell-pairs
 IPart= 35 NShTot=           0 NBatch=           0 AvBLen=         0.0
 IPart= 20 NShTot=           0 NBatch=           0 AvBLen=         0.0
 IPart= 34 NShTot=           0 NBatch=           0 AvBLen=         0.0
 PRISM was handed   268433825 working-precision words and    15 shell-pairs
 PRISM was handed   268433825 working-precision words and    15 shell-pairs
 PRISM was handed   268433825 working-precision words and    15 shell-pairs
 PRISM was handed   268433825 working-precision words and    15 shell-pairs
 PRISM was handed   268433825 working-precision words and    15 shell-pairs
 PRISM was handed   268433825 working-precision words and    15 shell-pairs
 PRISM was handed   268433825 working-precision words and    15 shell-pairs
 PRISM was handed   268433825 working-precision words and    15 shell-pairs
 IPart= 16 NShTot=           0 NBatch=           0 AvBLen=         0.0
 PRISM was handed   268433825 working-precision words and    15 shell-pairs
 PRISM was handed   268433825 working-precision words and    15 shell-pairs
 PRISM was handed   268433825 working-precision words and    15 shell-pairs
 IPart=  2 NShTot=           1 NBatch=           1 AvBLen=         1.0
 IPart= 24 NShTot=           0 NBatch=           0 AvBLen=         0.0
 IPart= 26 NShTot=           0 NBatch=           0 AvBLen=         0.0
 IPart=  5 NShTot=           0 NBatch=           0 AvBLen=         0.0
 PRISM was handed   268433825 working-precision words and    15 shell-pairs
 IPart= 27 NShTot=           0 NBatch=           0 AvBLen=         0.0
 IPart= 17 NShTot=           0 NBatch=           0 AvBLen=         0.0
 PRISM was handed   268433825 working-precision words and    15 shell-pairs
 IPart=  9 NShTot=           0 NBatch=           0 AvBLen=         0.0
 IPart= 12 NShTot=           0 NBatch=           0 AvBLen=         0.0
 IPart=  8 NShTot=           0 NBatch=           0 AvBLen=         0.0
 PRISM was handed   268433825 working-precision words and    15 shell-pairs
 IPart= 29 NShTot=           0 NBatch=           0 AvBLen=         0.0
 PRISM was handed   268433825 working-precision words and    15 shell-pairs
 IPart= 14 NShTot=           0 NBatch=           0 AvBLen=         0.0
 PRISM was handed   268433825 working-precision words and    15 shell-pairs
 PRISM was handed   268433825 working-precision words and    15 shell-pairs
 PRISM was handed   268433825 working-precision words and    15 shell-pairs
 IPart=  6 NShTot=           0 NBatch=           0 AvBLen=         0.0
 IPart= 13 NShTot=           0 NBatch=           0 AvBLen=         0.0
 IPart= 11 NShTot=           0 NBatch=           0 AvBLen=         0.0
 IPart= 19 NShTot=           0 NBatch=           0 AvBLen=         0.0
 IPart= 18 NShTot=           0 NBatch=           0 AvBLen=         0.0
 IPart= 15 NShTot=           0 NBatch=           0 AvBLen=         0.0
 IPart= 25 NShTot=           0 NBatch=           0 AvBLen=         0.0
 PrSmSu:  NxtVal=             37.
 *** Overlap *** 
                1             2             3             4             5 
      1  0.100000D+01
      2  0.442999D-02  0.100000D+01
      3  0.550540D-01  0.226762D+00  0.100000D+01
      4  0.000000D+00  0.000000D+00  0.000000D+00  0.100000D+01
      5  0.000000D+00  0.000000D+00  0.000000D+00  0.000000D+00  0.100000D+01
      6 -0.497797D-01  0.000000D+00  0.000000D+00  0.000000D+00  0.000000D+00
      7  0.359266D+00  0.175172D-02  0.143132D+00  0.000000D+00  0.000000D+00
      8  0.000000D+00  0.000000D+00  0.000000D+00  0.120813D+00  0.000000D+00
      9  0.000000D+00  0.000000D+00  0.000000D+00  0.000000D+00  0.120813D+00
     10 -0.473494D+00  0.000000D+00  0.000000D+00  0.000000D+00  0.000000D+00
     11  0.292067D+00  0.160858D-01  0.166618D+00  0.000000D+00  0.000000D+00
     12  0.000000D+00  0.000000D+00  0.000000D+00  0.399192D-01  0.000000D+00
     13  0.000000D+00  0.000000D+00  0.000000D+00  0.000000D+00  0.399192D-01
     14 -0.281389D+00  0.000000D+00  0.000000D+00  0.000000D+00  0.000000D+00
                6             7             8             9            10 
      6  0.100000D+01
      7  0.000000D+00  0.100000D+01
      8  0.000000D+00  0.000000D+00  0.100000D+01
      9  0.000000D+00  0.000000D+00  0.000000D+00  0.100000D+01
     10  0.120813D+00  0.000000D+00  0.000000D+00  0.000000D+00  0.100000D+01
     11  0.000000D+00  0.876080D+00  0.000000D+00  0.000000D+00  0.000000D+00
     12  0.000000D+00  0.000000D+00  0.775774D+00  0.000000D+00  0.000000D+00
     13  0.000000D+00  0.000000D+00  0.000000D+00  0.775774D+00  0.000000D+00
     14  0.399192D-01  0.000000D+00  0.000000D+00  0.000000D+00  0.775774D+00
               11            12            13            14 
     11  0.100000D+01
     12  0.000000D+00  0.100000D+01
     13  0.000000D+00  0.000000D+00  0.100000D+01
     14  0.000000D+00  0.000000D+00  0.000000D+00  0.100000D+01
 *** Kinetic Energy *** 
                1             2             3             4             5 
      1  0.760032D+00
      2 -0.120368D-02  0.570648D+02
      3 -0.158472D-01 -0.145971D+01  0.183414D+01
      4  0.000000D+00  0.000000D+00  0.000000D+00  0.585712D+01
      5  0.000000D+00  0.000000D+00  0.000000D+00  0.000000D+00  0.585712D+01
      6  0.927309D-02  0.000000D+00  0.000000D+00  0.000000D+00  0.000000D+00
      7  0.393313D-01 -0.420609D-01 -0.141303D+00  0.000000D+00  0.000000D+00
      8  0.000000D+00  0.000000D+00  0.000000D+00  0.441422D-01  0.000000D+00
      9  0.000000D+00  0.000000D+00  0.000000D+00  0.000000D+00  0.441422D-01
     10 -0.897547D-01  0.000000D+00  0.000000D+00  0.000000D+00  0.000000D+00
     11  0.160770D-01  0.117775D-02  0.119127D-01  0.000000D+00  0.000000D+00
     12  0.000000D+00  0.000000D+00  0.000000D+00  0.476129D-02  0.000000D+00
     13  0.000000D+00  0.000000D+00  0.000000D+00  0.000000D+00  0.476129D-02
     14 -0.280055D-01  0.000000D+00  0.000000D+00  0.000000D+00  0.000000D+00
                6             7             8             9            10 
      6  0.585712D+01
      7  0.000000D+00  0.106538D+00
      8  0.000000D+00  0.000000D+00  0.153112D+00
      9  0.000000D+00  0.000000D+00  0.000000D+00  0.153112D+00
     10  0.441422D-01  0.000000D+00  0.000000D+00  0.000000D+00  0.153112D+00
     11  0.000000D+00  0.447876D-01  0.000000D+00  0.000000D+00  0.000000D+00
     12  0.000000D+00  0.000000D+00  0.676855D-01  0.000000D+00  0.000000D+00
     13  0.000000D+00  0.000000D+00  0.000000D+00  0.676855D-01  0.000000D+00
     14  0.476129D-02  0.000000D+00  0.000000D+00  0.000000D+00  0.676855D-01
               11            12            13            14 
     11  0.366524D-01
     12  0.000000D+00  0.610873D-01
     13  0.000000D+00  0.000000D+00  0.610873D-01
     14  0.000000D+00  0.000000D+00  0.000000D+00  0.610873D-01
 Entering OneElI...
 Calculate potential energy integrals
    NBasis =  14  MinDer = 0  MaxDer = 0
 Requested accuracy = 0.1000D-12
 Symmetry will be used
 PrmmSu-InSpLW:  IPartL=    0 NPrtUS=   36 NPrtUL=    1 DoSpLW=F IThBeg=    0 IThEnd=   35 NThAct=   36.
 PrSmSu:  IncTry=   512 NBBP=             30 NTPThr=   100 NPartT=   36 Incr=           1 LDynOK=F GPUOK=F.
 PrsmSu:  NPrtUS=  36 ThrOK=T IAlg=1 LenDen=           0 ISkipM=0 DoSpLW=F IThBeg=    0 IThEnd=   35.
 Prism:   IPart=     0 DynPar=F LinDyn=F Incr=           1.
 PRISM was handed   268433948 working-precision words and    15 shell-pairs
 PRISM was handed   268433948 working-precision words and    15 shell-pairs
 PRISM was handed   268433948 working-precision words and    15 shell-pairs
 PRISM was handed   268433948 working-precision words and    15 shell-pairs
 PRISM was handed   268433948 working-precision words and    15 shell-pairs
 PRISM was handed   268433948 working-precision words and    15 shell-pairs
 PRISM was handed   268433948 working-precision words and    15 shell-pairs
 PRISM was handed   268433948 working-precision words and    15 shell-pairs
 PRISM was handed   268433948 working-precision words and    15 shell-pairs
 PRISM was handed   268433948 working-precision words and    15 shell-pairs
 PRISM was handed   268433948 working-precision words and    15 shell-pairs
 PRISM was handed   268433948 working-precision words and    15 shell-pairs
 PRISM was handed   268433948 working-precision words and    15 shell-pairs
 PRISM was handed   268433948 working-precision words and    15 shell-pairs
 PRISM was handed   268433948 working-precision words and    15 shell-pairs
 PRISM was handed   268433948 working-precision words and    15 shell-pairs
 PRISM was handed   268433948 working-precision words and    15 shell-pairs
 PRISM was handed   268433948 working-precision words and    15 shell-pairs
 PRISM was handed   268433948 working-precision words and    15 shell-pairs
 PRISM was handed   268433948 working-precision words and    15 shell-pairs
 PRISM was handed   268433948 working-precision words and    15 shell-pairs
 PRISM was handed   268433948 working-precision words and    15 shell-pairs
 PRISM was handed   268433948 working-precision words and    15 shell-pairs
 PRISM was handed   268433948 working-precision words and    15 shell-pairs
 PRISM was handed   268433948 working-precision words and    15 shell-pairs
 PRISM was handed   268433948 working-precision words and    15 shell-pairs
 PRISM was handed   268433948 working-precision words and    15 shell-pairs
 PRISM was handed   268433948 working-precision words and    15 shell-pairs
 PRISM was handed   268433948 working-precision words and    15 shell-pairs
 PRISM was handed   268433948 working-precision words and    15 shell-pairs
 PRISM was handed   268433948 working-precision words and    15 shell-pairs
 PRISM was handed   268433948 working-precision words and    15 shell-pairs
 PRISM was handed   268433948 working-precision words and    15 shell-pairs
 PRISM was handed   268433948 working-precision words and    15 shell-pairs
 PRISM was handed   268433948 working-precision words and    15 shell-pairs
 PRISM was handed   268433948 working-precision words and    15 shell-pairs
 IPart=  2 NShTot=           0 NBatch=           0 AvBLen=         0.0
 IPart=  0 NShTot=          24 NBatch=          12 AvBLen=         2.0
 IPart=  1 NShTot=           6 NBatch=           3 AvBLen=         2.0
 IPart= 18 NShTot=           0 NBatch=           0 AvBLen=         0.0
 IPart= 21 NShTot=           0 NBatch=           0 AvBLen=         0.0
 IPart= 34 NShTot=           0 NBatch=           0 AvBLen=         0.0
 IPart= 12 NShTot=           0 NBatch=           0 AvBLen=         0.0
 IPart= 11 NShTot=           0 NBatch=           0 AvBLen=         0.0
 IPart=  8 NShTot=           0 NBatch=           0 AvBLen=         0.0
 IPart= 22 NShTot=           0 NBatch=           0 AvBLen=         0.0
 IPart= 25 NShTot=           0 NBatch=           0 AvBLen=         0.0
 IPart=  3 NShTot=           0 NBatch=           0 AvBLen=         0.0
 IPart= 30 NShTot=           0 NBatch=           0 AvBLen=         0.0
 IPart= 32 NShTot=           0 NBatch=           0 AvBLen=         0.0
 IPart=  4 NShTot=           0 NBatch=           0 AvBLen=         0.0
 IPart= 28 NShTot=           0 NBatch=           0 AvBLen=         0.0
 IPart= 35 NShTot=           0 NBatch=           0 AvBLen=         0.0
 IPart= 31 NShTot=           0 NBatch=           0 AvBLen=         0.0
 IPart= 17 NShTot=           0 NBatch=           0 AvBLen=         0.0
 IPart=  9 NShTot=           0 NBatch=           0 AvBLen=         0.0
 IPart= 27 NShTot=           0 NBatch=           0 AvBLen=         0.0
 IPart= 26 NShTot=           0 NBatch=           0 AvBLen=         0.0
 IPart=  6 NShTot=           0 NBatch=           0 AvBLen=         0.0
 IPart= 19 NShTot=           0 NBatch=           0 AvBLen=         0.0
 IPart= 10 NShTot=           0 NBatch=           0 AvBLen=         0.0
 IPart=  5 NShTot=           0 NBatch=           0 AvBLen=         0.0
 IPart= 20 NShTot=           0 NBatch=           0 AvBLen=         0.0
 IPart=  7 NShTot=           0 NBatch=           0 AvBLen=         0.0
 IPart= 14 NShTot=           0 NBatch=           0 AvBLen=         0.0
 IPart= 15 NShTot=           0 NBatch=           0 AvBLen=         0.0
 IPart= 29 NShTot=           0 NBatch=           0 AvBLen=         0.0
 IPart= 23 NShTot=           0 NBatch=           0 AvBLen=         0.0
 IPart= 24 NShTot=           0 NBatch=           0 AvBLen=         0.0
 IPart= 13 NShTot=           0 NBatch=           0 AvBLen=         0.0
 IPart= 33 NShTot=           0 NBatch=           0 AvBLen=         0.0
 IPart= 16 NShTot=           0 NBatch=           0 AvBLen=         0.0
 PrSmSu:  NxtVal=             37.
 ***** Potential Energy ***** 
                1             2             3             4             5 
      1  0.445714D+01
      2  0.280404D+00  0.117448D+03
      3  0.669928D+00  0.128094D+02  0.184102D+02
      4  0.000000D+00  0.000000D+00  0.000000D+00  0.189274D+02
      5  0.000000D+00  0.000000D+00  0.000000D+00  0.000000D+00  0.189274D+02
      6 -0.455772D+00 -0.325964D-02 -0.381702D-01  0.000000D+00  0.000000D+00
      7  0.153143D+01  0.829439D-01  0.137418D+01  0.000000D+00  0.000000D+00
      8  0.000000D+00  0.000000D+00  0.000000D+00  0.117494D+01  0.000000D+00
      9  0.000000D+00  0.000000D+00  0.000000D+00  0.000000D+00  0.117494D+01
     10 -0.187272D+01 -0.371930D-04 -0.678876D-02  0.000000D+00  0.000000D+00
     11  0.119561D+01  0.102178D+01  0.215223D+01  0.000000D+00  0.000000D+00
     12  0.000000D+00  0.000000D+00  0.000000D+00  0.374342D+00  0.000000D+00
     13  0.000000D+00  0.000000D+00  0.000000D+00  0.000000D+00  0.374342D+00
     14 -0.100939D+01 -0.106820D-04 -0.227134D-02  0.000000D+00  0.000000D+00
                6             7             8             9            10 
      6  0.189389D+02
      7 -0.124047D-01  0.381890D+01
      8  0.000000D+00  0.000000D+00  0.311424D+01
      9  0.000000D+00  0.000000D+00  0.000000D+00  0.311424D+01
     10  0.117914D+01 -0.106597D+00  0.000000D+00  0.000000D+00  0.319931D+01
     11 -0.110350D-01  0.306850D+01  0.000000D+00  0.000000D+00 -0.907857D-01
     12  0.000000D+00  0.000000D+00  0.202240D+01  0.000000D+00  0.000000D+00
     13  0.000000D+00  0.000000D+00  0.000000D+00  0.202240D+01  0.000000D+00
     14  0.375819D+00 -0.610565D-01  0.000000D+00  0.000000D+00  0.207348D+01
               11            12            13            14 
     11  0.295334D+01
     12  0.000000D+00  0.197882D+01
     13  0.000000D+00  0.000000D+00  0.197882D+01
     14 -0.636873D-01  0.000000D+00  0.000000D+00  0.201677D+01
 ****** Core Hamiltonian ****** 
                1             2             3             4             5 
      1 -0.369711D+01
      2 -0.281608D+00 -0.603835D+02
      3 -0.685776D+00 -0.142691D+02 -0.165761D+02
      4  0.000000D+00  0.000000D+00  0.000000D+00 -0.130703D+02
      5  0.000000D+00  0.000000D+00  0.000000D+00  0.000000D+00 -0.130703D+02
      6  0.465045D+00  0.325964D-02  0.381702D-01  0.000000D+00  0.000000D+00
      7 -0.149210D+01 -0.125005D+00 -0.151548D+01  0.000000D+00  0.000000D+00
      8  0.000000D+00  0.000000D+00  0.000000D+00 -0.113080D+01  0.000000D+00
      9  0.000000D+00  0.000000D+00  0.000000D+00  0.000000D+00 -0.113080D+01
     10  0.178297D+01  0.371930D-04  0.678876D-02  0.000000D+00  0.000000D+00
     11 -0.117953D+01 -0.102060D+01 -0.214032D+01  0.000000D+00  0.000000D+00
     12  0.000000D+00  0.000000D+00  0.000000D+00 -0.369580D+00  0.000000D+00
     13  0.000000D+00  0.000000D+00  0.000000D+00  0.000000D+00 -0.369580D+00
     14  0.981382D+00  0.106820D-04  0.227134D-02  0.000000D+00  0.000000D+00
                6             7             8             9            10 
      6 -0.130818D+02
      7  0.124047D-01 -0.371236D+01
      8  0.000000D+00  0.000000D+00 -0.296113D+01
      9  0.000000D+00  0.000000D+00  0.000000D+00 -0.296113D+01
     10 -0.113499D+01  0.106597D+00  0.000000D+00  0.000000D+00 -0.304619D+01
     11  0.110350D-01 -0.302371D+01  0.000000D+00  0.000000D+00  0.907857D-01
     12  0.000000D+00  0.000000D+00 -0.195471D+01  0.000000D+00  0.000000D+00
     13  0.000000D+00  0.000000D+00  0.000000D+00 -0.195471D+01  0.000000D+00
     14 -0.371058D+00  0.610565D-01  0.000000D+00  0.000000D+00 -0.200580D+01
               11            12            13            14 
     11 -0.291669D+01
     12  0.000000D+00 -0.191773D+01
     13  0.000000D+00  0.000000D+00 -0.191773D+01
     14  0.636873D-01  0.000000D+00  0.000000D+00 -0.195568D+01
 SVDSVc IOpt=   1 NormSV=T IR=1
 SVDSVc V= 2.26D+00 1.86D+00 1.19D+00 9.88D-01 7.57D-01 6.28D-01 1.87D-01 1.18D-01
 SVDSVc IOpt=   1 NormSV=T IR=3
 SVDSVc V= 1.79D+00 9.88D-01 2.20D-01
 SVDSVc IOpt=   1 NormSV=T IR=4
 SVDSVc V= 1.79D+00 9.88D-01 2.20D-01
 TstOVc:  Largest diagonal error= 2.66D-15 IB=1 I=    7.
 TstOVc:  Largest same sym error= 7.84D-16 IB=1 I=    6 J=    1.
 TstOVc:  Largest diff sym error= 0.00D+00 IB=0 JB=0 I=    0 J=    0.
 Orthogonalized basis functions: 
                 1             2             3             4             5 
      1   0.322941D+00 -0.727148D-01 -0.604460D-01  0.302288D-01 -0.154523D+00
      2   0.223624D-01  0.396600D-01  0.675516D+00  0.802480D-02 -0.768206D+00
      3   0.941020D-01  0.126102D+00  0.589608D+00 -0.531252D-04  0.831112D+00
      4   0.000000D+00  0.000000D+00  0.000000D+00  0.000000D+00  0.000000D+00
      5   0.000000D+00  0.000000D+00  0.000000D+00  0.000000D+00  0.000000D+00
      6  -0.466037D-01  0.745951D-01 -0.131940D-01  0.995270D+00 -0.315637D-02
      7   0.314676D+00  0.333345D+00 -0.126866D+00 -0.100524D-01 -0.788438D-01
      8   0.000000D+00  0.000000D+00  0.000000D+00  0.000000D+00  0.000000D+00
      9   0.000000D+00  0.000000D+00  0.000000D+00  0.000000D+00  0.000000D+00
     10  -0.274132D+00  0.381845D+00 -0.320120D-01 -0.382152D-01 -0.293555D-01
     11   0.305713D+00  0.338180D+00 -0.101100D+00 -0.122706D-01 -0.489918D-01
     12   0.000000D+00  0.000000D+00  0.000000D+00  0.000000D+00  0.000000D+00
     13   0.000000D+00  0.000000D+00  0.000000D+00  0.000000D+00  0.000000D+00
     14  -0.241850D+00  0.369652D+00 -0.428765D-01 -0.135974D+00 -0.846179D-01
                 6             7             8             9            10 
      1   0.102739D+01  0.544479D+00 -0.329611D+00  0.000000D+00  0.000000D+00
      2  -0.799556D-01  0.124424D-02  0.206893D-01  0.000000D+00  0.000000D+00
      3   0.137750D+00  0.115295D-01  0.491266D-01  0.000000D+00  0.000000D+00
      4   0.000000D+00  0.000000D+00  0.000000D+00  0.106366D+00  0.993078D+00
      5   0.000000D+00  0.000000D+00  0.000000D+00  0.000000D+00  0.000000D+00
      6   0.450591D-01 -0.147979D+00  0.234573D-01  0.000000D+00  0.000000D+00
      7  -0.218121D+00  0.183314D+00  0.207534D+01  0.000000D+00  0.000000D+00
      8   0.000000D+00  0.000000D+00  0.000000D+00  0.525558D+00 -0.486986D-01
      9   0.000000D+00  0.000000D+00  0.000000D+00  0.000000D+00  0.000000D+00
     10   0.946295D-01  0.168790D+01 -0.383379D+00  0.000000D+00  0.000000D+00
     11  -0.350992D+00 -0.395356D+00 -0.196208D+01  0.000000D+00  0.000000D+00
     12   0.000000D+00  0.000000D+00  0.000000D+00  0.520070D+00 -0.153894D+00
     13   0.000000D+00  0.000000D+00  0.000000D+00  0.000000D+00  0.000000D+00
     14   0.574648D+00 -0.141429D+01  0.231007D+00  0.000000D+00  0.000000D+00
                11            12            13            14 
      1   0.000000D+00  0.000000D+00  0.000000D+00  0.000000D+00
      2   0.000000D+00  0.000000D+00  0.000000D+00  0.000000D+00
      3   0.000000D+00  0.000000D+00  0.000000D+00  0.000000D+00
      4  -0.157598D+00  0.000000D+00  0.000000D+00  0.000000D+00
      5   0.000000D+00  0.106366D+00  0.993078D+00 -0.157598D+00
      6   0.000000D+00  0.000000D+00  0.000000D+00  0.000000D+00
      7   0.000000D+00  0.000000D+00  0.000000D+00  0.000000D+00
      8   0.151160D+01  0.000000D+00  0.000000D+00  0.000000D+00
      9   0.000000D+00  0.525558D+00 -0.486986D-01  0.151160D+01
     10   0.000000D+00  0.000000D+00  0.000000D+00  0.000000D+00
     11   0.000000D+00  0.000000D+00  0.000000D+00  0.000000D+00
     12  -0.149532D+01  0.000000D+00  0.000000D+00  0.000000D+00
     13   0.000000D+00  0.520070D+00 -0.153894D+00 -0.149532D+01
     14   0.000000D+00  0.000000D+00  0.000000D+00  0.000000D+00
 NBasis=    14 RedAO= T EigKep=  1.18D-01  NBF=     8     0     3     3
 NBsUse=    14 1.00D-06 EigRej= -1.00D+00 NBFU=     8     0     3     3
 Leave Link  302 at Mon Mar 28 14:24:38 2022, MaxMem=  9663676416 cpu:               2.9 elap:               0.1
 (Enter /nopt/nrel/apps/gaussian/g16C_1/g16/l303.exe)
 DipDrv will not compute anything.
 Fermi contact integrals: 
                 1             2 
      1   0.628247D+00  0.120285D-01
      2   0.000000D+00  0.171843D+02
      3   0.155848D-04  0.368674D+00
      4   0.000000D+00  0.000000D+00
      5   0.000000D+00  0.000000D+00
      6  -0.722350D-04  0.000000D+00
      7   0.467571D-01  0.187097D-02
      8   0.000000D+00  0.000000D+00
      9   0.000000D+00  0.000000D+00
     10  -0.723874D-01  0.000000D+00
     11   0.331998D-01  0.440472D-01
     12   0.000000D+00  0.000000D+00
     13   0.000000D+00  0.000000D+00
     14  -0.353055D-01  0.000000D+00
 Leave Link  303 at Mon Mar 28 14:24:38 2022, MaxMem=  9663676416 cpu:               0.9 elap:               0.0
 (Enter /nopt/nrel/apps/gaussian/g16C_1/g16/l401.exe)
 ExpMin= 2.44D-02 ExpMax= 5.48D+02 ExpMxC= 5.48D+02 IAcc=3 IRadAn=         5 AccDes= 0.00D+00
 Harris functional with IExCor=  205 and IRadAn=       5 diagonalized for initial guess.
 HarFok:  IExCor=  205 AccDes= 0.00D+00 IRadAn=         5 IDoV= 1 UseB2=F ITyADJ=14
 ICtDFT=  3500011 ScaDFX=  1.000000  1.000000  1.000000  1.000000
 FoFCou: FMM=F IPFlag=           0 FMFlag=      100000 FMFlg1=           0
         NFxFlg=           0 DoJE=T BraDBF=F KetDBF=T FulRan=T
         wScrn=  0.000000 ICntrl=       500 IOpCl=  0 I1Cent=   200000004 NGrid=           0
         NMat0=    1 NMatS0=      1 NMatT0=    0 NMatD0=    1 NMtDS0=    0 NMtDT0=    0
 Petite list used in FoFCou.
 Harris En= -161.030469015692    
 JPrj=0 DoOrth=F DoCkMO=F.
 Initial guess orbital symmetries:
 Alpha Orbitals:
       Occupied  (SG) (SG) (SG) (PI) (PI) (SG) (SG)
       Virtual   (PI) (PI) (SG) (SG) (PI) (PI) (SG)
 Beta  Orbitals:
       Occupied  (SG) (SG) (SG) (PI) (PI)
       Virtual   (SG) (SG) (PI) (PI) (SG) (SG) (PI) (PI) (SG)
 The electronic state of the initial guess is 3-SG.
 Initial guess <Sx>= 0.0000 <Sy>= 0.0000 <Sz>= 1.0000 <S**2>= 2.0000 S= 1.0000
 Leave Link  401 at Mon Mar 28 14:24:38 2022, MaxMem=  9663676416 cpu:               4.6 elap:               0.2
 (Enter /nopt/nrel/apps/gaussian/g16C_1/g16/l502.exe)
 Keep R1 and R2 ints in memory in symmetry-blocked form, NReq=7213197.
 FoFCou: FMM=F IPFlag=           0 FMFlag=           0 FMFlg1=           0
         NFxFlg=           0 DoJE=F BraDBF=F KetDBF=F FulRan=T
         wScrn=  0.000000 ICntrl=       600 IOpCl=  0 I1Cent=           0 NGrid=           0
         NMat0=    1 NMatS0=    105 NMatT0=    0 NMatD0=    1 NMtDS0=    0 NMtDT0=    0
 Petite list used in FoFCou.
 UHF open shell SCF:
 Using DIIS extrapolation, IDIIS=  1040.
 NGot=  9663676416 LenX=  9663669932 LenY=  9663669050
 Requested convergence on RMS density matrix=1.00D-08 within 128 cycles.
 Requested convergence on MAX density matrix=1.00D-06.
 Requested convergence on             energy=1.00D-06.
 No special actions if energy rises.

 Cycle   1  Pass 1  IDiag  1:
 E= -161.279152207908    
 DIIS: error= 3.51D-02 at cycle   1 NSaved=   1.
 NSaved= 1 IEnMin= 1 EnMin= -161.279152207908     IErMin= 1 ErrMin= 3.51D-02
 ErrMax= 3.51D-02  0.00D+00 EMaxC= 1.00D-01 BMatC= 4.07D-02 BMatP= 4.07D-02
 IDIUse=3 WtCom= 6.49D-01 WtEn= 3.51D-01
 Coeff-Com:  0.100D+01
 Coeff-En:   0.100D+01
 Coeff:      0.100D+01
 Gap=     0.189 Goal=   None    Shift=    0.000
 Gap=     1.498 Goal=   None    Shift=    0.000
 GapD=    0.189 DampG=1.000 DampE=0.500 DampFc=0.5000 IDamp=-1.
 Damping current iteration by 5.00D-01
 RMSDP=1.24D-02 MaxDP=1.61D-01              OVMax= 2.62D-02

 Cycle   2  Pass 1  IDiag  1:
 E= -161.287912473534     Delta-E=       -0.008760265626 Rises=F Damp=T
 DIIS: error= 2.33D-02 at cycle   2 NSaved=   2.
 NSaved= 2 IEnMin= 2 EnMin= -161.287912473534     IErMin= 2 ErrMin= 2.33D-02
 ErrMax= 2.33D-02  0.00D+00 EMaxC= 1.00D-01 BMatC= 1.42D-02 BMatP= 4.07D-02
 IDIUse=3 WtCom= 7.67D-01 WtEn= 2.33D-01
 Coeff-Com: -0.136D+01 0.236D+01
 Coeff-En:   0.000D+00 0.100D+01
 Coeff:     -0.104D+01 0.204D+01
 Gap=     0.181 Goal=   None    Shift=    0.000
 Gap=     1.464 Goal=   None    Shift=    0.000
 RMSDP=9.67D-03 MaxDP=1.38D-01 DE=-8.76D-03 OVMax= 3.88D-03

 Cycle   3  Pass 1  IDiag  1:
 E= -161.300176980019     Delta-E=       -0.012264506485 Rises=F Damp=F
 DIIS: error= 3.67D-03 at cycle   3 NSaved=   3.
 NSaved= 3 IEnMin= 3 EnMin= -161.300176980019     IErMin= 3 ErrMin= 3.67D-03
 ErrMax= 3.67D-03  0.00D+00 EMaxC= 1.00D-01 BMatC= 2.00D-04 BMatP= 1.42D-02
 IDIUse=3 WtCom= 9.63D-01 WtEn= 3.67D-02
 Coeff-Com:  0.589D+00-0.113D+01 0.154D+01
 Coeff-En:   0.000D+00 0.000D+00 0.100D+01
 Coeff:      0.568D+00-0.108D+01 0.152D+01
 Gap=     0.182 Goal=   None    Shift=    0.000
 Gap=     1.467 Goal=   None    Shift=    0.000
 RMSDP=2.05D-03 MaxDP=2.73D-02 DE=-1.23D-02 OVMax= 1.19D-03

 Cycle   4  Pass 1  IDiag  1:
 E= -161.300373809881     Delta-E=       -0.000196829862 Rises=F Damp=F
 DIIS: error= 2.10D-04 at cycle   4 NSaved=   4.
 NSaved= 4 IEnMin= 4 EnMin= -161.300373809881     IErMin= 4 ErrMin= 2.10D-04
 ErrMax= 2.10D-04  0.00D+00 EMaxC= 1.00D-01 BMatC= 7.72D-07 BMatP= 2.00D-04
 IDIUse=3 WtCom= 9.98D-01 WtEn= 2.10D-03
 Coeff-Com: -0.830D-01 0.161D+00-0.261D+00 0.118D+01
 Coeff-En:   0.000D+00 0.000D+00 0.000D+00 0.100D+01
 Coeff:     -0.829D-01 0.161D+00-0.260D+00 0.118D+01
 Gap=     0.181 Goal=   None    Shift=    0.000
 Gap=     1.467 Goal=   None    Shift=    0.000
 RMSDP=3.26D-04 MaxDP=4.08D-03 DE=-1.97D-04 OVMax= 4.18D-05

 Cycle   5  Pass 1  IDiag  1:
 E= -161.300376375029     Delta-E=       -0.000002565148 Rises=F Damp=F
 DIIS: error= 8.62D-05 at cycle   5 NSaved=   5.
 NSaved= 5 IEnMin= 5 EnMin= -161.300376375029     IErMin= 5 ErrMin= 8.62D-05
 ErrMax= 8.62D-05  0.00D+00 EMaxC= 1.00D-01 BMatC= 1.23D-07 BMatP= 7.72D-07
 IDIUse=1 WtCom= 1.00D+00 WtEn= 0.00D+00
 Coeff-Com:  0.473D-01-0.927D-01 0.162D+00-0.103D+01 0.192D+01
 Coeff:      0.473D-01-0.927D-01 0.162D+00-0.103D+01 0.192D+01
 Gap=     0.181 Goal=   None    Shift=    0.000
 Gap=     1.468 Goal=   None    Shift=    0.000
 RMSDP=2.43D-04 MaxDP=3.02D-03 DE=-2.57D-06 OVMax= 8.95D-06

 Cycle   6  Pass 1  IDiag  1:
 E= -161.300377019766     Delta-E=       -0.000000644737 Rises=F Damp=F
 DIIS: error= 9.43D-06 at cycle   6 NSaved=   6.
 NSaved= 6 IEnMin= 6 EnMin= -161.300377019766     IErMin= 6 ErrMin= 9.43D-06
 ErrMax= 9.43D-06  0.00D+00 EMaxC= 1.00D-01 BMatC= 1.57D-09 BMatP= 1.23D-07
 IDIUse=1 WtCom= 1.00D+00 WtEn= 0.00D+00
 Coeff-Com: -0.469D-02 0.935D-02-0.178D-01 0.141D+00-0.372D+00 0.124D+01
 Coeff:     -0.469D-02 0.935D-02-0.178D-01 0.141D+00-0.372D+00 0.124D+01
 Gap=     0.181 Goal=   None    Shift=    0.000
 Gap=     1.468 Goal=   None    Shift=    0.000
 RMSDP=2.52D-05 MaxDP=2.93D-04 DE=-6.45D-07 OVMax= 3.88D-06

 Cycle   7  Pass 1  IDiag  1:
 E= -161.300377026454     Delta-E=       -0.000000006689 Rises=F Damp=F
 DIIS: error= 1.03D-06 at cycle   7 NSaved=   7.
 NSaved= 7 IEnMin= 7 EnMin= -161.300377026454     IErMin= 7 ErrMin= 1.03D-06
 ErrMax= 1.03D-06  0.00D+00 EMaxC= 1.00D-01 BMatC= 1.68D-11 BMatP= 1.57D-09
 IDIUse=1 WtCom= 1.00D+00 WtEn= 0.00D+00
 Coeff-Com:  0.130D-02-0.259D-02 0.480D-02-0.363D-01 0.101D+00-0.353D+00
 Coeff-Com:  0.129D+01
 Coeff:      0.130D-02-0.259D-02 0.480D-02-0.363D-01 0.101D+00-0.353D+00
 Coeff:      0.129D+01
 Gap=     0.181 Goal=   None    Shift=    0.000
 Gap=     1.468 Goal=   None    Shift=    0.000
 RMSDP=1.96D-06 MaxDP=2.62D-05 DE=-6.69D-09 OVMax= 3.35D-07

 Cycle   8  Pass 1  IDiag  1:
 E= -161.300377026497     Delta-E=       -0.000000000042 Rises=F Damp=F
 DIIS: error= 3.19D-07 at cycle   8 NSaved=   8.
 NSaved= 8 IEnMin= 8 EnMin= -161.300377026497     IErMin= 8 ErrMin= 3.19D-07
 ErrMax= 3.19D-07  0.00D+00 EMaxC= 1.00D-01 BMatC= 2.00D-12 BMatP= 1.68D-11
 IDIUse=1 WtCom= 1.00D+00 WtEn= 0.00D+00
 Coeff-Com: -0.383D-03 0.764D-03-0.141D-02 0.103D-01-0.320D-01 0.122D+00
 Coeff-Com: -0.794D+00 0.169D+01
 Coeff:     -0.383D-03 0.764D-03-0.141D-02 0.103D-01-0.320D-01 0.122D+00
 Coeff:     -0.794D+00 0.169D+01
 Gap=     0.181 Goal=   None    Shift=    0.000
 Gap=     1.468 Goal=   None    Shift=    0.000
 RMSDP=8.83D-07 MaxDP=9.17D-06 DE=-4.24D-11 OVMax= 5.22D-08

 Cycle   9  Pass 1  IDiag  1:
 E= -161.300377026504     Delta-E=       -0.000000000007 Rises=F Damp=F
 DIIS: error= 3.85D-08 at cycle   9 NSaved=   9.
 NSaved= 9 IEnMin= 9 EnMin= -161.300377026504     IErMin= 9 ErrMin= 3.85D-08
 ErrMax= 3.85D-08  0.00D+00 EMaxC= 1.00D-01 BMatC= 2.72D-14 BMatP= 2.00D-12
 IDIUse=1 WtCom= 1.00D+00 WtEn= 0.00D+00
 Coeff-Com: -0.970D-05 0.188D-04-0.384D-04 0.374D-03-0.352D-03 0.371D-03
 Coeff-Com:  0.589D-01-0.227D+00 0.117D+01
 Coeff:     -0.970D-05 0.188D-04-0.384D-04 0.374D-03-0.352D-03 0.371D-03
 Coeff:      0.589D-01-0.227D+00 0.117D+01
 Gap=     0.181 Goal=   None    Shift=    0.000
 Gap=     1.468 Goal=   None    Shift=    0.000
 RMSDP=9.07D-08 MaxDP=1.20D-06 DE=-7.11D-12 OVMax= 2.08D-08

 Cycle  10  Pass 1  IDiag  1:
 E= -161.300377026504     Delta-E=       -0.000000000000 Rises=F Damp=F
 DIIS: error= 9.69D-09 at cycle  10 NSaved=  10.
 NSaved=10 IEnMin=10 EnMin= -161.300377026504     IErMin=10 ErrMin= 9.69D-09
 ErrMax= 9.69D-09  0.00D+00 EMaxC= 1.00D-01 BMatC= 1.12D-15 BMatP= 2.72D-14
 IDIUse=1 WtCom= 1.00D+00 WtEn= 0.00D+00
 Coeff-Com: -0.563D-05 0.112D-04-0.183D-04 0.811D-04-0.431D-03 0.147D-02
 Coeff-Com: -0.265D-01 0.893D-01-0.506D+00 0.144D+01
 Coeff:     -0.563D-05 0.112D-04-0.183D-04 0.811D-04-0.431D-03 0.147D-02
 Coeff:     -0.265D-01 0.893D-01-0.506D+00 0.144D+01
 Gap=     0.181 Goal=   None    Shift=    0.000
 Gap=     1.468 Goal=   None    Shift=    0.000
 RMSDP=1.41D-08 MaxDP=9.93D-08 DE=-1.14D-13 OVMax= 2.72D-09

 Cycle  11  Pass 1  IDiag  1:
 E= -161.300377026504     Delta-E=       -0.000000000000 Rises=F Damp=F
 DIIS: error= 7.29D-10 at cycle  11 NSaved=  11.
 NSaved=11 IEnMin=11 EnMin= -161.300377026504     IErMin=11 ErrMin= 7.29D-10
 ErrMax= 7.29D-10  0.00D+00 EMaxC= 1.00D-01 BMatC= 1.27D-17 BMatP= 1.12D-15
 IDIUse=1 WtCom= 1.00D+00 WtEn= 0.00D+00
 Coeff-Com: -0.177D-06 0.343D-06-0.114D-05 0.197D-04-0.127D-04 0.638D-04
 Coeff-Com:  0.377D-02-0.148D-01 0.106D+00-0.380D+00 0.128D+01
 Coeff:     -0.177D-06 0.343D-06-0.114D-05 0.197D-04-0.127D-04 0.638D-04
 Coeff:      0.377D-02-0.148D-01 0.106D+00-0.380D+00 0.128D+01
 Gap=     0.181 Goal=   None    Shift=    0.000
 Gap=     1.468 Goal=   None    Shift=    0.000
 RMSDP=1.03D-09 MaxDP=8.36D-09 DE=-5.68D-14 OVMax= 2.42D-10

 SCF Done:  E(UHF) =  -161.300377027     A.U. after   11 cycles
            NFock= 11  Conv=0.10D-08     -V/T= 2.0020
 <Sx>= 0.0000 <Sy>= 0.0000 <Sz>= 1.0000 <S**2>= 2.0000 S= 1.0000
 <L.S>= 0.000000000000E+00
 KE= 1.609760596716D+02 PE=-3.942461476912D+02 EE= 6.873585025969D+01
 Annihilation of the first spin contaminant:
 S**2 before annihilation     2.0000,   after     2.0000
 Leave Link  502 at Mon Mar 28 14:24:38 2022, MaxMem=  9663676416 cpu:               3.9 elap:               0.1
 (Enter /nopt/nrel/apps/gaussian/g16C_1/g16/l801.exe)
 Windowed orbitals will be sorted by symmetry type.
 ExpMin= 2.44D-02 ExpMax= 5.48D+02 ExpMxC= 5.48D+02 IAcc=3 IRadAn=         5 AccDes= 0.00D+00
 HarFok:  IExCor=  205 AccDes= 0.00D+00 IRadAn=         5 IDoV=-2 UseB2=F ITyADJ=14
 ICtDFT= 12500011 ScaDFX=  1.000000  1.000000  1.000000  1.000000
 Largest valence mixing into a core orbital is  5.81D-04
 Largest core mixing into a valence orbital is  2.91D-04
 Range of M.O.s used for correlation:     6    14
 NBasis=    14 NAE=     7 NBE=     5 NFC=     5 NFV=     0
 NROrb=      9 NOA=     2 NOB=     0 NVA=     7 NVB=     9
 Leave Link  801 at Mon Mar 28 14:24:38 2022, MaxMem=  9663676416 cpu:               3.2 elap:               0.1
 (Enter /nopt/nrel/apps/gaussian/g16C_1/g16/l804.exe)
 Open-shell transformation, MDV=  9663676416 ITran=4 ISComp=2.
 Unit  1 TFree=         14304 TCopy=        117515.
 Semi-Direct transformation.
 ModeAB=           2 MOrb=             2 LenV=    9663555338
 LASXX=          158 LTotXX=         158 LenRXX=         158
 LTotAB=         269 MaxLAS=        1890 LenRXY=        1890
 NonZer=        2214 LenScr=      785920 LnRSAI=           0
 LnScr1=           0 LExtra=      220902 Total=      1008870
 MaxDsk= 34359738368 SrtSym=           F ITran=            4
 DoSDTr:  NPSUse= 36
 JobTyp=1 Pass  1:  I=   1 to   2.
 (rs|ai) integrals will be sorted in core.
 Complete sort for first half transformation.
 First half transformation complete.
 Complete sort for second half transformation.
 Second half transformation complete.
 Spin components of T(2) and E(2):
     alpha-alpha T2 =       0.1866988994D-04 E2=     -0.1879112182D-04
     alpha-beta  T2 =       0.0000000000D+00 E2=      0.0000000000D+00
     beta-beta   T2 =       0.0000000000D+00 E2=      0.0000000000D+00
 ANorm=    0.1000009335D+01
 E2 =    -0.1879112182D-04 EUMP2 =    -0.16130039581763D+03
 Leave Link  804 at Mon Mar 28 14:24:38 2022, MaxMem=  9663676416 cpu:               2.3 elap:               0.1
 (Enter /nopt/nrel/apps/gaussian/g16C_1/g16/l913.exe)
 CIDS:  MDV=  9663676416.
 Frozen-core window:  NFC=   5 NFV=   0.
 IFCWin=0 IBDFC=1 NFBD=     0     0 NFCmp=     0     0 NFFFC=     0     0
 Using original routines for 1st iteration.
 Using DD4UQ or CC4UQ for 2nd and later iterations.
 Keep R2 and R3 ints in memory in symmetry-blocked form, NReq=7215603.
 FoFCou: FMM=F IPFlag=           0 FMFlag=           0 FMFlg1=           0
         NFxFlg=           0 DoJE=F BraDBF=F KetDBF=F FulRan=T
         wScrn=  0.000000 ICntrl=       600 IOpCl=  0 I1Cent=           0 NGrid=           0
         NMat0=    1 NMatS0=    105 NMatT0=    0 NMatD0=    1 NMtDS0=    0 NMtDT0=    0
 Petite list used in FoFCou.
 CIDS: In Core Option IDoMem=           1.
 Coupled Cluster theory with single and double substitutions
 ===========================================================
 Iterations= 200 Convergence= 0.100D-06
 Produce multiple copies of IABC intergrals
 Iteration Nr.   1
 **********************
 DD1Dir will call FoFMem   1 times, MxPair=         2
 NAB=     0 NAA=     1 NBB=     0.
 MP4(R+Q)=  0.35082818D-09
 Maximum subspace dimension=  5
 A-vector RMS=  3.9446579D-04 Max=  7.4899012D-04 conv= 1.00D-05.
 RLE energy=       -0.0000284647
 E3=       -0.63863840D-05        EUMP3=      -0.16130040220D+03
 E4(DQ)=   -0.21810161D-05        UMP4(DQ)=   -0.16130040439D+03
 E4(SDQ)=  -0.22277075D-05        UMP4(SDQ)=  -0.16130040443D+03
 VARIATIONAL ENERGIES WITH THE FIRST-ORDER WAVEFUNCTION:
 DE(Corr)= -0.25177202E-04 E(Corr)=     -161.30040220    
 NORM(A)=   0.10000215D+01
 Iteration Nr.   2
 **********************
 DD1Dir will call FoFMem   1 times, MxPair=         2
 NAB=     0 NAA=     1 NBB=     0.
 A-vector RMS=  4.8809773D-05 Max=  9.4951851D-05 conv= 1.00D-05.
 RLE energy=       -0.0000286424
 DE(Corr)= -0.28551660E-04 E(CORR)=     -161.30040558     Delta=-3.37D-06
 NORM(A)=   0.10000218D+01
 Iteration Nr.   3
 **********************
 DD1Dir will call FoFMem   1 times, MxPair=         2
 NAB=     0 NAA=     1 NBB=     0.
 A-vector RMS=  1.4345335D-05 Max=  4.1268083D-05 conv= 1.00D-05.
 RLE energy=       -0.0000286483
 DE(Corr)= -0.28642444E-04 E(CORR)=     -161.30040567     Delta=-9.08D-08
 NORM(A)=   0.10000218D+01
 Iteration Nr.   4
 **********************
 DD1Dir will call FoFMem   1 times, MxPair=         2
 NAB=     0 NAA=     1 NBB=     0.
 A-vector RMS=  3.3836041D-06 Max=  1.0360647D-05 conv= 1.00D-05.
 RLE energy=       -0.0000286484
 DE(Corr)= -0.28648258E-04 E(CORR)=     -161.30040567     Delta=-5.81D-09
 NORM(A)=   0.10000218D+01
 Iteration Nr.   5
 **********************
 DD1Dir will call FoFMem   1 times, MxPair=         2
 NAB=     0 NAA=     1 NBB=     0.
 A-vector RMS=  2.1690120D-07 Max=  3.7284547D-07 conv= 1.00D-05.
 RLE energy=       -0.0000286485
 DE(Corr)= -0.28648481E-04 E(CORR)=     -161.30040567     Delta=-2.23D-10
 NORM(A)=   0.10000218D+01
 CI/CC converged in    5 iterations to DelEn=-2.23D-10 Conv= 1.00D-07 ErrA1= 2.17D-07 Conv= 1.00D-05
 Wavefunction amplitudes converged. E(Corr)=     -161.30040567    
 Largest amplitude= 3.47D-03
 Discarding MO integrals.
 Leave Link  913 at Mon Mar 28 14:24:39 2022, MaxMem=  9663676416 cpu:               2.9 elap:               0.1
 (Enter /nopt/nrel/apps/gaussian/g16C_1/g16/l601.exe)
 Copying SCF densities to generalized density rwf, IOpCl= 1 IROHF=0.

 **********************************************************************

            Population analysis using the SCF Density.

 **********************************************************************

 Orbital symmetries:
 Alpha Orbitals:
       Occupied  (SG) (SG) (SG) (PI) (PI) (SG) (SG)
       Virtual   (PI) (PI) (SG) (SG) (PI) (PI) (SG)
 Beta  Orbitals:
       Occupied  (SG) (SG) (PI) (PI) (SG)
       Virtual   (SG) (PI) (PI) (SG) (SG) (PI) (PI) (SG) (SG)
 The electronic state is 3-SG.
 Alpha  occ. eigenvalues --  -40.22842  -2.78916  -1.51010  -1.50302  -1.50302
 Alpha  occ. eigenvalues --   -0.59854  -0.15741
 Alpha virt. eigenvalues --    0.02395   0.02395   0.04706   0.13022   0.14862
 Alpha virt. eigenvalues --    0.14862   0.27587
  Beta  occ. eigenvalues --  -40.22548  -2.78169  -1.50061  -1.50061  -1.50033
  Beta virt. eigenvalues --   -0.03266   0.04728   0.04728   0.06007   0.09455
  Beta virt. eigenvalues --    0.17732   0.17732   0.18677   0.45252
          Condensed to atoms (all electrons):
               1          2
     1  H    0.801763   0.072444
     2  Na   0.072444  11.053350
          Atomic-Atomic Spin Densities.
               1          2
     1  H    0.801547   0.071124
     2  Na   0.071124   1.056205
 Mulliken charges and spin densities:
               1          2
     1  H    0.125793   0.872671
     2  Na  -0.125793   1.127329
 Sum of Mulliken charges =  -0.00000   2.00000
 Mulliken charges and spin densities with hydrogens summed into heavy atoms:
               1          2
     2  Na  -0.000000   2.000000
 N-N= 3.233860733400D+00 E-N=-3.942461476900D+02  KE= 1.609760596716D+02
 Symmetry A1   KE= 1.379078465597D+02
 Symmetry A2   KE= 0.000000000000D+00
 Symmetry B1   KE= 1.153410655593D+01
 Symmetry B2   KE= 1.153410655593D+01
 Symmetry A1   SP= 2.000000000000D+00
 Symmetry A2   SP= 0.000000000000D+00
 Symmetry B1   SP= 1.487525832296D-15
 Symmetry B2   SP= 3.020292089692D-15

 Atomic contributions to Alpha molecular orbitals:
 Alpha occ 1 OE=-40.228 is Na2-s=1.0000
 Alpha occ 2 OE=-2.789 is Na2-s=0.9998
 Alpha occ 3 OE=-1.510 is Na2-p=0.9972
 Alpha occ 4 OE=-1.503 is Na2-p=1.0000
 Alpha occ 5 OE=-1.503 is Na2-p=1.0000
 Alpha occ 6 OE=-0.599 is H1-s=0.8588
 Alpha occ 7 OE=-0.157 is Na2-s=0.7797 Na2-p=0.2083
 Alpha vir 8 OE=0.024 is Na2-p=1.0000
 Alpha vir 9 OE=0.024 is Na2-p=1.0000
 Alpha vir 10 OE=0.047 is Na2-p=0.7549 Na2-s=0.2333
 Alpha vir 11 OE=0.130 is Na2-s=0.7711 Na2-p=0.2263
 Alpha vir 12 OE=0.149 is Na2-p=1.0000
 Alpha vir 13 OE=0.149 is Na2-p=1.0000
 Alpha vir 14 OE=0.276 is Na2-p=0.7397 Na2-s=0.1482 H1-s=0.1122

 Atomic contributions to Beta  molecular orbitals:
 Beta  occ 1 OE=-40.225 is Na2-s=1.0000
 Beta  occ 2 OE=-2.782 is Na2-s=0.9999
 Beta  occ 3 OE=-1.501 is Na2-p=1.0000
 Beta  occ 4 OE=-1.501 is Na2-p=1.0000
 Beta  occ 5 OE=-1.500 is Na2-p=0.9990
 Beta  vir 6 OE=-0.033 is Na2-s=0.5752 Na2-p=0.2394 H1-s=0.1854
 Beta  vir 7 OE=0.047 is Na2-p=1.0000
 Beta  vir 8 OE=0.047 is Na2-p=1.0000
 Beta  vir 9 OE=0.060 is Na2-p=0.7408 Na2-s=0.2552
 Beta  vir 10 OE=0.095 is Na2-s=0.5470 Na2-p=0.3130 H1-s=0.1400
 Beta  vir 11 OE=0.177 is Na2-p=1.0000
 Beta  vir 12 OE=0.177 is Na2-p=1.0000
 Beta  vir 13 OE=0.187 is Na2-s=0.5555 Na2-p=0.4179
 Beta  vir 14 OE=0.453 is H1-s=0.6432 Na2-p=0.2897
 
 Leave Link  601 at Mon Mar 28 14:24:39 2022, MaxMem=  9663676416 cpu:               1.6 elap:               0.1
 (Enter /nopt/nrel/apps/gaussian/g16C_1/g16/l9999.exe)

 Test job not archived.
 1\1\GINC-R102U34\SP\UCCSD-FC\Gen\H1Na1(3)\USER\28-Mar-2022\0\\#P C
 CSD(MaxCyc=200,SaveAmplitudes,ReadAmplitudes)/GEN sp pop=AllOrbitals i
 op(3/33=1,3/36=-1)\\test\\0,3\H,0,0.,0.,0.\Na,0,0.,0.,1.8\\Version=ES6
 4L-G16RevC.01\State=3-SG\HF=-161.300377\MP2=-161.3003958\MP3=-161.3004
 022\MP4D=-161.3004044\MP4DQ=-161.3004044\MP4SDQ=-161.3004044\CCSD=-161
 .3004057\S2=2.000025\S2-1=0.\S2A=2.\RMSD=1.030e-09\PG=C*V [C*(H1Na1)]\
 \@


 The chemist is a guest at the physicist's table and
 frequently dines well.
                   -- Richard Bersohn
 Job cpu time:       0 days  0 hours  0 minutes 31.8 seconds.
 Elapsed time:       0 days  0 hours  0 minutes  1.2 seconds.
 File lengths (MBytes):  RWF=     13 Int=      0 D2E=      0 Chk=      1 Scr=      1
 Normal termination of Gaussian 16 at Mon Mar 28 14:24:39 2022.
