 Entering Gaussian System, Link 0=g16
 Initial command:
 /nopt/nrel/apps/gaussian/g16C_1/g16/l1.exe "/lustre/eaglefs/scratch/user/qc/tih-dissc-sto3g/tih-2-ccsd-0.5-321g/Gau-215538.inp" -scrdir="/lustre/eaglefs/scratch/user/qc/tih-dissc-sto3g/tih-2-ccsd-0.5-321g/"
 Default is to use a total of  36 processors:
                               36 via shared-memory
                                1 via Linda
 Entering Link 1 = /nopt/nrel/apps/gaussian/g16C_1/g16/l1.exe PID=    215539.
  
 Copyright (c) 1988-2019, Gaussian, Inc.  All Rights Reserved.
  
 This is part of the Gaussian(R) 16 program.  It is based on
 the Gaussian(R) 09 system (copyright 2009, Gaussian, Inc.),
 the Gaussian(R) 03 system (copyright 2003, Gaussian, Inc.),
 the Gaussian(R) 98 system (copyright 1998, Gaussian, Inc.),
 the Gaussian(R) 94 system (copyright 1995, Gaussian, Inc.),
 the Gaussian 92(TM) system (copyright 1992, Gaussian, Inc.),
 the Gaussian 90(TM) system (copyright 1990, Gaussian, Inc.),
 the Gaussian 88(TM) system (copyright 1988, Gaussian, Inc.),
 the Gaussian 86(TM) system (copyright 1986, Carnegie Mellon
 University), and the Gaussian 82(TM) system (copyright 1983,
 Carnegie Mellon University). Gaussian is a federally registered
 trademark of Gaussian, Inc.
  
 This software contains proprietary and confidential information,
 including trade secrets, belonging to Gaussian, Inc.
  
 This software is provided under written license and may be
 used, copied, transmitted, or stored only in accord with that
 written license.
  
 The following legend is applicable only to US Government
 contracts under FAR:
  
                    RESTRICTED RIGHTS LEGEND
  
 Use, reproduction and disclosure by the US Government is
 subject to restrictions as set forth in subparagraphs (a)
 and (c) of the Commercial Computer Software - Restricted
 Rights clause in FAR 52.227-19.
  
 Gaussian, Inc.
 340 Quinnipiac St., Bldg. 40, Wallingford CT 06492
  
  
 ---------------------------------------------------------------
 Warning -- This program may not be used in any manner that
 competes with the business of Gaussian, Inc. or will provide
 assistance to any competitor of Gaussian, Inc.  The licensee
 of this program is prohibited from giving any competitor of
 Gaussian, Inc. access to this program.  By using this program,
 the user acknowledges that Gaussian, Inc. is engaged in the
 business of creating and licensing software in the field of
 computational chemistry and represents and warrants to the
 licensee that it is not a competitor of Gaussian, Inc. and that
 it will not use this program in any manner prohibited above.
 ---------------------------------------------------------------
  

 Cite this work as:
 Gaussian 16, Revision C.01,
 M. J. Frisch, G. W. Trucks, H. B. Schlegel, G. E. Scuseria, 
 M. A. Robb, J. R. Cheeseman, G. Scalmani, V. Barone, 
 G. A. Petersson, H. Nakatsuji, X. Li, M. Caricato, A. V. Marenich, 
 J. Bloino, B. G. Janesko, R. Gomperts, B. Mennucci, H. P. Hratchian, 
 J. V. Ortiz, A. F. Izmaylov, J. L. Sonnenberg, D. Williams-Young, 
 F. Ding, F. Lipparini, F. Egidi, J. Goings, B. Peng, A. Petrone, 
 T. Henderson, D. Ranasinghe, V. G. Zakrzewski, J. Gao, N. Rega, 
 G. Zheng, W. Liang, M. Hada, M. Ehara, K. Toyota, R. Fukuda, 
 J. Hasegawa, M. Ishida, T. Nakajima, Y. Honda, O. Kitao, H. Nakai, 
 T. Vreven, K. Throssell, J. A. Montgomery, Jr., J. E. Peralta, 
 F. Ogliaro, M. J. Bearpark, J. J. Heyd, E. N. Brothers, K. N. Kudin, 
 V. N. Staroverov, T. A. Keith, R. Kobayashi, J. Normand, 
 K. Raghavachari, A. P. Rendell, J. C. Burant, S. S. Iyengar, 
 J. Tomasi, M. Cossi, J. M. Millam, M. Klene, C. Adamo, R. Cammi, 
 J. W. Ochterski, R. L. Martin, K. Morokuma, O. Farkas, 
 J. B. Foresman, and D. J. Fox, Gaussian, Inc., Wallingford CT, 2019.
 
 ******************************************
 Gaussian 16:  ES64L-G16RevC.01  3-Jul-2019
                25-Mar-2022 
 ******************************************
 %chk=molecule
 Default route: CacheSize=180224 MaxDisk=256GB
 --------------------------------------------------------------
 #P CCSD(MaxCyc=200)/GEN sp pop=AllOrbitals iop(3/33=1,3/36=-1)
 --------------------------------------------------------------
 1/4=180224,38=1,172=1/1;
 2/4=180224,12=2,17=6,18=5,40=1/2;
 3/4=180224,5=7,11=9,25=1,30=1,33=1,36=-1/1,2,3;
 4/4=180224/1;
 5/4=180224,5=2,38=5/2;
 8/4=180224,6=4,9=120000,10=1/1,4;
 9/4=180224,5=7,6=200/13;
 6/4=180224,7=2,8=2,9=2,10=2,96=-1/1;
 99/4=180224,5=1,9=1/99;
 Leave Link    1 at Fri Mar 25 14:57:44 2022, MaxMem=           0 cpu:               3.8 elap:               0.1
 (Enter /nopt/nrel/apps/gaussian/g16C_1/g16/l101.exe)
 ----
 test
 ----
 Symbolic Z-matrix:
 Charge =  0 Multiplicity = 2
 H                     0.        0.        0. 
 Ti                    0.        0.        0.5 
 
 ITRead=  0  0
 MicOpt= -1 -1
 NAtoms=      2 NQM=        2 NQMF=       0 NMMI=      0 NMMIF=      0
                NMic=       0 NMicF=      0.
                    Isotopes and Nuclear Properties:
 (Nuclear quadrupole moments (NQMom) in fm**2, nuclear magnetic moments (NMagM)
  in nuclear magnetons)

  Atom         1           2
 IAtWgt=           1          48
 AtmWgt=   1.0078250  47.9479467
 NucSpn=           1           0
 AtZEff=  -0.0000000  -0.0000000
 NQMom=    0.0000000   0.0000000
 NMagM=    2.7928460   0.0000000
 AtZNuc=   1.0000000  22.0000000
 Leave Link  101 at Fri Mar 25 14:57:44 2022, MaxMem=  9663676416 cpu:               3.0 elap:               0.1
 (Enter /nopt/nrel/apps/gaussian/g16C_1/g16/l202.exe)
                          Input orientation:                          
 ---------------------------------------------------------------------
 Center     Atomic      Atomic             Coordinates (Angstroms)
 Number     Number       Type             X           Y           Z
 ---------------------------------------------------------------------
      1          1           0        0.000000    0.000000    0.000000
      2         22           0        0.000000    0.000000    0.500000
 ---------------------------------------------------------------------
 Stoichiometry    HTi(2)
 Framework group  C*V[C*(HTi)]
 Deg. of freedom     1
 Full point group                 C*V     NOp   4
 Largest Abelian subgroup         C2V     NOp   4
 Largest concise Abelian subgroup C1      NOp   1
                         Standard orientation:                         
 ---------------------------------------------------------------------
 Center     Atomic      Atomic             Coordinates (Angstroms)
 Number     Number       Type             X           Y           Z
 ---------------------------------------------------------------------
      1          1           0        0.000000    0.000000   -0.478261
      2         22           0        0.000000    0.000000    0.021739
 ---------------------------------------------------------------------
 Rotational constants (GHZ):           0.0000000        2047.9810562        2047.9810562
 Leave Link  202 at Fri Mar 25 14:57:44 2022, MaxMem=  9663676416 cpu:               0.9 elap:               0.0
 (Enter /nopt/nrel/apps/gaussian/g16C_1/g16/l301.exe)
 General basis read from cards:  (5D, 7F)
                         Coordinates in L301:                         
 ---------------------------------------------------------------------
 Center     Atomic      Atomic             Coordinates (Angstroms)
 Number     Number       Type             X           Y           Z
 ---------------------------------------------------------------------
      1          1           0        0.000000    0.000000   -0.478261
      2         22           0        0.000000    0.000000    0.021739
 ---------------------------------------------------------------------
 Centers:       1
 STO-3G
 ****
 Centers:       2
 3-21G
 ****
 FixB: optimizing general contractions.
 Ernie: Thresh=  0.10000D-02 Tol=  0.10000D-05 Strict=F.
 IA=     1 ShT= 0 ShC= 0 NL=   1 NS=   0.
 IA=     1 L=0 SC=0 ISt=    0 NBk=    0 NP=    0 IndPr=    0.
 IA=     2 ShT= 0 ShC= 0 NL=   1 NS=   0.
 IA=     2 L=0 SC=0 ISt=    0 NBk=    0 NP=    0 IndPr=    0.
 IA=     2 ShT= 1 ShC= 0 NL=   4 NS=   1.
 IA=     2 L=1 SC=0 ISt=    1 NBk=    3 NP=    8 IndPr=    0.
 DoElim1:  L=1 select primitive    1 from    2 using    1 C=-1.09D-01
 DoElim1:  L=1 select primitive    1 from    3 using    1 C=-1.09D-01
 DoElim1:  L=1 select primitive    4 from    3 using    2 C=-2.86D-01
 DoElim2:  L=1 select primitive    8 from    2 using    3 C= 1.10D+00
 DoElim2:  L=1 select primitive    8 from    1 using    3 C= 1.10D+00
 DoElim2:  L=1 select primitive    6 from    1 using    2 C= 8.60D-01
 DoElim1:  L=1 select primitive    1 from    2 using    1 C= 1.37D-01
 DoElim1:  L=1 select primitive    1 from    3 using    1 C= 1.37D-01
 DoElim1:  L=1 select primitive    4 from    3 using    2 C= 1.92D-02
 DoElim2:  L=1 select primitive    8 from    2 using    3 C= 1.00D+00
 DoElim2:  L=1 select primitive    8 from    1 using    3 C= 1.00D+00
 DoElim2:  L=1 select primitive    6 from    1 using    2 C= 6.36D-01
 Delete L=1 primitive    6 from    3 C=  0.00D+00.
 Delete L=1 primitive    5 from    3 C=  0.00D+00.
 Delete L=1 primitive    4 from    3 C=  0.00D+00.
 Delete L=1 primitive    3 from    3 C=  0.00D+00.
 Delete L=1 primitive    2 from    3 C=  0.00D+00.
 Delete L=1 primitive    1 from    3 C=  0.00D+00.
 Delete L=1 primitive    8 from    2 C=  0.00D+00.
 Delete L=1 primitive    7 from    2 C=  0.00D+00.
 Delete L=1 primitive    3 from    2 C=  0.00D+00.
 Delete L=1 primitive    2 from    2 C=  0.00D+00.
 Delete L=1 primitive    1 from    2 C=  0.00D+00.
 Delete L=1 primitive    8 from    1 C=  0.00D+00.
 Delete L=1 primitive    7 from    1 C=  0.00D+00.
 Delete L=1 primitive    6 from    1 C=  0.00D+00.
 Delete L=1 primitive    5 from    1 C=  0.00D+00.
 Delete L=1 primitive    4 from    1 C=  0.00D+00.
 IA=     2 L=1 SC=0 ISt=    0 NBk=    0 NP=    0 IndPr=    8.
 IA=     2 ShT= 2 ShC= 2 NL=   2 NS=   1.
 IA=     2 L=2 SC=2 ISt=    0 NBk=    0 NP=    0 IndPr=    0.
 LdAtmC:  AtmChg=     1.000000    22.000000
 AtZEff=     -1.0000000    -23.9800000
 NEqShl: 
              1            2            3            4
     1            1            1            1            1
     2            2            2            2            2
     3            3            3            3            3
     4            4            4            4            4
     5            5            5            5            5
     6            6            6            6            6
     7            7            7            7            7
     8            8            8            8            8
 NEqBas: 
              1            2            3            4
     1            1            1            1            1
     2            2            2            2            2
     3            3            3            3            3
     4            4           -4           -4            4
     5            5           -5            5           -5
     6            6            6            6            6
     7            7            7            7            7
     8            8           -8           -8            8
     9            9           -9            9           -9
    10           10           10           10           10
    11           11           11           11           11
    12           12          -12          -12           12
    13           13          -13           13          -13
    14           14           14           14           14
    15           15           15           15           15
    16           16          -16          -16           16
    17           17          -17           17          -17
    18           18           18           18           18
    19           19           19           19           19
    20           20           20           20           20
    21           21           21           21           21
    22           22           22          -22          -22
    23           23          -23          -23           23
    24           24          -24           24          -24
    25           25           25           25           25
    26           26           26           26           26
    27           27           27           27           27
    28           28           28          -28          -28
    29           29          -29          -29           29
    30           30          -30           30          -30
 There are    16 symmetry adapted cartesian basis functions of A1  symmetry.
   1         1   1   1   1
   2         2   2   2   2
   3         3   3   3   3
   4         6   6   6   6
   5         7   7   7   7
   6        10  10  10  10
   7        11  11  11  11
   8        14  14  14  14
   9        15  15  15  15
  10        18  18  18  18
  11        19  19  19  19
  12        20  20  20  20
  13        21  21  21  21
  14        25  25  25  25
  15        26  26  26  26
  16        27  27  27  27
 There are     2 symmetry adapted cartesian basis functions of A2  symmetry.
  17        22  22  22  22
  18        28  28  28  28
 There are     6 symmetry adapted cartesian basis functions of B1  symmetry.
  19         4   4   4   4
  20         8   8   8   8
  21        12  12  12  12
  22        16  16  16  16
  23        23  23  23  23
  24        29  29  29  29
 There are     6 symmetry adapted cartesian basis functions of B2  symmetry.
  25         5   5   5   5
  26         9   9   9   9
  27        13  13  13  13
  28        17  17  17  17
  29        24  24  24  24
  30        30  30  30  30
 Order= 1 2 4 3
 Reordered character table:
              1            2            3            4            5
     1            1            1            1            1            1
     2            2            1            1           -1           -1
     3            4            1           -1           -1            1
     4            3            1           -1            1           -1
 NEqShl: 
              1            2            3            4
     1            1            1            1            1
     2            2            2            2            2
     3            3            3            3            3
     4            4            4            4            4
     5            5            5            5            5
     6            6            6            6            6
     7            7            7            7            7
     8            8            8            8            8
 NEqBas: 
              1            2            3            4
     1            1            1            1            1
     2            2            2            2            2
     3            3            3            3            3
     4            4           -4           -4            4
     5            5           -5            5           -5
     6            6            6            6            6
     7            7            7            7            7
     8            8           -8           -8            8
     9            9           -9            9           -9
    10           10           10           10           10
    11           11           11           11           11
    12           12          -12          -12           12
    13           13          -13           13          -13
    14           14           14           14           14
    15           15           15           15           15
    16           16          -16          -16           16
    17           17          -17           17          -17
    18           18           18           18           18
    19           19           19           19           19
    20           20          -20          -20           20
    21           21          -21           21          -21
    22           22           22           22           22
    23           23           23          -23          -23
    24           24           24           24           24
    25           25          -25          -25           25
    26           26          -26           26          -26
    27           27           27           27           27
    28           28           28          -28          -28
 There are    14 symmetry adapted basis functions of A1  symmetry.
   1         1   1   1   1
   2         2   2   2   2
   3         3   3   3   3
   4         6   6   6   6
   5         7   7   7   7
   6        10  10  10  10
   7        11  11  11  11
   8        14  14  14  14
   9        15  15  15  15
  10        18  18  18  18
  11        19  19  19  19
  12        22  22  22  22
  13        24  24  24  24
  14        27  27  27  27
 There are     2 symmetry adapted basis functions of A2  symmetry.
  15        23  23  23  23
  16        28  28  28  28
 There are     6 symmetry adapted basis functions of B1  symmetry.
  17         4   4   4   4
  18         8   8   8   8
  19        12  12  12  12
  20        16  16  16  16
  21        20  20  20  20
  22        25  25  25  25
 There are     6 symmetry adapted basis functions of B2  symmetry.
  23         5   5   5   5
  24         9   9   9   9
  25        13  13  13  13
  26        17  17  17  17
  27        21  21  21  21
  28        26  26  26  26
 Order= 1 2 4 3
 Reordered character table:
              1            2            3            4            5
     1            1            1            1            1            1
     2            2            1            1           -1           -1
     3            4            1           -1           -1            1
     4            3            1           -1            1           -1
    28 basis functions,    60 primitive gaussians,    30 cartesian basis functions
    12 alpha electrons       11 beta electrons
       nuclear repulsion energy        23.2837972805 Hartrees.
 IS=     1 IAt=     1 ISR=     1 T=0 IP=      1 IndIP=      1 IndIPD=      0 C=  2.769344D-01  0.000000D+00                             NZ=T
 IS=     1 IAt=     1 ISR=     1 T=0 IP=      2 IndIP=      2 IndIPD=      1 C=  2.678389D-01  0.000000D+00                             NZ=T
 IS=     1 IAt=     1 ISR=     1 T=0 IP=      3 IndIP=      3 IndIPD=      2 C=  8.347367D-02  0.000000D+00                             NZ=T
 IS=     2 IAt=     2 ISR=     1 T=0 IP=      1 IndIP=      4 IndIPD=      0 C=  1.537359D+01  0.000000D+00                             NZ=T
 IS=     2 IAt=     2 ISR=     1 T=0 IP=      2 IndIP=      5 IndIPD=      1 C=  2.196579D+01  0.000000D+00                             NZ=T
 IS=     2 IAt=     2 ISR=     1 T=0 IP=      3 IndIP=      6 IndIPD=      2 C=  1.259884D+01  0.000000D+00                             NZ=T
 IS=     3 IAt=     2 ISR=     2 T=1 IP=      1 IndIP=      7 IndIPD=      0 C= -2.459358D+00  6.155759D+01                             NZ=T
 IS=     3 IAt=     2 ISR=     2 T=1 IP=      2 IndIP=      8 IndIPD=      1 C=  7.266107D-01  3.612099D+01                             NZ=T
 IS=     3 IAt=     2 ISR=     2 T=1 IP=      3 IndIP=      9 IndIPD=      2 C=  2.742121D+00  7.115701D+00                             NZ=T
 IS=     4 IAt=     2 ISR=     3 T=1 IP=      1 IndIP=     10 IndIPD=      0 C= -8.049761D-01  2.703339D-01                             NZ=T
 IS=     4 IAt=     2 ISR=     3 T=1 IP=      2 IndIP=     11 IndIPD=      1 C=  3.851869D-01  1.489563D+00                             NZ=T
 IS=     4 IAt=     2 ISR=     3 T=1 IP=      3 IndIP=     12 IndIPD=      2 C=  4.416753D-01  5.252178D-01                             NZ=T
 IS=     5 IAt=     2 ISR=     4 T=1 IP=      1 IndIP=     13 IndIPD=      0 C= -1.138440D-01  2.076393D-04                             NZ=T
 IS=     5 IAt=     2 ISR=     4 T=1 IP=      2 IndIP=     14 IndIPD=      1 C=  1.102445D-01  5.419267D-02                             NZ=T
 IS=     6 IAt=     2 ISR=     5 T=1 IP=      1 IndIP=     15 IndIPD=      0 C=  4.686088D-02  1.526772D-02                             NZ=T
 IS=     7 IAt=     2 ISR=     6 T=2 IP=      1 IndIP=     16 IndIPD=      1 C=  0.000000D+00  0.000000D+00  1.331025D+01  0.000000D+00 NZ=T
 IS=     7 IAt=     2 ISR=     6 T=2 IP=      2 IndIP=     17 IndIPD=      2 C=  0.000000D+00  0.000000D+00  3.600378D+00  0.000000D+00 NZ=T
 IS=     8 IAt=     2 ISR=     7 T=2 IP=      1 IndIP=     18 IndIPD=      3 C=  0.000000D+00  0.000000D+00  3.518721D-01  0.000000D+00 NZ=T
 IExCor=    0 DFT=F Ex=HF Corr=None ExCW=0 ScaHFX=  1.000000
 ScaDFX=  1.000000  1.000000  1.000000  1.000000 ScalE2=  1.000000  1.000000
 IRadAn=      5 IRanWt=     -1 IRanGd=            0 ICorTp=0 IEmpDi=  4
 NAtoms=    2 NActive=    2 NUniq=    2 SFac= 1.00D+00 NAtFMM=   60 NAOKFM=F Big=F
 Integral buffers will be    131072 words long.
 Raffenetti 2 integral format.
 Two-electron integral symmetry is turned on.
 Leave Link  301 at Fri Mar 25 14:57:44 2022, MaxMem=  9663676416 cpu:               2.2 elap:               0.1
 (Enter /nopt/nrel/apps/gaussian/g16C_1/g16/l302.exe)
 NPDir=0 NMtPBC=     1 NCelOv=     1 NCel=       1 NClECP=     1 NCelD=      1
         NCelK=      1 NCelE2=     1 NClLst=     1 CellRange=     0.0.
 One-electron integrals computed using PRISM.
 One-electron integral symmetry used in STVInt
 Entering OneElI...
 Calculate overlap and kinetic energy integrals
    NBasis =  28  MinDer = 0  MaxDer = 0
 Requested accuracy = 0.1000D-12
 Symmetry will be used
 PrmmSu-InSpLW:  IPartL=    0 NPrtUS=   36 NPrtUL=    1 DoSpLW=F IThBeg=    0 IThEnd=   35 NThAct=   36.
 PrSmSu:  IncTry=   512 NBBP=             36 NTPThr=   100 NPartT=   36 Incr=           1 LDynOK=F GPUOK=F.
 PrsmSu:  NPrtUS=  36 ThrOK=T IAlg=1 LenDen=           0 ISkipM=0 DoSpLW=F IThBeg=    0 IThEnd=   35.
 Prism:   IPart=     0 DynPar=F LinDyn=F Incr=           1.
 PRISM was handed   268432135 working-precision words and    36 shell-pairs
 PRISM was handed   268432135 working-precision words and    36 shell-pairs
 PRISM was handed   268432135 working-precision words and    36 shell-pairs
 PRISM was handed   268432135 working-precision words and    36 shell-pairs
 PRISM was handed   268432135 working-precision words and    36 shell-pairs
 PRISM was handed   268432135 working-precision words and    36 shell-pairs
 PRISM was handed   268432135 working-precision words and    36 shell-pairs
 PRISM was handed   268432135 working-precision words and    36 shell-pairs
 PRISM was handed   268432135 working-precision words and    36 shell-pairs
 PRISM was handed   268432135 working-precision words and    36 shell-pairs
 PRISM was handed   268432135 working-precision words and    36 shell-pairs
 PRISM was handed   268432135 working-precision words and    36 shell-pairs
 PRISM was handed   268432135 working-precision words and    36 shell-pairs
 PRISM was handed   268432135 working-precision words and    36 shell-pairs
 PRISM was handed   268432135 working-precision words and    36 shell-pairs
 IPart= 17 NShTot=           0 NBatch=           0 AvBLen=         0.0
 IPart= 15 NShTot=           0 NBatch=           0 AvBLen=         0.0
 IPart= 23 NShTot=           0 NBatch=           0 AvBLen=         0.0
 IPart=  4 NShTot=           0 NBatch=           0 AvBLen=         0.0
 IPart=  5 NShTot=           0 NBatch=           0 AvBLen=         0.0
 IPart= 28 NShTot=           0 NBatch=           0 AvBLen=         0.0
 IPart=  8 NShTot=           0 NBatch=           0 AvBLen=         0.0
 IPart= 32 NShTot=           0 NBatch=           0 AvBLen=         0.0
 IPart= 14 NShTot=           0 NBatch=           0 AvBLen=         0.0
 IPart= 26 NShTot=           0 NBatch=           0 AvBLen=         0.0
 PRISM was handed   268432135 working-precision words and    36 shell-pairs
 IPart= 18 NShTot=           0 NBatch=           0 AvBLen=         0.0
 IPart=  9 NShTot=           0 NBatch=           0 AvBLen=         0.0
 PRISM was handed   268432135 working-precision words and    36 shell-pairs
 PRISM was handed   268432135 working-precision words and    36 shell-pairs
 PRISM was handed   268432135 working-precision words and    36 shell-pairs
 IPart=  2 NShTot=           3 NBatch=           3 AvBLen=         1.0
 IPart=  1 NShTot=          12 NBatch=          12 AvBLen=         1.0
 IPart= 35 NShTot=           0 NBatch=           0 AvBLen=         0.0
 PRISM was handed   268432135 working-precision words and    36 shell-pairs
 PRISM was handed   268432135 working-precision words and    36 shell-pairs
 IPart=  6 NShTot=           0 NBatch=           0 AvBLen=         0.0
 IPart= 31 NShTot=           0 NBatch=           0 AvBLen=         0.0
 IPart=  0 NShTot=          20 NBatch=          20 AvBLen=         1.0
 IPart= 20 NShTot=           0 NBatch=           0 AvBLen=         0.0
 PRISM was handed   268432135 working-precision words and    36 shell-pairs
 IPart=  7 NShTot=           0 NBatch=           0 AvBLen=         0.0
 IPart= 16 NShTot=           0 NBatch=           0 AvBLen=         0.0
 PRISM was handed   268432135 working-precision words and    36 shell-pairs
 PRISM was handed   268432135 working-precision words and    36 shell-pairs
 PRISM was handed   268432135 working-precision words and    36 shell-pairs
 PRISM was handed   268432135 working-precision words and    36 shell-pairs
 PRISM was handed   268432135 working-precision words and    36 shell-pairs
 PRISM was handed   268432135 working-precision words and    36 shell-pairs
 PRISM was handed   268432135 working-precision words and    36 shell-pairs
 PRISM was handed   268432135 working-precision words and    36 shell-pairs
 PRISM was handed   268432135 working-precision words and    36 shell-pairs
 IPart=  3 NShTot=           1 NBatch=           1 AvBLen=         1.0
 PRISM was handed   268432135 working-precision words and    36 shell-pairs
 PRISM was handed   268432135 working-precision words and    36 shell-pairs
 PRISM was handed   268432135 working-precision words and    36 shell-pairs
 PRISM was handed   268432135 working-precision words and    36 shell-pairs
 PRISM was handed   268432135 working-precision words and    36 shell-pairs
 IPart= 27 NShTot=           0 NBatch=           0 AvBLen=         0.0
 IPart= 34 NShTot=           0 NBatch=           0 AvBLen=         0.0
 IPart= 22 NShTot=           0 NBatch=           0 AvBLen=         0.0
 IPart= 11 NShTot=           0 NBatch=           0 AvBLen=         0.0
 IPart= 25 NShTot=           0 NBatch=           0 AvBLen=         0.0
 IPart= 13 NShTot=           0 NBatch=           0 AvBLen=         0.0
 IPart= 33 NShTot=           0 NBatch=           0 AvBLen=         0.0
 IPart= 10 NShTot=           0 NBatch=           0 AvBLen=         0.0
 IPart= 24 NShTot=           0 NBatch=           0 AvBLen=         0.0
 IPart= 19 NShTot=           0 NBatch=           0 AvBLen=         0.0
 IPart= 29 NShTot=           0 NBatch=           0 AvBLen=         0.0
 IPart= 12 NShTot=           0 NBatch=           0 AvBLen=         0.0
 IPart= 21 NShTot=           0 NBatch=           0 AvBLen=         0.0
 IPart= 30 NShTot=           0 NBatch=           0 AvBLen=         0.0
 PrSmSu:  NxtVal=             37.
 *** Overlap *** 
                1             2             3             4             5 
      1  0.100000D+01
      2  0.292292D-01  0.100000D+01
      3  0.221943D+00  0.261907D+00  0.100000D+01
      4  0.000000D+00  0.000000D+00  0.000000D+00  0.100000D+01
      5  0.000000D+00  0.000000D+00  0.000000D+00  0.000000D+00  0.100000D+01
      6 -0.623542D-01  0.000000D+00  0.000000D+00  0.000000D+00  0.000000D+00
      7  0.731808D+00  0.101215D-01  0.334950D+00  0.000000D+00  0.000000D+00
      8  0.000000D+00  0.000000D+00  0.000000D+00  0.320730D+00  0.000000D+00
      9  0.000000D+00  0.000000D+00  0.000000D+00  0.000000D+00  0.320730D+00
     10 -0.425238D+00  0.000000D+00  0.000000D+00  0.000000D+00  0.000000D+00
     11  0.515103D+00 -0.323625D-03  0.781293D-02  0.000000D+00  0.000000D+00
     12  0.000000D+00  0.000000D+00  0.000000D+00  0.126594D-01  0.000000D+00
     13  0.000000D+00  0.000000D+00  0.000000D+00  0.000000D+00  0.126594D-01
     14 -0.255337D+00  0.000000D+00  0.000000D+00  0.000000D+00  0.000000D+00
     15  0.388313D+00  0.575699D-02  0.450232D-01  0.000000D+00  0.000000D+00
     16  0.000000D+00  0.000000D+00  0.000000D+00  0.361007D-02  0.000000D+00
     17  0.000000D+00  0.000000D+00  0.000000D+00  0.000000D+00  0.361007D-02
     18 -0.107548D+00  0.000000D+00  0.000000D+00  0.000000D+00  0.000000D+00
     19  0.147145D+00  0.000000D+00  0.000000D+00  0.000000D+00  0.000000D+00
     20  0.000000D+00  0.000000D+00  0.000000D+00  0.000000D+00  0.000000D+00
     21  0.000000D+00  0.000000D+00  0.000000D+00  0.000000D+00  0.000000D+00
     22  0.000000D+00  0.000000D+00  0.000000D+00  0.000000D+00  0.000000D+00
     23  0.000000D+00  0.000000D+00  0.000000D+00  0.000000D+00  0.000000D+00
     24  0.189726D+00  0.000000D+00  0.000000D+00  0.000000D+00  0.000000D+00
     25  0.000000D+00  0.000000D+00  0.000000D+00  0.000000D+00  0.000000D+00
     26  0.000000D+00  0.000000D+00  0.000000D+00  0.000000D+00  0.000000D+00
     27  0.000000D+00  0.000000D+00  0.000000D+00  0.000000D+00  0.000000D+00
     28  0.000000D+00  0.000000D+00  0.000000D+00  0.000000D+00  0.000000D+00
                6             7             8             9            10 
      6  0.100000D+01
      7  0.000000D+00  0.100000D+01
      8  0.000000D+00  0.000000D+00  0.100000D+01
      9  0.000000D+00  0.000000D+00  0.000000D+00  0.100000D+01
     10  0.320730D+00  0.000000D+00  0.000000D+00  0.000000D+00  0.100000D+01
     11  0.000000D+00  0.254017D+00  0.000000D+00  0.000000D+00  0.000000D+00
     12  0.000000D+00  0.000000D+00  0.217564D+00  0.000000D+00  0.000000D+00
     13  0.000000D+00  0.000000D+00  0.000000D+00  0.217564D+00  0.000000D+00
     14  0.126594D-01  0.000000D+00  0.000000D+00  0.000000D+00  0.217564D+00
     15  0.000000D+00  0.230277D+00  0.000000D+00  0.000000D+00  0.000000D+00
     16  0.000000D+00  0.000000D+00  0.710789D-01  0.000000D+00  0.000000D+00
     17  0.000000D+00  0.000000D+00  0.000000D+00  0.710789D-01  0.000000D+00
     18  0.361007D-02  0.000000D+00  0.000000D+00  0.000000D+00  0.710789D-01
     19  0.000000D+00  0.000000D+00  0.000000D+00  0.000000D+00  0.000000D+00
     20  0.000000D+00  0.000000D+00  0.000000D+00  0.000000D+00  0.000000D+00
     21  0.000000D+00  0.000000D+00  0.000000D+00  0.000000D+00  0.000000D+00
     22  0.000000D+00  0.000000D+00  0.000000D+00  0.000000D+00  0.000000D+00
     23  0.000000D+00  0.000000D+00  0.000000D+00  0.000000D+00  0.000000D+00
     24  0.000000D+00  0.000000D+00  0.000000D+00  0.000000D+00  0.000000D+00
     25  0.000000D+00  0.000000D+00  0.000000D+00  0.000000D+00  0.000000D+00
     26  0.000000D+00  0.000000D+00  0.000000D+00  0.000000D+00  0.000000D+00
     27  0.000000D+00  0.000000D+00  0.000000D+00  0.000000D+00  0.000000D+00
     28  0.000000D+00  0.000000D+00  0.000000D+00  0.000000D+00  0.000000D+00
               11            12            13            14            15 
     11  0.100000D+01
     12  0.000000D+00  0.100000D+01
     13  0.000000D+00  0.000000D+00  0.100000D+01
     14  0.000000D+00  0.000000D+00  0.000000D+00  0.100000D+01
     15  0.850437D+00  0.000000D+00  0.000000D+00  0.000000D+00  0.100000D+01
     16  0.000000D+00  0.734775D+00  0.000000D+00  0.000000D+00  0.000000D+00
     17  0.000000D+00  0.000000D+00  0.734775D+00  0.000000D+00  0.000000D+00
     18  0.000000D+00  0.000000D+00  0.000000D+00  0.734775D+00  0.000000D+00
     19  0.000000D+00  0.000000D+00  0.000000D+00  0.000000D+00  0.000000D+00
     20  0.000000D+00  0.000000D+00  0.000000D+00  0.000000D+00  0.000000D+00
     21  0.000000D+00  0.000000D+00  0.000000D+00  0.000000D+00  0.000000D+00
     22  0.000000D+00  0.000000D+00  0.000000D+00  0.000000D+00  0.000000D+00
     23  0.000000D+00  0.000000D+00  0.000000D+00  0.000000D+00  0.000000D+00
     24  0.000000D+00  0.000000D+00  0.000000D+00  0.000000D+00  0.000000D+00
     25  0.000000D+00  0.000000D+00  0.000000D+00  0.000000D+00  0.000000D+00
     26  0.000000D+00  0.000000D+00  0.000000D+00  0.000000D+00  0.000000D+00
     27  0.000000D+00  0.000000D+00  0.000000D+00  0.000000D+00  0.000000D+00
     28  0.000000D+00  0.000000D+00  0.000000D+00  0.000000D+00  0.000000D+00
               16            17            18            19            20 
     16  0.100000D+01
     17  0.000000D+00  0.100000D+01
     18  0.000000D+00  0.000000D+00  0.100000D+01
     19  0.000000D+00  0.000000D+00  0.000000D+00  0.100000D+01
     20  0.000000D+00  0.000000D+00  0.000000D+00  0.000000D+00  0.100000D+01
     21  0.000000D+00  0.000000D+00  0.000000D+00  0.000000D+00  0.000000D+00
     22  0.000000D+00  0.000000D+00  0.000000D+00  0.000000D+00  0.000000D+00
     23  0.000000D+00  0.000000D+00  0.000000D+00  0.000000D+00  0.000000D+00
     24  0.000000D+00  0.000000D+00  0.000000D+00  0.395959D+00  0.000000D+00
     25  0.000000D+00  0.000000D+00  0.000000D+00  0.000000D+00  0.395959D+00
     26  0.000000D+00  0.000000D+00  0.000000D+00  0.000000D+00  0.000000D+00
     27  0.000000D+00  0.000000D+00  0.000000D+00  0.000000D+00  0.000000D+00
     28  0.000000D+00  0.000000D+00  0.000000D+00  0.000000D+00  0.000000D+00
               21            22            23            24            25 
     21  0.100000D+01
     22  0.000000D+00  0.100000D+01
     23  0.000000D+00  0.000000D+00  0.100000D+01
     24  0.000000D+00  0.000000D+00  0.000000D+00  0.100000D+01
     25  0.000000D+00  0.000000D+00  0.000000D+00  0.000000D+00  0.100000D+01
     26  0.395959D+00  0.000000D+00  0.000000D+00  0.000000D+00  0.000000D+00
     27  0.000000D+00  0.395959D+00  0.000000D+00  0.000000D+00  0.000000D+00
     28  0.000000D+00  0.000000D+00  0.395959D+00  0.000000D+00  0.000000D+00
               26            27            28 
     26  0.100000D+01
     27  0.000000D+00  0.100000D+01
     28  0.000000D+00  0.000000D+00  0.100000D+01
 *** Kinetic Energy *** 
                1             2             3             4             5 
      1  0.760032D+00
      2  0.986882D-02  0.238140D+03
      3  0.139583D+00 -0.849715D+01  0.110812D+02
      4  0.000000D+00  0.000000D+00  0.000000D+00  0.405624D+02
      5  0.000000D+00  0.000000D+00  0.000000D+00  0.000000D+00  0.405624D+02
      6 -0.120886D+00  0.000000D+00  0.000000D+00  0.000000D+00  0.000000D+00
      7  0.498960D+00 -0.119187D+01 -0.935732D+00  0.000000D+00  0.000000D+00
      8  0.000000D+00  0.000000D+00  0.000000D+00  0.225504D+01  0.000000D+00
      9  0.000000D+00  0.000000D+00  0.000000D+00  0.000000D+00  0.225504D+01
     10 -0.700227D+00  0.000000D+00  0.000000D+00  0.000000D+00  0.000000D+00
     11  0.184118D-02 -0.207112D-01 -0.130608D+00  0.000000D+00  0.000000D+00
     12  0.000000D+00  0.000000D+00  0.000000D+00  0.467897D-02  0.000000D+00
     13  0.000000D+00  0.000000D+00  0.000000D+00  0.000000D+00  0.467897D-02
     14 -0.728479D-01  0.000000D+00  0.000000D+00  0.000000D+00  0.000000D+00
     15  0.274173D-01  0.458197D-03  0.356994D-02  0.000000D+00  0.000000D+00
     16  0.000000D+00  0.000000D+00  0.000000D+00  0.477331D-03  0.000000D+00
     17  0.000000D+00  0.000000D+00  0.000000D+00  0.000000D+00  0.477331D-03
     18 -0.127639D-01  0.000000D+00  0.000000D+00  0.000000D+00  0.000000D+00
     19  0.632159D+00  0.000000D+00  0.000000D+00  0.000000D+00  0.000000D+00
     20  0.000000D+00  0.000000D+00  0.000000D+00  0.000000D+00  0.000000D+00
     21  0.000000D+00  0.000000D+00  0.000000D+00  0.000000D+00  0.000000D+00
     22  0.000000D+00  0.000000D+00  0.000000D+00  0.000000D+00  0.000000D+00
     23  0.000000D+00  0.000000D+00  0.000000D+00  0.000000D+00  0.000000D+00
     24  0.315555D+00  0.000000D+00  0.000000D+00  0.000000D+00  0.000000D+00
     25  0.000000D+00  0.000000D+00  0.000000D+00  0.000000D+00  0.000000D+00
     26  0.000000D+00  0.000000D+00  0.000000D+00  0.000000D+00  0.000000D+00
     27  0.000000D+00  0.000000D+00  0.000000D+00  0.000000D+00  0.000000D+00
     28  0.000000D+00  0.000000D+00  0.000000D+00  0.000000D+00  0.000000D+00
                6             7             8             9            10 
      6  0.405624D+02
      7  0.000000D+00  0.139068D+01
      8  0.000000D+00  0.000000D+00  0.266954D+01
      9  0.000000D+00  0.000000D+00  0.000000D+00  0.266954D+01
     10  0.225504D+01  0.000000D+00  0.000000D+00  0.000000D+00  0.266954D+01
     11  0.000000D+00 -0.125868D+00  0.000000D+00  0.000000D+00  0.000000D+00
     12  0.000000D+00  0.000000D+00  0.727335D-01  0.000000D+00  0.000000D+00
     13  0.000000D+00  0.000000D+00  0.000000D+00  0.727335D-01  0.000000D+00
     14  0.467897D-02  0.000000D+00  0.000000D+00  0.000000D+00  0.727335D-01
     15  0.000000D+00  0.176460D-01  0.000000D+00  0.000000D+00  0.000000D+00
     16  0.000000D+00  0.000000D+00  0.909809D-02  0.000000D+00  0.000000D+00
     17  0.000000D+00  0.000000D+00  0.000000D+00  0.909809D-02  0.000000D+00
     18  0.477331D-03  0.000000D+00  0.000000D+00  0.000000D+00  0.909809D-02
     19  0.000000D+00  0.000000D+00  0.000000D+00  0.000000D+00  0.000000D+00
     20  0.000000D+00  0.000000D+00  0.000000D+00  0.000000D+00  0.000000D+00
     21  0.000000D+00  0.000000D+00  0.000000D+00  0.000000D+00  0.000000D+00
     22  0.000000D+00  0.000000D+00  0.000000D+00  0.000000D+00  0.000000D+00
     23  0.000000D+00  0.000000D+00  0.000000D+00  0.000000D+00  0.000000D+00
     24  0.000000D+00  0.000000D+00  0.000000D+00  0.000000D+00  0.000000D+00
     25  0.000000D+00  0.000000D+00  0.000000D+00  0.000000D+00  0.000000D+00
     26  0.000000D+00  0.000000D+00  0.000000D+00  0.000000D+00  0.000000D+00
     27  0.000000D+00  0.000000D+00  0.000000D+00  0.000000D+00  0.000000D+00
     28  0.000000D+00  0.000000D+00  0.000000D+00  0.000000D+00  0.000000D+00
               11            12            13            14            15 
     11  0.130956D+00
     12  0.000000D+00  0.182825D+00
     13  0.000000D+00  0.000000D+00  0.182825D+00
     14  0.000000D+00  0.000000D+00  0.000000D+00  0.182825D+00
     15  0.485464D-01  0.000000D+00  0.000000D+00  0.000000D+00  0.398069D-01
     16  0.000000D+00  0.715354D-01  0.000000D+00  0.000000D+00  0.000000D+00
     17  0.000000D+00  0.000000D+00  0.715354D-01  0.000000D+00  0.000000D+00
     18  0.000000D+00  0.000000D+00  0.000000D+00  0.715354D-01  0.000000D+00
     19  0.000000D+00  0.000000D+00  0.000000D+00  0.000000D+00  0.000000D+00
     20  0.000000D+00  0.000000D+00  0.000000D+00  0.000000D+00  0.000000D+00
     21  0.000000D+00  0.000000D+00  0.000000D+00  0.000000D+00  0.000000D+00
     22  0.000000D+00  0.000000D+00  0.000000D+00  0.000000D+00  0.000000D+00
     23  0.000000D+00  0.000000D+00  0.000000D+00  0.000000D+00  0.000000D+00
     24  0.000000D+00  0.000000D+00  0.000000D+00  0.000000D+00  0.000000D+00
     25  0.000000D+00  0.000000D+00  0.000000D+00  0.000000D+00  0.000000D+00
     26  0.000000D+00  0.000000D+00  0.000000D+00  0.000000D+00  0.000000D+00
     27  0.000000D+00  0.000000D+00  0.000000D+00  0.000000D+00  0.000000D+00
     28  0.000000D+00  0.000000D+00  0.000000D+00  0.000000D+00  0.000000D+00
               16            17            18            19            20 
     16  0.663448D-01
     17  0.000000D+00  0.663448D-01
     18  0.000000D+00  0.000000D+00  0.663448D-01
     19  0.000000D+00  0.000000D+00  0.000000D+00  0.800995D+01
     20  0.000000D+00  0.000000D+00  0.000000D+00  0.000000D+00  0.800995D+01
     21  0.000000D+00  0.000000D+00  0.000000D+00  0.000000D+00  0.000000D+00
     22  0.000000D+00  0.000000D+00  0.000000D+00  0.000000D+00  0.000000D+00
     23  0.000000D+00  0.000000D+00  0.000000D+00  0.000000D+00  0.000000D+00
     24  0.000000D+00  0.000000D+00  0.000000D+00  0.930872D+00  0.000000D+00
     25  0.000000D+00  0.000000D+00  0.000000D+00  0.000000D+00  0.930872D+00
     26  0.000000D+00  0.000000D+00  0.000000D+00  0.000000D+00  0.000000D+00
     27  0.000000D+00  0.000000D+00  0.000000D+00  0.000000D+00  0.000000D+00
     28  0.000000D+00  0.000000D+00  0.000000D+00  0.000000D+00  0.000000D+00
               21            22            23            24            25 
     21  0.800995D+01
     22  0.000000D+00  0.800995D+01
     23  0.000000D+00  0.000000D+00  0.800995D+01
     24  0.000000D+00  0.000000D+00  0.000000D+00  0.144943D+01
     25  0.000000D+00  0.000000D+00  0.000000D+00  0.000000D+00  0.144943D+01
     26  0.930872D+00  0.000000D+00  0.000000D+00  0.000000D+00  0.000000D+00
     27  0.000000D+00  0.930872D+00  0.000000D+00  0.000000D+00  0.000000D+00
     28  0.000000D+00  0.000000D+00  0.930872D+00  0.000000D+00  0.000000D+00
               26            27            28 
     26  0.144943D+01
     27  0.000000D+00  0.144943D+01
     28  0.000000D+00  0.000000D+00  0.144943D+01
 Entering OneElI...
 Calculate potential energy integrals
    NBasis =  28  MinDer = 0  MaxDer = 0
 Requested accuracy = 0.1000D-12
 Symmetry will be used
 PrmmSu-InSpLW:  IPartL=    0 NPrtUS=   36 NPrtUL=    1 DoSpLW=F IThBeg=    0 IThEnd=   35 NThAct=   36.
 PrSmSu:  IncTry=   512 NBBP=             72 NTPThr=   100 NPartT=   36 Incr=           1 LDynOK=F GPUOK=F.
 PrsmSu:  NPrtUS=  36 ThrOK=T IAlg=1 LenDen=           0 ISkipM=0 DoSpLW=F IThBeg=    0 IThEnd=   35.
 Prism:   IPart=     0 DynPar=F LinDyn=F Incr=           1.
 PRISM was handed   268432575 working-precision words and    36 shell-pairs
 PRISM was handed   268432575 working-precision words and    36 shell-pairs
 PRISM was handed   268432575 working-precision words and    36 shell-pairs
 PRISM was handed   268432575 working-precision words and    36 shell-pairs
 PRISM was handed   268432575 working-precision words and    36 shell-pairs
 PRISM was handed   268432575 working-precision words and    36 shell-pairs
 PRISM was handed   268432575 working-precision words and    36 shell-pairs
 PRISM was handed   268432575 working-precision words and    36 shell-pairs
 PRISM was handed   268432575 working-precision words and    36 shell-pairs
 PRISM was handed   268432575 working-precision words and    36 shell-pairs
 PRISM was handed   268432575 working-precision words and    36 shell-pairs
 PRISM was handed   268432575 working-precision words and    36 shell-pairs
 PRISM was handed   268432575 working-precision words and    36 shell-pairs
 PRISM was handed   268432575 working-precision words and    36 shell-pairs
 PRISM was handed   268432575 working-precision words and    36 shell-pairs
 PRISM was handed   268432575 working-precision words and    36 shell-pairs
 PRISM was handed   268432575 working-precision words and    36 shell-pairs
 PRISM was handed   268432575 working-precision words and    36 shell-pairs
 PRISM was handed   268432575 working-precision words and    36 shell-pairs
 PRISM was handed   268432575 working-precision words and    36 shell-pairs
 PRISM was handed   268432575 working-precision words and    36 shell-pairs
 PRISM was handed   268432575 working-precision words and    36 shell-pairs
 PRISM was handed   268432575 working-precision words and    36 shell-pairs
 PRISM was handed   268432575 working-precision words and    36 shell-pairs
 PRISM was handed   268432575 working-precision words and    36 shell-pairs
 PRISM was handed   268432575 working-precision words and    36 shell-pairs
 PRISM was handed   268432575 working-precision words and    36 shell-pairs
 PRISM was handed   268432575 working-precision words and    36 shell-pairs
 PRISM was handed   268432575 working-precision words and    36 shell-pairs
 PRISM was handed   268432575 working-precision words and    36 shell-pairs
 PRISM was handed   268432575 working-precision words and    36 shell-pairs
 PRISM was handed   268432575 working-precision words and    36 shell-pairs
 PRISM was handed   268432575 working-precision words and    36 shell-pairs
 PRISM was handed   268432575 working-precision words and    36 shell-pairs
 PRISM was handed   268432575 working-precision words and    36 shell-pairs
 PRISM was handed   268432575 working-precision words and    36 shell-pairs
 IPart= 31 NShTot=           0 NBatch=           0 AvBLen=         0.0
 IPart= 33 NShTot=           0 NBatch=           0 AvBLen=         0.0
 IPart= 10 NShTot=           0 NBatch=           0 AvBLen=         0.0
 IPart= 27 NShTot=           0 NBatch=           0 AvBLen=         0.0
 IPart= 24 NShTot=           0 NBatch=           0 AvBLen=         0.0
 IPart= 29 NShTot=           0 NBatch=           0 AvBLen=         0.0
 IPart= 21 NShTot=           0 NBatch=           0 AvBLen=         0.0
 IPart=  3 NShTot=           2 NBatch=           1 AvBLen=         2.0
 IPart= 18 NShTot=           0 NBatch=           0 AvBLen=         0.0
 IPart= 30 NShTot=           0 NBatch=           0 AvBLen=         0.0
 IPart= 12 NShTot=           0 NBatch=           0 AvBLen=         0.0
 IPart= 25 NShTot=           0 NBatch=           0 AvBLen=         0.0
 IPart= 22 NShTot=           0 NBatch=           0 AvBLen=         0.0
 IPart=  8 NShTot=           0 NBatch=           0 AvBLen=         0.0
 IPart=  0 NShTot=          40 NBatch=          20 AvBLen=         2.0
 IPart= 14 NShTot=           0 NBatch=           0 AvBLen=         0.0
 IPart= 35 NShTot=           0 NBatch=           0 AvBLen=         0.0
 IPart= 13 NShTot=           0 NBatch=           0 AvBLen=         0.0
 IPart=  5 NShTot=           0 NBatch=           0 AvBLen=         0.0
 IPart= 17 NShTot=           0 NBatch=           0 AvBLen=         0.0
 IPart=  4 NShTot=           0 NBatch=           0 AvBLen=         0.0
 IPart= 19 NShTot=           0 NBatch=           0 AvBLen=         0.0
 IPart= 32 NShTot=           0 NBatch=           0 AvBLen=         0.0
 IPart= 16 NShTot=           0 NBatch=           0 AvBLen=         0.0
 IPart= 23 NShTot=           0 NBatch=           0 AvBLen=         0.0
 IPart= 26 NShTot=           0 NBatch=           0 AvBLen=         0.0
 IPart=  6 NShTot=           0 NBatch=           0 AvBLen=         0.0
 IPart=  7 NShTot=           0 NBatch=           0 AvBLen=         0.0
 IPart=  2 NShTot=           6 NBatch=           3 AvBLen=         2.0
 IPart= 11 NShTot=           0 NBatch=           0 AvBLen=         0.0
 IPart= 28 NShTot=           0 NBatch=           0 AvBLen=         0.0
 IPart=  1 NShTot=          24 NBatch=          12 AvBLen=         2.0
 IPart= 20 NShTot=           0 NBatch=           0 AvBLen=         0.0
 IPart= 15 NShTot=           0 NBatch=           0 AvBLen=         0.0
 IPart= 34 NShTot=           0 NBatch=           0 AvBLen=         0.0
 IPart=  9 NShTot=           0 NBatch=           0 AvBLen=         0.0
 PrSmSu:  NxtVal=             37.
 ***** Potential Energy ***** 
                1             2             3             4             5 
      1  0.196423D+02
      2  0.767354D+01  0.479695D+03
      3  0.143072D+02  0.596239D+02  0.860059D+02
      4  0.000000D+00  0.000000D+00  0.000000D+00  0.998454D+02
      5  0.000000D+00  0.000000D+00  0.000000D+00  0.000000D+00  0.998454D+02
      6 -0.334863D+01 -0.270196D-01 -0.190959D+00  0.000000D+00  0.000000D+00
      7  0.181729D+02  0.186931D+01  0.178415D+02  0.000000D+00  0.000000D+00
      8  0.000000D+00  0.000000D+00  0.000000D+00  0.186898D+02  0.000000D+00
      9  0.000000D+00  0.000000D+00  0.000000D+00  0.000000D+00  0.186898D+02
     10 -0.957525D+01 -0.167492D-02 -0.101519D+00  0.000000D+00  0.000000D+00
     11  0.608164D+01 -0.978748D-01  0.279657D+00  0.000000D+00  0.000000D+00
     12  0.000000D+00  0.000000D+00  0.000000D+00  0.645237D+00  0.000000D+00
     13  0.000000D+00  0.000000D+00  0.000000D+00  0.000000D+00  0.645237D+00
     14 -0.289528D+01 -0.425058D-04 -0.435119D-02  0.000000D+00  0.000000D+00
     15  0.532615D+01  0.151044D+01  0.286375D+01  0.000000D+00  0.000000D+00
     16  0.000000D+00  0.000000D+00  0.000000D+00  0.183181D+00  0.000000D+00
     17  0.000000D+00  0.000000D+00  0.000000D+00  0.000000D+00  0.183181D+00
     18 -0.107602D+01 -0.119477D-04 -0.124355D-02  0.000000D+00  0.000000D+00
     19  0.393105D+01  0.205809D-03  0.521568D-01  0.000000D+00  0.000000D+00
     20  0.000000D+00  0.000000D+00  0.000000D+00 -0.760570D-01  0.000000D+00
     21  0.000000D+00  0.000000D+00  0.000000D+00  0.000000D+00 -0.760570D-01
     22  0.000000D+00  0.000000D+00  0.000000D+00  0.000000D+00  0.000000D+00
     23  0.000000D+00  0.000000D+00  0.000000D+00  0.000000D+00  0.000000D+00
     24  0.297030D+01  0.540876D-05  0.558240D-02  0.000000D+00  0.000000D+00
     25  0.000000D+00  0.000000D+00  0.000000D+00 -0.678286D-02  0.000000D+00
     26  0.000000D+00  0.000000D+00  0.000000D+00  0.000000D+00 -0.678286D-02
     27  0.000000D+00  0.000000D+00  0.000000D+00  0.000000D+00  0.000000D+00
     28  0.000000D+00  0.000000D+00  0.000000D+00  0.000000D+00  0.000000D+00
                6             7             8             9            10 
      6  0.999145D+02
      7 -0.993146D-01  0.272262D+02
      8  0.000000D+00  0.000000D+00  0.259878D+02
      9  0.000000D+00  0.000000D+00  0.000000D+00  0.259878D+02
     10  0.187470D+02 -0.402770D+00  0.000000D+00  0.000000D+00  0.263102D+02
     11 -0.329758D-02  0.422511D+01  0.000000D+00  0.000000D+00 -0.761357D-01
     12  0.000000D+00  0.000000D+00  0.355572D+01  0.000000D+00  0.000000D+00
     13  0.000000D+00  0.000000D+00  0.000000D+00  0.355572D+01  0.000000D+00
     14  0.648087D+00 -0.516035D-01  0.000000D+00  0.000000D+00  0.359695D+01
     15 -0.123192D-01  0.483348D+01  0.000000D+00  0.000000D+00 -0.774425D-01
     16  0.000000D+00  0.000000D+00  0.111858D+01  0.000000D+00  0.000000D+00
     17  0.000000D+00  0.000000D+00  0.000000D+00  0.111858D+01  0.000000D+00
     18  0.183999D+00 -0.158009D-01  0.000000D+00  0.000000D+00  0.113115D+01
     19 -0.126833D+00  0.258055D+00  0.000000D+00  0.000000D+00 -0.512501D+00
     20  0.000000D+00  0.000000D+00 -0.224614D+00  0.000000D+00  0.000000D+00
     21  0.000000D+00  0.000000D+00  0.000000D+00 -0.224614D+00  0.000000D+00
     22  0.000000D+00  0.000000D+00  0.000000D+00  0.000000D+00  0.000000D+00
     23  0.000000D+00  0.000000D+00  0.000000D+00  0.000000D+00  0.000000D+00
     24 -0.132144D-01  0.988407D-01  0.000000D+00  0.000000D+00 -0.218914D+00
     25  0.000000D+00  0.000000D+00 -0.104839D+00  0.000000D+00  0.000000D+00
     26  0.000000D+00  0.000000D+00  0.000000D+00 -0.104839D+00  0.000000D+00
     27  0.000000D+00  0.000000D+00  0.000000D+00  0.000000D+00  0.000000D+00
     28  0.000000D+00  0.000000D+00  0.000000D+00  0.000000D+00  0.000000D+00
               11            12            13            14            15 
     11  0.803184D+01
     12  0.000000D+00  0.661046D+01
     13  0.000000D+00  0.000000D+00  0.661046D+01
     14 -0.613109D-01  0.000000D+00  0.000000D+00  0.663102D+01
     15  0.620529D+01  0.000000D+00  0.000000D+00 -0.478429D-01  0.597499D+01
     16  0.000000D+00  0.401050D+01  0.000000D+00  0.000000D+00  0.000000D+00
     17  0.000000D+00  0.000000D+00  0.401050D+01  0.000000D+00  0.000000D+00
     18 -0.274942D-01  0.000000D+00  0.000000D+00  0.401924D+01 -0.259299D-01
     19  0.344515D-01  0.000000D+00  0.000000D+00 -0.544690D-01  0.413453D-01
     20  0.000000D+00 -0.243093D-01  0.000000D+00  0.000000D+00  0.000000D+00
     21  0.000000D+00  0.000000D+00 -0.243093D-01  0.000000D+00  0.000000D+00
     22  0.000000D+00  0.000000D+00  0.000000D+00  0.000000D+00  0.000000D+00
     23  0.000000D+00  0.000000D+00  0.000000D+00  0.000000D+00  0.000000D+00
     24  0.410530D-01  0.000000D+00  0.000000D+00 -0.742983D-01  0.318094D-01
     25  0.000000D+00 -0.459672D-01  0.000000D+00  0.000000D+00  0.000000D+00
     26  0.000000D+00  0.000000D+00 -0.459672D-01  0.000000D+00  0.000000D+00
     27  0.000000D+00  0.000000D+00  0.000000D+00  0.000000D+00  0.000000D+00
     28  0.000000D+00  0.000000D+00  0.000000D+00  0.000000D+00  0.000000D+00
               16            17            18            19            20 
     16  0.398440D+01
     17  0.000000D+00  0.398440D+01
     18  0.000000D+00  0.000000D+00  0.398916D+01
     19  0.000000D+00  0.000000D+00 -0.162596D-01  0.304389D+02
     20 -0.729032D-02  0.000000D+00  0.000000D+00  0.000000D+00  0.301586D+02
     21  0.000000D+00 -0.729032D-02  0.000000D+00  0.000000D+00  0.000000D+00
     22  0.000000D+00  0.000000D+00  0.000000D+00  0.000000D+00  0.000000D+00
     23  0.000000D+00  0.000000D+00  0.000000D+00  0.000000D+00  0.000000D+00
     24  0.000000D+00  0.000000D+00 -0.253939D-01  0.835519D+01  0.000000D+00
     25 -0.160902D-01  0.000000D+00  0.000000D+00  0.000000D+00  0.826066D+01
     26  0.000000D+00 -0.160902D-01  0.000000D+00  0.000000D+00  0.000000D+00
     27  0.000000D+00  0.000000D+00  0.000000D+00  0.000000D+00  0.000000D+00
     28  0.000000D+00  0.000000D+00  0.000000D+00  0.000000D+00  0.000000D+00
               21            22            23            24            25 
     21  0.301586D+02
     22  0.000000D+00  0.300035D+02
     23  0.000000D+00  0.000000D+00  0.300035D+02
     24  0.000000D+00  0.000000D+00  0.000000D+00  0.126688D+02
     25  0.000000D+00  0.000000D+00  0.000000D+00  0.000000D+00  0.126036D+02
     26  0.826066D+01  0.000000D+00  0.000000D+00  0.000000D+00  0.000000D+00
     27  0.000000D+00  0.820703D+01  0.000000D+00  0.000000D+00  0.000000D+00
     28  0.000000D+00  0.000000D+00  0.820703D+01  0.000000D+00  0.000000D+00
               26            27            28 
     26  0.126036D+02
     27  0.000000D+00  0.125454D+02
     28  0.000000D+00  0.000000D+00  0.125454D+02
 ****** Core Hamiltonian ****** 
                1             2             3             4             5 
      1 -0.188823D+02
      2 -0.766367D+01 -0.241556D+03
      3 -0.141676D+02 -0.681210D+02 -0.749247D+02
      4  0.000000D+00  0.000000D+00  0.000000D+00 -0.592830D+02
      5  0.000000D+00  0.000000D+00  0.000000D+00  0.000000D+00 -0.592830D+02
      6  0.322774D+01  0.270196D-01  0.190959D+00  0.000000D+00  0.000000D+00
      7 -0.176740D+02 -0.306117D+01 -0.187772D+02  0.000000D+00  0.000000D+00
      8  0.000000D+00  0.000000D+00  0.000000D+00 -0.164348D+02  0.000000D+00
      9  0.000000D+00  0.000000D+00  0.000000D+00  0.000000D+00 -0.164348D+02
     10  0.887502D+01  0.167492D-02  0.101519D+00  0.000000D+00  0.000000D+00
     11 -0.607980D+01  0.771636D-01 -0.410265D+00  0.000000D+00  0.000000D+00
     12  0.000000D+00  0.000000D+00  0.000000D+00 -0.640558D+00  0.000000D+00
     13  0.000000D+00  0.000000D+00  0.000000D+00  0.000000D+00 -0.640558D+00
     14  0.282243D+01  0.425058D-04  0.435119D-02  0.000000D+00  0.000000D+00
     15 -0.529873D+01 -0.150998D+01 -0.286018D+01  0.000000D+00  0.000000D+00
     16  0.000000D+00  0.000000D+00  0.000000D+00 -0.182703D+00  0.000000D+00
     17  0.000000D+00  0.000000D+00  0.000000D+00  0.000000D+00 -0.182703D+00
     18  0.106326D+01  0.119477D-04  0.124355D-02  0.000000D+00  0.000000D+00
     19 -0.329889D+01 -0.205809D-03 -0.521568D-01  0.000000D+00  0.000000D+00
     20  0.000000D+00  0.000000D+00  0.000000D+00  0.760570D-01  0.000000D+00
     21  0.000000D+00  0.000000D+00  0.000000D+00  0.000000D+00  0.760570D-01
     22  0.000000D+00  0.000000D+00  0.000000D+00  0.000000D+00  0.000000D+00
     23  0.000000D+00  0.000000D+00  0.000000D+00  0.000000D+00  0.000000D+00
     24 -0.265475D+01 -0.540876D-05 -0.558240D-02  0.000000D+00  0.000000D+00
     25  0.000000D+00  0.000000D+00  0.000000D+00  0.678286D-02  0.000000D+00
     26  0.000000D+00  0.000000D+00  0.000000D+00  0.000000D+00  0.678286D-02
     27  0.000000D+00  0.000000D+00  0.000000D+00  0.000000D+00  0.000000D+00
     28  0.000000D+00  0.000000D+00  0.000000D+00  0.000000D+00  0.000000D+00
                6             7             8             9            10 
      6 -0.593521D+02
      7  0.993146D-01 -0.258355D+02
      8  0.000000D+00  0.000000D+00 -0.233183D+02
      9  0.000000D+00  0.000000D+00  0.000000D+00 -0.233183D+02
     10 -0.164920D+02  0.402770D+00  0.000000D+00  0.000000D+00 -0.236406D+02
     11  0.329758D-02 -0.435098D+01  0.000000D+00  0.000000D+00  0.761357D-01
     12  0.000000D+00  0.000000D+00 -0.348299D+01  0.000000D+00  0.000000D+00
     13  0.000000D+00  0.000000D+00  0.000000D+00 -0.348299D+01  0.000000D+00
     14 -0.643408D+00  0.516035D-01  0.000000D+00  0.000000D+00 -0.352422D+01
     15  0.123192D-01 -0.481583D+01  0.000000D+00  0.000000D+00  0.774425D-01
     16  0.000000D+00  0.000000D+00 -0.110948D+01  0.000000D+00  0.000000D+00
     17  0.000000D+00  0.000000D+00  0.000000D+00 -0.110948D+01  0.000000D+00
     18 -0.183522D+00  0.158009D-01  0.000000D+00  0.000000D+00 -0.112205D+01
     19  0.126833D+00 -0.258055D+00  0.000000D+00  0.000000D+00  0.512501D+00
     20  0.000000D+00  0.000000D+00  0.224614D+00  0.000000D+00  0.000000D+00
     21  0.000000D+00  0.000000D+00  0.000000D+00  0.224614D+00  0.000000D+00
     22  0.000000D+00  0.000000D+00  0.000000D+00  0.000000D+00  0.000000D+00
     23  0.000000D+00  0.000000D+00  0.000000D+00  0.000000D+00  0.000000D+00
     24  0.132144D-01 -0.988407D-01  0.000000D+00  0.000000D+00  0.218914D+00
     25  0.000000D+00  0.000000D+00  0.104839D+00  0.000000D+00  0.000000D+00
     26  0.000000D+00  0.000000D+00  0.000000D+00  0.104839D+00  0.000000D+00
     27  0.000000D+00  0.000000D+00  0.000000D+00  0.000000D+00  0.000000D+00
     28  0.000000D+00  0.000000D+00  0.000000D+00  0.000000D+00  0.000000D+00
               11            12            13            14            15 
     11 -0.790088D+01
     12  0.000000D+00 -0.642764D+01
     13  0.000000D+00  0.000000D+00 -0.642764D+01
     14  0.613109D-01  0.000000D+00  0.000000D+00 -0.644820D+01
     15 -0.615675D+01  0.000000D+00  0.000000D+00  0.478429D-01 -0.593519D+01
     16  0.000000D+00 -0.393896D+01  0.000000D+00  0.000000D+00  0.000000D+00
     17  0.000000D+00  0.000000D+00 -0.393896D+01  0.000000D+00  0.000000D+00
     18  0.274942D-01  0.000000D+00  0.000000D+00 -0.394771D+01  0.259299D-01
     19 -0.344515D-01  0.000000D+00  0.000000D+00  0.544690D-01 -0.413453D-01
     20  0.000000D+00  0.243093D-01  0.000000D+00  0.000000D+00  0.000000D+00
     21  0.000000D+00  0.000000D+00  0.243093D-01  0.000000D+00  0.000000D+00
     22  0.000000D+00  0.000000D+00  0.000000D+00  0.000000D+00  0.000000D+00
     23  0.000000D+00  0.000000D+00  0.000000D+00  0.000000D+00  0.000000D+00
     24 -0.410530D-01  0.000000D+00  0.000000D+00  0.742983D-01 -0.318094D-01
     25  0.000000D+00  0.459672D-01  0.000000D+00  0.000000D+00  0.000000D+00
     26  0.000000D+00  0.000000D+00  0.459672D-01  0.000000D+00  0.000000D+00
     27  0.000000D+00  0.000000D+00  0.000000D+00  0.000000D+00  0.000000D+00
     28  0.000000D+00  0.000000D+00  0.000000D+00  0.000000D+00  0.000000D+00
               16            17            18            19            20 
     16 -0.391806D+01
     17  0.000000D+00 -0.391806D+01
     18  0.000000D+00  0.000000D+00 -0.392282D+01
     19  0.000000D+00  0.000000D+00  0.162596D-01 -0.224290D+02
     20  0.729032D-02  0.000000D+00  0.000000D+00  0.000000D+00 -0.221486D+02
     21  0.000000D+00  0.729032D-02  0.000000D+00  0.000000D+00  0.000000D+00
     22  0.000000D+00  0.000000D+00  0.000000D+00  0.000000D+00  0.000000D+00
     23  0.000000D+00  0.000000D+00  0.000000D+00  0.000000D+00  0.000000D+00
     24  0.000000D+00  0.000000D+00  0.253939D-01 -0.742432D+01  0.000000D+00
     25  0.160902D-01  0.000000D+00  0.000000D+00  0.000000D+00 -0.732979D+01
     26  0.000000D+00  0.160902D-01  0.000000D+00  0.000000D+00  0.000000D+00
     27  0.000000D+00  0.000000D+00  0.000000D+00  0.000000D+00  0.000000D+00
     28  0.000000D+00  0.000000D+00  0.000000D+00  0.000000D+00  0.000000D+00
               21            22            23            24            25 
     21 -0.221486D+02
     22  0.000000D+00 -0.219936D+02
     23  0.000000D+00  0.000000D+00 -0.219936D+02
     24  0.000000D+00  0.000000D+00  0.000000D+00 -0.112193D+02
     25  0.000000D+00  0.000000D+00  0.000000D+00  0.000000D+00 -0.111542D+02
     26 -0.732979D+01  0.000000D+00  0.000000D+00  0.000000D+00  0.000000D+00
     27  0.000000D+00 -0.727616D+01  0.000000D+00  0.000000D+00  0.000000D+00
     28  0.000000D+00  0.000000D+00 -0.727616D+01  0.000000D+00  0.000000D+00
               26            27            28 
     26 -0.111542D+02
     27  0.000000D+00 -0.110959D+02
     28  0.000000D+00  0.000000D+00 -0.110959D+02
 SVDSVc IOpt=   1 NormSV=T IR=1
 SVDSVc V= 2.65D+00 1.83D+00 1.45D+00 1.40D+00 1.37D+00 1.30D+00 1.01D+00 7.35D-01 6.06D-01 6.04D-01
 SVDSVc V= 5.90D-01 2.53D-01 1.72D-01 3.57D-02
 SVDSVc IOpt=   1 NormSV=T IR=2
 SVDSVc V= 1.40D+00 6.04D-01
 SVDSVc IOpt=   1 NormSV=T IR=3
 SVDSVc V= 1.80D+00 1.40D+00 1.28D+00 6.73D-01 6.04D-01 2.48D-01
 SVDSVc IOpt=   1 NormSV=T IR=4
 SVDSVc V= 1.80D+00 1.40D+00 1.28D+00 6.73D-01 6.04D-01 2.48D-01
 TstOVc:  Largest diagonal error= 7.99D-15 IB=1 I=   14.
 TstOVc:  Largest same sym error= 3.81D-15 IB=1 I=   14 J=   13.
 TstOVc:  Largest diff sym error= 0.00D+00 IB=0 JB=0 I=    0 J=    0.
 Orthogonalized basis functions: 
                 1             2             3             4             5 
      1   0.340272D+00 -0.515980D-01  0.144049D+00  0.000000D+00  0.472008D-01
      2   0.261015D-01  0.105331D-01  0.129489D+00  0.000000D+00  0.332443D+00
      3   0.110626D+00  0.322557D-01  0.207091D+00  0.000000D+00  0.462384D+00
      4   0.000000D+00  0.000000D+00  0.000000D+00  0.000000D+00  0.000000D+00
      5   0.000000D+00  0.000000D+00  0.000000D+00  0.000000D+00  0.000000D+00
      6  -0.354962D-01  0.996238D-01 -0.944021D-01  0.000000D+00 -0.698616D-01
      7   0.255104D+00  0.762497D-01  0.121704D+00  0.000000D+00  0.255081D+00
      8   0.000000D+00  0.000000D+00  0.000000D+00  0.000000D+00  0.000000D+00
      9   0.000000D+00  0.000000D+00  0.000000D+00  0.000000D+00  0.000000D+00
     10  -0.111172D+00  0.224272D+00 -0.111699D+00  0.000000D+00 -0.746148D-01
     11   0.283909D+00  0.184286D+00 -0.245854D+00  0.000000D+00 -0.204424D+00
     12   0.000000D+00  0.000000D+00  0.000000D+00  0.000000D+00  0.000000D+00
     13   0.000000D+00  0.000000D+00  0.000000D+00  0.000000D+00  0.000000D+00
     14  -0.998142D-01  0.464032D+00  0.134914D+00  0.000000D+00  0.466350D-01
     15   0.265907D+00  0.187856D+00 -0.255588D+00  0.000000D+00 -0.198550D+00
     16   0.000000D+00  0.000000D+00  0.000000D+00  0.000000D+00  0.000000D+00
     17   0.000000D+00  0.000000D+00  0.000000D+00  0.000000D+00  0.000000D+00
     18  -0.717063D-01  0.437574D+00  0.167410D+00  0.000000D+00  0.633700D-01
     19   0.423319D-01 -0.191664D-01  0.444124D+00  0.000000D+00 -0.346916D+00
     20   0.000000D+00  0.000000D+00  0.000000D+00  0.000000D+00  0.000000D+00
     21   0.000000D+00  0.000000D+00  0.000000D+00  0.000000D+00  0.000000D+00
     22   0.000000D+00  0.000000D+00  0.000000D+00  0.598479D+00  0.000000D+00
     23   0.000000D+00  0.000000D+00  0.000000D+00  0.000000D+00  0.000000D+00
     24   0.494306D-01 -0.209598D-01  0.451373D+00  0.000000D+00 -0.344302D+00
     25   0.000000D+00  0.000000D+00  0.000000D+00  0.000000D+00  0.000000D+00
     26   0.000000D+00  0.000000D+00  0.000000D+00  0.000000D+00  0.000000D+00
     27   0.000000D+00  0.000000D+00  0.000000D+00  0.598479D+00  0.000000D+00
     28   0.000000D+00  0.000000D+00  0.000000D+00  0.000000D+00  0.000000D+00
                 6             7             8             9            10 
      1  -0.672996D-01 -0.211789D+00  0.254439D+00 -0.608115D-01  0.000000D+00
      2   0.186407D+00  0.719230D+00  0.343273D+00 -0.137433D+00  0.000000D+00
      3   0.216325D+00  0.730430D-01 -0.368810D+00  0.216988D+00  0.000000D+00
      4   0.000000D+00  0.000000D+00  0.000000D+00  0.000000D+00  0.000000D+00
      5   0.000000D+00  0.000000D+00  0.000000D+00  0.000000D+00  0.000000D+00
      6   0.549452D+00 -0.253199D+00  0.769472D+00  0.129091D+00  0.000000D+00
      7   0.902930D-01 -0.460286D+00 -0.130540D+00 -0.116318D+00  0.000000D+00
      8   0.000000D+00  0.000000D+00  0.000000D+00  0.000000D+00  0.000000D+00
      9   0.000000D+00  0.000000D+00  0.000000D+00  0.000000D+00  0.000000D+00
     10   0.507762D+00 -0.502463D-01 -0.589726D+00 -0.170542D+00  0.000000D+00
     11  -0.258199D-02  0.216891D+00 -0.319267D-01  0.209646D-01  0.000000D+00
     12   0.000000D+00  0.000000D+00  0.000000D+00  0.000000D+00  0.000000D+00
     13   0.000000D+00  0.000000D+00  0.000000D+00  0.000000D+00  0.000000D+00
     14  -0.163062D+00 -0.259072D-01  0.392259D-03 -0.106891D-01  0.000000D+00
     15   0.109701D-01  0.268825D+00 -0.101644D+00  0.598058D-01  0.000000D+00
     16   0.000000D+00  0.000000D+00  0.000000D+00  0.000000D+00  0.000000D+00
     17   0.000000D+00  0.000000D+00  0.000000D+00  0.000000D+00  0.000000D+00
     18  -0.249472D+00 -0.548356D-01  0.249634D+00  0.328790D-01  0.000000D+00
     19   0.118537D+00  0.104300D+00 -0.106260D+00  0.883865D+00  0.000000D+00
     20   0.000000D+00  0.000000D+00  0.000000D+00  0.000000D+00  0.000000D+00
     21   0.000000D+00  0.000000D+00  0.000000D+00  0.000000D+00  0.000000D+00
     22   0.000000D+00  0.000000D+00  0.000000D+00  0.000000D+00  0.909812D+00
     23   0.000000D+00  0.000000D+00  0.000000D+00  0.000000D+00  0.000000D+00
     24   0.114411D+00  0.822786D-01 -0.233715D-01 -0.857948D+00  0.000000D+00
     25   0.000000D+00  0.000000D+00  0.000000D+00  0.000000D+00  0.000000D+00
     26   0.000000D+00  0.000000D+00  0.000000D+00  0.000000D+00  0.000000D+00
     27   0.000000D+00  0.000000D+00  0.000000D+00  0.000000D+00 -0.909812D+00
     28   0.000000D+00  0.000000D+00  0.000000D+00  0.000000D+00  0.000000D+00
                11            12            13            14            15 
      1  -0.166211D+00 -0.232168D+00 -0.697575D+00  0.351770D+01  0.000000D+00
      2  -0.509894D+00  0.227300D-01  0.614876D-01 -0.874618D-01  0.000000D+00
      3   0.832654D+00 -0.510885D-01 -0.179589D+00 -0.828347D-02  0.000000D+00
      4   0.000000D+00  0.000000D+00  0.000000D+00  0.000000D+00  0.000000D+00
      5   0.000000D+00  0.000000D+00  0.000000D+00  0.000000D+00  0.000000D+00
      6   0.279772D+00  0.166608D+00  0.733139D-01 -0.269811D+00  0.000000D+00
      7  -0.540969D+00  0.233217D+00  0.676860D+00 -0.234064D+01  0.000000D+00
      8   0.000000D+00  0.000000D+00  0.000000D+00  0.000000D+00  0.000000D+00
      9   0.000000D+00  0.000000D+00  0.000000D+00  0.000000D+00  0.000000D+00
     10  -0.389562D+00 -0.471822D+00 -0.313621D+00  0.146340D+01  0.000000D+00
     11   0.770298D-01 -0.761604D-01 -0.140893D+01 -0.228050D+01  0.000000D+00
     12   0.000000D+00  0.000000D+00  0.000000D+00  0.000000D+00  0.000000D+00
     13   0.000000D+00  0.000000D+00  0.000000D+00  0.000000D+00  0.000000D+00
     14  -0.253309D-01  0.135196D+01 -0.361033D+00  0.923337D+00  0.000000D+00
     15   0.217290D+00  0.138360D+00  0.159451D+01  0.115448D+01  0.000000D+00
     16   0.000000D+00  0.000000D+00  0.000000D+00  0.000000D+00  0.000000D+00
     17   0.000000D+00  0.000000D+00  0.000000D+00  0.000000D+00  0.000000D+00
     18   0.668970D-01 -0.131874D+01  0.256243D+00 -0.418071D+00  0.000000D+00
     19  -0.220346D+00  0.201358D-01  0.616221D-01 -0.303805D+00  0.000000D+00
     20   0.000000D+00  0.000000D+00  0.000000D+00  0.000000D+00  0.000000D+00
     21   0.000000D+00  0.000000D+00  0.000000D+00  0.000000D+00  0.000000D+00
     22   0.000000D+00  0.000000D+00  0.000000D+00  0.000000D+00  0.000000D+00
     23   0.000000D+00  0.000000D+00  0.000000D+00  0.000000D+00  0.598479D+00
     24   0.289833D+00  0.482780D-01  0.130304D+00 -0.567333D+00  0.000000D+00
     25   0.000000D+00  0.000000D+00  0.000000D+00  0.000000D+00  0.000000D+00
     26   0.000000D+00  0.000000D+00  0.000000D+00  0.000000D+00  0.000000D+00
     27   0.000000D+00  0.000000D+00  0.000000D+00  0.000000D+00  0.000000D+00
     28   0.000000D+00  0.000000D+00  0.000000D+00  0.000000D+00  0.598479D+00
                16            17            18            19            20 
      1   0.000000D+00  0.000000D+00  0.000000D+00  0.000000D+00  0.000000D+00
      2   0.000000D+00  0.000000D+00  0.000000D+00  0.000000D+00  0.000000D+00
      3   0.000000D+00  0.000000D+00  0.000000D+00  0.000000D+00  0.000000D+00
      4   0.000000D+00  0.989007D-01  0.000000D+00  0.631613D+00 -0.834101D+00
      5   0.000000D+00  0.000000D+00  0.000000D+00  0.000000D+00  0.000000D+00
      6   0.000000D+00  0.000000D+00  0.000000D+00  0.000000D+00  0.000000D+00
      7   0.000000D+00  0.000000D+00  0.000000D+00  0.000000D+00  0.000000D+00
      8   0.000000D+00  0.221260D+00  0.000000D+00  0.556385D+00  0.851114D+00
      9   0.000000D+00  0.000000D+00  0.000000D+00  0.000000D+00  0.000000D+00
     10   0.000000D+00  0.000000D+00  0.000000D+00  0.000000D+00  0.000000D+00
     11   0.000000D+00  0.000000D+00  0.000000D+00  0.000000D+00  0.000000D+00
     12   0.000000D+00  0.509061D+00  0.000000D+00 -0.144130D+00  0.341821D-01
     13   0.000000D+00  0.000000D+00  0.000000D+00  0.000000D+00  0.000000D+00
     14   0.000000D+00  0.000000D+00  0.000000D+00  0.000000D+00  0.000000D+00
     15   0.000000D+00  0.000000D+00  0.000000D+00  0.000000D+00  0.000000D+00
     16   0.000000D+00  0.487367D+00  0.000000D+00 -0.230220D+00 -0.252838D+00
     17   0.000000D+00  0.000000D+00  0.000000D+00  0.000000D+00  0.000000D+00
     18   0.000000D+00  0.000000D+00  0.000000D+00  0.000000D+00  0.000000D+00
     19   0.000000D+00  0.000000D+00  0.000000D+00  0.000000D+00  0.000000D+00
     20   0.000000D+00  0.000000D+00  0.598479D+00  0.000000D+00  0.000000D+00
     21   0.000000D+00  0.000000D+00  0.000000D+00  0.000000D+00  0.000000D+00
     22   0.000000D+00  0.000000D+00  0.000000D+00  0.000000D+00  0.000000D+00
     23   0.909812D+00  0.000000D+00  0.000000D+00  0.000000D+00  0.000000D+00
     24   0.000000D+00  0.000000D+00  0.000000D+00  0.000000D+00  0.000000D+00
     25   0.000000D+00  0.000000D+00  0.598479D+00  0.000000D+00  0.000000D+00
     26   0.000000D+00  0.000000D+00  0.000000D+00  0.000000D+00  0.000000D+00
     27   0.000000D+00  0.000000D+00  0.000000D+00  0.000000D+00  0.000000D+00
     28  -0.909812D+00  0.000000D+00  0.000000D+00  0.000000D+00  0.000000D+00
                21            22            23            24            25 
      1   0.000000D+00  0.000000D+00  0.000000D+00  0.000000D+00  0.000000D+00
      2   0.000000D+00  0.000000D+00  0.000000D+00  0.000000D+00  0.000000D+00
      3   0.000000D+00  0.000000D+00  0.000000D+00  0.000000D+00  0.000000D+00
      4   0.000000D+00  0.126826D+00  0.000000D+00  0.000000D+00  0.000000D+00
      5   0.000000D+00  0.000000D+00  0.989007D-01  0.000000D+00  0.631613D+00
      6   0.000000D+00  0.000000D+00  0.000000D+00  0.000000D+00  0.000000D+00
      7   0.000000D+00  0.000000D+00  0.000000D+00  0.000000D+00  0.000000D+00
      8   0.000000D+00 -0.338446D+00  0.000000D+00  0.000000D+00  0.000000D+00
      9   0.000000D+00  0.000000D+00  0.221260D+00  0.000000D+00  0.556385D+00
     10   0.000000D+00  0.000000D+00  0.000000D+00  0.000000D+00  0.000000D+00
     11   0.000000D+00  0.000000D+00  0.000000D+00  0.000000D+00  0.000000D+00
     12   0.000000D+00  0.142883D+01  0.000000D+00  0.000000D+00  0.000000D+00
     13   0.000000D+00  0.000000D+00  0.509061D+00  0.000000D+00 -0.144130D+00
     14   0.000000D+00  0.000000D+00  0.000000D+00  0.000000D+00  0.000000D+00
     15   0.000000D+00  0.000000D+00  0.000000D+00  0.000000D+00  0.000000D+00
     16   0.000000D+00 -0.136452D+01  0.000000D+00  0.000000D+00  0.000000D+00
     17   0.000000D+00  0.000000D+00  0.487367D+00  0.000000D+00 -0.230220D+00
     18   0.000000D+00  0.000000D+00  0.000000D+00  0.000000D+00  0.000000D+00
     19   0.000000D+00  0.000000D+00  0.000000D+00  0.000000D+00  0.000000D+00
     20   0.909812D+00  0.000000D+00  0.000000D+00  0.000000D+00  0.000000D+00
     21   0.000000D+00  0.000000D+00  0.000000D+00  0.598479D+00  0.000000D+00
     22   0.000000D+00  0.000000D+00  0.000000D+00  0.000000D+00  0.000000D+00
     23   0.000000D+00  0.000000D+00  0.000000D+00  0.000000D+00  0.000000D+00
     24   0.000000D+00  0.000000D+00  0.000000D+00  0.000000D+00  0.000000D+00
     25  -0.909812D+00  0.000000D+00  0.000000D+00  0.000000D+00  0.000000D+00
     26   0.000000D+00  0.000000D+00  0.000000D+00  0.598479D+00  0.000000D+00
     27   0.000000D+00  0.000000D+00  0.000000D+00  0.000000D+00  0.000000D+00
     28   0.000000D+00  0.000000D+00  0.000000D+00  0.000000D+00  0.000000D+00
                26            27            28 
      1   0.000000D+00  0.000000D+00  0.000000D+00
      2   0.000000D+00  0.000000D+00  0.000000D+00
      3   0.000000D+00  0.000000D+00  0.000000D+00
      4   0.000000D+00  0.000000D+00  0.000000D+00
      5  -0.834101D+00  0.000000D+00  0.126826D+00
      6   0.000000D+00  0.000000D+00  0.000000D+00
      7   0.000000D+00  0.000000D+00  0.000000D+00
      8   0.000000D+00  0.000000D+00  0.000000D+00
      9   0.851114D+00  0.000000D+00 -0.338446D+00
     10   0.000000D+00  0.000000D+00  0.000000D+00
     11   0.000000D+00  0.000000D+00  0.000000D+00
     12   0.000000D+00  0.000000D+00  0.000000D+00
     13   0.341821D-01  0.000000D+00  0.142883D+01
     14   0.000000D+00  0.000000D+00  0.000000D+00
     15   0.000000D+00  0.000000D+00  0.000000D+00
     16   0.000000D+00  0.000000D+00  0.000000D+00
     17  -0.252838D+00  0.000000D+00 -0.136452D+01
     18   0.000000D+00  0.000000D+00  0.000000D+00
     19   0.000000D+00  0.000000D+00  0.000000D+00
     20   0.000000D+00  0.000000D+00  0.000000D+00
     21   0.000000D+00  0.909812D+00  0.000000D+00
     22   0.000000D+00  0.000000D+00  0.000000D+00
     23   0.000000D+00  0.000000D+00  0.000000D+00
     24   0.000000D+00  0.000000D+00  0.000000D+00
     25   0.000000D+00  0.000000D+00  0.000000D+00
     26   0.000000D+00 -0.909812D+00  0.000000D+00
     27   0.000000D+00  0.000000D+00  0.000000D+00
     28   0.000000D+00  0.000000D+00  0.000000D+00
 NBasis=    28 RedAO= T EigKep=  3.57D-02  NBF=    14     2     6     6
 NBsUse=    28 1.00D-06 EigRej= -1.00D+00 NBFU=    14     2     6     6
 Leave Link  302 at Fri Mar 25 14:57:44 2022, MaxMem=  9663676416 cpu:               3.7 elap:               0.1
 (Enter /nopt/nrel/apps/gaussian/g16C_1/g16/l303.exe)
 DipDrv will not compute anything.
 Fermi contact integrals: 
                 1             2 
      1   0.628247D+00  0.238254D+00
      2   0.000000D+00  0.499382D+02
      3   0.893804D-02  0.100937D+01
      4   0.000000D+00  0.000000D+00
      5   0.000000D+00  0.000000D+00
      6  -0.219152D-01  0.000000D+00
      7   0.309750D+00  0.218861D-01
      8   0.000000D+00  0.000000D+00
      9   0.000000D+00  0.000000D+00
     10  -0.516477D+00  0.000000D+00
     11   0.350385D-01 -0.359953D-02
     12   0.000000D+00  0.000000D+00
     13   0.000000D+00  0.000000D+00
     14  -0.480864D-01  0.000000D+00
     15   0.457637D-01  0.468609D-01
     16   0.000000D+00  0.000000D+00
     17   0.000000D+00  0.000000D+00
     18  -0.140881D-01  0.000000D+00
     19   0.719889D+00  0.000000D+00
     20   0.000000D+00  0.000000D+00
     21   0.000000D+00  0.000000D+00
     22   0.000000D+00  0.000000D+00
     23   0.000000D+00  0.000000D+00
     24   0.217049D+00  0.000000D+00
     25   0.000000D+00  0.000000D+00
     26   0.000000D+00  0.000000D+00
     27   0.000000D+00  0.000000D+00
     28   0.000000D+00  0.000000D+00
 Leave Link  303 at Fri Mar 25 14:57:44 2022, MaxMem=  9663676416 cpu:               0.8 elap:               0.0
 (Enter /nopt/nrel/apps/gaussian/g16C_1/g16/l401.exe)
 ExpMin= 2.65D-02 ExpMax= 2.34D+03 ExpMxC= 2.34D+03 IAcc=3 IRadAn=         5 AccDes= 0.00D+00
 Harris functional with IExCor=  205 and IRadAn=       5 diagonalized for initial guess.
 HarFok:  IExCor=  205 AccDes= 0.00D+00 IRadAn=         5 IDoV= 1 UseB2=F ITyADJ=14
 ICtDFT=  3500011 ScaDFX=  1.000000  1.000000  1.000000  1.000000
 FoFCou: FMM=F IPFlag=           0 FMFlag=      100000 FMFlg1=           0
         NFxFlg=           0 DoJE=T BraDBF=F KetDBF=T FulRan=T
         wScrn=  0.000000 ICntrl=       500 IOpCl=  0 I1Cent=   200000004 NGrid=           0
         NMat0=    1 NMatS0=      1 NMatT0=    0 NMatD0=    1 NMtDS0=    0 NMtDT0=    0
 Petite list used in FoFCou.
 Harris En= -841.581100954994    
 JPrj=0 DoOrth=F DoCkMO=F.
 Initial guess orbital symmetries:
 Alpha Orbitals:
       Occupied  (SG) (SG) (SG) (PI) (PI) (SG) (SG) (PI) (PI) (SG)
                 (PI) (PI)
       Virtual   (DLTA) (DLTA) (SG) (SG) (PI) (PI) (SG) (SG) (PI)
                 (PI) (SG) (PI) (PI) (SG) (DLTA) (DLTA)
 Beta  Orbitals:
       Occupied  (SG) (SG) (SG) (PI) (PI) (SG) (SG) (PI) (PI) (SG)
                 (PI)
       Virtual   (PI) (DLTA) (DLTA) (SG) (SG) (PI) (PI) (SG) (SG)
                 (PI) (PI) (SG) (PI) (PI) (SG) (DLTA) (DLTA)
 Initial guess <Sx>= 0.0000 <Sy>= 0.0000 <Sz>= 0.5000 <S**2>= 0.7500 S= 0.5000
 Leave Link  401 at Fri Mar 25 14:57:45 2022, MaxMem=  9663676416 cpu:               3.9 elap:               0.1
 (Enter /nopt/nrel/apps/gaussian/g16C_1/g16/l502.exe)
 Keep R1 and R2 ints in memory in symmetry-blocked form, NReq=7478675.
 FoFCou: FMM=F IPFlag=           0 FMFlag=           0 FMFlg1=           0
         NFxFlg=           0 DoJE=F BraDBF=F KetDBF=F FulRan=T
         wScrn=  0.000000 ICntrl=       600 IOpCl=  0 I1Cent=           0 NGrid=           0
         NMat0=    1 NMatS0=    406 NMatT0=    0 NMatD0=    1 NMtDS0=    0 NMtDT0=    0
 Petite list used in FoFCou.
 UHF open shell SCF:
 Using DIIS extrapolation, IDIIS=  1040.
 NGot=  9663676416 LenX=  9663625622 LenY=  9663624281
 Requested convergence on RMS density matrix=1.00D-08 within 128 cycles.
 Requested convergence on MAX density matrix=1.00D-06.
 Requested convergence on             energy=1.00D-06.
 No special actions if energy rises.

 Cycle   1  Pass 1  IDiag  1:
 E= -841.117542339810    
 DIIS: error= 2.02D-01 at cycle   1 NSaved=   1.
 NSaved= 1 IEnMin= 1 EnMin= -841.117542339810     IErMin= 1 ErrMin= 2.02D-01
 ErrMax= 2.02D-01  0.00D+00 EMaxC= 1.00D-01 BMatC= 2.09D+00 BMatP= 2.09D+00
 IDIUse=3 WtCom= 0.00D+00 WtEn= 1.00D+00
 Coeff-Com:  0.100D+01
 Coeff-En:   0.100D+01
 Coeff:      0.100D+01
 Gap=    -0.099 Goal=   None    Shift=    0.000
 Gap=    -0.243 Goal=   None    Shift=    0.000
 GapD=   -0.243 DampG=0.250 DampE=0.125 DampFc=0.1250 IDamp=-1.
 Damping current iteration by 1.25D-01
 RMSDP=1.07D-01 MaxDP=1.49D+00              OVMax= 6.39D-01

 Cycle   2  Pass 1  IDiag  1:
 E= -841.240897811242     Delta-E=       -0.123355471432 Rises=F Damp=T
 DIIS: error= 1.36D-01 at cycle   2 NSaved=   2.
 NSaved= 2 IEnMin= 2 EnMin= -841.240897811242     IErMin= 2 ErrMin= 1.36D-01
 ErrMax= 1.36D-01  0.00D+00 EMaxC= 1.00D-01 BMatC= 9.48D-01 BMatP= 2.09D+00
 IDIUse=3 WtCom= 0.00D+00 WtEn= 1.00D+00
 Coeff-Com: -0.187D+01 0.287D+01
 Coeff-En:   0.000D+00 0.100D+01
 Coeff:      0.000D+00 0.100D+01
 Gap=     0.016 Goal=   None    Shift=    0.000
 Gap=     0.015 Goal=   None    Shift=    0.000
 RMSDP=6.88D-02 MaxDP=1.39D+00 DE=-1.23D-01 OVMax= 6.52D-01

 Cycle   3  Pass 1  IDiag  1:
 E= -841.137441047263     Delta-E=        0.103456763979 Rises=F Damp=F
 DIIS: error= 1.32D-01 at cycle   3 NSaved=   3.
 NSaved= 3 IEnMin= 2 EnMin= -841.240897811242     IErMin= 3 ErrMin= 1.32D-01
 ErrMax= 1.32D-01  0.00D+00 EMaxC= 1.00D-01 BMatC= 1.88D+00 BMatP= 9.48D-01
 IDIUse=2 WtCom= 0.00D+00 WtEn= 1.00D+00
 EnCoef did   100 forward-backward iterations
 Coeff-En:   0.486D+00 0.945D-02 0.505D+00
 Coeff:      0.486D+00 0.945D-02 0.505D+00
 Gap=     0.079 Goal=   None    Shift=    0.000
 Gap=     0.242 Goal=   None    Shift=    0.000
 RMSDP=5.58D-02 MaxDP=9.70D-01 DE= 1.03D-01 OVMax= 3.44D-02

 Cycle   4  Pass 1  IDiag  1:
 E= -841.800863362390     Delta-E=       -0.663422315127 Rises=F Damp=F
 DIIS: error= 5.38D-02 at cycle   4 NSaved=   4.
[...]
 Gap=     0.246 Goal=   None    Shift=    0.000
 RMSDP=1.97D-08 MaxDP=4.33D-07 DE=-3.41D-13 OVMax= 6.34D-09

 Cycle  23  Pass 1  IDiag  1:
 E= -841.877245576500     Delta-E=       -0.000000000000 Rises=F Damp=F
 DIIS: error= 2.92D-09 at cycle  23 NSaved=  17.
 NSaved=17 IEnMin=17 EnMin= -841.877245576500     IErMin=17 ErrMin= 2.92D-09
 ErrMax= 2.92D-09  0.00D+00 EMaxC= 1.00D-01 BMatC= 4.99D-16 BMatP= 8.11D-15
 IDIUse=1 WtCom= 1.00D+00 WtEn= 0.00D+00
 Large coefficients: NSaved= 17 BigCof=    0.00 CofMax=   10.00 Det=-5.02D-16
 Inversion failed.  Reducing to 16 matrices.
 Large coefficients: NSaved= 16 BigCof=    0.00 CofMax=   10.00 Det=-6.58D-16
 Inversion failed.  Reducing to 15 matrices.
 Coeff-Com: -0.105D-04 0.316D-04-0.462D-04 0.563D-04-0.108D-03 0.180D-03
 Coeff-Com: -0.235D-03 0.632D-03-0.933D-03 0.961D-03-0.461D-03-0.123D-01
 Coeff-Com:  0.144D+00-0.574D+00 0.144D+01
 Coeff:     -0.105D-04 0.316D-04-0.462D-04 0.563D-04-0.108D-03 0.180D-03
 Coeff:     -0.235D-03 0.632D-03-0.933D-03 0.961D-03-0.461D-03-0.123D-01
 Coeff:      0.144D+00-0.574D+00 0.144D+01
 Gap=     0.255 Goal=   None    Shift=    0.000
 Gap=     0.246 Goal=   None    Shift=    0.000
 RMSDP=5.49D-09 MaxDP=1.11D-07 DE=-2.27D-13 OVMax= 2.45D-10

 SCF Done:  E(UHF) =  -841.877245576     A.U. after   23 cycles
            NFock= 23  Conv=0.55D-08     -V/T= 1.9928
 <Sx>= 0.0000 <Sy>= 0.0000 <Sz>= 0.5000 <S**2>= 0.7603 S= 0.5051
 <L.S>= 0.000000000000E+00
 KE= 8.479897423984D+02 PE=-2.045628744562D+03 EE= 3.324779593067D+02
 Annihilation of the first spin contaminant:
 S**2 before annihilation     0.7603,   after     0.7500
 Leave Link  502 at Fri Mar 25 14:57:45 2022, MaxMem=  9663676416 cpu:               5.7 elap:               0.2
 (Enter /nopt/nrel/apps/gaussian/g16C_1/g16/l801.exe)
 Windowed orbitals will be sorted by symmetry type.
 ExpMin= 2.65D-02 ExpMax= 2.34D+03 ExpMxC= 2.34D+03 IAcc=3 IRadAn=         5 AccDes= 0.00D+00
 HarFok:  IExCor=  205 AccDes= 0.00D+00 IRadAn=         5 IDoV=-2 UseB2=F ITyADJ=14
 ICtDFT= 12500011 ScaDFX=  1.000000  1.000000  1.000000  1.000000
 Largest valence mixing into a core orbital is  3.76D-02
 Largest core mixing into a valence orbital is  4.71D-02
 Largest valence mixing into a core orbital is  4.46D-02
 Largest core mixing into a valence orbital is  5.31D-02
 Range of M.O.s used for correlation:    10    28
 NBasis=    28 NAE=    12 NBE=    11 NFC=     9 NFV=     0
 NROrb=     19 NOA=     3 NOB=     2 NVA=    16 NVB=    17
 Leave Link  801 at Fri Mar 25 14:57:45 2022, MaxMem=  9663676416 cpu:               1.6 elap:               0.1
 (Enter /nopt/nrel/apps/gaussian/g16C_1/g16/l804.exe)
 Open-shell transformation, MDV=  9663676416 ITran=4 ISComp=2.
 Unit  1 TFree=         51647 TCopy=        127946.
 Semi-Direct transformation.
 ModeAB=           2 MOrb=             3 LenV=    9663496266
 LASXX=         2210 LTotXX=        2210 LenRXX=        2210
 LTotAB=        2800 MaxLAS=       26505 LenRXY=       26505
 NonZer=       29583 LenScr=      785920 LnRSAI=           0
 LnScr1=           0 LExtra=      233559 Total=      1048194
 MaxDsk= 34359738368 SrtSym=           F ITran=            4
 DoSDTr:  NPSUse= 36
 JobTyp=1 Pass  1:  I=   1 to   3.
 (rs|ai) integrals will be sorted in core.
 Complete sort for first half transformation.
 First half transformation complete.
 Complete sort for second half transformation.
 Second half transformation complete.
 ModeAB=           2 MOrb=             2 LenV=    9663496266
 LASXX=         1561 LTotXX=        1561 LenRXX=       17670
 LTotAB=        1407 MaxLAS=       17670 LenRXY=        1407
 NonZer=       19722 LenScr=      785920 LnRSAI=           0
 LnScr1=           0 LExtra=      262274 Total=      1067271
 MaxDsk= 34359738368 SrtSym=           F ITran=            4
 DoSDTr:  NPSUse= 36
 JobTyp=2 Pass  1:  I=   1 to   2.
 (rs|ai) integrals will be sorted in core.
 Complete sort for first half transformation.
 First half transformation complete.
 Complete sort for second half transformation.
 Second half transformation complete.
 Spin components of T(2) and E(2):
     alpha-alpha T2 =       0.1140501271D-02 E2=     -0.3701440080D-02
     alpha-beta  T2 =       0.2750840470D-01 E2=     -0.2774322494D-01
     beta-beta   T2 =       0.1873530626D-03 E2=     -0.4213814132D-03
 ANorm=    0.1014315660D+01
 E2 =    -0.3186604643D-01 EUMP2 =    -0.84190911162293D+03
 (S**2,0)=  0.76026D+00           (S**2,1)=  0.75868D+00
 E(PUHF)=      -0.84187760999D+03        E(PMP2)=      -0.84190944802D+03
 Leave Link  804 at Fri Mar 25 14:57:45 2022, MaxMem=  9663676416 cpu:               4.1 elap:               0.1
 (Enter /nopt/nrel/apps/gaussian/g16C_1/g16/l913.exe)
 CIDS:  MDV=  9663676416.
 Frozen-core window:  NFC=   9 NFV=   0.
 IFCWin=0 IBDFC=1 NFBD=     0     0 NFCmp=     0     0 NFFFC=     0     0
 Using original routines for 1st iteration.
 Using DD4UQ or CC4UQ for 2nd and later iterations.
 Keep R2 and R3 ints in memory in symmetry-blocked form, NReq=7481257.
 FoFCou: FMM=F IPFlag=           0 FMFlag=           0 FMFlg1=           0
         NFxFlg=           0 DoJE=F BraDBF=F KetDBF=F FulRan=T
         wScrn=  0.000000 ICntrl=       600 IOpCl=  0 I1Cent=           0 NGrid=           0
         NMat0=    1 NMatS0=    406 NMatT0=    0 NMatD0=    1 NMtDS0=    0 NMtDT0=    0
 Petite list used in FoFCou.
 CIDS: In Core Option IDoMem=           1.
 Coupled Cluster theory with single and double substitutions
 ===========================================================
 Iterations= 200 Convergence= 0.100D-06
 Produce multiple copies of IABC intergrals
 Iteration Nr.   1
 **********************
 DD1Dir will call FoFMem   1 times, MxPair=        16
 NAB=     6 NAA=     3 NBB=     1.
 E(PMP3)=      -0.84192019869D+03
 MP4(R+Q)=  0.51706073D-03
 Maximum subspace dimension=  5
 A-vector RMS=  6.8665199D-03 Max=  2.5357454D-02 conv= 1.00D-05.
 RLE energy=       -0.0469953381
 E3=       -0.10781906D-01        EUMP3=      -0.84191989353D+03
 E4(DQ)=   -0.43310397D-02        UMP4(DQ)=   -0.84192422457D+03
 E4(SDQ)=  -0.44586975D-02        UMP4(SDQ)=  -0.84192435223D+03
 VARIATIONAL ENERGIES WITH THE FIRST-ORDER WAVEFUNCTION:
 DE(Corr)= -0.42124740E-01 E(Corr)=     -841.91937032    
 NORM(A)=   0.10373005D+01
 Iteration Nr.   2
 **********************
 DD1Dir will call FoFMem   1 times, MxPair=        16
 NAB=     6 NAA=     3 NBB=     1.
 A-vector RMS=  3.7700375D-03 Max=  7.9872637D-03 conv= 1.00D-05.
 RLE energy=       -0.0505525706
 DE(Corr)= -0.48358799E-01 E(CORR)=     -841.92560438     Delta=-6.23D-03
 NORM(A)=   0.10477206D+01
 Iteration Nr.   3
 **********************
 DD1Dir will call FoFMem   1 times, MxPair=        16
 NAB=     6 NAA=     3 NBB=     1.
 A-vector RMS=  1.1776870D-03 Max=  5.6871745D-03 conv= 1.00D-05.
 RLE energy=       -0.0520828980
 DE(Corr)= -0.50737959E-01 E(CORR)=     -841.92798354     Delta=-2.38D-03
 NORM(A)=   0.10520081D+01
 Iteration Nr.   4
 **********************
 DD1Dir will call FoFMem   1 times, MxPair=        16
 NAB=     6 NAA=     3 NBB=     1.
 A-vector RMS=  1.1885722D-03 Max=  3.0450370D-03 conv= 1.00D-05.
 RLE energy=       -0.0522652781
 DE(Corr)= -0.51984961E-01 E(CORR)=     -841.92923054     Delta=-1.25D-03
 NORM(A)=   0.10525132D+01
 Iteration Nr.   5
 **********************
 DD1Dir will call FoFMem   1 times, MxPair=        16
 NAB=     6 NAA=     3 NBB=     1.
 A-vector RMS=  6.1567582D-04 Max=  1.6140540D-03 conv= 1.00D-05.
 RLE energy=       -0.0524083045
 DE(Corr)= -0.52288418E-01 E(CORR)=     -841.92953399     Delta=-3.03D-04
 NORM(A)=   0.10533611D+01
 Iteration Nr.   6
 **********************
 DD1Dir will call FoFMem   1 times, MxPair=        16
 NAB=     6 NAA=     3 NBB=     1.
 A-vector RMS=  3.6594489D-04 Max=  8.1693156D-04 conv= 1.00D-05.
 RLE energy=       -0.0524801901
 DE(Corr)= -0.52419912E-01 E(CORR)=     -841.92966549     Delta=-1.31D-04
 NORM(A)=   0.10540558D+01
 Iteration Nr.   7
 **********************
 DD1Dir will call FoFMem   1 times, MxPair=        16
 NAB=     6 NAA=     3 NBB=     1.
 A-vector RMS=  2.5318115D-04 Max=  5.3677886D-04 conv= 1.00D-05.
 RLE energy=       -0.0524960221
 DE(Corr)= -0.52473476E-01 E(CORR)=     -841.92971905     Delta=-5.36D-05
 NORM(A)=   0.10543815D+01
 Iteration Nr.   8
 **********************
 DD1Dir will call FoFMem   1 times, MxPair=        16
 NAB=     6 NAA=     3 NBB=     1.
 A-vector RMS=  1.2267055D-04 Max=  4.1065691D-04 conv= 1.00D-05.
 RLE energy=       -0.0525022948
 DE(Corr)= -0.52492850E-01 E(CORR)=     -841.92973843     Delta=-1.94D-05
 NORM(A)=   0.10545105D+01
 Iteration Nr.   9
 **********************
 DD1Dir will call FoFMem   1 times, MxPair=        16
 NAB=     6 NAA=     3 NBB=     1.
 A-vector RMS=  9.3683340D-05 Max=  2.9783025D-04 conv= 1.00D-05.
 RLE energy=       -0.0525084635
 DE(Corr)= -0.52501823E-01 E(CORR)=     -841.92974740     Delta=-8.97D-06
 NORM(A)=   0.10545651D+01
 Iteration Nr.  10
 **********************
 DD1Dir will call FoFMem   1 times, MxPair=        16
 NAB=     6 NAA=     3 NBB=     1.
 A-vector RMS=  8.0361465D-05 Max=  1.8119570D-04 conv= 1.00D-05.
 RLE energy=       -0.0525071524
 DE(Corr)= -0.52510496E-01 E(CORR)=     -841.92975607     Delta=-8.67D-06
 NORM(A)=   0.10545695D+01
 Iteration Nr.  11
 **********************
 DD1Dir will call FoFMem   1 times, MxPair=        16
 NAB=     6 NAA=     3 NBB=     1.
 A-vector RMS=  3.3042698D-05 Max=  1.3035004D-04 conv= 1.00D-05.
 RLE energy=       -0.0525031596
 DE(Corr)= -0.52510178E-01 E(CORR)=     -841.92975575     Delta= 3.17D-07
 NORM(A)=   0.10545660D+01
 Iteration Nr.  12
 **********************
 DD1Dir will call FoFMem   1 times, MxPair=        16
 NAB=     6 NAA=     3 NBB=     1.
 A-vector RMS=  2.6031019D-05 Max=  1.0537599D-04 conv= 1.00D-05.
 RLE energy=       -0.0524973247
 DE(Corr)= -0.52504602E-01 E(CORR)=     -841.92975018     Delta= 5.58D-06
 NORM(A)=   0.10545554D+01
 Iteration Nr.  13
 **********************
 DD1Dir will call FoFMem   1 times, MxPair=        16
 NAB=     6 NAA=     3 NBB=     1.
 A-vector RMS=  2.1985305D-05 Max=  7.6443950D-05 conv= 1.00D-05.
 RLE energy=       -0.0524945626
 DE(Corr)= -0.52498513E-01 E(CORR)=     -841.92974409     Delta= 6.09D-06
 NORM(A)=   0.10545474D+01
 Iteration Nr.  14
 **********************
 DD1Dir will call FoFMem   1 times, MxPair=        16
 NAB=     6 NAA=     3 NBB=     1.
 A-vector RMS=  1.0165558D-05 Max=  5.0137181D-05 conv= 1.00D-05.
 RLE energy=       -0.0524941079
 DE(Corr)= -0.52495434E-01 E(CORR)=     -841.92974101     Delta= 3.08D-06
 NORM(A)=   0.10545392D+01
 Iteration Nr.  15
 **********************
 DD1Dir will call FoFMem   1 times, MxPair=        16
 NAB=     6 NAA=     3 NBB=     1.
 A-vector RMS=  1.1793003D-05 Max=  2.6854217D-05 conv= 1.00D-05.
 RLE energy=       -0.0524944157
 DE(Corr)= -0.52494597E-01 E(CORR)=     -841.92974017     Delta= 8.37D-07
 NORM(A)=   0.10545315D+01
 Iteration Nr.  16
 **********************
 DD1Dir will call FoFMem   1 times, MxPair=        16
 NAB=     6 NAA=     3 NBB=     1.
 A-vector RMS=  7.4398318D-06 Max=  1.8431522D-05 conv= 1.00D-05.
 RLE energy=       -0.0524942879
 DE(Corr)= -0.52494712E-01 E(CORR)=     -841.92974029     Delta=-1.15D-07
 NORM(A)=   0.10545263D+01
 Iteration Nr.  17
 **********************
 DD1Dir will call FoFMem   1 times, MxPair=        16
 NAB=     6 NAA=     3 NBB=     1.
 A-vector RMS=  3.6449312D-06 Max=  1.6814554D-05 conv= 1.00D-05.
 RLE energy=       -0.0524936832
 DE(Corr)= -0.52494432E-01 E(CORR)=     -841.92974001     Delta= 2.80D-07
 NORM(A)=   0.10545218D+01
 Iteration Nr.  18
 **********************
 DD1Dir will call FoFMem   1 times, MxPair=        16
 NAB=     6 NAA=     3 NBB=     1.
 A-vector RMS=  3.5580806D-06 Max=  1.3781739D-05 conv= 1.00D-05.
 RLE energy=       -0.0524933133
 DE(Corr)= -0.52493817E-01 E(CORR)=     -841.92973939     Delta= 6.14D-07
 NORM(A)=   0.10545195D+01
 Iteration Nr.  19
 **********************
 DD1Dir will call FoFMem   1 times, MxPair=        16
 NAB=     6 NAA=     3 NBB=     1.
 A-vector RMS=  2.5941974D-06 Max=  1.0062259D-05 conv= 1.00D-05.
 RLE energy=       -0.0524932001
 DE(Corr)= -0.52493365E-01 E(CORR)=     -841.92973894     Delta= 4.53D-07
 NORM(A)=   0.10545183D+01
 Iteration Nr.  20
 **********************
 DD1Dir will call FoFMem   1 times, MxPair=        16
 NAB=     6 NAA=     3 NBB=     1.
 A-vector RMS=  1.7008188D-06 Max=  6.5357864D-06 conv= 1.00D-05.
 RLE energy=       -0.0524932945
 DE(Corr)= -0.52493217E-01 E(CORR)=     -841.92973879     Delta= 1.47D-07
 NORM(A)=   0.10545175D+01
 Iteration Nr.  21
 **********************
 DD1Dir will call FoFMem   1 times, MxPair=        16
 NAB=     6 NAA=     3 NBB=     1.
 A-vector RMS=  1.4656069D-06 Max=  4.3561119D-06 conv= 1.00D-05.
 RLE energy=       -0.0524933755
 DE(Corr)= -0.52493283E-01 E(CORR)=     -841.92973886     Delta=-6.59D-08
 NORM(A)=   0.10545166D+01
 CI/CC converged in   21 iterations to DelEn=-6.59D-08 Conv= 1.00D-07 ErrA1= 1.47D-06 Conv= 1.00D-05
 Wavefunction amplitudes converged. E(Corr)=     -841.92973886    
 Dominant configurations:
 ***********************
 Spin Case        I    J    A    B          Value
   ABAB          12   11   13   12      -0.101443D+00
 Largest amplitude= 1.01D-01

 S**2, projected HF & approx projected MPn energies after annihilation of
 unwanted spin states (see manual for definitions):

 spins       (S**2,0) (S**2,1)    PUHF        PMP2        PMP3        PMP4
 annihilated
 s+1         0.75028  0.75029 -841.877610 -841.909447 -841.920197
 s+1,s+2     0.75000  0.75000 -841.877609 -841.909448 -841.920199

 Discarding MO integrals.
 Leave Link  913 at Fri Mar 25 14:57:45 2022, MaxMem=  9663676416 cpu:               9.2 elap:               0.3
 (Enter /nopt/nrel/apps/gaussian/g16C_1/g16/l601.exe)
 Copying SCF densities to generalized density rwf, IOpCl= 1 IROHF=0.

 **********************************************************************

            Population analysis using the SCF Density.

 **********************************************************************

 Orbital symmetries:
 Alpha Orbitals:
       Occupied  (SG) (SG) (SG) (PI) (PI) (SG) (SG) (PI) (PI) (?A)
                 (?B) (SG)
       Virtual   (?B) (?B) (SG) (?A) (?B) (?B) (?A) (?B) (?A) (?A)
                 (?C) (SG) (?B) (?B) (?C) (?C)
 Beta  Orbitals:
       Occupied  (SG) (SG) (SG) (PI) (PI) (SG) (SG) (PI) (PI) (?A)
                 (SG)
       Virtual   (PI) (PI) (SG) (SG) (?B) (?B) (?A) (?B) (?A) (?A)
                 (?B) (?A) (?A) (PI) (?A) (?A) (PI)
 Unable to determine electronic state:  an orbital has unidentified symmetry.
 Alpha  occ. eigenvalues -- -182.08780 -21.36464 -17.72595 -17.69353 -17.69321
 Alpha  occ. eigenvalues --   -3.14777  -2.12533  -1.86967  -1.83827  -0.54909
 Alpha  occ. eigenvalues --   -0.44968  -0.22845
 Alpha virt. eigenvalues --    0.02703   0.02885   0.02945   0.11047   0.15409
 Alpha virt. eigenvalues --    0.16075   0.16399   0.18684   0.20423   0.20651
 Alpha virt. eigenvalues --    1.56996   1.64255   1.65235   1.76046   1.79369
 Alpha virt. eigenvalues --    1.79424
  Beta  occ. eigenvalues -- -182.08725 -21.34722 -17.70227 -17.68752 -17.67191
  Beta  occ. eigenvalues --   -3.08010  -2.01371  -1.81239  -1.76474  -0.52311
  Beta  occ. eigenvalues --   -0.21948
  Beta virt. eigenvalues --    0.02639   0.02913   0.03012   0.11460   0.15785
  Beta virt. eigenvalues --    0.16537   0.17160   0.21041   0.23160   0.23258
  Beta virt. eigenvalues --    0.25384   1.58192   1.66543   1.77674   1.81102
  Beta virt. eigenvalues --    1.81201   1.81569
          Condensed to atoms (all electrons):
               1          2
     1  H    0.137368   0.063933
     2  Ti   0.063933  22.734766
          Atomic-Atomic Spin Densities.
               1          2
     1  H   -0.001402  -0.003411
     2  Ti  -0.003411   1.008224
 Mulliken charges and spin densities:
               1          2
     1  H    0.798699  -0.004813
     2  Ti  -0.798699   1.004813
 Sum of Mulliken charges =   0.00000   1.00000
 Mulliken charges and spin densities with hydrogens summed into heavy atoms:
               1          2
     2  Ti   0.000000   1.000000
 N-N= 2.328379728048D+01 E-N=-2.045628744573D+03  KE= 8.479897423984D+02
 Symmetry A1   KE= 6.581139801161D+02
 Symmetry A2   KE= 2.339186219020D-33
 Symmetry B1   KE= 9.698740223177D+01
 Symmetry B2   KE= 9.288836005055D+01
 Symmetry A1   SP= 6.068160773319D-15
 Symmetry A2   SP= 4.577131577606D-34
 Symmetry B1   SP= 1.000000000000D+00
 Symmetry B2   SP= 2.788142763493D-15

 Atomic contributions to Alpha molecular orbitals:
 Alpha occ 1 OE=-182.088 is Ti2-s=0.9992
 Alpha occ 2 OE=-21.365 is Ti2-s=1.0088
 Alpha occ 3 OE=-17.726 is Ti2-p=1.0019
 Alpha occ 4 OE=-17.694 is Ti2-p=1.0000
 Alpha occ 5 OE=-17.693 is Ti2-p=1.0000
 Alpha occ 6 OE=-3.148 is Ti2-s=0.8399
 Alpha occ 7 OE=-2.125 is Ti2-p=0.8065 Ti2-s=0.1416
 Alpha occ 8 OE=-1.870 is Ti2-p=0.9936
 Alpha occ 9 OE=-1.838 is Ti2-p=0.9922
 Alpha occ 10 OE=-0.549 is Ti2-d=0.9012
 Alpha occ 11 OE=-0.450 is Ti2-d=0.9926
 Alpha occ 12 OE=-0.228 is Ti2-s=0.9472
 Alpha vir 13 OE=0.027 is Ti2-p=0.9988
 Alpha vir 14 OE=0.029 is Ti2-p=0.9994
 Alpha vir 15 OE=0.029 is Ti2-p=0.9502
 Alpha vir 16 OE=0.110 is Ti2-s=0.9068
 Alpha vir 17 OE=0.154 is Ti2-p=0.8675 Ti2-d=0.1325
 Alpha vir 18 OE=0.161 is Ti2-p=0.9988
 Alpha vir 19 OE=0.164 is Ti2-p=0.9115
 Alpha vir 20 OE=0.187 is Ti2-d=0.8597 Ti2-p=0.1403
 Alpha vir 21 OE=0.204 is Ti2-d=1.0000
 Alpha vir 22 OE=0.207 is Ti2-d=0.9885
 Alpha vir 23 OE=1.570 is Ti2-d=0.9985
 Alpha vir 24 OE=1.643 is H1-s=0.9174
 Alpha vir 25 OE=1.652 is Ti2-d=0.9993
 Alpha vir 26 OE=1.760 is Ti2-d=0.9988
 Alpha vir 27 OE=1.794 is Ti2-d=1.0000
 Alpha vir 28 OE=1.794 is Ti2-d=0.9999

 Atomic contributions to Beta  molecular orbitals:
 Beta  occ 1 OE=-182.087 is Ti2-s=0.9992
 Beta  occ 2 OE=-21.347 is Ti2-s=1.0086
 Beta  occ 3 OE=-17.702 is Ti2-p=1.0018
 Beta  occ 4 OE=-17.688 is Ti2-p=1.0000
 Beta  occ 5 OE=-17.672 is Ti2-p=1.0000
 Beta  occ 6 OE=-3.080 is Ti2-s=0.8378
 Beta  occ 7 OE=-2.014 is Ti2-p=0.7911 Ti2-s=0.1461
 Beta  occ 8 OE=-1.812 is Ti2-p=0.9920
 Beta  occ 9 OE=-1.765 is Ti2-p=0.9911
 Beta  occ 10 OE=-0.523 is Ti2-d=0.8944
 Beta  occ 11 OE=-0.219 is Ti2-s=0.9518
 Beta  vir 12 OE=0.026 is Ti2-p=0.9991
 Beta  vir 13 OE=0.029 is Ti2-p=0.9994
 Beta  vir 14 OE=0.030 is Ti2-p=0.9533
 Beta  vir 15 OE=0.115 is Ti2-s=0.9079
 Beta  vir 16 OE=0.158 is Ti2-p=0.9532
 Beta  vir 17 OE=0.165 is Ti2-p=0.9820
 Beta  vir 18 OE=0.172 is Ti2-p=0.9166
 Beta  vir 19 OE=0.210 is Ti2-d=0.9456
 Beta  vir 20 OE=0.232 is Ti2-d=1.0000
 Beta  vir 21 OE=0.233 is Ti2-d=0.9987
 Beta  vir 22 OE=0.254 is Ti2-d=0.9739
 Beta  vir 23 OE=1.582 is Ti2-d=0.9938
 Beta  vir 24 OE=1.665 is H1-s=0.9140
 Beta  vir 25 OE=1.777 is Ti2-d=0.9987
 Beta  vir 26 OE=1.811 is Ti2-d=1.0000
 Beta  vir 27 OE=1.812 is Ti2-d=0.9983
 Beta  vir 28 OE=1.816 is Ti2-d=0.9986
 
 Leave Link  601 at Fri Mar 25 14:57:46 2022, MaxMem=  9663676416 cpu:               4.4 elap:               0.1
 (Enter /nopt/nrel/apps/gaussian/g16C_1/g16/l9999.exe)

 Test job not archived.
 1\1\GINC-R1I7N35\SP\UCCSD-FC\Gen\H1Ti1(2)\USER\25-Mar-2022\0\\#P C
 CSD(MaxCyc=200)/GEN sp pop=AllOrbitals iop(3/33=1,3/36=-1)\\test\\0,2\
 H,0,0.,0.,0.\Ti,0,0.,0.,0.5\\Version=ES64L-G16RevC.01\HF=-841.8772456\
 MP2=-841.9091116\MP3=-841.9198935\MP4D=-841.9247416\MP4DQ=-841.9242246
 \PUHF=-841.87761\PMP2-0=-841.909448\PMP3-0=-841.9201987\MP4SDQ=-841.92
 43522\CCSD=-841.9297389\S2=0.760258\S2-1=0.758679\S2A=0.750021\RMSD=5.
 494e-09\PG=C*V [C*(H1Ti1)]\\@


 IF NO USE IS MADE OF THE LABOR OF PAST AGES,
 THE WORLD MUST REMAIN ALWAYS IN THE INFANCY OF KNOWLEDGE.

                          -- CICERO
 Job cpu time:       0 days  0 hours  0 minutes 44.8 seconds.
 Elapsed time:       0 days  0 hours  0 minutes  1.6 seconds.
 File lengths (MBytes):  RWF=     13 Int=      0 D2E=      0 Chk=      1 Scr=      1
 Normal termination of Gaussian 16 at Fri Mar 25 14:57:46 2022.
