 Entering Gaussian System, Link 0=g16
 Initial command:
 /nopt/nrel/apps/gaussian/g16C_1/g16/l1.exe "/lustre/eaglefs/scratch/user/qc/nah-dissc/nah-1-ccsd-1.0-ccd/Gau-25887.inp" -scrdir="/lustre/eaglefs/scratch/user/qc/nah-dissc/nah-1-ccsd-1.0-ccd/"
 Default is to use a total of  36 processors:
                               36 via shared-memory
                                1 via Linda
 Entering Link 1 = /nopt/nrel/apps/gaussian/g16C_1/g16/l1.exe PID=     25888.
  
 Copyright (c) 1988-2019, Gaussian, Inc.  All Rights Reserved.
  
 This is part of the Gaussian(R) 16 program.  It is based on
 the Gaussian(R) 09 system (copyright 2009, Gaussian, Inc.),
 the Gaussian(R) 03 system (copyright 2003, Gaussian, Inc.),
 the Gaussian(R) 98 system (copyright 1998, Gaussian, Inc.),
 the Gaussian(R) 94 system (copyright 1995, Gaussian, Inc.),
 the Gaussian 92(TM) system (copyright 1992, Gaussian, Inc.),
 the Gaussian 90(TM) system (copyright 1990, Gaussian, Inc.),
 the Gaussian 88(TM) system (copyright 1988, Gaussian, Inc.),
 the Gaussian 86(TM) system (copyright 1986, Carnegie Mellon
 University), and the Gaussian 82(TM) system (copyright 1983,
 Carnegie Mellon University). Gaussian is a federally registered
 trademark of Gaussian, Inc.
  
 This software contains proprietary and confidential information,
 including trade secrets, belonging to Gaussian, Inc.
  
 This software is provided under written license and may be
 used, copied, transmitted, or stored only in accord with that
 written license.
  
 The following legend is applicable only to US Government
 contracts under FAR:
  
                    RESTRICTED RIGHTS LEGEND
  
 Use, reproduction and disclosure by the US Government is
 subject to restrictions as set forth in subparagraphs (a)
 and (c) of the Commercial Computer Software - Restricted
 Rights clause in FAR 52.227-19.
  
 Gaussian, Inc.
 340 Quinnipiac St., Bldg. 40, Wallingford CT 06492
  
  
 ---------------------------------------------------------------
 Warning -- This program may not be used in any manner that
 competes with the business of Gaussian, Inc. or will provide
 assistance to any competitor of Gaussian, Inc.  The licensee
 of this program is prohibited from giving any competitor of
 Gaussian, Inc. access to this program.  By using this program,
 the user acknowledges that Gaussian, Inc. is engaged in the
 business of creating and licensing software in the field of
 computational chemistry and represents and warrants to the
 licensee that it is not a competitor of Gaussian, Inc. and that
 it will not use this program in any manner prohibited above.
 ---------------------------------------------------------------
  

 Cite this work as:
 Gaussian 16, Revision C.01,
 M. J. Frisch, G. W. Trucks, H. B. Schlegel, G. E. Scuseria, 
 M. A. Robb, J. R. Cheeseman, G. Scalmani, V. Barone, 
 G. A. Petersson, H. Nakatsuji, X. Li, M. Caricato, A. V. Marenich, 
 J. Bloino, B. G. Janesko, R. Gomperts, B. Mennucci, H. P. Hratchian, 
 J. V. Ortiz, A. F. Izmaylov, J. L. Sonnenberg, D. Williams-Young, 
 F. Ding, F. Lipparini, F. Egidi, J. Goings, B. Peng, A. Petrone, 
 T. Henderson, D. Ranasinghe, V. G. Zakrzewski, J. Gao, N. Rega, 
 G. Zheng, W. Liang, M. Hada, M. Ehara, K. Toyota, R. Fukuda, 
 J. Hasegawa, M. Ishida, T. Nakajima, Y. Honda, O. Kitao, H. Nakai, 
 T. Vreven, K. Throssell, J. A. Montgomery, Jr., J. E. Peralta, 
 F. Ogliaro, M. J. Bearpark, J. J. Heyd, E. N. Brothers, K. N. Kudin, 
 V. N. Staroverov, T. A. Keith, R. Kobayashi, J. Normand, 
 K. Raghavachari, A. P. Rendell, J. C. Burant, S. S. Iyengar, 
 J. Tomasi, M. Cossi, J. M. Millam, M. Klene, C. Adamo, R. Cammi, 
 J. W. Ochterski, R. L. Martin, K. Morokuma, O. Farkas, 
 J. B. Foresman, and D. J. Fox, Gaussian, Inc., Wallingford CT, 2019.
 
 ******************************************
 Gaussian 16:  ES64L-G16RevC.01  3-Jul-2019
                28-Mar-2022 
 ******************************************
 %chk=molecule
 Default route: CacheSize=180224 MaxDisk=256GB
 ----------------------------------------------------------------------
 #P CCSD(MaxCyc=200,SaveAmplitudes,ReadAmplitudes)/GEN sp pop=AllOrbita
 ls iop(3/33=1,3/36=-1)
 ----------------------------------------------------------------------
 1/4=180224,38=1,172=1/1;
 2/4=180224,12=2,17=6,18=5,40=1/2;
 3/4=180224,5=7,11=9,25=1,30=1,33=1,36=-1/1,2,3;
 4/4=180224/1;
 5/4=180224,5=2,38=5/2;
 8/4=180224,6=4,9=120000,10=1,24=1/1,4;
 9/4=180224,5=7,6=200,77=1/13;
 6/4=180224,7=2,8=2,9=2,10=2,96=-1/1;
 99/4=180224,5=1,9=1/99;
 Leave Link    1 at Mon Mar 28 14:20:47 2022, MaxMem=           0 cpu:               2.3 elap:               0.1
 (Enter /nopt/nrel/apps/gaussian/g16C_1/g16/l101.exe)
 ----
 test
 ----
 Symbolic Z-matrix:
 Charge =  0 Multiplicity = 1
 H                     0.        0.        0. 
 Na                    0.        0.        1. 
 
 ITRead=  0  0
 MicOpt= -1 -1
 NAtoms=      2 NQM=        2 NQMF=       0 NMMI=      0 NMMIF=      0
                NMic=       0 NMicF=      0.
                    Isotopes and Nuclear Properties:
 (Nuclear quadrupole moments (NQMom) in fm**2, nuclear magnetic moments (NMagM)
  in nuclear magnetons)

  Atom         1           2
 IAtWgt=           1          23
 AtmWgt=   1.0078250  22.9897697
 NucSpn=           1           3
 AtZEff=  -0.0000000  -0.0000000
 NQMom=    0.0000000  10.4000000
 NMagM=    2.7928460   2.2175200
 AtZNuc=   1.0000000  11.0000000
 Leave Link  101 at Mon Mar 28 14:20:47 2022, MaxMem=  9663676416 cpu:               3.2 elap:               0.1
 (Enter /nopt/nrel/apps/gaussian/g16C_1/g16/l202.exe)
                          Input orientation:                          
 ---------------------------------------------------------------------
 Center     Atomic      Atomic             Coordinates (Angstroms)
 Number     Number       Type             X           Y           Z
 ---------------------------------------------------------------------
      1          1           0        0.000000    0.000000    0.000000
      2         11           0        0.000000    0.000000    1.000000
 ---------------------------------------------------------------------
 Stoichiometry    HNa
 Framework group  C*V[C*(HNa)]
 Deg. of freedom     1
 Full point group                 C*V     NOp   4
 Largest Abelian subgroup         C2V     NOp   4
 Largest concise Abelian subgroup C1      NOp   1
                         Standard orientation:                         
 ---------------------------------------------------------------------
 Center     Atomic      Atomic             Coordinates (Angstroms)
 Number     Number       Type             X           Y           Z
 ---------------------------------------------------------------------
      1          1           0        0.000000    0.000000   -0.916667
      2         11           0        0.000000    0.000000    0.083333
 ---------------------------------------------------------------------
 Rotational constants (GHZ):           0.0000000         523.4378827         523.4378827
 Leave Link  202 at Mon Mar 28 14:20:47 2022, MaxMem=  9663676416 cpu:               0.9 elap:               0.1
 (Enter /nopt/nrel/apps/gaussian/g16C_1/g16/l301.exe)
 General basis read from cards:  (5D, 7F)
                         Coordinates in L301:                         
 ---------------------------------------------------------------------
 Center     Atomic      Atomic             Coordinates (Angstroms)
 Number     Number       Type             X           Y           Z
 ---------------------------------------------------------------------
      1          1           0        0.000000    0.000000   -0.916667
      2         11           0        0.000000    0.000000    0.083333
 ---------------------------------------------------------------------
 Centers:       1
 STO-3G
 ****
 Centers:       2
 cc-pVDZ
 ****
 FixB: optimizing general contractions.
 Ernie: Thresh=  0.10000D-02 Tol=  0.10000D-05 Strict=F.
 IA=     1 ShT= 0 ShC= 0 NL=   1 NS=   0.
 IA=     1 L=0 SC=0 ISt=    0 NBk=    0 NP=    0 IndPr=    0.
 IA=     2 ShT= 0 ShC= 0 NL=   4 NS=   1.
 IA=     2 L=0 SC=0 ISt=    1 NBk=    3 NP=   11 IndPr=    0.
 DoElim1:  L=0 select primitive    2 from    2 using    1 C= 3.55D-03
 DoElim1:  L=0 select primitive    2 from    3 using    1 C= 3.55D-03
 DoElim1:  L=0 select primitive    5 from    3 using    2 C=-6.14D-03
 DoElim2:  L=0 select primitive   11 from    2 using    3 C= 6.58D-01
 DoElim2:  L=0 select primitive   11 from    1 using    3 C= 6.58D-01
 DoElim2:  L=0 select primitive    9 from    1 using    2 C= 6.03D-01
 Delete L=0 primitive    5 from    3 C=  6.52D-20.
 Delete L=0 primitive    2 from    3 C=  2.06D-20.
 Delete L=0 primitive    1 from    3 C=  1.41D-07.
 Delete L=0 primitive   11 from    2 C=  1.18D-19.
 Delete L=0 primitive    2 from    2 C=  4.53D-20.
 Delete L=0 primitive    1 from    2 C=  7.82D-08.
 Delete L=0 primitive   11 from    1 C=  5.55D-21.
 Delete L=0 primitive    9 from    1 C=  4.94D-19.
 IA=     2 L=0 SC=0 ISt=    0 NBk=    0 NP=    0 IndPr=   25.
 IA=     2 ShT= 1 ShC= 1 NL=   3 NS=   1.
 IA=     2 L=1 SC=1 ISt=    1 NBk=    2 NP=    7 IndPr=    0.
 DoElim1:  L=1 select primitive    1 from    2 using    1 C= 5.80D-03
 DoElim2:  L=1 select primitive    7 from    1 using    2 C= 4.35D-01
 Delete L=1 primitive    1 from    2 C=  1.56D-20.
 Delete L=1 primitive    7 from    1 C=  1.56D-19.
 IA=     2 L=1 SC=1 ISt=    0 NBk=    0 NP=    0 IndPr=   12.
 IA=     2 ShT= 2 ShC= 2 NL=   1 NS=   1.
 IA=     2 L=2 SC=2 ISt=    0 NBk=    0 NP=    0 IndPr=    0.
 Ernie:  10 primitive shells out of 53 were deleted.
 LdAtmC:  AtmChg=     1.000000    11.000000
 AtZEff=     -1.0000000    -10.0400000
 NEqShl: 
              1            2            3            4
     1            1            1            1            1
     2            2            2            2            2
     3            3            3            3            3
     4            4            4            4            4
     5            5            5            5            5
     6            6            6            6            6
     7            7            7            7            7
     8            8            8            8            8
     9            9            9            9            9
 NEqBas: 
              1            2            3            4
     1            1            1            1            1
     2            2            2            2            2
     3            3            3            3            3
     4            4            4            4            4
     5            5            5            5            5
     6            6           -6           -6            6
     7            7           -7            7           -7
     8            8            8            8            8
     9            9           -9           -9            9
    10           10          -10           10          -10
    11           11           11           11           11
    12           12          -12          -12           12
    13           13          -13           13          -13
    14           14           14           14           14
    15           15           15           15           15
    16           16           16           16           16
    17           17           17           17           17
    18           18           18          -18          -18
    19           19          -19          -19           19
    20           20          -20           20          -20
 There are    11 symmetry adapted cartesian basis functions of A1  symmetry.
   1         1   1   1   1
   2         2   2   2   2
   3         3   3   3   3
   4         4   4   4   4
   5         5   5   5   5
   6         8   8   8   8
   7        11  11  11  11
   8        14  14  14  14
   9        15  15  15  15
  10        16  16  16  16
  11        17  17  17  17
 There are     1 symmetry adapted cartesian basis functions of A2  symmetry.
  12        18  18  18  18
 There are     4 symmetry adapted cartesian basis functions of B1  symmetry.
  13         6   6   6   6
  14         9   9   9   9
  15        12  12  12  12
  16        19  19  19  19
 There are     4 symmetry adapted cartesian basis functions of B2  symmetry.
  17         7   7   7   7
  18        10  10  10  10
  19        13  13  13  13
  20        20  20  20  20
 Order= 1 2 4 3
 Reordered character table:
              1            2            3            4            5
     1            1            1            1            1            1
     2            2            1            1           -1           -1
     3            4            1           -1           -1            1
     4            3            1           -1            1           -1
 NEqShl: 
              1            2            3            4
     1            1            1            1            1
     2            2            2            2            2
     3            3            3            3            3
     4            4            4            4            4
     5            5            5            5            5
     6            6            6            6            6
     7            7            7            7            7
     8            8            8            8            8
     9            9            9            9            9
 NEqBas: 
              1            2            3            4
     1            1            1            1            1
     2            2            2            2            2
     3            3            3            3            3
     4            4            4            4            4
     5            5            5            5            5
     6            6           -6           -6            6
     7            7           -7            7           -7
     8            8            8            8            8
     9            9           -9           -9            9
    10           10          -10           10          -10
    11           11           11           11           11
    12           12          -12          -12           12
    13           13          -13           13          -13
    14           14           14           14           14
    15           15           15           15           15
    16           16          -16          -16           16
    17           17          -17           17          -17
    18           18           18           18           18
    19           19           19          -19          -19
 There are    10 symmetry adapted basis functions of A1  symmetry.
   1         1   1   1   1
   2         2   2   2   2
   3         3   3   3   3
   4         4   4   4   4
   5         5   5   5   5
   6         8   8   8   8
   7        11  11  11  11
   8        14  14  14  14
   9        15  15  15  15
  10        18  18  18  18
 There are     1 symmetry adapted basis functions of A2  symmetry.
  11        19  19  19  19
 There are     4 symmetry adapted basis functions of B1  symmetry.
  12         6   6   6   6
  13         9   9   9   9
  14        12  12  12  12
  15        16  16  16  16
 There are     4 symmetry adapted basis functions of B2  symmetry.
  16         7   7   7   7
  17        10  10  10  10
  18        13  13  13  13
  19        17  17  17  17
 Order= 1 2 4 3
 Reordered character table:
              1            2            3            4            5
     1            1            1            1            1            1
     2            2            1            1           -1           -1
     3            4            1           -1           -1            1
     4            3            1           -1            1           -1
    19 basis functions,    74 primitive gaussians,    20 cartesian basis functions
     6 alpha electrons        6 beta electrons
       nuclear repulsion energy         5.8209493201 Hartrees.
 IS=     1 IAt=     1 ISR=     1 T=0 IP=      1 IndIP=      1 IndIPD=      0 C=  2.769344D-01  0.000000D+00                             NZ=T
 IS=     1 IAt=     1 ISR=     1 T=0 IP=      2 IndIP=      2 IndIPD=      1 C=  2.678389D-01  0.000000D+00                             NZ=T
 IS=     1 IAt=     1 ISR=     1 T=0 IP=      3 IndIP=      3 IndIPD=      2 C=  8.347367D-02  0.000000D+00                             NZ=T
 IS=     2 IAt=     2 ISR=     1 T=0 IP=      1 IndIP=      4 IndIPD=      0 C=  7.749657D-01  0.000000D+00                             NZ=T
 IS=     2 IAt=     2 ISR=     1 T=0 IP=      2 IndIP=      5 IndIPD=      1 C=  1.445329D+00  0.000000D+00                             NZ=T
 IS=     2 IAt=     2 ISR=     1 T=0 IP=      3 IndIP=      6 IndIPD=      2 C=  2.449022D+00  0.000000D+00                             NZ=T
 IS=     2 IAt=     2 ISR=     1 T=0 IP=      4 IndIP=      7 IndIPD=      3 C=  3.730568D+00  0.000000D+00                             NZ=T
 IS=     2 IAt=     2 ISR=     1 T=0 IP=      5 IndIP=      8 IndIPD=      4 C=  4.755208D+00  0.000000D+00                             NZ=T
 IS=     2 IAt=     2 ISR=     1 T=0 IP=      6 IndIP=      9 IndIPD=      5 C=  4.291841D+00  0.000000D+00                             NZ=T
 IS=     2 IAt=     2 ISR=     1 T=0 IP=      7 IndIP=     10 IndIPD=      6 C=  1.841498D+00  0.000000D+00                             NZ=T
 IS=     2 IAt=     2 ISR=     1 T=0 IP=      8 IndIP=     11 IndIPD=      7 C=  1.370586D-01  0.000000D+00                             NZ=T
 IS=     2 IAt=     2 ISR=     1 T=0 IP=      9 IndIP=     12 IndIPD=      8 C=  3.324917D-03  0.000000D+00                             NZ=T
 IS=     3 IAt=     2 ISR=     2 T=0 IP=      1 IndIP=     13 IndIPD=      0 C= -6.085686D-03  0.000000D+00                             NZ=T
 IS=     3 IAt=     2 ISR=     2 T=0 IP=      2 IndIP=     14 IndIPD=      1 C= -3.114138D-02  0.000000D+00                             NZ=T
 IS=     3 IAt=     2 ISR=     2 T=0 IP=      3 IndIP=     15 IndIPD=      2 C= -1.340760D-01  0.000000D+00                             NZ=T
 IS=     3 IAt=     2 ISR=     2 T=0 IP=      4 IndIP=     16 IndIPD=      3 C= -3.604805D-01  0.000000D+00                             NZ=T
 IS=     3 IAt=     2 ISR=     2 T=0 IP=      5 IndIP=     17 IndIPD=      4 C= -4.954545D-01  0.000000D+00                             NZ=T
 IS=     3 IAt=     2 ISR=     2 T=0 IP=      6 IndIP=     18 IndIPD=      5 C=  2.126614D-01  0.000000D+00                             NZ=T
 IS=     3 IAt=     2 ISR=     2 T=0 IP=      7 IndIP=     19 IndIPD=      6 C=  6.152727D-01  0.000000D+00                             NZ=T
 IS=     3 IAt=     2 ISR=     2 T=0 IP=      8 IndIP=     20 IndIPD=      7 C=  2.071440D-01  0.000000D+00                             NZ=T
 IS=     4 IAt=     2 ISR=     3 T=0 IP=      1 IndIP=     21 IndIPD=      0 C=  1.521098D-03  0.000000D+00                             NZ=T
 IS=     4 IAt=     2 ISR=     3 T=0 IP=      2 IndIP=     22 IndIPD=      1 C= -2.379509D-03  0.000000D+00                             NZ=T
 IS=     4 IAt=     2 ISR=     3 T=0 IP=      3 IndIP=     23 IndIPD=      2 C= -1.988937D-02  0.000000D+00                             NZ=T
 IS=     4 IAt=     2 ISR=     3 T=0 IP=      4 IndIP=     24 IndIPD=      3 C= -6.775799D-03  0.000000D+00                             NZ=T
 IS=     4 IAt=     2 ISR=     3 T=0 IP=      5 IndIP=     25 IndIPD=      4 C= -9.360493D-03  0.000000D+00                             NZ=T
 IS=     4 IAt=     2 ISR=     3 T=0 IP=      6 IndIP=     26 IndIPD=      5 C=  1.615288D-02  0.000000D+00                             NZ=T
 IS=     4 IAt=     2 ISR=     3 T=0 IP=      7 IndIP=     27 IndIPD=      6 C= -9.059148D-02  0.000000D+00                             NZ=T
 IS=     4 IAt=     2 ISR=     3 T=0 IP=      8 IndIP=     28 IndIPD=      7 C=  8.779692D-02  0.000000D+00                             NZ=T
 IS=     5 IAt=     2 ISR=     4 T=0 IP=      1 IndIP=     29 IndIPD=      0 C=  4.218867D-02  0.000000D+00                             NZ=T
 IS=     6 IAt=     2 ISR=     5 T=1 IP=      1 IndIP=     30 IndIPD=      0 C=  0.000000D+00  3.916140D+00                             NZ=T
 IS=     6 IAt=     2 ISR=     5 T=1 IP=      2 IndIP=     31 IndIPD=      1 C=  0.000000D+00  4.557958D+00                             NZ=T
 IS=     6 IAt=     2 ISR=     5 T=1 IP=      3 IndIP=     32 IndIPD=      2 C=  0.000000D+00  4.125852D+00                             NZ=T
 IS=     6 IAt=     2 ISR=     5 T=1 IP=      4 IndIP=     33 IndIPD=      3 C=  0.000000D+00  2.441280D+00                             NZ=T
 IS=     6 IAt=     2 ISR=     5 T=1 IP=      5 IndIP=     34 IndIPD=      4 C=  0.000000D+00  8.329269D-01                             NZ=T
 IS=     6 IAt=     2 ISR=     5 T=1 IP=      6 IndIP=     35 IndIPD=      5 C=  0.000000D+00  1.089733D-01                             NZ=T
 IS=     7 IAt=     2 ISR=     6 T=1 IP=      1 IndIP=     36 IndIPD=      0 C=  0.000000D+00  2.457740D-02                             NZ=T
 IS=     7 IAt=     2 ISR=     6 T=1 IP=      2 IndIP=     37 IndIPD=      1 C=  0.000000D+00 -2.625009D-02                             NZ=T
 IS=     7 IAt=     2 ISR=     6 T=1 IP=      3 IndIP=     38 IndIPD=      2 C=  0.000000D+00  1.134429D-02                             NZ=T
 IS=     7 IAt=     2 ISR=     6 T=1 IP=      4 IndIP=     39 IndIPD=      3 C=  0.000000D+00 -2.983152D-02                             NZ=T
 IS=     7 IAt=     2 ISR=     6 T=1 IP=      5 IndIP=     40 IndIPD=      4 C=  0.000000D+00  6.561456D-03                             NZ=T
 IS=     7 IAt=     2 ISR=     6 T=1 IP=      6 IndIP=     41 IndIPD=      5 C=  0.000000D+00  4.674178D-02                             NZ=T
 IS=     8 IAt=     2 ISR=     7 T=1 IP=      1 IndIP=     42 IndIPD=      0 C=  0.000000D+00  1.107711D-02                             NZ=T
 IS=     9 IAt=     2 ISR=     8 T=2 IP=      1 IndIP=     43 IndIPD=      1 C=  0.000000D+00  0.000000D+00  2.790017D-02  0.000000D+00 NZ=T
 IExCor=    0 DFT=F Ex=HF Corr=None ExCW=0 ScaHFX=  1.000000
 ScaDFX=  1.000000  1.000000  1.000000  1.000000 ScalE2=  1.000000  1.000000
 IRadAn=      5 IRanWt=     -1 IRanGd=            0 ICorTp=0 IEmpDi=  4
 NAtoms=    2 NActive=    2 NUniq=    2 SFac= 1.00D+00 NAtFMM=   60 NAOKFM=F Big=F
 Integral buffers will be    131072 words long.
 Raffenetti 1 integral format.
 Two-electron integral symmetry is turned on.
 Leave Link  301 at Mon Mar 28 14:20:47 2022, MaxMem=  9663676416 cpu:               1.9 elap:               0.1
 (Enter /nopt/nrel/apps/gaussian/g16C_1/g16/l302.exe)
 NPDir=0 NMtPBC=     1 NCelOv=     1 NCel=       1 NClECP=     1 NCelD=      1
         NCelK=      1 NCelE2=     1 NClLst=     1 CellRange=     0.0.
 One-electron integrals computed using PRISM.
 One-electron integral symmetry used in STVInt
 Entering OneElI...
 Calculate overlap and kinetic energy integrals
    NBasis =  19  MinDer = 0  MaxDer = 0
 Requested accuracy = 0.1000D-12
 Symmetry will be used
 PrmmSu-InSpLW:  IPartL=    0 NPrtUS=   36 NPrtUL=    1 DoSpLW=F IThBeg=    0 IThEnd=   35 NThAct=   36.
 PrSmSu:  IncTry=   512 NBBP=             45 NTPThr=   100 NPartT=   36 Incr=           1 LDynOK=F GPUOK=F.
 PrsmSu:  NPrtUS=  36 ThrOK=T IAlg=1 LenDen=           0 ISkipM=0 DoSpLW=F IThBeg=    0 IThEnd=   35.
 Prism:   IPart=     0 DynPar=F LinDyn=F Incr=           1.
 PRISM was handed   268425507 working-precision words and    45 shell-pairs
 PRISM was handed   268425507 working-precision words and    45 shell-pairs
 PRISM was handed   268425507 working-precision words and    45 shell-pairs
 PRISM was handed   268425507 working-precision words and    45 shell-pairs
 PRISM was handed   268425507 working-precision words and    45 shell-pairs
 PRISM was handed   268425507 working-precision words and    45 shell-pairs
 PRISM was handed   268425507 working-precision words and    45 shell-pairs
 PRISM was handed   268425507 working-precision words and    45 shell-pairs
 PRISM was handed   268425507 working-precision words and    45 shell-pairs
 PRISM was handed   268425507 working-precision words and    45 shell-pairs
 PRISM was handed   268425507 working-precision words and    45 shell-pairs
 PRISM was handed   268425507 working-precision words and    45 shell-pairs
 PRISM was handed   268425507 working-precision words and    45 shell-pairs
 IPart= 15 NShTot=           0 NBatch=           0 AvBLen=         0.0
 IPart= 23 NShTot=           0 NBatch=           0 AvBLen=         0.0
 IPart=  4 NShTot=           0 NBatch=           0 AvBLen=         0.0
 IPart=  8 NShTot=           0 NBatch=           0 AvBLen=         0.0
 IPart= 14 NShTot=           0 NBatch=           0 AvBLen=         0.0
 IPart= 13 NShTot=           0 NBatch=           0 AvBLen=         0.0
 IPart= 32 NShTot=           0 NBatch=           0 AvBLen=         0.0
 IPart=  5 NShTot=           0 NBatch=           0 AvBLen=         0.0
 IPart= 25 NShTot=           0 NBatch=           0 AvBLen=         0.0
 PRISM was handed   268425507 working-precision words and    45 shell-pairs
 PRISM was handed   268425507 working-precision words and    45 shell-pairs
 PRISM was handed   268425507 working-precision words and    45 shell-pairs
 PRISM was handed   268425507 working-precision words and    45 shell-pairs
 PRISM was handed   268425507 working-precision words and    45 shell-pairs
 IPart= 22 NShTot=           0 NBatch=           0 AvBLen=         0.0
 IPart=  3 NShTot=           1 NBatch=           1 AvBLen=         1.0
 IPart=  2 NShTot=           3 NBatch=           3 AvBLen=         1.0
 PRISM was handed   268425507 working-precision words and    45 shell-pairs
 PRISM was handed   268425507 working-precision words and    45 shell-pairs
 IPart= 18 NShTot=           0 NBatch=           0 AvBLen=         0.0
 IPart= 31 NShTot=           0 NBatch=           0 AvBLen=         0.0
 IPart=  9 NShTot=           0 NBatch=           0 AvBLen=         0.0
 IPart=  6 NShTot=           0 NBatch=           0 AvBLen=         0.0
 IPart= 30 NShTot=           0 NBatch=           0 AvBLen=         0.0
 PRISM was handed   268425507 working-precision words and    45 shell-pairs
 PRISM was handed   268425507 working-precision words and    45 shell-pairs
 PRISM was handed   268425507 working-precision words and    45 shell-pairs
 PRISM was handed   268425507 working-precision words and    45 shell-pairs
 PRISM was handed   268425507 working-precision words and    45 shell-pairs
 PRISM was handed   268425507 working-precision words and    45 shell-pairs
 PRISM was handed   268425507 working-precision words and    45 shell-pairs
 PRISM was handed   268425507 working-precision words and    45 shell-pairs
 PRISM was handed   268425507 working-precision words and    45 shell-pairs
 PRISM was handed   268425507 working-precision words and    45 shell-pairs
 IPart= 29 NShTot=           0 NBatch=           0 AvBLen=         0.0
 IPart=  1 NShTot=          14 NBatch=          14 AvBLen=         1.0
 PRISM was handed   268425507 working-precision words and    45 shell-pairs
 PRISM was handed   268425507 working-precision words and    45 shell-pairs
 PRISM was handed   268425507 working-precision words and    45 shell-pairs
 IPart= 10 NShTot=           0 NBatch=           0 AvBLen=         0.0
 IPart= 20 NShTot=           0 NBatch=           0 AvBLen=         0.0
 IPart= 27 NShTot=           0 NBatch=           0 AvBLen=         0.0
 IPart= 12 NShTot=           0 NBatch=           0 AvBLen=         0.0
 IPart= 34 NShTot=           0 NBatch=           0 AvBLen=         0.0
 IPart= 24 NShTot=           0 NBatch=           0 AvBLen=         0.0
 IPart= 28 NShTot=           0 NBatch=           0 AvBLen=         0.0
 IPart=  7 NShTot=           0 NBatch=           0 AvBLen=         0.0
 IPart= 21 NShTot=           0 NBatch=           0 AvBLen=         0.0
 IPart= 16 NShTot=           0 NBatch=           0 AvBLen=         0.0
 PRISM was handed   268425507 working-precision words and    45 shell-pairs
 PRISM was handed   268425507 working-precision words and    45 shell-pairs
 PRISM was handed   268425507 working-precision words and    45 shell-pairs
 IPart= 19 NShTot=           0 NBatch=           0 AvBLen=         0.0
 IPart= 35 NShTot=           0 NBatch=           0 AvBLen=         0.0
 IPart= 33 NShTot=           0 NBatch=           0 AvBLen=         0.0
 IPart=  0 NShTot=          27 NBatch=          27 AvBLen=         1.0
 IPart= 11 NShTot=           0 NBatch=           0 AvBLen=         0.0
 IPart= 17 NShTot=           0 NBatch=           0 AvBLen=         0.0
 IPart= 26 NShTot=           0 NBatch=           0 AvBLen=         0.0
 PrSmSu:  NxtVal=             37.
 *** Overlap *** 
                1             2             3             4             5 
      1  0.100000D+01
      2  0.357062D-01  0.100000D+01
      3  0.300383D+00  0.247971D+00  0.100000D+01
      4  0.464796D+00  0.318917D-02  0.166761D+00  0.100000D+01
      5  0.337952D+00  0.200816D-01  0.169469D+00  0.877618D+00  0.100000D+01
      6  0.000000D+00  0.000000D+00  0.000000D+00  0.000000D+00  0.000000D+00
      7  0.000000D+00  0.000000D+00  0.000000D+00  0.000000D+00  0.000000D+00
      8 -0.261332D+00  0.000000D+00  0.000000D+00  0.000000D+00  0.000000D+00
      9  0.000000D+00  0.000000D+00  0.000000D+00  0.000000D+00  0.000000D+00
     10  0.000000D+00  0.000000D+00  0.000000D+00  0.000000D+00  0.000000D+00
     11 -0.410032D+00  0.000000D+00  0.000000D+00  0.000000D+00  0.000000D+00
     12  0.000000D+00  0.000000D+00  0.000000D+00  0.000000D+00  0.000000D+00
     13  0.000000D+00  0.000000D+00  0.000000D+00  0.000000D+00  0.000000D+00
     14 -0.157680D+00  0.000000D+00  0.000000D+00  0.000000D+00  0.000000D+00
     15  0.258992D+00  0.000000D+00  0.000000D+00  0.000000D+00  0.000000D+00
     16  0.000000D+00  0.000000D+00  0.000000D+00  0.000000D+00  0.000000D+00
     17  0.000000D+00  0.000000D+00  0.000000D+00  0.000000D+00  0.000000D+00
     18  0.000000D+00  0.000000D+00  0.000000D+00  0.000000D+00  0.000000D+00
     19  0.000000D+00  0.000000D+00  0.000000D+00  0.000000D+00  0.000000D+00
                6             7             8             9            10 
      6  0.100000D+01
      7  0.000000D+00  0.100000D+01
      8  0.000000D+00  0.000000D+00  0.100000D+01
      9  0.154548D+00  0.000000D+00  0.000000D+00  0.100000D+01
     10  0.000000D+00  0.154548D+00  0.000000D+00  0.000000D+00  0.100000D+01
     11  0.000000D+00  0.000000D+00  0.154548D+00  0.000000D+00  0.000000D+00
     12  0.447959D-01  0.000000D+00  0.000000D+00  0.672325D+00  0.000000D+00
     13  0.000000D+00  0.447959D-01  0.000000D+00  0.000000D+00  0.672325D+00
     14  0.000000D+00  0.000000D+00  0.447959D-01  0.000000D+00  0.000000D+00
     15  0.000000D+00  0.000000D+00  0.000000D+00  0.000000D+00  0.000000D+00
     16  0.000000D+00  0.000000D+00  0.000000D+00  0.000000D+00  0.000000D+00
     17  0.000000D+00  0.000000D+00  0.000000D+00  0.000000D+00  0.000000D+00
     18  0.000000D+00  0.000000D+00  0.000000D+00  0.000000D+00  0.000000D+00
     19  0.000000D+00  0.000000D+00  0.000000D+00  0.000000D+00  0.000000D+00
               11            12            13            14            15 
     11  0.100000D+01
     12  0.000000D+00  0.100000D+01
     13  0.000000D+00  0.000000D+00  0.100000D+01
     14  0.672325D+00  0.000000D+00  0.000000D+00  0.100000D+01
     15  0.000000D+00  0.000000D+00  0.000000D+00  0.000000D+00  0.100000D+01
     16  0.000000D+00  0.000000D+00  0.000000D+00  0.000000D+00  0.000000D+00
     17  0.000000D+00  0.000000D+00  0.000000D+00  0.000000D+00  0.000000D+00
     18  0.000000D+00  0.000000D+00  0.000000D+00  0.000000D+00  0.000000D+00
     19  0.000000D+00  0.000000D+00  0.000000D+00  0.000000D+00  0.000000D+00
               16            17            18            19 
     16  0.100000D+01
     17  0.000000D+00  0.100000D+01
     18  0.000000D+00  0.000000D+00  0.100000D+01
     19  0.000000D+00  0.000000D+00  0.000000D+00  0.100000D+01
 *** Kinetic Energy *** 
                1             2             3             4             5 
      1  0.760032D+00
      2 -0.328328D-02  0.559245D+02
      3  0.477319D-01 -0.270711D+01  0.198850D+01
      4  0.478307D-01 -0.186861D+00 -0.113978D+00  0.981361D-01
      5  0.202370D-01  0.138303D-02  0.114008D-01  0.423571D-01  0.346050D-01
      6  0.000000D+00  0.000000D+00  0.000000D+00  0.000000D+00  0.000000D+00
      7  0.000000D+00  0.000000D+00  0.000000D+00  0.000000D+00  0.000000D+00
      8 -0.168483D+00  0.000000D+00  0.000000D+00  0.000000D+00  0.000000D+00
      9  0.000000D+00  0.000000D+00  0.000000D+00  0.000000D+00  0.000000D+00
     10  0.000000D+00  0.000000D+00  0.000000D+00  0.000000D+00  0.000000D+00
     11 -0.101590D+00  0.000000D+00  0.000000D+00  0.000000D+00  0.000000D+00
     12  0.000000D+00  0.000000D+00  0.000000D+00  0.000000D+00  0.000000D+00
     13  0.000000D+00  0.000000D+00  0.000000D+00  0.000000D+00  0.000000D+00
     14 -0.145046D-01  0.000000D+00  0.000000D+00  0.000000D+00  0.000000D+00
     15  0.125871D+00  0.000000D+00  0.000000D+00  0.000000D+00  0.000000D+00
     16  0.000000D+00  0.000000D+00  0.000000D+00  0.000000D+00  0.000000D+00
     17  0.000000D+00  0.000000D+00  0.000000D+00  0.000000D+00  0.000000D+00
     18  0.000000D+00  0.000000D+00  0.000000D+00  0.000000D+00  0.000000D+00
     19  0.000000D+00  0.000000D+00  0.000000D+00  0.000000D+00  0.000000D+00
                6             7             8             9            10 
      6  0.590429D+01
      7  0.000000D+00  0.590429D+01
      8  0.000000D+00  0.000000D+00  0.590429D+01
      9  0.132596D-01  0.000000D+00  0.000000D+00  0.163902D+00
     10  0.000000D+00  0.132596D-01  0.000000D+00  0.000000D+00  0.163902D+00
     11  0.000000D+00  0.000000D+00  0.132596D-01  0.000000D+00  0.000000D+00
     12  0.444443D-02  0.000000D+00  0.000000D+00  0.524934D-01  0.000000D+00
     13  0.000000D+00  0.444443D-02  0.000000D+00  0.000000D+00  0.524934D-01
     14  0.000000D+00  0.000000D+00  0.444443D-02  0.000000D+00  0.000000D+00
     15  0.000000D+00  0.000000D+00  0.000000D+00  0.000000D+00  0.000000D+00
     16  0.000000D+00  0.000000D+00  0.000000D+00  0.000000D+00  0.000000D+00
     17  0.000000D+00  0.000000D+00  0.000000D+00  0.000000D+00  0.000000D+00
     18  0.000000D+00  0.000000D+00  0.000000D+00  0.000000D+00  0.000000D+00
     19  0.000000D+00  0.000000D+00  0.000000D+00  0.000000D+00  0.000000D+00
               11            12            13            14            15 
     11  0.163902D+00
     12  0.000000D+00  0.513250D-01
     13  0.000000D+00  0.000000D+00  0.513250D-01
     14  0.524934D-01  0.000000D+00  0.000000D+00  0.513250D-01
     15  0.000000D+00  0.000000D+00  0.000000D+00  0.000000D+00  0.340550D+00
     16  0.000000D+00  0.000000D+00  0.000000D+00  0.000000D+00  0.000000D+00
     17  0.000000D+00  0.000000D+00  0.000000D+00  0.000000D+00  0.000000D+00
     18  0.000000D+00  0.000000D+00  0.000000D+00  0.000000D+00  0.000000D+00
     19  0.000000D+00  0.000000D+00  0.000000D+00  0.000000D+00  0.000000D+00
               16            17            18            19 
     16  0.340550D+00
     17  0.000000D+00  0.340550D+00
     18  0.000000D+00  0.000000D+00  0.340550D+00
     19  0.000000D+00  0.000000D+00  0.000000D+00  0.340550D+00
 Entering OneElI...
 Calculate potential energy integrals
    NBasis =  19  MinDer = 0  MaxDer = 0
 Requested accuracy = 0.1000D-12
 Symmetry will be used
 PrmmSu-InSpLW:  IPartL=    0 NPrtUS=   36 NPrtUL=    1 DoSpLW=F IThBeg=    0 IThEnd=   35 NThAct=   36.
 PrSmSu:  IncTry=   512 NBBP=             90 NTPThr=   100 NPartT=   36 Incr=           1 LDynOK=F GPUOK=F.
 PrsmSu:  NPrtUS=  36 ThrOK=T IAlg=1 LenDen=           0 ISkipM=0 DoSpLW=F IThBeg=    0 IThEnd=   35.
 Prism:   IPart=     0 DynPar=F LinDyn=F Incr=           1.
 PRISM was handed   268425699 working-precision words and    45 shell-pairs
 PRISM was handed   268425699 working-precision words and    45 shell-pairs
 PRISM was handed   268425699 working-precision words and    45 shell-pairs
 PRISM was handed   268425699 working-precision words and    45 shell-pairs
 PRISM was handed   268425699 working-precision words and    45 shell-pairs
 PRISM was handed   268425699 working-precision words and    45 shell-pairs
 PRISM was handed   268425699 working-precision words and    45 shell-pairs
 PRISM was handed   268425699 working-precision words and    45 shell-pairs
 PRISM was handed   268425699 working-precision words and    45 shell-pairs
 PRISM was handed   268425699 working-precision words and    45 shell-pairs
 PRISM was handed   268425699 working-precision words and    45 shell-pairs
 PRISM was handed   268425699 working-precision words and    45 shell-pairs
 PRISM was handed   268425699 working-precision words and    45 shell-pairs
 PRISM was handed   268425699 working-precision words and    45 shell-pairs
 PRISM was handed   268425699 working-precision words and    45 shell-pairs
 PRISM was handed   268425699 working-precision words and    45 shell-pairs
 PRISM was handed   268425699 working-precision words and    45 shell-pairs
 PRISM was handed   268425699 working-precision words and    45 shell-pairs
 PRISM was handed   268425699 working-precision words and    45 shell-pairs
 PRISM was handed   268425699 working-precision words and    45 shell-pairs
 PRISM was handed   268425699 working-precision words and    45 shell-pairs
 PRISM was handed   268425699 working-precision words and    45 shell-pairs
 PRISM was handed   268425699 working-precision words and    45 shell-pairs
 PRISM was handed   268425699 working-precision words and    45 shell-pairs
 PRISM was handed   268425699 working-precision words and    45 shell-pairs
 PRISM was handed   268425699 working-precision words and    45 shell-pairs
 PRISM was handed   268425699 working-precision words and    45 shell-pairs
 PRISM was handed   268425699 working-precision words and    45 shell-pairs
 PRISM was handed   268425699 working-precision words and    45 shell-pairs
 PRISM was handed   268425699 working-precision words and    45 shell-pairs
 PRISM was handed   268425699 working-precision words and    45 shell-pairs
 PRISM was handed   268425699 working-precision words and    45 shell-pairs
 PRISM was handed   268425699 working-precision words and    45 shell-pairs
 PRISM was handed   268425699 working-precision words and    45 shell-pairs
 PRISM was handed   268425699 working-precision words and    45 shell-pairs
 PRISM was handed   268425699 working-precision words and    45 shell-pairs
 IPart= 16 NShTot=           0 NBatch=           0 AvBLen=         0.0
 IPart= 33 NShTot=           0 NBatch=           0 AvBLen=         0.0
 IPart= 26 NShTot=           0 NBatch=           0 AvBLen=         0.0
 IPart= 25 NShTot=           0 NBatch=           0 AvBLen=         0.0
 IPart= 28 NShTot=           0 NBatch=           0 AvBLen=         0.0
 IPart= 17 NShTot=           0 NBatch=           0 AvBLen=         0.0
 IPart= 14 NShTot=           0 NBatch=           0 AvBLen=         0.0
 IPart= 20 NShTot=           0 NBatch=           0 AvBLen=         0.0
 IPart= 13 NShTot=           0 NBatch=           0 AvBLen=         0.0
 IPart= 35 NShTot=           0 NBatch=           0 AvBLen=         0.0
 IPart= 23 NShTot=           0 NBatch=           0 AvBLen=         0.0
 IPart= 29 NShTot=           0 NBatch=           0 AvBLen=         0.0
 IPart= 24 NShTot=           0 NBatch=           0 AvBLen=         0.0
 IPart= 32 NShTot=           0 NBatch=           0 AvBLen=         0.0
 IPart= 18 NShTot=           0 NBatch=           0 AvBLen=         0.0
 IPart= 21 NShTot=           0 NBatch=           0 AvBLen=         0.0
 IPart= 31 NShTot=           0 NBatch=           0 AvBLen=         0.0
 IPart= 34 NShTot=           0 NBatch=           0 AvBLen=         0.0
 IPart= 22 NShTot=           0 NBatch=           0 AvBLen=         0.0
 IPart= 12 NShTot=           0 NBatch=           0 AvBLen=         0.0
 IPart= 19 NShTot=           0 NBatch=           0 AvBLen=         0.0
 IPart= 15 NShTot=           0 NBatch=           0 AvBLen=         0.0
 IPart= 27 NShTot=           0 NBatch=           0 AvBLen=         0.0
 IPart= 30 NShTot=           0 NBatch=           0 AvBLen=         0.0
 IPart=  1 NShTot=          28 NBatch=          14 AvBLen=         2.0
 IPart=  8 NShTot=           0 NBatch=           0 AvBLen=         0.0
 IPart=  2 NShTot=           6 NBatch=           3 AvBLen=         2.0
 IPart=  5 NShTot=           0 NBatch=           0 AvBLen=         0.0
 IPart=  7 NShTot=           0 NBatch=           0 AvBLen=         0.0
 IPart=  3 NShTot=           2 NBatch=           1 AvBLen=         2.0
 IPart=  9 NShTot=           0 NBatch=           0 AvBLen=         0.0
 IPart=  4 NShTot=           0 NBatch=           0 AvBLen=         0.0
 IPart=  6 NShTot=           0 NBatch=           0 AvBLen=         0.0
 IPart=  0 NShTot=          54 NBatch=          27 AvBLen=         2.0
 IPart= 11 NShTot=           0 NBatch=           0 AvBLen=         0.0
 IPart= 10 NShTot=           0 NBatch=           0 AvBLen=         0.0
 PrSmSu:  NxtVal=             37.
 ***** Potential Energy ***** 
                1             2             3             4             5 
      1  0.686867D+01
      2  0.187408D+01  0.116831D+03
      3  0.390135D+01  0.108774D+02  0.183699D+02
      4  0.254768D+01 -0.126359D+00  0.158708D+01  0.383575D+01
      5  0.193130D+01  0.105541D+01  0.212870D+01  0.305360D+01  0.289586D+01
      6  0.000000D+00  0.000000D+00  0.000000D+00  0.000000D+00  0.000000D+00
      7  0.000000D+00  0.000000D+00  0.000000D+00  0.000000D+00  0.000000D+00
      8 -0.265689D+01 -0.150504D-01 -0.123017D+00 -0.446485D-01 -0.365568D-01
      9  0.000000D+00  0.000000D+00  0.000000D+00  0.000000D+00  0.000000D+00
     10  0.000000D+00  0.000000D+00  0.000000D+00  0.000000D+00  0.000000D+00
     11 -0.209144D+01 -0.451922D-03 -0.227208D-01 -0.970758D-01 -0.740316D-01
     12  0.000000D+00  0.000000D+00  0.000000D+00  0.000000D+00  0.000000D+00
     13  0.000000D+00  0.000000D+00  0.000000D+00  0.000000D+00  0.000000D+00
     14 -0.713275D+00 -0.135563D-03 -0.622205D-02 -0.404874D-01 -0.386709D-01
     15  0.129969D+01  0.138910D-03  0.905275D-02  0.453571D-01  0.324196D-01
     16  0.000000D+00  0.000000D+00  0.000000D+00  0.000000D+00  0.000000D+00
     17  0.000000D+00  0.000000D+00  0.000000D+00  0.000000D+00  0.000000D+00
     18  0.000000D+00  0.000000D+00  0.000000D+00  0.000000D+00  0.000000D+00
     19  0.000000D+00  0.000000D+00  0.000000D+00  0.000000D+00  0.000000D+00
                6             7             8             9            10 
      6  0.191901D+02
      7  0.000000D+00  0.191901D+02
      8  0.000000D+00  0.000000D+00  0.192576D+02
      9  0.125340D+01  0.000000D+00  0.000000D+00  0.324071D+01
     10  0.000000D+00  0.125340D+01  0.000000D+00  0.000000D+00  0.324071D+01
     11  0.000000D+00  0.000000D+00  0.127796D+01  0.000000D+00  0.000000D+00
     12  0.361817D+00  0.000000D+00  0.000000D+00  0.176936D+01  0.000000D+00
     13  0.000000D+00  0.361817D+00  0.000000D+00  0.000000D+00  0.176936D+01
     14  0.000000D+00  0.000000D+00  0.368638D+00  0.000000D+00  0.000000D+00
     15  0.000000D+00  0.000000D+00 -0.275924D-01  0.000000D+00  0.000000D+00
     16 -0.122970D-01  0.000000D+00  0.000000D+00 -0.536616D-01  0.000000D+00
     17  0.000000D+00 -0.122970D-01  0.000000D+00  0.000000D+00 -0.536616D-01
     18  0.000000D+00  0.000000D+00  0.000000D+00  0.000000D+00  0.000000D+00
     19  0.000000D+00  0.000000D+00  0.000000D+00  0.000000D+00  0.000000D+00
               11            12            13            14            15 
     11  0.329616D+01
     12  0.000000D+00  0.182484D+01
     13  0.000000D+00  0.000000D+00  0.182484D+01
     14  0.179138D+01  0.000000D+00  0.000000D+00  0.183692D+01
     15 -0.935053D-01  0.000000D+00  0.000000D+00 -0.410521D-01  0.321862D+01
     16  0.000000D+00 -0.256051D-01  0.000000D+00  0.000000D+00  0.000000D+00
     17  0.000000D+00  0.000000D+00 -0.256051D-01  0.000000D+00  0.000000D+00
     18  0.000000D+00  0.000000D+00  0.000000D+00  0.000000D+00  0.000000D+00
     19  0.000000D+00  0.000000D+00  0.000000D+00  0.000000D+00  0.000000D+00
               16            17            18            19 
     16  0.318928D+01
     17  0.000000D+00  0.318928D+01
     18  0.000000D+00  0.000000D+00  0.316212D+01
     19  0.000000D+00  0.000000D+00  0.000000D+00  0.316212D+01
 ****** Core Hamiltonian ****** 
                1             2             3             4             5 
      1 -0.610864D+01
      2 -0.187737D+01 -0.609066D+02
      3 -0.385362D+01 -0.135845D+02 -0.163814D+02
      4 -0.249985D+01 -0.605020D-01 -0.170106D+01 -0.373762D+01
      5 -0.191106D+01 -0.105402D+01 -0.211730D+01 -0.301124D+01 -0.286126D+01
      6  0.000000D+00  0.000000D+00  0.000000D+00  0.000000D+00  0.000000D+00
      7  0.000000D+00  0.000000D+00  0.000000D+00  0.000000D+00  0.000000D+00
      8  0.248840D+01  0.150504D-01  0.123017D+00  0.446485D-01  0.365568D-01
      9  0.000000D+00  0.000000D+00  0.000000D+00  0.000000D+00  0.000000D+00
     10  0.000000D+00  0.000000D+00  0.000000D+00  0.000000D+00  0.000000D+00
     11  0.198985D+01  0.451922D-03  0.227208D-01  0.970758D-01  0.740316D-01
     12  0.000000D+00  0.000000D+00  0.000000D+00  0.000000D+00  0.000000D+00
     13  0.000000D+00  0.000000D+00  0.000000D+00  0.000000D+00  0.000000D+00
     14  0.698771D+00  0.135563D-03  0.622205D-02  0.404874D-01  0.386709D-01
     15 -0.117382D+01 -0.138910D-03 -0.905275D-02 -0.453571D-01 -0.324196D-01
     16  0.000000D+00  0.000000D+00  0.000000D+00  0.000000D+00  0.000000D+00
     17  0.000000D+00  0.000000D+00  0.000000D+00  0.000000D+00  0.000000D+00
     18  0.000000D+00  0.000000D+00  0.000000D+00  0.000000D+00  0.000000D+00
     19  0.000000D+00  0.000000D+00  0.000000D+00  0.000000D+00  0.000000D+00
                6             7             8             9            10 
      6 -0.132858D+02
      7  0.000000D+00 -0.132858D+02
      8  0.000000D+00  0.000000D+00 -0.133533D+02
      9 -0.124014D+01  0.000000D+00  0.000000D+00 -0.307681D+01
     10  0.000000D+00 -0.124014D+01  0.000000D+00  0.000000D+00 -0.307681D+01
     11  0.000000D+00  0.000000D+00 -0.126470D+01  0.000000D+00  0.000000D+00
     12 -0.357372D+00  0.000000D+00  0.000000D+00 -0.171686D+01  0.000000D+00
     13  0.000000D+00 -0.357372D+00  0.000000D+00  0.000000D+00 -0.171686D+01
     14  0.000000D+00  0.000000D+00 -0.364193D+00  0.000000D+00  0.000000D+00
     15  0.000000D+00  0.000000D+00  0.275924D-01  0.000000D+00  0.000000D+00
     16  0.122970D-01  0.000000D+00  0.000000D+00  0.536616D-01  0.000000D+00
     17  0.000000D+00  0.122970D-01  0.000000D+00  0.000000D+00  0.536616D-01
     18  0.000000D+00  0.000000D+00  0.000000D+00  0.000000D+00  0.000000D+00
     19  0.000000D+00  0.000000D+00  0.000000D+00  0.000000D+00  0.000000D+00
               11            12            13            14            15 
     11 -0.313226D+01
     12  0.000000D+00 -0.177351D+01
     13  0.000000D+00  0.000000D+00 -0.177351D+01
     14 -0.173889D+01  0.000000D+00  0.000000D+00 -0.178560D+01
     15  0.935053D-01  0.000000D+00  0.000000D+00  0.410521D-01 -0.287807D+01
     16  0.000000D+00  0.256051D-01  0.000000D+00  0.000000D+00  0.000000D+00
     17  0.000000D+00  0.000000D+00  0.256051D-01  0.000000D+00  0.000000D+00
     18  0.000000D+00  0.000000D+00  0.000000D+00  0.000000D+00  0.000000D+00
     19  0.000000D+00  0.000000D+00  0.000000D+00  0.000000D+00  0.000000D+00
               16            17            18            19 
     16 -0.284873D+01
     17  0.000000D+00 -0.284873D+01
     18  0.000000D+00  0.000000D+00 -0.282157D+01
     19  0.000000D+00  0.000000D+00  0.000000D+00 -0.282157D+01
 SVDSVc IOpt=   1 NormSV=T IR=1
 SVDSVc V= 2.36D+00 1.77D+00 1.21D+00 1.11D+00 1.00D+00 9.87D-01 7.50D-01 4.75D-01 2.39D-01 9.68D-02
 SVDSVc IOpt=   1 NormSV=T IR=2
 SVDSVc V= 1.00D+00
 SVDSVc IOpt=   1 NormSV=T IR=3
 SVDSVc V= 1.70D+00 1.00D+00 9.81D-01 3.19D-01
 SVDSVc IOpt=   1 NormSV=T IR=4
 SVDSVc V= 1.70D+00 1.00D+00 9.81D-01 3.19D-01
 TstOVc:  Largest diagonal error= 2.22D-15 IB=1 I=   10.
 TstOVc:  Largest same sym error= 1.05D-15 IB=1 I=   10 J=    6.
 TstOVc:  Largest diff sym error= 0.00D+00 IB=0 JB=0 I=    0 J=    0.
 Orthogonalized basis functions: 
                 1             2             3             4             5 
      1   0.332888D+00 -0.101209D+00  0.109548D+00  0.287871D+00  0.000000D+00
      2   0.444388D-01  0.286303D-01  0.624452D+00 -0.253767D+00  0.000000D+00
      3   0.164758D+00  0.796542D-01  0.541953D+00 -0.141005D+00  0.000000D+00
      4   0.345146D+00  0.247777D+00 -0.213465D+00 -0.948208D-01  0.000000D+00
      5   0.326804D+00  0.255989D+00 -0.215188D+00 -0.136551D+00  0.000000D+00
      6   0.000000D+00  0.000000D+00  0.000000D+00  0.000000D+00  0.000000D+00
      7   0.000000D+00  0.000000D+00  0.000000D+00  0.000000D+00  0.000000D+00
      8  -0.879039D-01  0.151446D+00 -0.673370D-01 -0.375563D+00  0.000000D+00
      9   0.000000D+00  0.000000D+00  0.000000D+00  0.000000D+00  0.000000D+00
     10   0.000000D+00  0.000000D+00  0.000000D+00  0.000000D+00  0.000000D+00
     11  -0.173354D+00  0.459499D+00  0.626181D-01  0.138771D+00  0.000000D+00
     12   0.000000D+00  0.000000D+00  0.000000D+00  0.000000D+00  0.000000D+00
     13   0.000000D+00  0.000000D+00  0.000000D+00  0.000000D+00  0.000000D+00
     14  -0.127257D+00  0.430284D+00  0.102170D+00  0.284451D+00  0.000000D+00
     15   0.634271D-01 -0.340054D-01  0.132913D+00  0.682263D+00  0.000000D+00
     16   0.000000D+00  0.000000D+00  0.000000D+00  0.000000D+00  0.000000D+00
     17   0.000000D+00  0.000000D+00  0.000000D+00  0.000000D+00  0.000000D+00
     18   0.000000D+00  0.000000D+00  0.000000D+00  0.000000D+00  0.100000D+01
     19   0.000000D+00  0.000000D+00  0.000000D+00  0.000000D+00  0.000000D+00
                 6             7             8             9            10 
      1  -0.280619D-01 -0.191350D+00  0.846280D+00  0.858285D+00 -0.849840D+00
      2   0.175054D-01  0.762011D+00  0.162157D+00  0.662650D-01  0.754061D-02
      3   0.184407D-02 -0.759160D+00 -0.437304D+00 -0.278163D+00  0.223500D+00
      4   0.983888D-02  0.145458D+00 -0.408474D-01  0.283930D+00  0.229283D+01
      5   0.143030D-01  0.201373D+00 -0.341238D+00 -0.648214D+00 -0.195204D+01
      6   0.000000D+00  0.000000D+00  0.000000D+00  0.000000D+00  0.000000D+00
      7   0.000000D+00  0.000000D+00  0.000000D+00  0.000000D+00  0.000000D+00
      8   0.806999D+00 -0.183443D+00  0.474609D+00  0.834489D-01 -0.162629D+00
      9   0.000000D+00  0.000000D+00  0.000000D+00  0.000000D+00  0.000000D+00
     10   0.000000D+00  0.000000D+00  0.000000D+00  0.000000D+00  0.000000D+00
     11  -0.564787D-01 -0.572228D-02 -0.388598D+00  0.133089D+01 -0.568645D+00
     12   0.000000D+00  0.000000D+00  0.000000D+00  0.000000D+00  0.000000D+00
     13   0.000000D+00  0.000000D+00  0.000000D+00  0.000000D+00  0.000000D+00
     14  -0.201535D+00 -0.724020D-01  0.710725D+00 -0.100260D+01  0.282994D+00
     15   0.562701D+00  0.198158D+00 -0.417135D+00 -0.292018D+00  0.243696D+00
     16   0.000000D+00  0.000000D+00  0.000000D+00  0.000000D+00  0.000000D+00
     17   0.000000D+00  0.000000D+00  0.000000D+00  0.000000D+00  0.000000D+00
     18   0.000000D+00  0.000000D+00  0.000000D+00  0.000000D+00  0.000000D+00
     19   0.000000D+00  0.000000D+00  0.000000D+00  0.000000D+00  0.000000D+00
                11            12            13            14            15 
      1   0.000000D+00  0.000000D+00  0.000000D+00  0.000000D+00  0.000000D+00
      2   0.000000D+00  0.000000D+00  0.000000D+00  0.000000D+00  0.000000D+00
      3   0.000000D+00  0.000000D+00  0.000000D+00  0.000000D+00  0.000000D+00
      4   0.000000D+00  0.000000D+00  0.000000D+00  0.000000D+00  0.000000D+00
      5   0.000000D+00  0.000000D+00  0.000000D+00  0.000000D+00  0.000000D+00
      6   0.000000D+00  0.152093D+00  0.000000D+00  0.982915D+00 -0.204821D+00
      7   0.000000D+00  0.000000D+00  0.000000D+00  0.000000D+00  0.000000D+00
      8   0.000000D+00  0.000000D+00  0.000000D+00  0.000000D+00  0.000000D+00
      9   0.000000D+00  0.537460D+00  0.000000D+00 -0.589883D-01  0.125925D+01
     10   0.000000D+00  0.000000D+00  0.000000D+00  0.000000D+00  0.000000D+00
     11   0.000000D+00  0.000000D+00  0.000000D+00  0.000000D+00  0.000000D+00
     12   0.000000D+00  0.525304D+00  0.000000D+00 -0.224234D+00 -0.122909D+01
     13   0.000000D+00  0.000000D+00  0.000000D+00  0.000000D+00  0.000000D+00
     14   0.000000D+00  0.000000D+00  0.000000D+00  0.000000D+00  0.000000D+00
     15   0.000000D+00  0.000000D+00  0.000000D+00  0.000000D+00  0.000000D+00
     16   0.000000D+00  0.000000D+00  0.100000D+01  0.000000D+00  0.000000D+00
     17   0.000000D+00  0.000000D+00  0.000000D+00  0.000000D+00  0.000000D+00
     18   0.000000D+00  0.000000D+00  0.000000D+00  0.000000D+00  0.000000D+00
     19   0.100000D+01  0.000000D+00  0.000000D+00  0.000000D+00  0.000000D+00
                16            17            18            19 
      1   0.000000D+00  0.000000D+00  0.000000D+00  0.000000D+00
      2   0.000000D+00  0.000000D+00  0.000000D+00  0.000000D+00
      3   0.000000D+00  0.000000D+00  0.000000D+00  0.000000D+00
      4   0.000000D+00  0.000000D+00  0.000000D+00  0.000000D+00
      5   0.000000D+00  0.000000D+00  0.000000D+00  0.000000D+00
      6   0.000000D+00  0.000000D+00  0.000000D+00  0.000000D+00
      7   0.152093D+00  0.000000D+00  0.982915D+00 -0.204821D+00
      8   0.000000D+00  0.000000D+00  0.000000D+00  0.000000D+00
      9   0.000000D+00  0.000000D+00  0.000000D+00  0.000000D+00
     10   0.537460D+00  0.000000D+00 -0.589883D-01  0.125925D+01
     11   0.000000D+00  0.000000D+00  0.000000D+00  0.000000D+00
     12   0.000000D+00  0.000000D+00  0.000000D+00  0.000000D+00
     13   0.525304D+00  0.000000D+00 -0.224234D+00 -0.122909D+01
     14   0.000000D+00  0.000000D+00  0.000000D+00  0.000000D+00
     15   0.000000D+00  0.000000D+00  0.000000D+00  0.000000D+00
     16   0.000000D+00  0.000000D+00  0.000000D+00  0.000000D+00
     17   0.000000D+00  0.100000D+01  0.000000D+00  0.000000D+00
     18   0.000000D+00  0.000000D+00  0.000000D+00  0.000000D+00
     19   0.000000D+00  0.000000D+00  0.000000D+00  0.000000D+00
 NBasis=    19 RedAO= T EigKep=  9.68D-02  NBF=    10     1     4     4
 NBsUse=    19 1.00D-06 EigRej= -1.00D+00 NBFU=    10     1     4     4
 Leave Link  302 at Mon Mar 28 14:20:47 2022, MaxMem=  9663676416 cpu:               3.3 elap:               0.1
 (Enter /nopt/nrel/apps/gaussian/g16C_1/g16/l303.exe)
 DipDrv will not compute anything.
 Fermi contact integrals: 
                 1             2 
      1   0.628247D+00  0.745326D-01
      2   0.405959D-03  0.194288D+02
      3   0.268382D-01  0.784000D-02
      4   0.607613D-01 -0.235257D-01
      5   0.388523D-01  0.421887D-01
      6   0.000000D+00  0.000000D+00
      7   0.000000D+00  0.000000D+00
      8  -0.657558D-01  0.000000D+00
      9   0.000000D+00  0.000000D+00
     10   0.000000D+00  0.000000D+00
     11  -0.720945D-01  0.000000D+00
     12   0.000000D+00  0.000000D+00
     13   0.000000D+00  0.000000D+00
     14  -0.194529D-01  0.000000D+00
     15   0.703887D-01  0.000000D+00
     16   0.000000D+00  0.000000D+00
     17   0.000000D+00  0.000000D+00
     18   0.000000D+00  0.000000D+00
     19   0.000000D+00  0.000000D+00
 Leave Link  303 at Mon Mar 28 14:20:47 2022, MaxMem=  9663676416 cpu:               1.1 elap:               0.1
 (Enter /nopt/nrel/apps/gaussian/g16C_1/g16/l401.exe)
 ExpMin= 2.05D-02 ExpMax= 3.17D+04 ExpMxC= 1.08D+03 IAcc=3 IRadAn=         5 AccDes= 0.00D+00
 Harris functional with IExCor=  205 and IRadAn=       5 diagonalized for initial guess.
 HarFok:  IExCor=  205 AccDes= 0.00D+00 IRadAn=         5 IDoV= 1 UseB2=F ITyADJ=14
 ICtDFT=  3500011 ScaDFX=  1.000000  1.000000  1.000000  1.000000
 FoFCou: FMM=F IPFlag=           0 FMFlag=      100000 FMFlg1=           0
         NFxFlg=           0 DoJE=T BraDBF=F KetDBF=T FulRan=T
         wScrn=  0.000000 ICntrl=       500 IOpCl=  0 I1Cent=   200000004 NGrid=           0
         NMat0=    1 NMatS0=      1 NMatT0=    0 NMatD0=    1 NMtDS0=    0 NMtDT0=    0
 Petite list used in FoFCou.
 Harris En= -162.017760753735    
 JPrj=0 DoOrth=F DoCkMO=F.
 Initial guess orbital symmetries:
       Occupied  (SG) (SG) (SG) (PI) (PI) (SG)
       Virtual   (SG) (PI) (PI) (SG) (SG) (PI) (PI) (SG) (PI) (PI)
                 (DLTA) (DLTA) (SG)
 The electronic state of the initial guess is 1-SG.
 Leave Link  401 at Mon Mar 28 14:20:47 2022, MaxMem=  9663676416 cpu:               4.6 elap:               0.2
 (Enter /nopt/nrel/apps/gaussian/g16C_1/g16/l502.exe)
 Keep R1 ints in memory in symmetry-blocked form, NReq=7463775.
 FoFCou: FMM=F IPFlag=           0 FMFlag=           0 FMFlg1=           0
         NFxFlg=           0 DoJE=F BraDBF=F KetDBF=F FulRan=T
         wScrn=  0.000000 ICntrl=       600 IOpCl=  0 I1Cent=           0 NGrid=           0
         NMat0=    1 NMatS0=    190 NMatT0=    0 NMatD0=    1 NMtDS0=    0 NMtDT0=    0
 Petite list used in FoFCou.
 Closed shell SCF:
 Using DIIS extrapolation, IDIIS=  1040.
 NGot=  9663676416 LenX=  9663667906 LenY=  9663667024
 Requested convergence on RMS density matrix=1.00D-08 within 128 cycles.
 Requested convergence on MAX density matrix=1.00D-06.
 Requested convergence on             energy=1.00D-06.
 No special actions if energy rises.

 Cycle   1  Pass 1  IDiag  1:
 E= -162.112108284948    
 DIIS: error= 2.21D-02 at cycle   1 NSaved=   1.
 NSaved= 1 IEnMin= 1 EnMin= -162.112108284948     IErMin= 1 ErrMin= 2.21D-02
 ErrMax= 2.21D-02  0.00D+00 EMaxC= 1.00D-01 BMatC= 1.41D-02 BMatP= 1.41D-02
 IDIUse=3 WtCom= 7.79D-01 WtEn= 2.21D-01
 Coeff-Com:  0.100D+01
 Coeff-En:   0.100D+01
 Coeff:      0.100D+01
 Gap=     0.277 Goal=   None    Shift=    0.000
 GapD=    0.277 DampG=1.000 DampE=0.500 DampFc=0.5000 IDamp=-1.
 Damping current iteration by 5.00D-01
 RMSDP=1.20D-02 MaxDP=1.52D-01              OVMax= 1.06D-01

 Cycle   2  Pass 1  IDiag  1:
 E= -162.124139067684     Delta-E=       -0.012030782736 Rises=F Damp=T
 DIIS: error= 1.14D-02 at cycle   2 NSaved=   2.
 NSaved= 2 IEnMin= 2 EnMin= -162.124139067684     IErMin= 2 ErrMin= 1.14D-02
 ErrMax= 1.14D-02  0.00D+00 EMaxC= 1.00D-01 BMatC= 3.88D-03 BMatP= 1.41D-02
 IDIUse=3 WtCom= 8.86D-01 WtEn= 1.14D-01
 Coeff-Com: -0.109D+01 0.209D+01
 Coeff-En:   0.000D+00 0.100D+01
 Coeff:     -0.964D+00 0.196D+01
 Gap=     0.291 Goal=   None    Shift=    0.000
 RMSDP=6.92D-03 MaxDP=8.46D-02 DE=-1.20D-02 OVMax= 1.20D-02

 Cycle   3  Pass 1  IDiag  1:
 E= -162.137563516288     Delta-E=       -0.013424448604 Rises=F Damp=F
 DIIS: error= 4.69D-04 at cycle   3 NSaved=   3.
 NSaved= 3 IEnMin= 3 EnMin= -162.137563516288     IErMin= 3 ErrMin= 4.69D-04
 ErrMax= 4.69D-04  0.00D+00 EMaxC= 1.00D-01 BMatC= 7.08D-06 BMatP= 3.88D-03
 IDIUse=3 WtCom= 9.95D-01 WtEn= 4.69D-03
 Coeff-Com:  0.396D+00-0.752D+00 0.136D+01
 Coeff-En:   0.000D+00 0.000D+00 0.100D+01
 Coeff:      0.394D+00-0.748D+00 0.135D+01
 Gap=     0.296 Goal=   None    Shift=    0.000
 RMSDP=4.16D-04 MaxDP=2.63D-03 DE=-1.34D-02 OVMax= 4.70D-03

 Cycle   4  Pass 1  IDiag  1:
 E= -162.137595207908     Delta-E=       -0.000031691621 Rises=F Damp=F
 DIIS: error= 9.72D-05 at cycle   4 NSaved=   4.
 NSaved= 4 IEnMin= 4 EnMin= -162.137595207908     IErMin= 4 ErrMin= 9.72D-05
 ErrMax= 9.72D-05  0.00D+00 EMaxC= 1.00D-01 BMatC= 1.71D-07 BMatP= 7.08D-06
 IDIUse=1 WtCom= 1.00D+00 WtEn= 0.00D+00
 Coeff-Com: -0.363D-01 0.708D-01-0.266D+00 0.123D+01
 Coeff:     -0.363D-01 0.708D-01-0.266D+00 0.123D+01
 Gap=     0.296 Goal=   None    Shift=    0.000
 RMSDP=8.04D-05 MaxDP=5.00D-04 DE=-3.17D-05 OVMax= 1.05D-03

 Cycle   5  Pass 1  IDiag  1:
 E= -162.137596240578     Delta-E=       -0.000001032669 Rises=F Damp=F
 DIIS: error= 1.87D-05 at cycle   5 NSaved=   5.
 NSaved= 5 IEnMin= 5 EnMin= -162.137596240578     IErMin= 5 ErrMin= 1.87D-05
 ErrMax= 1.87D-05  0.00D+00 EMaxC= 1.00D-01 BMatC= 4.01D-09 BMatP= 1.71D-07
 IDIUse=1 WtCom= 1.00D+00 WtEn= 0.00D+00
 Coeff-Com:  0.813D-02-0.158D-01 0.708D-01-0.398D+00 0.134D+01
 Coeff:      0.813D-02-0.158D-01 0.708D-01-0.398D+00 0.134D+01
 Gap=     0.296 Goal=   None    Shift=    0.000
 RMSDP=1.52D-05 MaxDP=1.17D-04 DE=-1.03D-06 OVMax= 2.17D-04

 Cycle   6  Pass 1  IDiag  1:
 E= -162.137596274378     Delta-E=       -0.000000033801 Rises=F Damp=F
 DIIS: error= 3.69D-06 at cycle   6 NSaved=   6.
 NSaved= 6 IEnMin= 6 EnMin= -162.137596274378     IErMin= 6 ErrMin= 3.69D-06
 ErrMax= 3.69D-06  0.00D+00 EMaxC= 1.00D-01 BMatC= 1.42D-10 BMatP= 4.01D-09
 IDIUse=1 WtCom= 1.00D+00 WtEn= 0.00D+00
 Coeff-Com: -0.194D-02 0.382D-02-0.206D-01 0.118D+00-0.547D+00 0.145D+01
 Coeff:     -0.194D-02 0.382D-02-0.206D-01 0.118D+00-0.547D+00 0.145D+01
 Gap=     0.296 Goal=   None    Shift=    0.000
 RMSDP=4.09D-06 MaxDP=3.79D-05 DE=-3.38D-08 OVMax= 5.33D-05

 Cycle   7  Pass 1  IDiag  1:
 E= -162.137596275706     Delta-E=       -0.000000001328 Rises=F Damp=F
 DIIS: error= 2.09D-07 at cycle   7 NSaved=   7.
 NSaved= 7 IEnMin= 7 EnMin= -162.137596275706     IErMin= 7 ErrMin= 2.09D-07
 ErrMax= 2.09D-07  0.00D+00 EMaxC= 1.00D-01 BMatC= 1.01D-12 BMatP= 1.42D-10
 IDIUse=1 WtCom= 1.00D+00 WtEn= 0.00D+00
 Coeff-Com: -0.145D-04 0.242D-04 0.607D-03-0.283D-02 0.347D-01-0.138D+00
 Coeff-Com:  0.111D+01
 Coeff:     -0.145D-04 0.242D-04 0.607D-03-0.283D-02 0.347D-01-0.138D+00
 Coeff:      0.111D+01
 Gap=     0.296 Goal=   None    Shift=    0.000
 RMSDP=2.15D-07 MaxDP=1.17D-06 DE=-1.33D-09 OVMax= 2.23D-06

 Cycle   8  Pass 1  IDiag  1:
 E= -162.137596275712     Delta-E=       -0.000000000006 Rises=F Damp=F
 DIIS: error= 1.45D-08 at cycle   8 NSaved=   8.
 NSaved= 8 IEnMin= 8 EnMin= -162.137596275712     IErMin= 8 ErrMin= 1.45D-08
 ErrMax= 1.45D-08  0.00D+00 EMaxC= 1.00D-01 BMatC= 4.86D-15 BMatP= 1.01D-12
 IDIUse=1 WtCom= 1.00D+00 WtEn= 0.00D+00
 Coeff-Com: -0.203D-05 0.429D-05-0.101D-03 0.374D-03-0.513D-02 0.212D-01
 Coeff-Com: -0.209D+00 0.119D+01
 Coeff:     -0.203D-05 0.429D-05-0.101D-03 0.374D-03-0.513D-02 0.212D-01
 Coeff:     -0.209D+00 0.119D+01
 Gap=     0.296 Goal=   None    Shift=    0.000
 RMSDP=1.68D-08 MaxDP=9.43D-08 DE=-5.74D-12 OVMax= 1.50D-07

 Cycle   9  Pass 1  IDiag  1:
 E= -162.137596275712     Delta-E=        0.000000000000 Rises=F Damp=F
 DIIS: error= 2.10D-09 at cycle   9 NSaved=   9.
 NSaved= 9 IEnMin= 8 EnMin= -162.137596275712     IErMin= 9 ErrMin= 2.10D-09
 ErrMax= 2.10D-09  0.00D+00 EMaxC= 1.00D-01 BMatC= 6.24D-17 BMatP= 4.86D-15
 IDIUse=1 WtCom= 1.00D+00 WtEn= 0.00D+00
 Coeff-Com:  0.139D-05-0.273D-05 0.258D-04-0.971D-04 0.112D-02-0.441D-02
 Coeff-Com:  0.430D-01-0.311D+00 0.127D+01
 Coeff:      0.139D-05-0.273D-05 0.258D-04-0.971D-04 0.112D-02-0.441D-02
 Coeff:      0.430D-01-0.311D+00 0.127D+01
 Gap=     0.296 Goal=   None    Shift=    0.000
 RMSDP=2.99D-09 MaxDP=2.01D-08 DE= 2.84D-13 OVMax= 2.46D-08

 SCF Done:  E(RHF) =  -162.137596276     A.U. after    9 cycles
            NFock=  9  Conv=0.30D-08     -V/T= 1.9949
 KE= 1.629743491374D+02 PE=-4.022458700181D+02 EE= 7.131297528488D+01
 Leave Link  502 at Mon Mar 28 14:20:47 2022, MaxMem=  9663676416 cpu:               5.5 elap:               0.2
 (Enter /nopt/nrel/apps/gaussian/g16C_1/g16/l801.exe)
 Windowed orbitals will be sorted by symmetry type.
 ExpMin= 2.05D-02 ExpMax= 3.17D+04 ExpMxC= 1.08D+03 IAcc=3 IRadAn=         5 AccDes= 0.00D+00
 HarFok:  IExCor=  205 AccDes= 0.00D+00 IRadAn=         5 IDoV=-2 UseB2=F ITyADJ=14
 ICtDFT= 12500011 ScaDFX=  1.000000  1.000000  1.000000  1.000000
 Largest valence mixing into a core orbital is  4.07D-03
 Largest core mixing into a valence orbital is  1.57D-03
 Range of M.O.s used for correlation:     6    19
 NBasis=    19 NAE=     6 NBE=     6 NFC=     5 NFV=     0
 NROrb=     14 NOA=     1 NOB=     1 NVA=    13 NVB=    13
 Leave Link  801 at Mon Mar 28 14:20:47 2022, MaxMem=  9663676416 cpu:               2.5 elap:               0.1
 (Enter /nopt/nrel/apps/gaussian/g16C_1/g16/l804.exe)
 Closed-shell transformation, MDV=  9663676416 ITran=4 ISComp=2.
 Unit  1 TFree=         13636 TCopy=        221891.
 Semi-Direct transformation.
 ModeAB=           2 MOrb=             1 LenV=    9663483840
 LASXX=          322 LTotXX=         322 LenRXX=         322
 LTotAB=         441 MaxLAS=        2940 LenRXY=        2940
 NonZer=        3276 LenScr=      785920 LnRSAI=           0
 LnScr1=           0 LExtra=      222959 Total=      1012141
 MaxDsk= 34359738368 SrtSym=           F ITran=            4
 DoSDTr:  NPSUse= 36
 JobTyp=0 Pass  1:  I=   1 to   1.
 (rs|ai) integrals will be sorted in core.
 Complete sort for first half transformation.
 First half transformation complete.
 Complete sort for second half transformation.
 Second half transformation complete.
 Spin components of T(2) and E(2):
     alpha-alpha T2 =       0.0000000000D+00 E2=      0.0000000000D+00
     alpha-beta  T2 =       0.1524480815D-01 E2=     -0.1705099088D-01
     beta-beta   T2 =       0.0000000000D+00 E2=      0.0000000000D+00
 ANorm=    0.1007593573D+01
 E2 =    -0.1705099088D-01 EUMP2 =    -0.16215464726659D+03
 Leave Link  804 at Mon Mar 28 14:20:48 2022, MaxMem=  9663676416 cpu:               2.4 elap:               0.1
 (Enter /nopt/nrel/apps/gaussian/g16C_1/g16/l913.exe)
 CIDS:  MDV=  9663676416.
 Frozen-core window:  NFC=   5 NFV=   0.
 IFCWin=0 IBDFC=1 NFBD=     0     0 NFCmp=     0     0 NFFFC=     0     0
 Using DD3R+UMP44R for 1st iteration.
 Using DD4RQ for 2nd and later iterations.
 Keep R2 and R3 ints in memory in symmetry-blocked form, NReq=7466205.
 FoFCou: FMM=F IPFlag=           0 FMFlag=           0 FMFlg1=           0
         NFxFlg=           0 DoJE=F BraDBF=F KetDBF=F FulRan=T
         wScrn=  0.000000 ICntrl=       600 IOpCl=  0 I1Cent=           0 NGrid=           0
         NMat0=    1 NMatS0=    190 NMatT0=    0 NMatD0=    1 NMtDS0=    0 NMtDT0=    0
 Petite list used in FoFCou.
 CIDS: In Core Option IDoMem=           1.
 Coupled Cluster theory with single and double substitutions
 ===========================================================
 Iterations= 200 Convergence= 0.100D-06
 Produce multiple copies of IABC intergrals
 Iteration Nr.   1
 **********************
 DD1Dir will call FoFMem   1 times, MxPair=         2
 NAB=     1 NAA=     0 NBB=     0.
 MP4(R+Q)=  0.25993908D-03
 Maximum subspace dimension=  5
 A-vector RMS=  1.1520267D-02 Max=  1.6294804D-02 conv= 1.00D-05.
 RLE energy=       -0.0251045103
 E3=       -0.57361671D-02        EUMP3=      -0.16216038343D+03
 E4(DQ)=   -0.20405088D-02        UMP4(DQ)=   -0.16216242394D+03
 E4(SDQ)=  -0.22088087D-02        UMP4(SDQ)=  -0.16216259224D+03
 VARIATIONAL ENERGIES WITH THE FIRST-ORDER WAVEFUNCTION:
 DE(Corr)= -0.22520947E-01 E(Corr)=     -162.16011722    
 NORM(A)=   0.10171254D+01
 Iteration Nr.   2
 **********************
 DD1Dir will call FoFMem   1 times, MxPair=         2
 NAB=     1 NAA=     0 NBB=     0.
 A-vector RMS=  5.2511453D-03 Max=  5.7510320D-03 conv= 1.00D-05.
 RLE energy=       -0.0263484942
 DE(Corr)= -0.25725843E-01 E(CORR)=     -162.16332212     Delta=-3.20D-03
 NORM(A)=   0.10202658D+01
 Iteration Nr.   3
 **********************
 DD1Dir will call FoFMem   1 times, MxPair=         2
 NAB=     1 NAA=     0 NBB=     0.
 A-vector RMS=  3.4114988D-03 Max=  4.7181405D-03 conv= 1.00D-05.
 RLE energy=       -0.0266681101
 DE(Corr)= -0.26369277E-01 E(CORR)=     -162.16396555     Delta=-6.43D-04
 NORM(A)=   0.10223595D+01
 Iteration Nr.   4
 **********************
 DD1Dir will call FoFMem   1 times, MxPair=         2
 NAB=     1 NAA=     0 NBB=     0.
 A-vector RMS=  9.2957304D-04 Max=  1.4778472D-03 conv= 1.00D-05.
 RLE energy=       -0.0267576445
 DE(Corr)= -0.26694524E-01 E(CORR)=     -162.16429080     Delta=-3.25D-04
 NORM(A)=   0.10229474D+01
 Iteration Nr.   5
 **********************
 DD1Dir will call FoFMem   1 times, MxPair=         2
 NAB=     1 NAA=     0 NBB=     0.
 A-vector RMS=  4.0102290D-04 Max=  5.2108201D-04 conv= 1.00D-05.
 RLE energy=       -0.0267397212
 DE(Corr)= -0.26745171E-01 E(CORR)=     -162.16434145     Delta=-5.06D-05
 NORM(A)=   0.10230347D+01
 Iteration Nr.   6
 **********************
 DD1Dir will call FoFMem   1 times, MxPair=         2
 NAB=     1 NAA=     0 NBB=     0.
 A-vector RMS=  1.1343628D-04 Max=  1.3959986D-04 conv= 1.00D-05.
 RLE energy=       -0.0267424088
 DE(Corr)= -0.26741712E-01 E(CORR)=     -162.16433799     Delta= 3.46D-06
 NORM(A)=   0.10230583D+01
 Iteration Nr.   7
 **********************
 DD1Dir will call FoFMem   1 times, MxPair=         2
 NAB=     1 NAA=     0 NBB=     0.
 A-vector RMS=  3.2867987D-05 Max=  4.7205000D-05 conv= 1.00D-05.
 RLE energy=       -0.0267444893
 DE(Corr)= -0.26743392E-01 E(CORR)=     -162.16433967     Delta=-1.68D-06
 NORM(A)=   0.10230615D+01
 Iteration Nr.   8
 **********************
 DD1Dir will call FoFMem   1 times, MxPair=         2
 NAB=     1 NAA=     0 NBB=     0.
 A-vector RMS=  8.5358935D-06 Max=  1.0271030D-05 conv= 1.00D-05.
 RLE energy=       -0.0267437874
 DE(Corr)= -0.26744019E-01 E(CORR)=     -162.16434029     Delta=-6.27D-07
 NORM(A)=   0.10230596D+01
 Iteration Nr.   9
 **********************
 DD1Dir will call FoFMem   1 times, MxPair=         2
 NAB=     1 NAA=     0 NBB=     0.
 A-vector RMS=  2.4556728D-06 Max=  2.4621023D-06 conv= 1.00D-05.
 RLE energy=       -0.0267440300
 DE(Corr)= -0.26743911E-01 E(CORR)=     -162.16434019     Delta= 1.08D-07
 NORM(A)=   0.10230601D+01
 Iteration Nr.  10
 **********************
 DD1Dir will call FoFMem   1 times, MxPair=         2
 NAB=     1 NAA=     0 NBB=     0.
 A-vector RMS=  7.7437540D-07 Max=  9.2319680D-07 conv= 1.00D-05.
 RLE energy=       -0.0267439350
 DE(Corr)= -0.26743971E-01 E(CORR)=     -162.16434025     Delta=-6.03D-08
 NORM(A)=   0.10230599D+01
 CI/CC converged in   10 iterations to DelEn=-6.03D-08 Conv= 1.00D-07 ErrA1= 7.74D-07 Conv= 1.00D-05
 Wavefunction amplitudes converged. E(Corr)=     -162.16434025    
 Largest amplitude= 7.46D-02
 Discarding MO integrals.
 Leave Link  913 at Mon Mar 28 14:20:48 2022, MaxMem=  9663676416 cpu:               6.6 elap:               0.2
 (Enter /nopt/nrel/apps/gaussian/g16C_1/g16/l601.exe)
 Copying SCF densities to generalized density rwf, IOpCl= 0 IROHF=0.

 **********************************************************************

            Population analysis using the SCF Density.

 **********************************************************************

 Orbital symmetries:
       Occupied  (SG) (SG) (SG) (PI) (PI) (SG)
       Virtual   (SG) (PI) (PI) (SG) (SG) (PI) (PI) (SG) (PI) (PI)
                 (DLTA) (DLTA) (SG)
 The electronic state is 1-SG.
 Alpha  occ. eigenvalues --  -40.49759  -2.84843  -1.59539  -1.54963  -1.54963
 Alpha  occ. eigenvalues --   -0.28212
 Alpha virt. eigenvalues --    0.01410   0.03853   0.03853   0.08125   0.13044
 Alpha virt. eigenvalues --    0.15928   0.15928   0.24907   0.27920   0.27920
 Alpha virt. eigenvalues --    0.28173   0.28173   0.61473
          Condensed to atoms (all electrons):
               1          2
     1  H    0.605677   0.315702
     2  Na   0.315702  10.762919
 Mulliken charges:
               1
     1  H    0.078621
     2  Na  -0.078621
 Sum of Mulliken charges =   0.00000
 Mulliken charges with hydrogens summed into heavy atoms:
               1
     2  Na   0.000000
 N-N= 5.820949320120D+00 E-N=-4.022458700165D+02  KE= 1.629743491374D+02
 Symmetry A1   KE= 1.394026260281D+02
 Symmetry A2   KE=-6.562323448178D-52
 Symmetry B1   KE= 1.178586155467D+01
 Symmetry B2   KE= 1.178586155467D+01

 Atomic contributions to Alpha molecular orbitals:
 Alpha occ 1 OE=-40.498 is Na2-s=1.0000
 Alpha occ 2 OE=-2.848 is Na2-s=0.9919
 Alpha occ 3 OE=-1.595 is Na2-p=0.9702
 Alpha occ 4 OE=-1.550 is Na2-p=1.0000
 Alpha occ 5 OE=-1.550 is Na2-p=1.0000
 Alpha occ 6 OE=-0.282 is Na2-s=0.4576 H1-s=0.4245
 Alpha vir 7 OE=0.014 is Na2-p=0.5916 Na2-s=0.3850
 Alpha vir 8 OE=0.039 is Na2-p=0.9983
 Alpha vir 9 OE=0.039 is Na2-p=0.9983
 Alpha vir 10 OE=0.081 is Na2-p=0.5176 Na2-s=0.4307
 Alpha vir 11 OE=0.130 is Na2-p=0.5419 Na2-s=0.4514
 Alpha vir 12 OE=0.159 is Na2-p=0.9910
 Alpha vir 13 OE=0.159 is Na2-p=0.9910
 Alpha vir 14 OE=0.249 is Na2-d=0.8039
 Alpha vir 15 OE=0.279 is Na2-d=0.9893
 Alpha vir 16 OE=0.279 is Na2-d=0.9893
 Alpha vir 17 OE=0.282 is Na2-d=1.0000
 Alpha vir 18 OE=0.282 is Na2-d=1.0000
 Alpha vir 19 OE=0.615 is H1-s=0.4476 Na2-p=0.2033 Na2-s=0.1903 Na2-d=0.1589
 
 Leave Link  601 at Mon Mar 28 14:20:48 2022, MaxMem=  9663676416 cpu:               3.2 elap:               0.1
 (Enter /nopt/nrel/apps/gaussian/g16C_1/g16/l9999.exe)

 Test job not archived.
 1\1\GINC-R102U34\SP\RCCSD-FC\Gen\H1Na1\USER\28-Mar-2022\0\\#P CCSD
 (MaxCyc=200,SaveAmplitudes,ReadAmplitudes)/GEN sp pop=AllOrbitals iop(
 3/33=1,3/36=-1)\\test\\0,1\H,0,0.,0.,0.\Na,0,0.,0.,1.\\Version=ES64L-G
 16RevC.01\State=1-SG\HF=-162.1375963\MP2=-162.1546473\MP3=-162.1603834
 \MP4D=-162.1626839\MP4DQ=-162.1624239\MP4SDQ=-162.1625922\CCSD=-162.16
 43402\RMSD=2.988e-09\PG=C*V [C*(H1Na1)]\\@


 MEMORIES ARE LIKE AN ENGLISH GRAMMER LESSON -
 PRESENT TENSE, AND PAST PERFECT.
 Job cpu time:       0 days  0 hours  0 minutes 39.0 seconds.
 Elapsed time:       0 days  0 hours  0 minutes  1.5 seconds.
 File lengths (MBytes):  RWF=     13 Int=      0 D2E=      0 Chk=      1 Scr=      1
 Normal termination of Gaussian 16 at Mon Mar 28 14:20:48 2022.
