 Entering Gaussian System, Link 0=g16
 Initial command:
 /nopt/nrel/apps/gaussian/g16C_1/g16/l1.exe "/lustre/eaglefs/scratch/user/qc/kh-dissc/kh-1-ccsd-3.0-321g/Gau-10144.inp" -scrdir="/lustre/eaglefs/scratch/user/qc/kh-dissc/kh-1-ccsd-3.0-321g/"
 Default is to use a total of  36 processors:
                               36 via shared-memory
                                1 via Linda
 Entering Link 1 = /nopt/nrel/apps/gaussian/g16C_1/g16/l1.exe PID=     10145.
  
 Copyright (c) 1988-2019, Gaussian, Inc.  All Rights Reserved.
  
 This is part of the Gaussian(R) 16 program.  It is based on
 the Gaussian(R) 09 system (copyright 2009, Gaussian, Inc.),
 the Gaussian(R) 03 system (copyright 2003, Gaussian, Inc.),
 the Gaussian(R) 98 system (copyright 1998, Gaussian, Inc.),
 the Gaussian(R) 94 system (copyright 1995, Gaussian, Inc.),
 the Gaussian 92(TM) system (copyright 1992, Gaussian, Inc.),
 the Gaussian 90(TM) system (copyright 1990, Gaussian, Inc.),
 the Gaussian 88(TM) system (copyright 1988, Gaussian, Inc.),
 the Gaussian 86(TM) system (copyright 1986, Carnegie Mellon
 University), and the Gaussian 82(TM) system (copyright 1983,
 Carnegie Mellon University). Gaussian is a federally registered
 trademark of Gaussian, Inc.
  
 This software contains proprietary and confidential information,
 including trade secrets, belonging to Gaussian, Inc.
  
 This software is provided under written license and may be
 used, copied, transmitted, or stored only in accord with that
 written license.
  
 The following legend is applicable only to US Government
 contracts under FAR:
  
                    RESTRICTED RIGHTS LEGEND
  
 Use, reproduction and disclosure by the US Government is
 subject to restrictions as set forth in subparagraphs (a)
 and (c) of the Commercial Computer Software - Restricted
 Rights clause in FAR 52.227-19.
  
 Gaussian, Inc.
 340 Quinnipiac St., Bldg. 40, Wallingford CT 06492
  
  
 ---------------------------------------------------------------
 Warning -- This program may not be used in any manner that
 competes with the business of Gaussian, Inc. or will provide
 assistance to any competitor of Gaussian, Inc.  The licensee
 of this program is prohibited from giving any competitor of
 Gaussian, Inc. access to this program.  By using this program,
 the user acknowledges that Gaussian, Inc. is engaged in the
 business of creating and licensing software in the field of
 computational chemistry and represents and warrants to the
 licensee that it is not a competitor of Gaussian, Inc. and that
 it will not use this program in any manner prohibited above.
 ---------------------------------------------------------------
  

 Cite this work as:
 Gaussian 16, Revision C.01,
 M. J. Frisch, G. W. Trucks, H. B. Schlegel, G. E. Scuseria, 
 M. A. Robb, J. R. Cheeseman, G. Scalmani, V. Barone, 
 G. A. Petersson, H. Nakatsuji, X. Li, M. Caricato, A. V. Marenich, 
 J. Bloino, B. G. Janesko, R. Gomperts, B. Mennucci, H. P. Hratchian, 
 J. V. Ortiz, A. F. Izmaylov, J. L. Sonnenberg, D. Williams-Young, 
 F. Ding, F. Lipparini, F. Egidi, J. Goings, B. Peng, A. Petrone, 
 T. Henderson, D. Ranasinghe, V. G. Zakrzewski, J. Gao, N. Rega, 
 G. Zheng, W. Liang, M. Hada, M. Ehara, K. Toyota, R. Fukuda, 
 J. Hasegawa, M. Ishida, T. Nakajima, Y. Honda, O. Kitao, H. Nakai, 
 T. Vreven, K. Throssell, J. A. Montgomery, Jr., J. E. Peralta, 
 F. Ogliaro, M. J. Bearpark, J. J. Heyd, E. N. Brothers, K. N. Kudin, 
 V. N. Staroverov, T. A. Keith, R. Kobayashi, J. Normand, 
 K. Raghavachari, A. P. Rendell, J. C. Burant, S. S. Iyengar, 
 J. Tomasi, M. Cossi, J. M. Millam, M. Klene, C. Adamo, R. Cammi, 
 J. W. Ochterski, R. L. Martin, K. Morokuma, O. Farkas, 
 J. B. Foresman, and D. J. Fox, Gaussian, Inc., Wallingford CT, 2019.
 
 ******************************************
 Gaussian 16:  ES64L-G16RevC.01  3-Jul-2019
                28-Mar-2022 
 ******************************************
 %chk=molecule
 Default route: CacheSize=180224 MaxDisk=256GB
 ----------------------------------------------------------------------
 #P CCSD(MaxCyc=200,SaveAmplitudes,ReadAmplitudes)/GEN sp pop=AllOrbita
 ls iop(3/33=1,3/36=-1)
 ----------------------------------------------------------------------
 1/4=180224,38=1,172=1/1;
 2/4=180224,12=2,17=6,18=5,40=1/2;
 3/4=180224,5=7,11=9,25=1,30=1,33=1,36=-1/1,2,3;
 4/4=180224/1;
 5/4=180224,5=2,38=5/2;
 8/4=180224,6=4,9=120000,10=1,24=1/1,4;
 9/4=180224,5=7,6=200,77=1/13;
 6/4=180224,7=2,8=2,9=2,10=2,96=-1/1;
 99/4=180224,5=1,9=1/99;
 Leave Link    1 at Mon Mar 28 14:31:15 2022, MaxMem=           0 cpu:               2.3 elap:               0.1
 (Enter /nopt/nrel/apps/gaussian/g16C_1/g16/l101.exe)
 ----
 test
 ----
 Symbolic Z-matrix:
 Charge =  0 Multiplicity = 1
 H                     0.        0.        0. 
 K                     0.        0.        3. 
 
 ITRead=  0  0
 MicOpt= -1 -1
 NAtoms=      2 NQM=        2 NQMF=       0 NMMI=      0 NMMIF=      0
                NMic=       0 NMicF=      0.
                    Isotopes and Nuclear Properties:
 (Nuclear quadrupole moments (NQMom) in fm**2, nuclear magnetic moments (NMagM)
  in nuclear magnetons)

  Atom         1           2
 IAtWgt=           1          39
 AtmWgt=   1.0078250  38.9637079
 NucSpn=           1           3
 AtZEff=  -0.0000000  -0.0000000
 NQMom=    0.0000000   5.8500000
 NMagM=    2.7928460   0.3914660
 AtZNuc=   1.0000000  19.0000000
 Leave Link  101 at Mon Mar 28 14:31:15 2022, MaxMem=  9663676416 cpu:               3.0 elap:               0.1
 (Enter /nopt/nrel/apps/gaussian/g16C_1/g16/l202.exe)
                          Input orientation:                          
 ---------------------------------------------------------------------
 Center     Atomic      Atomic             Coordinates (Angstroms)
 Number     Number       Type             X           Y           Z
 ---------------------------------------------------------------------
      1          1           0        0.000000    0.000000    0.000000
      2         19           0        0.000000    0.000000    3.000000
 ---------------------------------------------------------------------
 Stoichiometry    HK
 Framework group  C*V[C*(HK)]
 Deg. of freedom     1
 Full point group                 C*V     NOp   4
 Largest Abelian subgroup         C2V     NOp   4
 Largest concise Abelian subgroup C1      NOp   1
                         Standard orientation:                         
 ---------------------------------------------------------------------
 Center     Atomic      Atomic             Coordinates (Angstroms)
 Number     Number       Type             X           Y           Z
 ---------------------------------------------------------------------
      1          1           0        0.000000    0.000000   -2.850000
      2         19           0        0.000000    0.000000    0.150000
 ---------------------------------------------------------------------
 Rotational constants (GHZ):           0.0000000          57.1584012          57.1584012
 Leave Link  202 at Mon Mar 28 14:31:15 2022, MaxMem=  9663676416 cpu:               1.0 elap:               0.0
 (Enter /nopt/nrel/apps/gaussian/g16C_1/g16/l301.exe)
 General basis read from cards:  (5D, 7F)
                         Coordinates in L301:                         
 ---------------------------------------------------------------------
 Center     Atomic      Atomic             Coordinates (Angstroms)
 Number     Number       Type             X           Y           Z
 ---------------------------------------------------------------------
      1          1           0        0.000000    0.000000   -2.850000
      2         19           0        0.000000    0.000000    0.150000
 ---------------------------------------------------------------------
 Centers:       1
 STO-3G
 ****
 Centers:       2
 3-21G
 ****
 FixB: optimizing general contractions.
 Ernie: Thresh=  0.10000D-02 Tol=  0.10000D-05 Strict=F.
 IA=     1 ShT= 0 ShC= 0 NL=   1 NS=   0.
 IA=     1 L=0 SC=0 ISt=    0 NBk=    0 NP=    0 IndPr=    0.
 IA=     2 ShT= 0 ShC= 0 NL=   1 NS=   0.
 IA=     2 L=0 SC=0 ISt=    0 NBk=    0 NP=    0 IndPr=    0.
 IA=     2 ShT= 1 ShC= 0 NL=   4 NS=   1.
 IA=     2 L=1 SC=0 ISt=    1 NBk=    3 NP=    8 IndPr=    0.
 DoElim1:  L=1 select primitive    1 from    2 using    1 C=-1.09D-01
 DoElim1:  L=1 select primitive    1 from    3 using    1 C=-1.09D-01
 DoElim1:  L=1 select primitive    4 from    3 using    2 C=-2.70D-01
 DoElim2:  L=1 select primitive    8 from    2 using    3 C= 1.13D+00
 DoElim2:  L=1 select primitive    8 from    1 using    3 C= 1.13D+00
 DoElim2:  L=1 select primitive    6 from    1 using    2 C= 8.11D-01
 DoElim1:  L=1 select primitive    1 from    2 using    1 C= 1.34D-01
 DoElim1:  L=1 select primitive    1 from    3 using    1 C= 1.34D-01
 DoElim1:  L=1 select primitive    4 from    3 using    2 C= 1.99D-02
 DoElim2:  L=1 select primitive    8 from    2 using    3 C= 1.00D+00
 DoElim2:  L=1 select primitive    8 from    1 using    3 C= 1.00D+00
 DoElim2:  L=1 select primitive    6 from    1 using    2 C= 6.45D-01
 Delete L=1 primitive    6 from    3 C=  0.00D+00.
 Delete L=1 primitive    5 from    3 C=  0.00D+00.
 Delete L=1 primitive    4 from    3 C=  0.00D+00.
 Delete L=1 primitive    3 from    3 C=  0.00D+00.
 Delete L=1 primitive    2 from    3 C=  0.00D+00.
 Delete L=1 primitive    1 from    3 C=  0.00D+00.
 Delete L=1 primitive    8 from    2 C=  0.00D+00.
 Delete L=1 primitive    7 from    2 C=  0.00D+00.
 Delete L=1 primitive    3 from    2 C=  0.00D+00.
 Delete L=1 primitive    2 from    2 C=  0.00D+00.
 Delete L=1 primitive    1 from    2 C=  0.00D+00.
 Delete L=1 primitive    8 from    1 C=  0.00D+00.
 Delete L=1 primitive    7 from    1 C=  0.00D+00.
 Delete L=1 primitive    6 from    1 C=  0.00D+00.
 Delete L=1 primitive    5 from    1 C=  0.00D+00.
 Delete L=1 primitive    4 from    1 C=  0.00D+00.
 IA=     2 L=1 SC=0 ISt=    0 NBk=    0 NP=    0 IndPr=    8.
 LdAtmC:  AtmChg=     1.000000    19.000000
 AtZEff=     -1.0000000    -22.4200000
 NEqShl: 
              1            2            3            4
     1            1            1            1            1
     2            2            2            2            2
     3            3            3            3            3
     4            4            4            4            4
     5            5            5            5            5
     6            6            6            6            6
 NEqBas: 
              1            2            3            4
     1            1            1            1            1
     2            2            2            2            2
     3            3            3            3            3
     4            4           -4           -4            4
     5            5           -5            5           -5
     6            6            6            6            6
     7            7            7            7            7
     8            8           -8           -8            8
     9            9           -9            9           -9
    10           10           10           10           10
    11           11           11           11           11
    12           12          -12          -12           12
    13           13          -13           13          -13
    14           14           14           14           14
    15           15           15           15           15
    16           16          -16          -16           16
    17           17          -17           17          -17
    18           18           18           18           18
 There are    10 symmetry adapted cartesian basis functions of A1  symmetry.
   1         1   1   1   1
   2         2   2   2   2
   3         3   3   3   3
   4         6   6   6   6
   5         7   7   7   7
   6        10  10  10  10
   7        11  11  11  11
   8        14  14  14  14
   9        15  15  15  15
  10        18  18  18  18
 There are     0 symmetry adapted cartesian basis functions of A2  symmetry.
 There are     4 symmetry adapted cartesian basis functions of B1  symmetry.
  11         4   4   4   4
  12         8   8   8   8
  13        12  12  12  12
  14        16  16  16  16
 There are     4 symmetry adapted cartesian basis functions of B2  symmetry.
  15         5   5   5   5
  16         9   9   9   9
  17        13  13  13  13
  18        17  17  17  17
 Order= 1 2 4 3
 Reordered character table:
              1            2            3            4            5
     1            1            1            1            1            1
     2            2            1            1           -1           -1
     3            4            1           -1           -1            1
     4            3            1           -1            1           -1
 NEqShl: 
              1            2            3            4
     1            1            1            1            1
     2            2            2            2            2
     3            3            3            3            3
     4            4            4            4            4
     5            5            5            5            5
     6            6            6            6            6
 NEqBas: 
              1            2            3            4
     1            1            1            1            1
     2            2            2            2            2
     3            3            3            3            3
     4            4           -4           -4            4
     5            5           -5            5           -5
     6            6            6            6            6
     7            7            7            7            7
     8            8           -8           -8            8
     9            9           -9            9           -9
    10           10           10           10           10
    11           11           11           11           11
    12           12          -12          -12           12
    13           13          -13           13          -13
    14           14           14           14           14
    15           15           15           15           15
    16           16          -16          -16           16
    17           17          -17           17          -17
    18           18           18           18           18
 There are    10 symmetry adapted basis functions of A1  symmetry.
   1         1   1   1   1
   2         2   2   2   2
   3         3   3   3   3
   4         6   6   6   6
   5         7   7   7   7
   6        10  10  10  10
   7        11  11  11  11
   8        14  14  14  14
   9        15  15  15  15
  10        18  18  18  18
 There are     0 symmetry adapted basis functions of A2  symmetry.
 There are     4 symmetry adapted basis functions of B1  symmetry.
  11         4   4   4   4
  12         8   8   8   8
  13        12  12  12  12
  14        16  16  16  16
 There are     4 symmetry adapted basis functions of B2  symmetry.
  15         5   5   5   5
  16         9   9   9   9
  17        13  13  13  13
  18        17  17  17  17
 Order= 1 2 4 3
 Reordered character table:
              1            2            3            4            5
     1            1            1            1            1            1
     2            2            1            1           -1           -1
     3            4            1           -1           -1            1
     4            3            1           -1            1           -1
    18 basis functions,    42 primitive gaussians,    18 cartesian basis functions
    10 alpha electrons       10 beta electrons
       nuclear repulsion energy         3.3514556692 Hartrees.
 IS=     1 IAt=     1 ISR=     1 T=0 IP=      1 IndIP=      1 IndIPD=      0 C=  2.769344D-01  0.000000D+00                             NZ=T
 IS=     1 IAt=     1 ISR=     1 T=0 IP=      2 IndIP=      2 IndIPD=      1 C=  2.678389D-01  0.000000D+00                             NZ=T
 IS=     1 IAt=     1 ISR=     1 T=0 IP=      3 IndIP=      3 IndIPD=      2 C=  8.347367D-02  0.000000D+00                             NZ=T
 IS=     2 IAt=     2 ISR=     1 T=0 IP=      1 IndIP=      4 IndIPD=      0 C=  1.235533D+01  0.000000D+00                             NZ=T
 IS=     2 IAt=     2 ISR=     1 T=0 IP=      2 IndIP=      5 IndIPD=      1 C=  1.757620D+01  0.000000D+00                             NZ=T
 IS=     2 IAt=     2 ISR=     1 T=0 IP=      3 IndIP=      6 IndIPD=      2 C=  9.965255D+00  0.000000D+00                             NZ=T
 IS=     3 IAt=     2 ISR=     2 T=1 IP=      1 IndIP=      7 IndIPD=      0 C= -1.917303D+00  3.974198D+01                             NZ=T
 IS=     3 IAt=     2 ISR=     2 T=1 IP=      2 IndIP=      8 IndIPD=      1 C=  6.276214D-01  2.313166D+01                             NZ=T
 IS=     3 IAt=     2 ISR=     2 T=1 IP=      3 IndIP=      9 IndIPD=      2 C=  2.074825D+00  4.747626D+00                             NZ=T
 IS=     4 IAt=     2 ISR=     3 T=1 IP=      1 IndIP=     10 IndIPD=      0 C= -5.565498D-01  1.669766D-01                             NZ=T
 IS=     4 IAt=     2 ISR=     3 T=1 IP=      2 IndIP=     11 IndIPD=      1 C=  2.958337D-01  7.678126D-01                             NZ=T
 IS=     4 IAt=     2 ISR=     3 T=1 IP=      3 IndIP=     12 IndIPD=      2 C=  2.772726D-01  2.705395D-01                             NZ=T
 IS=     5 IAt=     2 ISR=     4 T=1 IP=      1 IndIP=     13 IndIPD=      0 C= -6.663323D-02  7.553623D-05                             NZ=T
 IS=     5 IAt=     2 ISR=     4 T=1 IP=      2 IndIP=     14 IndIPD=      1 C=  7.057644D-02  2.467884D-02                             NZ=T
 IS=     6 IAt=     2 ISR=     5 T=1 IP=      1 IndIP=     15 IndIPD=      0 C=  3.215666D-02  8.150947D-03                             NZ=T
 IExCor=    0 DFT=F Ex=HF Corr=None ExCW=0 ScaHFX=  1.000000
 ScaDFX=  1.000000  1.000000  1.000000  1.000000 ScalE2=  1.000000  1.000000
 IRadAn=      5 IRanWt=     -1 IRanGd=            0 ICorTp=0 IEmpDi=  4
 NAtoms=    2 NActive=    2 NUniq=    2 SFac= 1.00D+00 NAtFMM=   60 NAOKFM=F Big=F
 Integral buffers will be    131072 words long.
 Raffenetti 1 integral format.
 Two-electron integral symmetry is turned on.
 Leave Link  301 at Mon Mar 28 14:31:15 2022, MaxMem=  9663676416 cpu:               2.1 elap:               0.1
 (Enter /nopt/nrel/apps/gaussian/g16C_1/g16/l302.exe)
 NPDir=0 NMtPBC=     1 NCelOv=     1 NCel=       1 NClECP=     1 NCelD=      1
         NCelK=      1 NCelE2=     1 NClLst=     1 CellRange=     0.0.
 One-electron integrals computed using PRISM.
 One-electron integral symmetry used in STVInt
 Entering OneElI...
 Calculate overlap and kinetic energy integrals
    NBasis =  18  MinDer = 0  MaxDer = 0
 Requested accuracy = 0.1000D-12
 Symmetry will be used
 PrmmSu-InSpLW:  IPartL=    0 NPrtUS=   36 NPrtUL=    1 DoSpLW=F IThBeg=    0 IThEnd=   35 NThAct=   36.
 PrSmSu:  IncTry=   512 NBBP=             21 NTPThr=   100 NPartT=   36 Incr=           1 LDynOK=F GPUOK=F.
 PrsmSu:  NPrtUS=  36 ThrOK=T IAlg=1 LenDen=           0 ISkipM=0 DoSpLW=F IThBeg=    0 IThEnd=   35.
 Prism:   IPart=     0 DynPar=F LinDyn=F Incr=           1.
 PRISM was handed   268433277 working-precision words and    21 shell-pairs
 PRISM was handed   268433277 working-precision words and    21 shell-pairs
 PRISM was handed   268433277 working-precision words and    21 shell-pairs
 PRISM was handed   268433277 working-precision words and    21 shell-pairs
 PRISM was handed   268433277 working-precision words and    21 shell-pairs
 PRISM was handed   268433277 working-precision words and    21 shell-pairs
 PRISM was handed   268433277 working-precision words and    21 shell-pairs
 PRISM was handed   268433277 working-precision words and    21 shell-pairs
 PRISM was handed   268433277 working-precision words and    21 shell-pairs
 PRISM was handed   268433277 working-precision words and    21 shell-pairs
 PRISM was handed   268433277 working-precision words and    21 shell-pairs
 IPart= 25 NShTot=           0 NBatch=           0 AvBLen=         0.0
 IPart= 30 NShTot=           0 NBatch=           0 AvBLen=         0.0
 IPart= 33 NShTot=           0 NBatch=           0 AvBLen=         0.0
 IPart=  6 NShTot=           0 NBatch=           0 AvBLen=         0.0
 IPart=  8 NShTot=           0 NBatch=           0 AvBLen=         0.0
 IPart=  4 NShTot=           0 NBatch=           0 AvBLen=         0.0
 IPart= 31 NShTot=           0 NBatch=           0 AvBLen=         0.0
 IPart= 27 NShTot=           0 NBatch=           0 AvBLen=         0.0
 IPart= 35 NShTot=           0 NBatch=           0 AvBLen=         0.0
 IPart= 29 NShTot=           0 NBatch=           0 AvBLen=         0.0
 PRISM was handed   268433277 working-precision words and    21 shell-pairs
 PRISM was handed   268433277 working-precision words and    21 shell-pairs
 PRISM was handed   268433277 working-precision words and    21 shell-pairs
 PRISM was handed   268433277 working-precision words and    21 shell-pairs
 PRISM was handed   268433277 working-precision words and    21 shell-pairs
 IPart= 11 NShTot=           0 NBatch=           0 AvBLen=         0.0
 IPart= 18 NShTot=           0 NBatch=           0 AvBLen=         0.0
 PRISM was handed   268433277 working-precision words and    21 shell-pairs
 PRISM was handed   268433277 working-precision words and    21 shell-pairs
 PRISM was handed   268433277 working-precision words and    21 shell-pairs
 IPart= 14 NShTot=           0 NBatch=           0 AvBLen=         0.0
 IPart= 20 NShTot=           0 NBatch=           0 AvBLen=         0.0
 IPart= 28 NShTot=           0 NBatch=           0 AvBLen=         0.0
 PRISM was handed   268433277 working-precision words and    21 shell-pairs
 PRISM was handed   268433277 working-precision words and    21 shell-pairs
 PRISM was handed   268433277 working-precision words and    21 shell-pairs
 IPart= 34 NShTot=           0 NBatch=           0 AvBLen=         0.0
 IPart=  5 NShTot=           0 NBatch=           0 AvBLen=         0.0
 IPart= 23 NShTot=           0 NBatch=           0 AvBLen=         0.0
 IPart= 13 NShTot=           0 NBatch=           0 AvBLen=         0.0
 PRISM was handed   268433277 working-precision words and    21 shell-pairs
 PRISM was handed   268433277 working-precision words and    21 shell-pairs
 PRISM was handed   268433277 working-precision words and    21 shell-pairs
 PRISM was handed   268433277 working-precision words and    21 shell-pairs
 IPart=  3 NShTot=           0 NBatch=           0 AvBLen=         0.0
 PRISM was handed   268433277 working-precision words and    21 shell-pairs
 PRISM was handed   268433277 working-precision words and    21 shell-pairs
 IPart=  1 NShTot=           7 NBatch=           7 AvBLen=         1.0
 PRISM was handed   268433277 working-precision words and    21 shell-pairs
 IPart= 22 NShTot=           0 NBatch=           0 AvBLen=         0.0
 IPart= 21 NShTot=           0 NBatch=           0 AvBLen=         0.0
 IPart= 24 NShTot=           0 NBatch=           0 AvBLen=         0.0
 IPart= 12 NShTot=           0 NBatch=           0 AvBLen=         0.0
 IPart= 32 NShTot=           0 NBatch=           0 AvBLen=         0.0
 PRISM was handed   268433277 working-precision words and    21 shell-pairs
 PRISM was handed   268433277 working-precision words and    21 shell-pairs
 IPart=  2 NShTot=           2 NBatch=           2 AvBLen=         1.0
 PRISM was handed   268433277 working-precision words and    21 shell-pairs
 PRISM was handed   268433277 working-precision words and    21 shell-pairs
 PRISM was handed   268433277 working-precision words and    21 shell-pairs
 PRISM was handed   268433277 working-precision words and    21 shell-pairs
 PRISM was handed   268433277 working-precision words and    21 shell-pairs
 IPart= 16 NShTot=           0 NBatch=           0 AvBLen=         0.0
 IPart=  0 NShTot=          12 NBatch=          12 AvBLen=         1.0
 IPart= 26 NShTot=           0 NBatch=           0 AvBLen=         0.0
 IPart= 15 NShTot=           0 NBatch=           0 AvBLen=         0.0
 IPart= 10 NShTot=           0 NBatch=           0 AvBLen=         0.0
 IPart= 17 NShTot=           0 NBatch=           0 AvBLen=         0.0
 IPart=  7 NShTot=           0 NBatch=           0 AvBLen=         0.0
 IPart=  9 NShTot=           0 NBatch=           0 AvBLen=         0.0
 IPart= 19 NShTot=           0 NBatch=           0 AvBLen=         0.0
 PrSmSu:  NxtVal=             37.
 *** Overlap *** 
                1             2             3             4             5 
      1  0.100000D+01
      2  0.572962D-04  0.100000D+01
      3  0.531730D-03  0.255104D+00  0.100000D+01
      4  0.000000D+00  0.000000D+00  0.000000D+00  0.100000D+01
      5  0.000000D+00  0.000000D+00  0.000000D+00  0.000000D+00  0.100000D+01
      6 -0.295186D-03  0.000000D+00  0.000000D+00  0.000000D+00  0.000000D+00
      7  0.840226D-02  0.851285D-02  0.305620D+00  0.000000D+00  0.000000D+00
      8  0.000000D+00  0.000000D+00  0.000000D+00  0.282859D+00  0.000000D+00
      9  0.000000D+00  0.000000D+00  0.000000D+00  0.000000D+00  0.282859D+00
     10 -0.151692D-01  0.000000D+00  0.000000D+00  0.000000D+00  0.000000D+00
     11  0.184890D+00  0.657633D-03  0.101668D-01  0.000000D+00  0.000000D+00
     12  0.000000D+00  0.000000D+00  0.000000D+00  0.931227D-02  0.000000D+00
     13  0.000000D+00  0.000000D+00  0.000000D+00  0.000000D+00  0.931227D-02
     14 -0.323107D+00  0.000000D+00  0.000000D+00  0.000000D+00  0.000000D+00
     15  0.178591D+00  0.496746D-02  0.403235D-01  0.000000D+00  0.000000D+00
     16  0.000000D+00  0.000000D+00  0.000000D+00  0.310109D-02  0.000000D+00
     17  0.000000D+00  0.000000D+00  0.000000D+00  0.000000D+00  0.310109D-02
     18 -0.239918D+00  0.000000D+00  0.000000D+00  0.000000D+00  0.000000D+00
                6             7             8             9            10 
      6  0.100000D+01
      7  0.000000D+00  0.100000D+01
      8  0.000000D+00  0.000000D+00  0.100000D+01
      9  0.000000D+00  0.000000D+00  0.000000D+00  0.100000D+01
     10  0.282859D+00  0.000000D+00  0.000000D+00  0.000000D+00  0.100000D+01
     11  0.000000D+00  0.215867D+00  0.000000D+00  0.000000D+00  0.000000D+00
     12  0.000000D+00  0.000000D+00  0.200079D+00  0.000000D+00  0.000000D+00
     13  0.000000D+00  0.000000D+00  0.000000D+00  0.200079D+00  0.000000D+00
     14  0.931227D-02  0.000000D+00  0.000000D+00  0.000000D+00  0.200079D+00
     15  0.000000D+00  0.230714D+00  0.000000D+00  0.000000D+00  0.000000D+00
     16  0.000000D+00  0.000000D+00  0.749696D-01  0.000000D+00  0.000000D+00
     17  0.000000D+00  0.000000D+00  0.000000D+00  0.749696D-01  0.000000D+00
     18  0.310109D-02  0.000000D+00  0.000000D+00  0.000000D+00  0.749696D-01
               11            12            13            14            15 
     11  0.100000D+01
     12  0.000000D+00  0.100000D+01
     13  0.000000D+00  0.000000D+00  0.100000D+01
     14  0.000000D+00  0.000000D+00  0.000000D+00  0.100000D+01
     15  0.889160D+00  0.000000D+00  0.000000D+00  0.000000D+00  0.100000D+01
     16  0.000000D+00  0.788263D+00  0.000000D+00  0.000000D+00  0.000000D+00
     17  0.000000D+00  0.000000D+00  0.788263D+00  0.000000D+00  0.000000D+00
     18  0.000000D+00  0.000000D+00  0.000000D+00  0.788263D+00  0.000000D+00
               16            17            18 
     16  0.100000D+01
     17  0.000000D+00  0.100000D+01
     18  0.000000D+00  0.000000D+00  0.100000D+01
 *** Kinetic Energy *** 
                1             2             3             4             5 
      1  0.760032D+00
      2 -0.755156D-04  0.176298D+03
      3 -0.646519D-03 -0.620687D+01  0.781415D+01
      4  0.000000D+00  0.000000D+00  0.000000D+00  0.280311D+02
      5  0.000000D+00  0.000000D+00  0.000000D+00  0.000000D+00  0.280311D+02
      6  0.266026D-03  0.000000D+00  0.000000D+00  0.000000D+00  0.000000D+00
      7 -0.513328D-02 -0.709406D+00 -0.685499D+00  0.000000D+00  0.000000D+00
      8  0.000000D+00  0.000000D+00  0.000000D+00  0.125035D+01  0.000000D+00
      9  0.000000D+00  0.000000D+00  0.000000D+00  0.000000D+00  0.125035D+01
     10  0.654295D-02  0.000000D+00  0.000000D+00  0.000000D+00  0.000000D+00
     11  0.759715D-02 -0.621117D-02 -0.439131D-01  0.000000D+00  0.000000D+00
     12  0.000000D+00  0.000000D+00  0.000000D+00  0.182620D-02  0.000000D+00
     13  0.000000D+00  0.000000D+00  0.000000D+00  0.000000D+00  0.182620D-02
     14 -0.306985D-01  0.000000D+00  0.000000D+00  0.000000D+00  0.000000D+00
     15  0.545406D-02  0.239311D-03  0.193628D-02  0.000000D+00  0.000000D+00
     16  0.000000D+00  0.000000D+00  0.000000D+00  0.248286D-03  0.000000D+00
     17  0.000000D+00  0.000000D+00  0.000000D+00  0.000000D+00  0.248286D-03
     18 -0.145438D-01  0.000000D+00  0.000000D+00  0.000000D+00  0.000000D+00
                6             7             8             9            10 
      6  0.280311D+02
      7  0.000000D+00  0.856984D+00
      8  0.000000D+00  0.000000D+00  0.155517D+01
      9  0.000000D+00  0.000000D+00  0.000000D+00  0.155517D+01
     10  0.125035D+01  0.000000D+00  0.000000D+00  0.000000D+00  0.155517D+01
     11  0.000000D+00 -0.669248D-01  0.000000D+00  0.000000D+00  0.000000D+00
     12  0.000000D+00  0.000000D+00  0.358731D-01  0.000000D+00  0.000000D+00
     13  0.000000D+00  0.000000D+00  0.000000D+00  0.358731D-01  0.000000D+00
     14  0.182620D-02  0.000000D+00  0.000000D+00  0.000000D+00  0.358731D-01
     15  0.000000D+00  0.106939D-01  0.000000D+00  0.000000D+00  0.000000D+00
     16  0.000000D+00  0.000000D+00  0.579876D-02  0.000000D+00  0.000000D+00
     17  0.000000D+00  0.000000D+00  0.000000D+00  0.579876D-02  0.000000D+00
     18  0.248286D-03  0.000000D+00  0.000000D+00  0.000000D+00  0.579876D-02
               11            12            13            14            15 
     11  0.660420D-01
     12  0.000000D+00  0.974466D-01
     13  0.000000D+00  0.000000D+00  0.974466D-01
     14  0.000000D+00  0.000000D+00  0.000000D+00  0.974466D-01
     15  0.293463D-01  0.000000D+00  0.000000D+00  0.000000D+00  0.240938D-01
     16  0.000000D+00  0.448313D-01  0.000000D+00  0.000000D+00  0.000000D+00
     17  0.000000D+00  0.000000D+00  0.448313D-01  0.000000D+00  0.000000D+00
     18  0.000000D+00  0.000000D+00  0.000000D+00  0.448313D-01  0.000000D+00
               16            17            18 
     16  0.401564D-01
     17  0.000000D+00  0.401564D-01
     18  0.000000D+00  0.000000D+00  0.401564D-01
 Entering OneElI...
 Calculate potential energy integrals
    NBasis =  18  MinDer = 0  MaxDer = 0
 Requested accuracy = 0.1000D-12
 Symmetry will be used
 PrmmSu-InSpLW:  IPartL=    0 NPrtUS=   36 NPrtUL=    1 DoSpLW=F IThBeg=    0 IThEnd=   35 NThAct=   36.
 PrSmSu:  IncTry=   512 NBBP=             42 NTPThr=   100 NPartT=   36 Incr=           1 LDynOK=F GPUOK=F.
 PrsmSu:  NPrtUS=  36 ThrOK=T IAlg=1 LenDen=           0 ISkipM=0 DoSpLW=F IThBeg=    0 IThEnd=   35.
 Prism:   IPart=     0 DynPar=F LinDyn=F Incr=           1.
 PRISM was handed   268433431 working-precision words and    21 shell-pairs
 PRISM was handed   268433431 working-precision words and    21 shell-pairs
 PRISM was handed   268433431 working-precision words and    21 shell-pairs
 PRISM was handed   268433431 working-precision words and    21 shell-pairs
 PRISM was handed   268433431 working-precision words and    21 shell-pairs
 PRISM was handed   268433431 working-precision words and    21 shell-pairs
 PRISM was handed   268433431 working-precision words and    21 shell-pairs
 PRISM was handed   268433431 working-precision words and    21 shell-pairs
 PRISM was handed   268433431 working-precision words and    21 shell-pairs
 PRISM was handed   268433431 working-precision words and    21 shell-pairs
 PRISM was handed   268433431 working-precision words and    21 shell-pairs
 PRISM was handed   268433431 working-precision words and    21 shell-pairs
 PRISM was handed   268433431 working-precision words and    21 shell-pairs
 PRISM was handed   268433431 working-precision words and    21 shell-pairs
 PRISM was handed   268433431 working-precision words and    21 shell-pairs
 PRISM was handed   268433431 working-precision words and    21 shell-pairs
 PRISM was handed   268433431 working-precision words and    21 shell-pairs
 PRISM was handed   268433431 working-precision words and    21 shell-pairs
 PRISM was handed   268433431 working-precision words and    21 shell-pairs
 PRISM was handed   268433431 working-precision words and    21 shell-pairs
 PRISM was handed   268433431 working-precision words and    21 shell-pairs
 PRISM was handed   268433431 working-precision words and    21 shell-pairs
 PRISM was handed   268433431 working-precision words and    21 shell-pairs
 PRISM was handed   268433431 working-precision words and    21 shell-pairs
 PRISM was handed   268433431 working-precision words and    21 shell-pairs
 PRISM was handed   268433431 working-precision words and    21 shell-pairs
 PRISM was handed   268433431 working-precision words and    21 shell-pairs
 PRISM was handed   268433431 working-precision words and    21 shell-pairs
 PRISM was handed   268433431 working-precision words and    21 shell-pairs
 PRISM was handed   268433431 working-precision words and    21 shell-pairs
 PRISM was handed   268433431 working-precision words and    21 shell-pairs
 PRISM was handed   268433431 working-precision words and    21 shell-pairs
 PRISM was handed   268433431 working-precision words and    21 shell-pairs
 PRISM was handed   268433431 working-precision words and    21 shell-pairs
 PRISM was handed   268433431 working-precision words and    21 shell-pairs
 PRISM was handed   268433431 working-precision words and    21 shell-pairs
 IPart=  2 NShTot=           4 NBatch=           2 AvBLen=         2.0
 IPart=  1 NShTot=          14 NBatch=           7 AvBLen=         2.0
 IPart=  0 NShTot=          24 NBatch=          12 AvBLen=         2.0
 IPart= 32 NShTot=           0 NBatch=           0 AvBLen=         0.0
 IPart= 19 NShTot=           0 NBatch=           0 AvBLen=         0.0
 IPart= 17 NShTot=           0 NBatch=           0 AvBLen=         0.0
 IPart= 11 NShTot=           0 NBatch=           0 AvBLen=         0.0
 IPart= 15 NShTot=           0 NBatch=           0 AvBLen=         0.0
 IPart= 29 NShTot=           0 NBatch=           0 AvBLen=         0.0
 IPart= 14 NShTot=           0 NBatch=           0 AvBLen=         0.0
 IPart= 24 NShTot=           0 NBatch=           0 AvBLen=         0.0
 IPart= 25 NShTot=           0 NBatch=           0 AvBLen=         0.0
 IPart= 21 NShTot=           0 NBatch=           0 AvBLen=         0.0
 IPart= 13 NShTot=           0 NBatch=           0 AvBLen=         0.0
 IPart=  3 NShTot=           0 NBatch=           0 AvBLen=         0.0
 IPart=  6 NShTot=           0 NBatch=           0 AvBLen=         0.0
 IPart= 30 NShTot=           0 NBatch=           0 AvBLen=         0.0
 IPart= 10 NShTot=           0 NBatch=           0 AvBLen=         0.0
 IPart= 16 NShTot=           0 NBatch=           0 AvBLen=         0.0
 IPart= 26 NShTot=           0 NBatch=           0 AvBLen=         0.0
 IPart= 34 NShTot=           0 NBatch=           0 AvBLen=         0.0
 IPart= 12 NShTot=           0 NBatch=           0 AvBLen=         0.0
 IPart=  9 NShTot=           0 NBatch=           0 AvBLen=         0.0
 IPart= 23 NShTot=           0 NBatch=           0 AvBLen=         0.0
 IPart=  8 NShTot=           0 NBatch=           0 AvBLen=         0.0
 IPart=  5 NShTot=           0 NBatch=           0 AvBLen=         0.0
 IPart= 33 NShTot=           0 NBatch=           0 AvBLen=         0.0
 IPart= 18 NShTot=           0 NBatch=           0 AvBLen=         0.0
 IPart= 35 NShTot=           0 NBatch=           0 AvBLen=         0.0
 IPart=  4 NShTot=           0 NBatch=           0 AvBLen=         0.0
 IPart=  7 NShTot=           0 NBatch=           0 AvBLen=         0.0
 IPart= 22 NShTot=           0 NBatch=           0 AvBLen=         0.0
 IPart= 20 NShTot=           0 NBatch=           0 AvBLen=         0.0
 IPart= 27 NShTot=           0 NBatch=           0 AvBLen=         0.0
 IPart= 31 NShTot=           0 NBatch=           0 AvBLen=         0.0
 IPart= 28 NShTot=           0 NBatch=           0 AvBLen=         0.0
 PrSmSu:  NxtVal=             37.
 ***** Potential Energy ***** 
                1             2             3             4             5 
      1  0.457807D+01
      2  0.110620D-01  0.355849D+03
      3  0.231161D-01  0.428472D+02  0.620114D+02
      4  0.000000D+00  0.000000D+00  0.000000D+00  0.710825D+02
      5  0.000000D+00  0.000000D+00  0.000000D+00  0.000000D+00  0.710825D+02
      6 -0.102760D-01 -0.842941D-03 -0.636980D-02  0.000000D+00  0.000000D+00
      7  0.886092D-01  0.118116D+01  0.115006D+02  0.000000D+00  0.000000D+00
      8  0.000000D+00  0.000000D+00  0.000000D+00  0.114844D+02  0.000000D+00
      9  0.000000D+00  0.000000D+00  0.000000D+00  0.000000D+00  0.114844D+02
     10 -0.132585D+00 -0.422857D-04 -0.293806D-02  0.000000D+00  0.000000D+00
     11  0.827647D+00  0.123588D+00  0.387607D+00  0.000000D+00  0.000000D+00
     12  0.000000D+00  0.000000D+00  0.000000D+00  0.333889D+00  0.000000D+00
     13  0.000000D+00  0.000000D+00  0.000000D+00  0.000000D+00  0.333889D+00
     14 -0.138376D+01  0.000000D+00 -0.104101D-03  0.000000D+00  0.000000D+00
     15  0.756894D+00  0.963318D+00  0.183387D+01  0.000000D+00  0.000000D+00
     16  0.000000D+00  0.000000D+00  0.000000D+00  0.110837D+00  0.000000D+00
     17  0.000000D+00  0.000000D+00  0.000000D+00  0.000000D+00  0.110837D+00
     18 -0.957930D+00  0.000000D+00 -0.347238D-04  0.000000D+00  0.000000D+00
                6             7             8             9            10 
      6  0.710830D+02
      7 -0.316984D-02  0.181962D+02
      8  0.000000D+00  0.000000D+00  0.167965D+02
      9  0.000000D+00  0.000000D+00  0.000000D+00  0.167965D+02
     10  0.114847D+02 -0.230734D-01  0.000000D+00  0.000000D+00  0.168038D+02
     11 -0.117533D-03  0.239150D+01  0.000000D+00  0.000000D+00 -0.107996D-01
     12  0.000000D+00  0.000000D+00  0.209251D+01  0.000000D+00  0.000000D+00
     13  0.000000D+00  0.000000D+00  0.000000D+00  0.209251D+01  0.000000D+00
     14  0.333904D+00 -0.570592D-02  0.000000D+00  0.000000D+00  0.209606D+01
     15 -0.380660D-03  0.318418D+01  0.000000D+00  0.000000D+00 -0.920242D-02
     16  0.000000D+00  0.000000D+00  0.759345D+00  0.000000D+00  0.000000D+00
     17  0.000000D+00  0.000000D+00  0.000000D+00  0.759345D+00  0.000000D+00
     18  0.110842D+00 -0.215820D-02  0.000000D+00  0.000000D+00  0.760763D+00
               11            12            13            14            15 
     11  0.492350D+01
     12  0.000000D+00  0.413396D+01
     13  0.000000D+00  0.000000D+00  0.413396D+01
     14 -0.704241D-01  0.000000D+00  0.000000D+00  0.419578D+01
     15  0.408807D+01  0.000000D+00  0.000000D+00 -0.661929D-01  0.399246D+01
     16  0.000000D+00  0.274706D+01  0.000000D+00  0.000000D+00  0.000000D+00
     17  0.000000D+00  0.000000D+00  0.274706D+01  0.000000D+00  0.000000D+00
     18 -0.466226D-01  0.000000D+00  0.000000D+00  0.279214D+01 -0.541291D-01
               16            17            18 
     16  0.267391D+01
     17  0.000000D+00  0.267391D+01
     18  0.000000D+00  0.000000D+00  0.271489D+01
 ****** Core Hamiltonian ****** 
                1             2             3             4             5 
      1 -0.381804D+01
      2 -0.111375D-01 -0.179551D+03
      3 -0.237626D-01 -0.490540D+02 -0.541972D+02
      4  0.000000D+00  0.000000D+00  0.000000D+00 -0.430514D+02
      5  0.000000D+00  0.000000D+00  0.000000D+00  0.000000D+00 -0.430514D+02
      6  0.105420D-01  0.842941D-03  0.636980D-02  0.000000D+00  0.000000D+00
      7 -0.937425D-01 -0.189056D+01 -0.121861D+02  0.000000D+00  0.000000D+00
      8  0.000000D+00  0.000000D+00  0.000000D+00 -0.102340D+02  0.000000D+00
      9  0.000000D+00  0.000000D+00  0.000000D+00  0.000000D+00 -0.102340D+02
     10  0.139128D+00  0.422857D-04  0.293806D-02  0.000000D+00  0.000000D+00
     11 -0.820050D+00 -0.129799D+00 -0.431520D+00  0.000000D+00  0.000000D+00
     12  0.000000D+00  0.000000D+00  0.000000D+00 -0.332063D+00  0.000000D+00
     13  0.000000D+00  0.000000D+00  0.000000D+00  0.000000D+00 -0.332063D+00
     14  0.135306D+01  0.000000D+00  0.104101D-03  0.000000D+00  0.000000D+00
     15 -0.751440D+00 -0.963078D+00 -0.183194D+01  0.000000D+00  0.000000D+00
     16  0.000000D+00  0.000000D+00  0.000000D+00 -0.110588D+00  0.000000D+00
     17  0.000000D+00  0.000000D+00  0.000000D+00  0.000000D+00 -0.110588D+00
     18  0.943386D+00  0.000000D+00  0.347238D-04  0.000000D+00  0.000000D+00
                6             7             8             9            10 
      6 -0.430519D+02
      7  0.316984D-02 -0.173392D+02
      8  0.000000D+00  0.000000D+00 -0.152414D+02
      9  0.000000D+00  0.000000D+00  0.000000D+00 -0.152414D+02
     10 -0.102344D+02  0.230734D-01  0.000000D+00  0.000000D+00 -0.152486D+02
     11  0.117533D-03 -0.245842D+01  0.000000D+00  0.000000D+00  0.107996D-01
     12  0.000000D+00  0.000000D+00 -0.205664D+01  0.000000D+00  0.000000D+00
     13  0.000000D+00  0.000000D+00  0.000000D+00 -0.205664D+01  0.000000D+00
     14 -0.332077D+00  0.570592D-02  0.000000D+00  0.000000D+00 -0.206019D+01
     15  0.380660D-03 -0.317349D+01  0.000000D+00  0.000000D+00  0.920242D-02
     16  0.000000D+00  0.000000D+00 -0.753546D+00  0.000000D+00  0.000000D+00
     17  0.000000D+00  0.000000D+00  0.000000D+00 -0.753546D+00  0.000000D+00
     18 -0.110593D+00  0.215820D-02  0.000000D+00  0.000000D+00 -0.754965D+00
               11            12            13            14            15 
     11 -0.485746D+01
     12  0.000000D+00 -0.403652D+01
     13  0.000000D+00  0.000000D+00 -0.403652D+01
     14  0.704241D-01  0.000000D+00  0.000000D+00 -0.409834D+01
     15 -0.405872D+01  0.000000D+00  0.000000D+00  0.661929D-01 -0.396836D+01
     16  0.000000D+00 -0.270223D+01  0.000000D+00  0.000000D+00  0.000000D+00
     17  0.000000D+00  0.000000D+00 -0.270223D+01  0.000000D+00  0.000000D+00
     18  0.466226D-01  0.000000D+00  0.000000D+00 -0.274731D+01  0.541291D-01
               16            17            18 
     16 -0.263375D+01
     17  0.000000D+00 -0.263375D+01
     18  0.000000D+00  0.000000D+00 -0.267473D+01
 SVDSVc IOpt=   1 NormSV=T IR=1
 SVDSVc V= 2.12D+00 1.93D+00 1.35D+00 1.26D+00 9.60D-01 7.92D-01 6.99D-01 5.84D-01 1.95D-01 1.10D-01
 SVDSVc IOpt=   1 NormSV=T IR=3
 SVDSVc V= 1.84D+00 1.25D+00 7.08D-01 2.01D-01
 SVDSVc IOpt=   1 NormSV=T IR=4
 SVDSVc V= 1.84D+00 1.25D+00 7.08D-01 2.01D-01
 TstOVc:  Largest diagonal error= 2.89D-15 IB=1 I=   10.
 TstOVc:  Largest same sym error= 1.22D-15 IB=1 I=    8 J=    7.
 TstOVc:  Largest diff sym error= 0.00D+00 IB=0 JB=0 I=    0 J=    0.
 Orthogonalized basis functions: 
                 1             2             3             4             5 
      1   0.240622D+00 -0.133271D+00 -0.853585D-01  0.115161D+00  0.228343D+00
      2   0.183076D-01  0.222486D-01  0.443067D+00  0.584029D-01  0.743039D+00
      3   0.663898D-01  0.702553D-01  0.602588D+00  0.603791D-01 -0.988872D-01
      4   0.000000D+00  0.000000D+00  0.000000D+00  0.000000D+00  0.000000D+00
      5   0.000000D+00  0.000000D+00  0.000000D+00  0.000000D+00  0.000000D+00
      6  -0.197784D-01  0.456543D-01 -0.545638D-01  0.632943D+00 -0.579890D-01
      7   0.166249D+00  0.151149D+00  0.347171D+00  0.912722D-02 -0.624442D+00
      8   0.000000D+00  0.000000D+00  0.000000D+00  0.000000D+00  0.000000D+00
      9   0.000000D+00  0.000000D+00  0.000000D+00  0.000000D+00  0.000000D+00
     10  -0.672384D-01  0.132818D+00 -0.664847D-01  0.588803D+00  0.539451D-02
     11   0.364161D+00  0.267735D+00 -0.156420D+00 -0.399231D-01  0.111979D+00
     12   0.000000D+00  0.000000D+00  0.000000D+00  0.000000D+00  0.000000D+00
     13   0.000000D+00  0.000000D+00  0.000000D+00  0.000000D+00  0.000000D+00
     14  -0.243163D+00  0.399889D+00 -0.340173D-01 -0.672263D-01  0.646306D-01
     15   0.365674D+00  0.270645D+00 -0.135652D+00 -0.386345D-01  0.996213D-01
     16   0.000000D+00  0.000000D+00  0.000000D+00  0.000000D+00  0.000000D+00
     17   0.000000D+00  0.000000D+00  0.000000D+00  0.000000D+00  0.000000D+00
     18  -0.228165D+00  0.383614D+00 -0.326527D-01 -0.132021D+00  0.896070D-01
                 6             7             8             9            10 
      1   0.921157D+00 -0.321249D+00 -0.153514D+00  0.212153D+00  0.176996D-01
      2  -0.214171D+00  0.645372D-01 -0.522685D+00  0.118790D-02  0.101814D-01
      3   0.175545D+00 -0.775334D-01  0.874957D+00 -0.356081D-02 -0.710994D-01
      4   0.000000D+00  0.000000D+00  0.000000D+00  0.000000D+00  0.000000D+00
      5   0.000000D+00  0.000000D+00  0.000000D+00  0.000000D+00  0.000000D+00
      6  -0.326355D+00 -0.752914D+00 -0.158099D-01  0.903457D-01  0.550348D-03
      7   0.862659D-01  0.150473D-01 -0.778601D+00  0.127865D-01 -0.116916D-01
      8   0.000000D+00  0.000000D+00  0.000000D+00  0.000000D+00  0.000000D+00
      9   0.000000D+00  0.000000D+00  0.000000D+00  0.000000D+00  0.000000D+00
     10   0.232021D+00  0.804966D+00  0.243183D-01 -0.294426D+00 -0.203672D-02
     11  -0.173489D+00  0.475815D-01  0.124483D+00 -0.169390D-01 -0.212797D+01
     12   0.000000D+00  0.000000D+00  0.000000D+00  0.000000D+00  0.000000D+00
     13   0.000000D+00  0.000000D+00  0.000000D+00  0.000000D+00  0.000000D+00
     14   0.187467D+00 -0.545675D-01 -0.174788D-01  0.164176D+01  0.116296D-01
     15  -0.173711D+00  0.478993D-01  0.153096D+00 -0.318370D-01  0.212927D+01
     16   0.000000D+00  0.000000D+00  0.000000D+00  0.000000D+00  0.000000D+00
     17   0.000000D+00  0.000000D+00  0.000000D+00  0.000000D+00  0.000000D+00
     18   0.273027D+00 -0.306293D+00 -0.596875D-01 -0.151669D+01 -0.536096D-02
                11            12            13            14            15 
      1   0.000000D+00  0.000000D+00  0.000000D+00  0.000000D+00  0.000000D+00
      2   0.000000D+00  0.000000D+00  0.000000D+00  0.000000D+00  0.000000D+00
      3   0.000000D+00  0.000000D+00  0.000000D+00  0.000000D+00  0.000000D+00
      4   0.709850D-01  0.645112D+00 -0.813656D+00  0.880868D-01  0.000000D+00
      5   0.000000D+00  0.000000D+00  0.000000D+00  0.000000D+00  0.709850D-01
      6   0.000000D+00  0.000000D+00  0.000000D+00  0.000000D+00  0.000000D+00
      7   0.000000D+00  0.000000D+00  0.000000D+00  0.000000D+00  0.000000D+00
      8   0.188890D+00  0.576969D+00  0.841851D+00 -0.284389D+00  0.000000D+00
      9   0.000000D+00  0.000000D+00  0.000000D+00  0.000000D+00  0.188890D+00
     10   0.000000D+00  0.000000D+00  0.000000D+00  0.000000D+00  0.000000D+00
     11   0.000000D+00  0.000000D+00  0.000000D+00  0.000000D+00  0.000000D+00
     12   0.508568D+00 -0.118274D+00 -0.151283D-02  0.158900D+01  0.000000D+00
     13   0.000000D+00  0.000000D+00  0.000000D+00  0.000000D+00  0.508568D+00
     14   0.000000D+00  0.000000D+00  0.000000D+00  0.000000D+00  0.000000D+00
     15   0.000000D+00  0.000000D+00  0.000000D+00  0.000000D+00  0.000000D+00
     16   0.493792D+00 -0.191632D+00 -0.203508D+00 -0.154043D+01  0.000000D+00
     17   0.000000D+00  0.000000D+00  0.000000D+00  0.000000D+00  0.493792D+00
     18   0.000000D+00  0.000000D+00  0.000000D+00  0.000000D+00  0.000000D+00
                16            17            18 
      1   0.000000D+00  0.000000D+00  0.000000D+00
      2   0.000000D+00  0.000000D+00  0.000000D+00
      3   0.000000D+00  0.000000D+00  0.000000D+00
      4   0.000000D+00  0.000000D+00  0.000000D+00
      5   0.645112D+00 -0.813656D+00  0.880868D-01
      6   0.000000D+00  0.000000D+00  0.000000D+00
      7   0.000000D+00  0.000000D+00  0.000000D+00
      8   0.000000D+00  0.000000D+00  0.000000D+00
      9   0.576969D+00  0.841851D+00 -0.284389D+00
     10   0.000000D+00  0.000000D+00  0.000000D+00
     11   0.000000D+00  0.000000D+00  0.000000D+00
     12   0.000000D+00  0.000000D+00  0.000000D+00
     13  -0.118274D+00 -0.151283D-02  0.158900D+01
     14   0.000000D+00  0.000000D+00  0.000000D+00
     15   0.000000D+00  0.000000D+00  0.000000D+00
     16   0.000000D+00  0.000000D+00  0.000000D+00
     17  -0.191632D+00 -0.203508D+00 -0.154043D+01
     18   0.000000D+00  0.000000D+00  0.000000D+00
 NBasis=    18 RedAO= T EigKep=  1.10D-01  NBF=    10     0     4     4
 NBsUse=    18 1.00D-06 EigRej= -1.00D+00 NBFU=    10     0     4     4
 Leave Link  302 at Mon Mar 28 14:31:15 2022, MaxMem=  9663676416 cpu:               3.2 elap:               0.1
 (Enter /nopt/nrel/apps/gaussian/g16C_1/g16/l303.exe)
 DipDrv will not compute anything.
 Fermi contact integrals: 
                 1             2 
      1   0.628247D+00  0.366994D-03
      2   0.000000D+00  0.398968D+02
      3   0.000000D+00  0.785144D+00
      4   0.000000D+00  0.000000D+00
      5   0.000000D+00  0.000000D+00
      6   0.000000D+00  0.000000D+00
      7   0.158210D-05  0.165565D-01
      8   0.000000D+00  0.000000D+00
      9   0.000000D+00  0.000000D+00
     10  -0.875143D-05  0.000000D+00
     11   0.201436D-01  0.394321D-02
     12   0.000000D+00  0.000000D+00
     13   0.000000D+00  0.000000D+00
     14  -0.399832D-01  0.000000D+00
     15   0.191897D-01  0.321567D-01
     16   0.000000D+00  0.000000D+00
     17   0.000000D+00  0.000000D+00
     18  -0.275757D-01  0.000000D+00
 Leave Link  303 at Mon Mar 28 14:31:15 2022, MaxMem=  9663676416 cpu:               1.1 elap:               0.1
 (Enter /nopt/nrel/apps/gaussian/g16C_1/g16/l401.exe)
 ExpMin= 1.61D-02 ExpMax= 1.72D+03 ExpMxC= 1.72D+03 IAcc=3 IRadAn=         5 AccDes= 0.00D+00
 Harris functional with IExCor=  205 and IRadAn=       5 diagonalized for initial guess.
 HarFok:  IExCor=  205 AccDes= 0.00D+00 IRadAn=         5 IDoV= 1 UseB2=F ITyADJ=14
 ICtDFT=  3500011 ScaDFX=  1.000000  1.000000  1.000000  1.000000
 FoFCou: FMM=F IPFlag=           0 FMFlag=      100000 FMFlg1=           0
         NFxFlg=           0 DoJE=T BraDBF=F KetDBF=T FulRan=T
         wScrn=  0.000000 ICntrl=       500 IOpCl=  0 I1Cent=   200000004 NGrid=           0
         NMat0=    1 NMatS0=      1 NMatT0=    0 NMatD0=    1 NMtDS0=    0 NMtDT0=    0
 Petite list used in FoFCou.
 Harris En= -596.048702067203    
 JPrj=0 DoOrth=F DoCkMO=F.
 Initial guess orbital symmetries:
       Occupied  (SG) (SG) (SG) (PI) (PI) (SG) (SG) (PI) (PI) (SG)
       Virtual   (SG) (PI) (PI) (SG) (SG) (PI) (PI) (SG)
 The electronic state of the initial guess is 1-SG.
 Leave Link  401 at Mon Mar 28 14:31:15 2022, MaxMem=  9663676416 cpu:               4.0 elap:               0.2
 (Enter /nopt/nrel/apps/gaussian/g16C_1/g16/l502.exe)
 Keep R1 ints in memory in symmetry-blocked form, NReq=7225781.
 FoFCou: FMM=F IPFlag=           0 FMFlag=           0 FMFlg1=           0
         NFxFlg=           0 DoJE=F BraDBF=F KetDBF=F FulRan=T
         wScrn=  0.000000 ICntrl=       600 IOpCl=  0 I1Cent=           0 NGrid=           0
         NMat0=    1 NMatS0=    171 NMatT0=    0 NMatD0=    1 NMtDS0=    0 NMtDT0=    0
 Petite list used in FoFCou.
 Closed shell SCF:
 Using DIIS extrapolation, IDIIS=  1040.
 NGot=  9663676416 LenX=  9663668636 LenY=  9663667754
 Requested convergence on RMS density matrix=1.00D-08 within 128 cycles.
 Requested convergence on MAX density matrix=1.00D-06.
 Requested convergence on             energy=1.00D-06.
 No special actions if energy rises.

 Cycle   1  Pass 1  IDiag  1:
 E= -596.554948356406    
 DIIS: error= 4.24D-02 at cycle   1 NSaved=   1.
 NSaved= 1 IEnMin= 1 EnMin= -596.554948356406     IErMin= 1 ErrMin= 4.24D-02
 ErrMax= 4.24D-02  0.00D+00 EMaxC= 1.00D-01 BMatC= 1.89D-02 BMatP= 1.89D-02
 IDIUse=3 WtCom= 5.76D-01 WtEn= 4.24D-01
 Coeff-Com:  0.100D+01
 Coeff-En:   0.100D+01
 Coeff:      0.100D+01
 Gap=     0.112 Goal=   None    Shift=    0.000
 GapD=    0.112 DampG=1.000 DampE=0.500 DampFc=0.5000 IDamp=-1.
 Damping current iteration by 5.00D-01
 RMSDP=2.26D-02 MaxDP=3.06D-01              OVMax= 0.00D+00

 Cycle   2  Pass 1  IDiag  1:
 E= -596.585432930514     Delta-E=       -0.030484574108 Rises=F Damp=T
 DIIS: error= 1.78D-02 at cycle   2 NSaved=   2.
 NSaved= 2 IEnMin= 2 EnMin= -596.585432930514     IErMin= 2 ErrMin= 1.78D-02
 ErrMax= 1.78D-02  0.00D+00 EMaxC= 1.00D-01 BMatC= 3.91D-03 BMatP= 1.89D-02
 IDIUse=3 WtCom= 8.22D-01 WtEn= 1.78D-01
 Coeff-Com: -0.810D+00 0.181D+01
 Coeff-En:   0.000D+00 0.100D+01
 Coeff:     -0.666D+00 0.167D+01
 Gap=     0.196 Goal=   None    Shift=    0.000
 RMSDP=8.78D-03 MaxDP=1.07D-01 DE=-3.05D-02 OVMax= 0.00D+00

 Cycle   3  Pass 1  IDiag  1:
 E= -596.613227826947     Delta-E=       -0.027794896434 Rises=F Damp=F
 DIIS: error= 4.06D-04 at cycle   3 NSaved=   3.
 NSaved= 3 IEnMin= 3 EnMin= -596.613227826947     IErMin= 3 ErrMin= 4.06D-04
 ErrMax= 4.06D-04  0.00D+00 EMaxC= 1.00D-01 BMatC= 3.75D-06 BMatP= 3.91D-03
 IDIUse=3 WtCom= 9.96D-01 WtEn= 4.06D-03
 Coeff-Com:  0.563D-01-0.135D+00 0.108D+01
 Coeff-En:   0.000D+00 0.000D+00 0.100D+01
 Coeff:      0.560D-01-0.134D+00 0.108D+01
 Gap=     0.199 Goal=   None    Shift=    0.000
 RMSDP=5.76D-04 MaxDP=4.11D-03 DE=-2.78D-02 OVMax= 0.00D+00

 Cycle   4  Pass 1  IDiag  1:
 E= -596.613246971290     Delta-E=       -0.000019144343 Rises=F Damp=F
 DIIS: error= 1.39D-04 at cycle   4 NSaved=   4.
 NSaved= 4 IEnMin= 4 EnMin= -596.613246971290     IErMin= 4 ErrMin= 1.39D-04
 ErrMax= 1.39D-04  0.00D+00 EMaxC= 1.00D-01 BMatC= 2.58D-07 BMatP= 3.75D-06
 IDIUse=3 WtCom= 9.99D-01 WtEn= 1.39D-03
 Coeff-Com: -0.847D-02 0.205D-01-0.297D+00 0.128D+01
 Coeff-En:   0.000D+00 0.000D+00 0.000D+00 0.100D+01
 Coeff:     -0.846D-02 0.205D-01-0.296D+00 0.128D+01
 Gap=     0.199 Goal=   None    Shift=    0.000
 RMSDP=2.61D-04 MaxDP=1.99D-03 DE=-1.91D-05 OVMax= 0.00D+00

 Cycle   5  Pass 1  IDiag  1:
 E= -596.613250133262     Delta-E=       -0.000003161971 Rises=F Damp=F
 DIIS: error= 4.83D-05 at cycle   5 NSaved=   5.
 NSaved= 5 IEnMin= 5 EnMin= -596.613250133262     IErMin= 5 ErrMin= 4.83D-05
 ErrMax= 4.83D-05  0.00D+00 EMaxC= 1.00D-01 BMatC= 2.49D-08 BMatP= 2.58D-07
 IDIUse=1 WtCom= 1.00D+00 WtEn= 0.00D+00
 Coeff-Com: -0.248D-02 0.457D-02 0.788D-01-0.679D+00 0.160D+01
 Coeff:     -0.248D-02 0.457D-02 0.788D-01-0.679D+00 0.160D+01
 Gap=     0.198 Goal=   None    Shift=    0.000
 RMSDP=1.00D-04 MaxDP=7.86D-04 DE=-3.16D-06 OVMax= 0.00D+00

 Cycle   6  Pass 1  IDiag  1:
 E= -596.613250533068     Delta-E=       -0.000000399806 Rises=F Damp=F
 DIIS: error= 5.74D-06 at cycle   6 NSaved=   6.
 NSaved= 6 IEnMin= 6 EnMin= -596.613250533068     IErMin= 6 ErrMin= 5.74D-06
 ErrMax= 5.74D-06  0.00D+00 EMaxC= 1.00D-01 BMatC= 4.84D-10 BMatP= 2.49D-08
 IDIUse=1 WtCom= 1.00D+00 WtEn= 0.00D+00
 Coeff-Com: -0.226D-03 0.775D-03-0.397D-01 0.303D+00-0.746D+00 0.148D+01
 Coeff:     -0.226D-03 0.775D-03-0.397D-01 0.303D+00-0.746D+00 0.148D+01
 Gap=     0.198 Goal=   None    Shift=    0.000
 RMSDP=9.92D-06 MaxDP=6.84D-05 DE=-4.00D-07 OVMax= 0.00D+00

 Cycle   7  Pass 1  IDiag  1:
 E= -596.613250539324     Delta-E=       -0.000000006256 Rises=F Damp=F
 DIIS: error= 8.38D-07 at cycle   7 NSaved=   7.
 NSaved= 7 IEnMin= 7 EnMin= -596.613250539324     IErMin= 7 ErrMin= 8.38D-07
 ErrMax= 8.38D-07  0.00D+00 EMaxC= 1.00D-01 BMatC= 1.15D-11 BMatP= 4.84D-10
 IDIUse=1 WtCom= 1.00D+00 WtEn= 0.00D+00
 Coeff-Com: -0.805D-04 0.122D-03 0.635D-02-0.527D-01 0.133D+00-0.365D+00
 Coeff-Com:  0.128D+01
 Coeff:     -0.805D-04 0.122D-03 0.635D-02-0.527D-01 0.133D+00-0.365D+00
 Coeff:      0.128D+01
 Gap=     0.198 Goal=   None    Shift=    0.000
 RMSDP=1.81D-06 MaxDP=1.23D-05 DE=-6.26D-09 OVMax= 0.00D+00

 Cycle   8  Pass 1  IDiag  1:
 E= -596.613250539451     Delta-E=       -0.000000000127 Rises=F Damp=F
 DIIS: error= 1.00D-07 at cycle   8 NSaved=   8.
 NSaved= 8 IEnMin= 8 EnMin= -596.613250539451     IErMin= 8 ErrMin= 1.00D-07
 ErrMax= 1.00D-07  0.00D+00 EMaxC= 1.00D-01 BMatC= 1.59D-13 BMatP= 1.15D-11
 IDIUse=1 WtCom= 1.00D+00 WtEn= 0.00D+00
 Coeff-Com:  0.409D-05-0.473D-05-0.556D-03 0.441D-02-0.116D-01 0.383D-01
 Coeff-Com: -0.259D+00 0.123D+01
 Coeff:      0.409D-05-0.473D-05-0.556D-03 0.441D-02-0.116D-01 0.383D-01
 Coeff:     -0.259D+00 0.123D+01
 Gap=     0.198 Goal=   None    Shift=    0.000
 RMSDP=1.95D-07 MaxDP=1.61D-06 DE=-1.27D-10 OVMax= 0.00D+00

 Cycle   9  Pass 1  IDiag  1:
 E= -596.613250539453     Delta-E=       -0.000000000002 Rises=F Damp=F
 DIIS: error= 4.36D-09 at cycle   9 NSaved=   9.
 NSaved= 9 IEnMin= 9 EnMin= -596.613250539453     IErMin= 9 ErrMin= 4.36D-09
 ErrMax= 4.36D-09  0.00D+00 EMaxC= 1.00D-01 BMatC= 4.30D-16 BMatP= 1.59D-13
 IDIUse=1 WtCom= 1.00D+00 WtEn= 0.00D+00
 Coeff-Com: -0.461D-06 0.834D-06 0.250D-04-0.187D-03 0.539D-03-0.196D-02
 Coeff-Com:  0.274D-01-0.175D+00 0.115D+01
 Coeff:     -0.461D-06 0.834D-06 0.250D-04-0.187D-03 0.539D-03-0.196D-02
 Coeff:      0.274D-01-0.175D+00 0.115D+01
 Gap=     0.198 Goal=   None    Shift=    0.000
 RMSDP=1.04D-08 MaxDP=6.95D-08 DE=-1.82D-12 OVMax= 0.00D+00

 Cycle  10  Pass 1  IDiag  1:
 E= -596.613250539453     Delta-E=        0.000000000001 Rises=F Damp=F
 DIIS: error= 1.16D-09 at cycle  10 NSaved=  10.
 NSaved=10 IEnMin= 9 EnMin= -596.613250539453     IErMin=10 ErrMin= 1.16D-09
 ErrMax= 1.16D-09  0.00D+00 EMaxC= 1.00D-01 BMatC= 9.18D-18 BMatP= 4.30D-16
 IDIUse=1 WtCom= 1.00D+00 WtEn= 0.00D+00
 Coeff-Com:  0.594D-07-0.114D-06-0.431D-05 0.266D-04-0.888D-04 0.377D-03
 Coeff-Com: -0.877D-02 0.596D-01-0.461D+00 0.141D+01
 Coeff:      0.594D-07-0.114D-06-0.431D-05 0.266D-04-0.888D-04 0.377D-03
 Coeff:     -0.877D-02 0.596D-01-0.461D+00 0.141D+01
 Gap=     0.198 Goal=   None    Shift=    0.000
 RMSDP=2.21D-09 MaxDP=1.41D-08 DE= 5.68D-13 OVMax= 0.00D+00

 SCF Done:  E(RHF) =  -596.613250539     A.U. after   10 cycles
            NFock= 10  Conv=0.22D-08     -V/T= 2.0004
 KE= 5.963528325800D+02 PE=-1.423826872496D+03 EE= 2.275093337075D+02
 Leave Link  502 at Mon Mar 28 14:31:15 2022, MaxMem=  9663676416 cpu:               3.4 elap:               0.1
 (Enter /nopt/nrel/apps/gaussian/g16C_1/g16/l801.exe)
 Windowed orbitals will be sorted by symmetry type.
 ExpMin= 1.61D-02 ExpMax= 1.72D+03 ExpMxC= 1.72D+03 IAcc=3 IRadAn=         5 AccDes= 0.00D+00
 HarFok:  IExCor=  205 AccDes= 0.00D+00 IRadAn=         5 IDoV=-2 UseB2=F ITyADJ=14
 ICtDFT= 12500011 ScaDFX=  1.000000  1.000000  1.000000  1.000000
 Largest valence mixing into a core orbital is  2.23D-04
 Largest core mixing into a valence orbital is  3.56D-05
 Range of M.O.s used for correlation:    10    18
 NBasis=    18 NAE=    10 NBE=    10 NFC=     9 NFV=     0
 NROrb=      9 NOA=     1 NOB=     1 NVA=     8 NVB=     8
 Leave Link  801 at Mon Mar 28 14:31:15 2022, MaxMem=  9663676416 cpu:               3.4 elap:               0.1
 (Enter /nopt/nrel/apps/gaussian/g16C_1/g16/l804.exe)
 Closed-shell transformation, MDV=  9663676416 ITran=4 ISComp=2.
 Unit  1 TFree=         12474 TCopy=        220948.
 Semi-Direct transformation.
 ModeAB=           2 MOrb=             1 LenV=    9663554825
 LASXX=           88 LTotXX=          88 LenRXX=          88
 LTotAB=         141 MaxLAS=        1539 LenRXY=        1539
 NonZer=        1755 LenScr=      785920 LnRSAI=           0
 LnScr1=           0 LExtra=      221969 Total=      1009516
 MaxDsk= 34359738368 SrtSym=           F ITran=            4
 DoSDTr:  NPSUse= 36
 JobTyp=0 Pass  1:  I=   1 to   1.
 (rs|ai) integrals will be sorted in core.
 Complete sort for first half transformation.
 First half transformation complete.
 Complete sort for second half transformation.
 Second half transformation complete.
 Spin components of T(2) and E(2):
     alpha-alpha T2 =       0.0000000000D+00 E2=      0.0000000000D+00
     alpha-beta  T2 =       0.3121259552D-01 E2=     -0.2503486410D-01
     beta-beta   T2 =       0.0000000000D+00 E2=      0.0000000000D+00
 ANorm=    0.1015486384D+01
 E2 =    -0.2503486410D-01 EUMP2 =    -0.59663828540355D+03
 Leave Link  804 at Mon Mar 28 14:31:16 2022, MaxMem=  9663676416 cpu:               1.4 elap:               0.1
 (Enter /nopt/nrel/apps/gaussian/g16C_1/g16/l913.exe)
 CIDS:  MDV=  9663676416.
 Frozen-core window:  NFC=   9 NFV=   0.
 IFCWin=0 IBDFC=1 NFBD=     0     0 NFCmp=     0     0 NFFFC=     0     0
 Using DD3R+UMP44R for 1st iteration.
 Using DD4RQ for 2nd and later iterations.
 Keep R2 and R3 ints in memory in symmetry-blocked form, NReq=7228187.
 FoFCou: FMM=F IPFlag=           0 FMFlag=           0 FMFlg1=           0
         NFxFlg=           0 DoJE=F BraDBF=F KetDBF=F FulRan=T
         wScrn=  0.000000 ICntrl=       600 IOpCl=  0 I1Cent=           0 NGrid=           0
         NMat0=    1 NMatS0=    171 NMatT0=    0 NMatD0=    1 NMtDS0=    0 NMtDT0=    0
 Petite list used in FoFCou.
 CIDS: In Core Option IDoMem=           1.
 Coupled Cluster theory with single and double substitutions
 ===========================================================
 Iterations= 200 Convergence= 0.100D-06
 Produce multiple copies of IABC intergrals
 Iteration Nr.   1
 **********************
 DD1Dir will call FoFMem   1 times, MxPair=         2
 NAB=     1 NAA=     0 NBB=     0.
 MP4(R+Q)=  0.78140309D-03
 Maximum subspace dimension=  5
 A-vector RMS=  2.6062484D-02 Max=  5.7556515D-02 conv= 1.00D-05.
 RLE energy=       -0.0440707575
 E3=       -0.11598933D-01        EUMP3=      -0.59664988434D+03
 E4(DQ)=   -0.49882951D-02        UMP4(DQ)=   -0.59665487263D+03
 E4(SDQ)=  -0.52163167D-02        UMP4(SDQ)=  -0.59665510065D+03
 VARIATIONAL ENERGIES WITH THE FIRST-ORDER WAVEFUNCTION:
 DE(Corr)= -0.35848408E-01 E(Corr)=     -596.64909895    
 NORM(A)=   0.10490796D+01
 Iteration Nr.   2
 **********************
 DD1Dir will call FoFMem   1 times, MxPair=         2
 NAB=     1 NAA=     0 NBB=     0.
 A-vector RMS=  1.1959671D-02 Max=  1.5906152D-02 conv= 1.00D-05.
 RLE energy=       -0.0442518981
 DE(Corr)= -0.44165500E-01 E(CORR)=     -596.65741604     Delta=-8.32D-03
 NORM(A)=   0.10518044D+01
 Iteration Nr.   3
 **********************
 DD1Dir will call FoFMem   1 times, MxPair=         2
 NAB=     1 NAA=     0 NBB=     0.
 A-vector RMS=  1.2596379D-02 Max=  1.4670067D-02 conv= 1.00D-05.
 RLE energy=       -0.0446344408
 DE(Corr)= -0.44317991E-01 E(CORR)=     -596.65756853     Delta=-1.52D-04
 NORM(A)=   0.10621357D+01
 Iteration Nr.   4
 **********************
 DD1Dir will call FoFMem   1 times, MxPair=         2
 NAB=     1 NAA=     0 NBB=     0.
 A-vector RMS=  4.6668792D-03 Max=  1.2587838D-02 conv= 1.00D-05.
 RLE energy=       -0.0459003574
 DE(Corr)= -0.45064565E-01 E(CORR)=     -596.65831510     Delta=-7.47D-04
 NORM(A)=   0.10751162D+01
 Iteration Nr.   5
 **********************
 DD1Dir will call FoFMem   1 times, MxPair=         2
 NAB=     1 NAA=     0 NBB=     0.
 A-vector RMS=  1.6184745D-03 Max=  1.7056580D-03 conv= 1.00D-05.
 RLE energy=       -0.0457406177
 DE(Corr)= -0.45847210E-01 E(CORR)=     -596.65909775     Delta=-7.83D-04
 NORM(A)=   0.10740377D+01
 Iteration Nr.   6
 **********************
 DD1Dir will call FoFMem   1 times, MxPair=         2
 NAB=     1 NAA=     0 NBB=     0.
 A-vector RMS=  8.2441101D-04 Max=  9.4761679D-04 conv= 1.00D-05.
 RLE energy=       -0.0457384068
 DE(Corr)= -0.45737587E-01 E(CORR)=     -596.65898813     Delta= 1.10D-04
 NORM(A)=   0.10742073D+01
 Iteration Nr.   7
 **********************
 DD1Dir will call FoFMem   1 times, MxPair=         2
 NAB=     1 NAA=     0 NBB=     0.
 A-vector RMS=  4.0426252D-04 Max=  3.3207861D-04 conv= 1.00D-05.
 RLE energy=       -0.0457750175
 DE(Corr)= -0.45743279E-01 E(CORR)=     -596.65899382     Delta=-5.69D-06
 NORM(A)=   0.10746806D+01
 Iteration Nr.   8
 **********************
 DD1Dir will call FoFMem   1 times, MxPair=         2
 NAB=     1 NAA=     0 NBB=     0.
 A-vector RMS=  1.3027939D-04 Max=  2.3435168D-04 conv= 1.00D-05.
 RLE energy=       -0.0457602168
 DE(Corr)= -0.45770793E-01 E(CORR)=     -596.65902133     Delta=-2.75D-05
 NORM(A)=   0.10745389D+01
 Iteration Nr.   9
 **********************
 DD1Dir will call FoFMem   1 times, MxPair=         2
 NAB=     1 NAA=     0 NBB=     0.
 A-vector RMS=  1.1386216D-05 Max=  1.3515045D-05 conv= 1.00D-05.
 RLE energy=       -0.0457600800
 DE(Corr)= -0.45760298E-01 E(CORR)=     -596.65901084     Delta= 1.05D-05
 NORM(A)=   0.10745330D+01
 Iteration Nr.  10
 **********************
 DD1Dir will call FoFMem   1 times, MxPair=         2
 NAB=     1 NAA=     0 NBB=     0.
 A-vector RMS=  4.8737060D-06 Max=  4.4402288D-06 conv= 1.00D-05.
 RLE energy=       -0.0457600778
 DE(Corr)= -0.45760152E-01 E(CORR)=     -596.65901069     Delta= 1.46D-07
 NORM(A)=   0.10745298D+01
 Iteration Nr.  11
 **********************
 DD1Dir will call FoFMem   1 times, MxPair=         2
 NAB=     1 NAA=     0 NBB=     0.
 A-vector RMS=  2.6049685D-06 Max=  2.2569284D-06 conv= 1.00D-05.
 RLE energy=       -0.0457599979
 DE(Corr)= -0.45760049E-01 E(CORR)=     -596.65901059     Delta= 1.04D-07
 NORM(A)=   0.10745280D+01
 Iteration Nr.  12
 **********************
 DD1Dir will call FoFMem   1 times, MxPair=         2
 NAB=     1 NAA=     0 NBB=     0.
 A-vector RMS=  9.2087588D-07 Max=  7.3655956D-07 conv= 1.00D-05.
 RLE energy=       -0.0457599977
 DE(Corr)= -0.45759969E-01 E(CORR)=     -596.65901051     Delta= 7.92D-08
 NORM(A)=   0.10745288D+01
 CI/CC converged in   12 iterations to DelEn= 7.92D-08 Conv= 1.00D-07 ErrA1= 9.21D-07 Conv= 1.00D-05
 Wavefunction amplitudes converged. E(Corr)=     -596.65901051    
 Dominant configurations:
 ***********************
 Spin Case        I    J    A    B          Value
    AA           10        11            0.117227D+00
   ABAB          10   10   11   18       0.121163D+00
   ABAB          10   10   14   18       0.102337D+00
   ABAB          10   10   18   11       0.121163D+00
   ABAB          10   10   18   14       0.102337D+00
   ABAB          10   10   18   18      -0.216228D+00
 Largest amplitude= 2.16D-01
 Discarding MO integrals.
 Leave Link  913 at Mon Mar 28 14:31:16 2022, MaxMem=  9663676416 cpu:               4.3 elap:               0.2
 (Enter /nopt/nrel/apps/gaussian/g16C_1/g16/l601.exe)
 Copying SCF densities to generalized density rwf, IOpCl= 0 IROHF=0.

 **********************************************************************

            Population analysis using the SCF Density.

 **********************************************************************

 Orbital symmetries:
       Occupied  (SG) (SG) (PI) (PI) (SG) (SG) (PI) (PI) (SG) (SG)
       Virtual   (SG) (PI) (PI) (SG) (SG) (PI) (PI) (SG)
 The electronic state is 1-SG.
 Alpha  occ. eigenvalues -- -132.62960 -14.42746 -11.44319 -11.44319 -11.44290
 Alpha  occ. eigenvalues --   -1.75582  -0.96002  -0.96002  -0.95681  -0.20868
 Alpha virt. eigenvalues --   -0.01024   0.02371   0.02371   0.07089   0.09039
 Alpha virt. eigenvalues --    0.11264   0.11264   0.24786
          Condensed to atoms (all electrons):
               1          2
     1  H    0.694393   0.259506
     2  K    0.259506  18.786594
 Mulliken charges:
               1
     1  H    0.046100
     2  K   -0.046100
 Sum of Mulliken charges =  -0.00000
 Mulliken charges with hydrogens summed into heavy atoms:
               1
     2  K   -0.000000
 N-N= 3.351455669160D+00 E-N=-1.423826872507D+03  KE= 5.963528325800D+02
 Symmetry A1   KE= 4.711693893909D+02
 Symmetry A2   KE= 0.000000000000D+00
 Symmetry B1   KE= 6.259172159453D+01
 Symmetry B2   KE= 6.259172159453D+01

 Atomic contributions to Alpha molecular orbitals:
 Alpha occ 1 OE=-132.630 is K2-s=1.0000
 Alpha occ 2 OE=-14.427 is K2-s=1.0000
 Alpha occ 3 OE=-11.443 is K2-p=1.0000
 Alpha occ 4 OE=-11.443 is K2-p=1.0000
 Alpha occ 5 OE=-11.443 is K2-p=1.0000
 Alpha occ 6 OE=-1.756 is K2-s=0.9993
 Alpha occ 7 OE=-0.960 is K2-p=1.0000
 Alpha occ 8 OE=-0.960 is K2-p=1.0000
 Alpha occ 9 OE=-0.957 is K2-p=0.9992
 Alpha occ 10 OE=-0.209 is H1-s=0.4769 K2-s=0.2799 K2-p=0.2432
 Alpha vir 11 OE=-0.010 is K2-s=0.5667 K2-p=0.4192
 Alpha vir 12 OE=0.024 is K2-p=1.0000
 Alpha vir 13 OE=0.024 is K2-p=1.0000
 Alpha vir 14 OE=0.071 is K2-p=0.5947 K2-s=0.3742
 Alpha vir 15 OE=0.090 is K2-s=0.6639 K2-p=0.3084
 Alpha vir 16 OE=0.113 is K2-p=1.0000
 Alpha vir 17 OE=0.113 is K2-p=1.0000
 Alpha vir 18 OE=0.248 is H1-s=0.4501 K2-p=0.4346 K2-s=0.1153
 
 Leave Link  601 at Mon Mar 28 14:31:16 2022, MaxMem=  9663676416 cpu:               0.9 elap:               0.0
 (Enter /nopt/nrel/apps/gaussian/g16C_1/g16/l9999.exe)

 Test job not archived.
 1\1\GINC-R102U34\SP\RCCSD-FC\Gen\H1K1\USER\28-Mar-2022\0\\#P CCSD(
 MaxCyc=200,SaveAmplitudes,ReadAmplitudes)/GEN sp pop=AllOrbitals iop(3
 /33=1,3/36=-1)\\test\\0,1\H,0,0.,0.,0.\K,0,0.,0.,3.\\Version=ES64L-G16
 RevC.01\State=1-SG\HF=-596.6132505\MP2=-596.6382854\MP3=-596.6498843\M
 P4D=-596.655654\MP4DQ=-596.6548726\MP4SDQ=-596.6551007\CCSD=-596.65901
 05\RMSD=2.212e-09\PG=C*V [C*(H1K1)]\\@


 THERE ARE PEOPLE SO ADDICTED TO EXAGERATING THEY
 CAN'T TELL THE TRUTH WITHOUT LYING. -- FORTUNE COOKIE
 Job cpu time:       0 days  0 hours  0 minutes 31.6 seconds.
 Elapsed time:       0 days  0 hours  0 minutes  1.2 seconds.
 File lengths (MBytes):  RWF=     13 Int=      0 D2E=      0 Chk=      1 Scr=      1
 Normal termination of Gaussian 16 at Mon Mar 28 14:31:16 2022.
