 Entering Gaussian System, Link 0=g16
 Initial command:
 /nopt/nrel/apps/gaussian/g16C_1/g16/l1.exe "/lustre/eaglefs/scratch/user/qc/kh-dissc/kh-3-ccsd-2.8-321g/Gau-27827.inp" -scrdir="/lustre/eaglefs/scratch/user/qc/kh-dissc/kh-3-ccsd-2.8-321g/"
 Default is to use a total of  36 processors:
                               36 via shared-memory
                                1 via Linda
 Entering Link 1 = /nopt/nrel/apps/gaussian/g16C_1/g16/l1.exe PID=     27828.
  
 Copyright (c) 1988-2019, Gaussian, Inc.  All Rights Reserved.
  
 This is part of the Gaussian(R) 16 program.  It is based on
 the Gaussian(R) 09 system (copyright 2009, Gaussian, Inc.),
 the Gaussian(R) 03 system (copyright 2003, Gaussian, Inc.),
 the Gaussian(R) 98 system (copyright 1998, Gaussian, Inc.),
 the Gaussian(R) 94 system (copyright 1995, Gaussian, Inc.),
 the Gaussian 92(TM) system (copyright 1992, Gaussian, Inc.),
 the Gaussian 90(TM) system (copyright 1990, Gaussian, Inc.),
 the Gaussian 88(TM) system (copyright 1988, Gaussian, Inc.),
 the Gaussian 86(TM) system (copyright 1986, Carnegie Mellon
 University), and the Gaussian 82(TM) system (copyright 1983,
 Carnegie Mellon University). Gaussian is a federally registered
 trademark of Gaussian, Inc.
  
 This software contains proprietary and confidential information,
 including trade secrets, belonging to Gaussian, Inc.
  
 This software is provided under written license and may be
 used, copied, transmitted, or stored only in accord with that
 written license.
  
 The following legend is applicable only to US Government
 contracts under FAR:
  
                    RESTRICTED RIGHTS LEGEND
  
 Use, reproduction and disclosure by the US Government is
 subject to restrictions as set forth in subparagraphs (a)
 and (c) of the Commercial Computer Software - Restricted
 Rights clause in FAR 52.227-19.
  
 Gaussian, Inc.
 340 Quinnipiac St., Bldg. 40, Wallingford CT 06492
  
  
 ---------------------------------------------------------------
 Warning -- This program may not be used in any manner that
 competes with the business of Gaussian, Inc. or will provide
 assistance to any competitor of Gaussian, Inc.  The licensee
 of this program is prohibited from giving any competitor of
 Gaussian, Inc. access to this program.  By using this program,
 the user acknowledges that Gaussian, Inc. is engaged in the
 business of creating and licensing software in the field of
 computational chemistry and represents and warrants to the
 licensee that it is not a competitor of Gaussian, Inc. and that
 it will not use this program in any manner prohibited above.
 ---------------------------------------------------------------
  

 Cite this work as:
 Gaussian 16, Revision C.01,
 M. J. Frisch, G. W. Trucks, H. B. Schlegel, G. E. Scuseria, 
 M. A. Robb, J. R. Cheeseman, G. Scalmani, V. Barone, 
 G. A. Petersson, H. Nakatsuji, X. Li, M. Caricato, A. V. Marenich, 
 J. Bloino, B. G. Janesko, R. Gomperts, B. Mennucci, H. P. Hratchian, 
 J. V. Ortiz, A. F. Izmaylov, J. L. Sonnenberg, D. Williams-Young, 
 F. Ding, F. Lipparini, F. Egidi, J. Goings, B. Peng, A. Petrone, 
 T. Henderson, D. Ranasinghe, V. G. Zakrzewski, J. Gao, N. Rega, 
 G. Zheng, W. Liang, M. Hada, M. Ehara, K. Toyota, R. Fukuda, 
 J. Hasegawa, M. Ishida, T. Nakajima, Y. Honda, O. Kitao, H. Nakai, 
 T. Vreven, K. Throssell, J. A. Montgomery, Jr., J. E. Peralta, 
 F. Ogliaro, M. J. Bearpark, J. J. Heyd, E. N. Brothers, K. N. Kudin, 
 V. N. Staroverov, T. A. Keith, R. Kobayashi, J. Normand, 
 K. Raghavachari, A. P. Rendell, J. C. Burant, S. S. Iyengar, 
 J. Tomasi, M. Cossi, J. M. Millam, M. Klene, C. Adamo, R. Cammi, 
 J. W. Ochterski, R. L. Martin, K. Morokuma, O. Farkas, 
 J. B. Foresman, and D. J. Fox, Gaussian, Inc., Wallingford CT, 2019.
 
 ******************************************
 Gaussian 16:  ES64L-G16RevC.01  3-Jul-2019
                28-Mar-2022 
 ******************************************
 %chk=molecule
 Default route: CacheSize=180224 MaxDisk=256GB
 ----------------------------------------------------------------------
 #P CCSD(MaxCyc=200,SaveAmplitudes,ReadAmplitudes)/GEN sp pop=AllOrbita
 ls iop(3/33=1,3/36=-1)
 ----------------------------------------------------------------------
 1/4=180224,38=1,172=1/1;
 2/4=180224,12=2,17=6,18=5,40=1/2;
 3/4=180224,5=7,11=9,25=1,30=1,33=1,36=-1/1,2,3;
 4/4=180224/1;
 5/4=180224,5=2,38=5/2;
 8/4=180224,6=4,9=120000,10=1,24=1/1,4;
 9/4=180224,5=7,6=200,77=1/13;
 6/4=180224,7=2,8=2,9=2,10=2,96=-1/1;
 99/4=180224,5=1,9=1/99;
 Leave Link    1 at Mon Mar 28 14:39:01 2022, MaxMem=           0 cpu:               2.3 elap:               0.1
 (Enter /nopt/nrel/apps/gaussian/g16C_1/g16/l101.exe)
 ----
 test
 ----
 Symbolic Z-matrix:
 Charge =  0 Multiplicity = 3
 H                     0.        0.        0. 
 K                     0.        0.        2.8 
 
 ITRead=  0  0
 MicOpt= -1 -1
 NAtoms=      2 NQM=        2 NQMF=       0 NMMI=      0 NMMIF=      0
                NMic=       0 NMicF=      0.
                    Isotopes and Nuclear Properties:
 (Nuclear quadrupole moments (NQMom) in fm**2, nuclear magnetic moments (NMagM)
  in nuclear magnetons)

  Atom         1           2
 IAtWgt=           1          39
 AtmWgt=   1.0078250  38.9637079
 NucSpn=           1           3
 AtZEff=  -0.0000000  -0.0000000
 NQMom=    0.0000000   5.8500000
 NMagM=    2.7928460   0.3914660
 AtZNuc=   1.0000000  19.0000000
 Leave Link  101 at Mon Mar 28 14:39:01 2022, MaxMem=  9663676416 cpu:               3.0 elap:               0.1
 (Enter /nopt/nrel/apps/gaussian/g16C_1/g16/l202.exe)
                          Input orientation:                          
 ---------------------------------------------------------------------
 Center     Atomic      Atomic             Coordinates (Angstroms)
 Number     Number       Type             X           Y           Z
 ---------------------------------------------------------------------
      1          1           0        0.000000    0.000000    0.000000
      2         19           0        0.000000    0.000000    2.800000
 ---------------------------------------------------------------------
 Stoichiometry    HK(3)
 Framework group  C*V[C*(HK)]
 Deg. of freedom     1
 Full point group                 C*V     NOp   4
 Largest Abelian subgroup         C2V     NOp   4
 Largest concise Abelian subgroup C1      NOp   1
                         Standard orientation:                         
 ---------------------------------------------------------------------
 Center     Atomic      Atomic             Coordinates (Angstroms)
 Number     Number       Type             X           Y           Z
 ---------------------------------------------------------------------
      1          1           0        0.000000    0.000000   -2.660000
      2         19           0        0.000000    0.000000    0.140000
 ---------------------------------------------------------------------
 Rotational constants (GHZ):           0.0000000          65.6155115          65.6155115
 Leave Link  202 at Mon Mar 28 14:39:01 2022, MaxMem=  9663676416 cpu:               1.0 elap:               0.0
 (Enter /nopt/nrel/apps/gaussian/g16C_1/g16/l301.exe)
 General basis read from cards:  (5D, 7F)
                         Coordinates in L301:                         
 ---------------------------------------------------------------------
 Center     Atomic      Atomic             Coordinates (Angstroms)
 Number     Number       Type             X           Y           Z
 ---------------------------------------------------------------------
      1          1           0        0.000000    0.000000   -2.660000
      2         19           0        0.000000    0.000000    0.140000
 ---------------------------------------------------------------------
 Centers:       1
 STO-3G
 ****
 Centers:       2
 3-21G
 ****
 FixB: optimizing general contractions.
 Ernie: Thresh=  0.10000D-02 Tol=  0.10000D-05 Strict=F.
 IA=     1 ShT= 0 ShC= 0 NL=   1 NS=   0.
 IA=     1 L=0 SC=0 ISt=    0 NBk=    0 NP=    0 IndPr=    0.
 IA=     2 ShT= 0 ShC= 0 NL=   1 NS=   0.
 IA=     2 L=0 SC=0 ISt=    0 NBk=    0 NP=    0 IndPr=    0.
 IA=     2 ShT= 1 ShC= 0 NL=   4 NS=   1.
 IA=     2 L=1 SC=0 ISt=    1 NBk=    3 NP=    8 IndPr=    0.
 DoElim1:  L=1 select primitive    1 from    2 using    1 C=-1.09D-01
 DoElim1:  L=1 select primitive    1 from    3 using    1 C=-1.09D-01
 DoElim1:  L=1 select primitive    4 from    3 using    2 C=-2.70D-01
 DoElim2:  L=1 select primitive    8 from    2 using    3 C= 1.13D+00
 DoElim2:  L=1 select primitive    8 from    1 using    3 C= 1.13D+00
 DoElim2:  L=1 select primitive    6 from    1 using    2 C= 8.11D-01
 DoElim1:  L=1 select primitive    1 from    2 using    1 C= 1.34D-01
 DoElim1:  L=1 select primitive    1 from    3 using    1 C= 1.34D-01
 DoElim1:  L=1 select primitive    4 from    3 using    2 C= 1.99D-02
 DoElim2:  L=1 select primitive    8 from    2 using    3 C= 1.00D+00
 DoElim2:  L=1 select primitive    8 from    1 using    3 C= 1.00D+00
 DoElim2:  L=1 select primitive    6 from    1 using    2 C= 6.45D-01
 Delete L=1 primitive    6 from    3 C=  0.00D+00.
 Delete L=1 primitive    5 from    3 C=  0.00D+00.
 Delete L=1 primitive    4 from    3 C=  0.00D+00.
 Delete L=1 primitive    3 from    3 C=  0.00D+00.
 Delete L=1 primitive    2 from    3 C=  0.00D+00.
 Delete L=1 primitive    1 from    3 C=  0.00D+00.
 Delete L=1 primitive    8 from    2 C=  0.00D+00.
 Delete L=1 primitive    7 from    2 C=  0.00D+00.
 Delete L=1 primitive    3 from    2 C=  0.00D+00.
 Delete L=1 primitive    2 from    2 C=  0.00D+00.
 Delete L=1 primitive    1 from    2 C=  0.00D+00.
 Delete L=1 primitive    8 from    1 C=  0.00D+00.
 Delete L=1 primitive    7 from    1 C=  0.00D+00.
 Delete L=1 primitive    6 from    1 C=  0.00D+00.
 Delete L=1 primitive    5 from    1 C=  0.00D+00.
 Delete L=1 primitive    4 from    1 C=  0.00D+00.
 IA=     2 L=1 SC=0 ISt=    0 NBk=    0 NP=    0 IndPr=    8.
 LdAtmC:  AtmChg=     1.000000    19.000000
 AtZEff=     -1.0000000    -22.4200000
 NEqShl: 
              1            2            3            4
     1            1            1            1            1
     2            2            2            2            2
     3            3            3            3            3
     4            4            4            4            4
     5            5            5            5            5
     6            6            6            6            6
 NEqBas: 
              1            2            3            4
     1            1            1            1            1
     2            2            2            2            2
     3            3            3            3            3
     4            4           -4           -4            4
     5            5           -5            5           -5
     6            6            6            6            6
     7            7            7            7            7
     8            8           -8           -8            8
     9            9           -9            9           -9
    10           10           10           10           10
    11           11           11           11           11
    12           12          -12          -12           12
    13           13          -13           13          -13
    14           14           14           14           14
    15           15           15           15           15
    16           16          -16          -16           16
    17           17          -17           17          -17
    18           18           18           18           18
 There are    10 symmetry adapted cartesian basis functions of A1  symmetry.
   1         1   1   1   1
   2         2   2   2   2
   3         3   3   3   3
   4         6   6   6   6
   5         7   7   7   7
   6        10  10  10  10
   7        11  11  11  11
   8        14  14  14  14
   9        15  15  15  15
  10        18  18  18  18
 There are     0 symmetry adapted cartesian basis functions of A2  symmetry.
 There are     4 symmetry adapted cartesian basis functions of B1  symmetry.
  11         4   4   4   4
  12         8   8   8   8
  13        12  12  12  12
  14        16  16  16  16
 There are     4 symmetry adapted cartesian basis functions of B2  symmetry.
  15         5   5   5   5
  16         9   9   9   9
  17        13  13  13  13
  18        17  17  17  17
 Order= 1 2 4 3
 Reordered character table:
              1            2            3            4            5
     1            1            1            1            1            1
     2            2            1            1           -1           -1
     3            4            1           -1           -1            1
     4            3            1           -1            1           -1
 NEqShl: 
              1            2            3            4
     1            1            1            1            1
     2            2            2            2            2
     3            3            3            3            3
     4            4            4            4            4
     5            5            5            5            5
     6            6            6            6            6
 NEqBas: 
              1            2            3            4
     1            1            1            1            1
     2            2            2            2            2
     3            3            3            3            3
     4            4           -4           -4            4
     5            5           -5            5           -5
     6            6            6            6            6
     7            7            7            7            7
     8            8           -8           -8            8
     9            9           -9            9           -9
    10           10           10           10           10
    11           11           11           11           11
    12           12          -12          -12           12
    13           13          -13           13          -13
    14           14           14           14           14
    15           15           15           15           15
    16           16          -16          -16           16
    17           17          -17           17          -17
    18           18           18           18           18
 There are    10 symmetry adapted basis functions of A1  symmetry.
   1         1   1   1   1
   2         2   2   2   2
   3         3   3   3   3
   4         6   6   6   6
   5         7   7   7   7
   6        10  10  10  10
   7        11  11  11  11
   8        14  14  14  14
   9        15  15  15  15
  10        18  18  18  18
 There are     0 symmetry adapted basis functions of A2  symmetry.
 There are     4 symmetry adapted basis functions of B1  symmetry.
  11         4   4   4   4
  12         8   8   8   8
  13        12  12  12  12
  14        16  16  16  16
 There are     4 symmetry adapted basis functions of B2  symmetry.
  15         5   5   5   5
  16         9   9   9   9
  17        13  13  13  13
  18        17  17  17  17
 Order= 1 2 4 3
 Reordered character table:
              1            2            3            4            5
     1            1            1            1            1            1
     2            2            1            1           -1           -1
     3            4            1           -1           -1            1
     4            3            1           -1            1           -1
    18 basis functions,    42 primitive gaussians,    18 cartesian basis functions
    11 alpha electrons        9 beta electrons
       nuclear repulsion energy         3.5908453598 Hartrees.
 IS=     1 IAt=     1 ISR=     1 T=0 IP=      1 IndIP=      1 IndIPD=      0 C=  2.769344D-01  0.000000D+00                             NZ=T
 IS=     1 IAt=     1 ISR=     1 T=0 IP=      2 IndIP=      2 IndIPD=      1 C=  2.678389D-01  0.000000D+00                             NZ=T
 IS=     1 IAt=     1 ISR=     1 T=0 IP=      3 IndIP=      3 IndIPD=      2 C=  8.347367D-02  0.000000D+00                             NZ=T
 IS=     2 IAt=     2 ISR=     1 T=0 IP=      1 IndIP=      4 IndIPD=      0 C=  1.235533D+01  0.000000D+00                             NZ=T
 IS=     2 IAt=     2 ISR=     1 T=0 IP=      2 IndIP=      5 IndIPD=      1 C=  1.757620D+01  0.000000D+00                             NZ=T
 IS=     2 IAt=     2 ISR=     1 T=0 IP=      3 IndIP=      6 IndIPD=      2 C=  9.965255D+00  0.000000D+00                             NZ=T
 IS=     3 IAt=     2 ISR=     2 T=1 IP=      1 IndIP=      7 IndIPD=      0 C= -1.917303D+00  3.974198D+01                             NZ=T
 IS=     3 IAt=     2 ISR=     2 T=1 IP=      2 IndIP=      8 IndIPD=      1 C=  6.276214D-01  2.313166D+01                             NZ=T
 IS=     3 IAt=     2 ISR=     2 T=1 IP=      3 IndIP=      9 IndIPD=      2 C=  2.074825D+00  4.747626D+00                             NZ=T
 IS=     4 IAt=     2 ISR=     3 T=1 IP=      1 IndIP=     10 IndIPD=      0 C= -5.565498D-01  1.669766D-01                             NZ=T
 IS=     4 IAt=     2 ISR=     3 T=1 IP=      2 IndIP=     11 IndIPD=      1 C=  2.958337D-01  7.678126D-01                             NZ=T
 IS=     4 IAt=     2 ISR=     3 T=1 IP=      3 IndIP=     12 IndIPD=      2 C=  2.772726D-01  2.705395D-01                             NZ=T
 IS=     5 IAt=     2 ISR=     4 T=1 IP=      1 IndIP=     13 IndIPD=      0 C= -6.663323D-02  7.553623D-05                             NZ=T
 IS=     5 IAt=     2 ISR=     4 T=1 IP=      2 IndIP=     14 IndIPD=      1 C=  7.057644D-02  2.467884D-02                             NZ=T
 IS=     6 IAt=     2 ISR=     5 T=1 IP=      1 IndIP=     15 IndIPD=      0 C=  3.215666D-02  8.150947D-03                             NZ=T
 IExCor=    0 DFT=F Ex=HF Corr=None ExCW=0 ScaHFX=  1.000000
 ScaDFX=  1.000000  1.000000  1.000000  1.000000 ScalE2=  1.000000  1.000000
 IRadAn=      5 IRanWt=     -1 IRanGd=            0 ICorTp=0 IEmpDi=  4
 NAtoms=    2 NActive=    2 NUniq=    2 SFac= 1.00D+00 NAtFMM=   60 NAOKFM=F Big=F
 Integral buffers will be    131072 words long.
 Raffenetti 2 integral format.
 Two-electron integral symmetry is turned on.
 Leave Link  301 at Mon Mar 28 14:39:01 2022, MaxMem=  9663676416 cpu:               2.2 elap:               0.1
 (Enter /nopt/nrel/apps/gaussian/g16C_1/g16/l302.exe)
 NPDir=0 NMtPBC=     1 NCelOv=     1 NCel=       1 NClECP=     1 NCelD=      1
         NCelK=      1 NCelE2=     1 NClLst=     1 CellRange=     0.0.
 One-electron integrals computed using PRISM.
 One-electron integral symmetry used in STVInt
 Entering OneElI...
 Calculate overlap and kinetic energy integrals
    NBasis =  18  MinDer = 0  MaxDer = 0
 Requested accuracy = 0.1000D-12
 Symmetry will be used
 PrmmSu-InSpLW:  IPartL=    0 NPrtUS=   36 NPrtUL=    1 DoSpLW=F IThBeg=    0 IThEnd=   35 NThAct=   36.
 PrSmSu:  IncTry=   512 NBBP=             21 NTPThr=   100 NPartT=   36 Incr=           1 LDynOK=F GPUOK=F.
 PrsmSu:  NPrtUS=  36 ThrOK=T IAlg=1 LenDen=           0 ISkipM=0 DoSpLW=F IThBeg=    0 IThEnd=   35.
 Prism:   IPart=     0 DynPar=F LinDyn=F Incr=           1.
 PRISM was handed   268433259 working-precision words and    21 shell-pairs
 PRISM was handed   268433259 working-precision words and    21 shell-pairs
 PRISM was handed   268433259 working-precision words and    21 shell-pairs
 PRISM was handed   268433259 working-precision words and    21 shell-pairs
 PRISM was handed   268433259 working-precision words and    21 shell-pairs
 PRISM was handed   268433259 working-precision words and    21 shell-pairs
 PRISM was handed   268433259 working-precision words and    21 shell-pairs
 PRISM was handed   268433259 working-precision words and    21 shell-pairs
 PRISM was handed   268433259 working-precision words and    21 shell-pairs
 IPart= 34 NShTot=           0 NBatch=           0 AvBLen=         0.0
 IPart= 27 NShTot=           0 NBatch=           0 AvBLen=         0.0
 IPart= 10 NShTot=           0 NBatch=           0 AvBLen=         0.0
 IPart= 20 NShTot=           0 NBatch=           0 AvBLen=         0.0
 IPart= 25 NShTot=           0 NBatch=           0 AvBLen=         0.0
 IPart= 33 NShTot=           0 NBatch=           0 AvBLen=         0.0
 IPart= 28 NShTot=           0 NBatch=           0 AvBLen=         0.0
 IPart= 16 NShTot=           0 NBatch=           0 AvBLen=         0.0
 PRISM was handed   268433259 working-precision words and    21 shell-pairs
 PRISM was handed   268433259 working-precision words and    21 shell-pairs
 PRISM was handed   268433259 working-precision words and    21 shell-pairs
 PRISM was handed   268433259 working-precision words and    21 shell-pairs
 PRISM was handed   268433259 working-precision words and    21 shell-pairs
 PRISM was handed   268433259 working-precision words and    21 shell-pairs
 PRISM was handed   268433259 working-precision words and    21 shell-pairs
 IPart=  6 NShTot=           0 NBatch=           0 AvBLen=         0.0
 IPart=  3 NShTot=           0 NBatch=           0 AvBLen=         0.0
 IPart= 32 NShTot=           0 NBatch=           0 AvBLen=         0.0
 IPart= 11 NShTot=           0 NBatch=           0 AvBLen=         0.0
 IPart= 23 NShTot=           0 NBatch=           0 AvBLen=         0.0
 PRISM was handed   268433259 working-precision words and    21 shell-pairs
 IPart=  2 NShTot=           2 NBatch=           2 AvBLen=         1.0
 IPart= 35 NShTot=           0 NBatch=           0 AvBLen=         0.0
 PRISM was handed   268433259 working-precision words and    21 shell-pairs
 PRISM was handed   268433259 working-precision words and    21 shell-pairs
 IPart=  4 NShTot=           0 NBatch=           0 AvBLen=         0.0
 PRISM was handed   268433259 working-precision words and    21 shell-pairs
 PRISM was handed   268433259 working-precision words and    21 shell-pairs
 IPart= 29 NShTot=           0 NBatch=           0 AvBLen=         0.0
 PRISM was handed   268433259 working-precision words and    21 shell-pairs
 IPart= 22 NShTot=           0 NBatch=           0 AvBLen=         0.0
 PRISM was handed   268433259 working-precision words and    21 shell-pairs
 PRISM was handed   268433259 working-precision words and    21 shell-pairs
 PRISM was handed   268433259 working-precision words and    21 shell-pairs
 PRISM was handed   268433259 working-precision words and    21 shell-pairs
 PRISM was handed   268433259 working-precision words and    21 shell-pairs
 IPart=  0 NShTot=          12 NBatch=          12 AvBLen=         1.0
 IPart=  9 NShTot=           0 NBatch=           0 AvBLen=         0.0
 IPart=  8 NShTot=           0 NBatch=           0 AvBLen=         0.0
 PRISM was handed   268433259 working-precision words and    21 shell-pairs
 IPart= 13 NShTot=           0 NBatch=           0 AvBLen=         0.0
 IPart= 14 NShTot=           0 NBatch=           0 AvBLen=         0.0
 IPart= 26 NShTot=           0 NBatch=           0 AvBLen=         0.0
 PRISM was handed   268433259 working-precision words and    21 shell-pairs
 PRISM was handed   268433259 working-precision words and    21 shell-pairs
 PRISM was handed   268433259 working-precision words and    21 shell-pairs
 IPart= 12 NShTot=           0 NBatch=           0 AvBLen=         0.0
 PRISM was handed   268433259 working-precision words and    21 shell-pairs
 PRISM was handed   268433259 working-precision words and    21 shell-pairs
 PRISM was handed   268433259 working-precision words and    21 shell-pairs
 PRISM was handed   268433259 working-precision words and    21 shell-pairs
 IPart= 30 NShTot=           0 NBatch=           0 AvBLen=         0.0
 PRISM was handed   268433259 working-precision words and    21 shell-pairs
 IPart=  7 NShTot=           0 NBatch=           0 AvBLen=         0.0
 IPart= 17 NShTot=           0 NBatch=           0 AvBLen=         0.0
 IPart=  5 NShTot=           0 NBatch=           0 AvBLen=         0.0
 IPart= 21 NShTot=           0 NBatch=           0 AvBLen=         0.0
 IPart= 24 NShTot=           0 NBatch=           0 AvBLen=         0.0
 IPart= 31 NShTot=           0 NBatch=           0 AvBLen=         0.0
 IPart= 18 NShTot=           0 NBatch=           0 AvBLen=         0.0
 IPart= 15 NShTot=           0 NBatch=           0 AvBLen=         0.0
 IPart= 19 NShTot=           0 NBatch=           0 AvBLen=         0.0
 IPart=  1 NShTot=           7 NBatch=           7 AvBLen=         1.0
 PrSmSu:  NxtVal=             37.
 *** Overlap *** 
                1             2             3             4             5 
      1  0.100000D+01
      2  0.115111D-03  0.100000D+01
      3  0.104385D-02  0.255104D+00  0.100000D+01
      4  0.000000D+00  0.000000D+00  0.000000D+00  0.100000D+01
      5  0.000000D+00  0.000000D+00  0.000000D+00  0.000000D+00  0.100000D+01
      6 -0.542384D-03  0.000000D+00  0.000000D+00  0.000000D+00  0.000000D+00
      7  0.139582D-01  0.851285D-02  0.305620D+00  0.000000D+00  0.000000D+00
      8  0.000000D+00  0.000000D+00  0.000000D+00  0.282859D+00  0.000000D+00
      9  0.000000D+00  0.000000D+00  0.000000D+00  0.000000D+00  0.282859D+00
     10 -0.239758D-01  0.000000D+00  0.000000D+00  0.000000D+00  0.000000D+00
     11  0.210234D+00  0.657633D-03  0.101668D-01  0.000000D+00  0.000000D+00
     12  0.000000D+00  0.000000D+00  0.000000D+00  0.931227D-02  0.000000D+00
     13  0.000000D+00  0.000000D+00  0.000000D+00  0.000000D+00  0.931227D-02
     14 -0.346635D+00  0.000000D+00  0.000000D+00  0.000000D+00  0.000000D+00
     15  0.190053D+00  0.496746D-02  0.403235D-01  0.000000D+00  0.000000D+00
     16  0.000000D+00  0.000000D+00  0.000000D+00  0.310109D-02  0.000000D+00
     17  0.000000D+00  0.000000D+00  0.000000D+00  0.000000D+00  0.310109D-02
     18 -0.238311D+00  0.000000D+00  0.000000D+00  0.000000D+00  0.000000D+00
                6             7             8             9            10 
      6  0.100000D+01
      7  0.000000D+00  0.100000D+01
      8  0.000000D+00  0.000000D+00  0.100000D+01
      9  0.000000D+00  0.000000D+00  0.000000D+00  0.100000D+01
     10  0.282859D+00  0.000000D+00  0.000000D+00  0.000000D+00  0.100000D+01
     11  0.000000D+00  0.215867D+00  0.000000D+00  0.000000D+00  0.000000D+00
     12  0.000000D+00  0.000000D+00  0.200079D+00  0.000000D+00  0.000000D+00
     13  0.000000D+00  0.000000D+00  0.000000D+00  0.200079D+00  0.000000D+00
     14  0.931227D-02  0.000000D+00  0.000000D+00  0.000000D+00  0.200079D+00
     15  0.000000D+00  0.230714D+00  0.000000D+00  0.000000D+00  0.000000D+00
     16  0.000000D+00  0.000000D+00  0.749696D-01  0.000000D+00  0.000000D+00
     17  0.000000D+00  0.000000D+00  0.000000D+00  0.749696D-01  0.000000D+00
     18  0.310109D-02  0.000000D+00  0.000000D+00  0.000000D+00  0.749696D-01
               11            12            13            14            15 
     11  0.100000D+01
     12  0.000000D+00  0.100000D+01
     13  0.000000D+00  0.000000D+00  0.100000D+01
     14  0.000000D+00  0.000000D+00  0.000000D+00  0.100000D+01
     15  0.889160D+00  0.000000D+00  0.000000D+00  0.000000D+00  0.100000D+01
     16  0.000000D+00  0.788263D+00  0.000000D+00  0.000000D+00  0.000000D+00
     17  0.000000D+00  0.000000D+00  0.788263D+00  0.000000D+00  0.000000D+00
     18  0.000000D+00  0.000000D+00  0.000000D+00  0.788263D+00  0.000000D+00
               16            17            18 
     16  0.100000D+01
     17  0.000000D+00  0.100000D+01
     18  0.000000D+00  0.000000D+00  0.100000D+01
 *** Kinetic Energy *** 
                1             2             3             4             5 
      1  0.760032D+00
      2 -0.124683D-03  0.176298D+03
      3 -0.104059D-02 -0.620687D+01  0.781415D+01
      4  0.000000D+00  0.000000D+00  0.000000D+00  0.280311D+02
      5  0.000000D+00  0.000000D+00  0.000000D+00  0.000000D+00  0.280311D+02
      6  0.369752D-03  0.000000D+00  0.000000D+00  0.000000D+00  0.000000D+00
      7 -0.724449D-02 -0.709406D+00 -0.685499D+00  0.000000D+00  0.000000D+00
      8  0.000000D+00  0.000000D+00  0.000000D+00  0.125035D+01  0.000000D+00
      9  0.000000D+00  0.000000D+00  0.000000D+00  0.000000D+00  0.125035D+01
     10  0.839678D-02  0.000000D+00  0.000000D+00  0.000000D+00  0.000000D+00
     11  0.111275D-01 -0.621117D-02 -0.439131D-01  0.000000D+00  0.000000D+00
     12  0.000000D+00  0.000000D+00  0.000000D+00  0.182620D-02  0.000000D+00
     13  0.000000D+00  0.000000D+00  0.000000D+00  0.000000D+00  0.182620D-02
     14 -0.362051D-01  0.000000D+00  0.000000D+00  0.000000D+00  0.000000D+00
     15  0.615977D-02  0.239311D-03  0.193628D-02  0.000000D+00  0.000000D+00
     16  0.000000D+00  0.000000D+00  0.000000D+00  0.248286D-03  0.000000D+00
     17  0.000000D+00  0.000000D+00  0.000000D+00  0.000000D+00  0.248286D-03
     18 -0.148937D-01  0.000000D+00  0.000000D+00  0.000000D+00  0.000000D+00
                6             7             8             9            10 
      6  0.280311D+02
      7  0.000000D+00  0.856984D+00
      8  0.000000D+00  0.000000D+00  0.155517D+01
      9  0.000000D+00  0.000000D+00  0.000000D+00  0.155517D+01
     10  0.125035D+01  0.000000D+00  0.000000D+00  0.000000D+00  0.155517D+01
     11  0.000000D+00 -0.669248D-01  0.000000D+00  0.000000D+00  0.000000D+00
     12  0.000000D+00  0.000000D+00  0.358731D-01  0.000000D+00  0.000000D+00
     13  0.000000D+00  0.000000D+00  0.000000D+00  0.358731D-01  0.000000D+00
     14  0.182620D-02  0.000000D+00  0.000000D+00  0.000000D+00  0.358731D-01
     15  0.000000D+00  0.106939D-01  0.000000D+00  0.000000D+00  0.000000D+00
     16  0.000000D+00  0.000000D+00  0.579876D-02  0.000000D+00  0.000000D+00
     17  0.000000D+00  0.000000D+00  0.000000D+00  0.579876D-02  0.000000D+00
     18  0.248286D-03  0.000000D+00  0.000000D+00  0.000000D+00  0.579876D-02
               11            12            13            14            15 
     11  0.660420D-01
     12  0.000000D+00  0.974466D-01
     13  0.000000D+00  0.000000D+00  0.974466D-01
     14  0.000000D+00  0.000000D+00  0.000000D+00  0.974466D-01
     15  0.293463D-01  0.000000D+00  0.000000D+00  0.000000D+00  0.240938D-01
     16  0.000000D+00  0.448313D-01  0.000000D+00  0.000000D+00  0.000000D+00
     17  0.000000D+00  0.000000D+00  0.448313D-01  0.000000D+00  0.000000D+00
     18  0.000000D+00  0.000000D+00  0.000000D+00  0.448313D-01  0.000000D+00
               16            17            18 
     16  0.401564D-01
     17  0.000000D+00  0.401564D-01
     18  0.000000D+00  0.000000D+00  0.401564D-01
 Entering OneElI...
 Calculate potential energy integrals
    NBasis =  18  MinDer = 0  MaxDer = 0
 Requested accuracy = 0.1000D-12
 Symmetry will be used
 PrmmSu-InSpLW:  IPartL=    0 NPrtUS=   36 NPrtUL=    1 DoSpLW=F IThBeg=    0 IThEnd=   35 NThAct=   36.
 PrSmSu:  IncTry=   512 NBBP=             42 NTPThr=   100 NPartT=   36 Incr=           1 LDynOK=F GPUOK=F.
 PrsmSu:  NPrtUS=  36 ThrOK=T IAlg=1 LenDen=           0 ISkipM=0 DoSpLW=F IThBeg=    0 IThEnd=   35.
 Prism:   IPart=     0 DynPar=F LinDyn=F Incr=           1.
 PRISM was handed   268433431 working-precision words and    21 shell-pairs
 PRISM was handed   268433431 working-precision words and    21 shell-pairs
 PRISM was handed   268433431 working-precision words and    21 shell-pairs
 PRISM was handed   268433431 working-precision words and    21 shell-pairs
 PRISM was handed   268433431 working-precision words and    21 shell-pairs
 PRISM was handed   268433431 working-precision words and    21 shell-pairs
 PRISM was handed   268433431 working-precision words and    21 shell-pairs
 PRISM was handed   268433431 working-precision words and    21 shell-pairs
 PRISM was handed   268433431 working-precision words and    21 shell-pairs
 PRISM was handed   268433431 working-precision words and    21 shell-pairs
 PRISM was handed   268433431 working-precision words and    21 shell-pairs
 PRISM was handed   268433431 working-precision words and    21 shell-pairs
 PRISM was handed   268433431 working-precision words and    21 shell-pairs
 PRISM was handed   268433431 working-precision words and    21 shell-pairs
 PRISM was handed   268433431 working-precision words and    21 shell-pairs
 PRISM was handed   268433431 working-precision words and    21 shell-pairs
 PRISM was handed   268433431 working-precision words and    21 shell-pairs
 PRISM was handed   268433431 working-precision words and    21 shell-pairs
 PRISM was handed   268433431 working-precision words and    21 shell-pairs
 PRISM was handed   268433431 working-precision words and    21 shell-pairs
 PRISM was handed   268433431 working-precision words and    21 shell-pairs
 PRISM was handed   268433431 working-precision words and    21 shell-pairs
 PRISM was handed   268433431 working-precision words and    21 shell-pairs
 PRISM was handed   268433431 working-precision words and    21 shell-pairs
 PRISM was handed   268433431 working-precision words and    21 shell-pairs
 PRISM was handed   268433431 working-precision words and    21 shell-pairs
 PRISM was handed   268433431 working-precision words and    21 shell-pairs
 PRISM was handed   268433431 working-precision words and    21 shell-pairs
 PRISM was handed   268433431 working-precision words and    21 shell-pairs
 PRISM was handed   268433431 working-precision words and    21 shell-pairs
 PRISM was handed   268433431 working-precision words and    21 shell-pairs
 PRISM was handed   268433431 working-precision words and    21 shell-pairs
 PRISM was handed   268433431 working-precision words and    21 shell-pairs
 PRISM was handed   268433431 working-precision words and    21 shell-pairs
 PRISM was handed   268433431 working-precision words and    21 shell-pairs
 PRISM was handed   268433431 working-precision words and    21 shell-pairs
 IPart=  1 NShTot=          14 NBatch=           7 AvBLen=         2.0
 IPart=  2 NShTot=           4 NBatch=           2 AvBLen=         2.0
 IPart= 26 NShTot=           0 NBatch=           0 AvBLen=         0.0
 IPart= 32 NShTot=           0 NBatch=           0 AvBLen=         0.0
 IPart= 12 NShTot=           0 NBatch=           0 AvBLen=         0.0
 IPart= 27 NShTot=           0 NBatch=           0 AvBLen=         0.0
 IPart= 18 NShTot=           0 NBatch=           0 AvBLen=         0.0
 IPart= 15 NShTot=           0 NBatch=           0 AvBLen=         0.0
 IPart= 28 NShTot=           0 NBatch=           0 AvBLen=         0.0
 IPart= 33 NShTot=           0 NBatch=           0 AvBLen=         0.0
 IPart= 21 NShTot=           0 NBatch=           0 AvBLen=         0.0
 IPart= 19 NShTot=           0 NBatch=           0 AvBLen=         0.0
 IPart= 22 NShTot=           0 NBatch=           0 AvBLen=         0.0
 IPart=  4 NShTot=           0 NBatch=           0 AvBLen=         0.0
 IPart= 30 NShTot=           0 NBatch=           0 AvBLen=         0.0
 IPart= 34 NShTot=           0 NBatch=           0 AvBLen=         0.0
 IPart= 10 NShTot=           0 NBatch=           0 AvBLen=         0.0
 IPart=  8 NShTot=           0 NBatch=           0 AvBLen=         0.0
 IPart= 11 NShTot=           0 NBatch=           0 AvBLen=         0.0
 IPart= 17 NShTot=           0 NBatch=           0 AvBLen=         0.0
 IPart= 24 NShTot=           0 NBatch=           0 AvBLen=         0.0
 IPart= 35 NShTot=           0 NBatch=           0 AvBLen=         0.0
 IPart= 16 NShTot=           0 NBatch=           0 AvBLen=         0.0
 IPart= 29 NShTot=           0 NBatch=           0 AvBLen=         0.0
 IPart= 31 NShTot=           0 NBatch=           0 AvBLen=         0.0
 IPart=  6 NShTot=           0 NBatch=           0 AvBLen=         0.0
 IPart=  9 NShTot=           0 NBatch=           0 AvBLen=         0.0
 IPart= 20 NShTot=           0 NBatch=           0 AvBLen=         0.0
 IPart= 25 NShTot=           0 NBatch=           0 AvBLen=         0.0
 IPart= 23 NShTot=           0 NBatch=           0 AvBLen=         0.0
 IPart=  7 NShTot=           0 NBatch=           0 AvBLen=         0.0
 IPart= 13 NShTot=           0 NBatch=           0 AvBLen=         0.0
 IPart=  5 NShTot=           0 NBatch=           0 AvBLen=         0.0
 IPart= 14 NShTot=           0 NBatch=           0 AvBLen=         0.0
 IPart=  3 NShTot=           0 NBatch=           0 AvBLen=         0.0
 IPart=  0 NShTot=          24 NBatch=          12 AvBLen=         2.0
 PrSmSu:  NxtVal=             37.
 ***** Potential Energy ***** 
                1             2             3             4             5 
      1  0.481745D+01
      2  0.222424D-01  0.355862D+03
      3  0.457446D-01  0.428504D+02  0.620240D+02
      4  0.000000D+00  0.000000D+00  0.000000D+00  0.710950D+02
      5  0.000000D+00  0.000000D+00  0.000000D+00  0.000000D+00  0.710950D+02
      6 -0.190043D-01 -0.967662D-03 -0.731228D-02  0.000000D+00  0.000000D+00
      7  0.153189D+00  0.118126D+01  0.115044D+02  0.000000D+00  0.000000D+00
      8  0.000000D+00  0.000000D+00  0.000000D+00  0.114879D+02  0.000000D+00
      9  0.000000D+00  0.000000D+00  0.000000D+00  0.000000D+00  0.114879D+02
     10 -0.215820D+00 -0.485423D-04 -0.337277D-02  0.000000D+00  0.000000D+00
     11  0.991024D+00  0.123597D+00  0.387735D+00  0.000000D+00  0.000000D+00
     12  0.000000D+00  0.000000D+00  0.000000D+00  0.334005D+00  0.000000D+00
     13  0.000000D+00  0.000000D+00  0.000000D+00  0.000000D+00  0.334005D+00
     14 -0.155824D+01 -0.105488D-05 -0.119504D-03  0.000000D+00  0.000000D+00
     15  0.853523D+00  0.963380D+00  0.183438D+01  0.000000D+00  0.000000D+00
     16  0.000000D+00  0.000000D+00  0.000000D+00  0.110875D+00  0.000000D+00
     17  0.000000D+00  0.000000D+00  0.000000D+00  0.000000D+00  0.110875D+00
     18 -0.998487D+00  0.000000D+00 -0.398615D-04  0.000000D+00  0.000000D+00
                6             7             8             9            10 
      6  0.710956D+02
      7 -0.363885D-02  0.182088D+02
      8  0.000000D+00  0.000000D+00  0.168086D+02
      9  0.000000D+00  0.000000D+00  0.000000D+00  0.168086D+02
     10  0.114884D+02 -0.264874D-01  0.000000D+00  0.000000D+00  0.168175D+02
     11 -0.134923D-03  0.239422D+01  0.000000D+00  0.000000D+00 -0.123970D-01
     12  0.000000D+00  0.000000D+00  0.209476D+01  0.000000D+00  0.000000D+00
     13  0.000000D+00  0.000000D+00  0.000000D+00  0.209476D+01  0.000000D+00
     14  0.334023D+00 -0.654998D-02  0.000000D+00  0.000000D+00  0.209912D+01
     15 -0.436982D-03  0.318709D+01  0.000000D+00  0.000000D+00 -0.105635D-01
     16  0.000000D+00  0.000000D+00  0.760181D+00  0.000000D+00  0.000000D+00
     17  0.000000D+00  0.000000D+00  0.000000D+00  0.760181D+00  0.000000D+00
     18  0.110881D+00 -0.247740D-02  0.000000D+00  0.000000D+00  0.761925D+00
               11            12            13            14            15 
     11  0.493293D+01
     12  0.000000D+00  0.413969D+01
     13  0.000000D+00  0.000000D+00  0.413969D+01
     14 -0.753678D-01  0.000000D+00  0.000000D+00  0.420486D+01
     15  0.409499D+01  0.000000D+00  0.000000D+00 -0.689571D-01  0.399765D+01
     16  0.000000D+00  0.275042D+01  0.000000D+00  0.000000D+00  0.000000D+00
     17  0.000000D+00  0.000000D+00  0.275042D+01  0.000000D+00  0.000000D+00
     18 -0.484274D-01  0.000000D+00  0.000000D+00  0.279575D+01 -0.542243D-01
               16            17            18 
     16  0.267634D+01
     17  0.000000D+00  0.267634D+01
     18  0.000000D+00  0.000000D+00  0.271535D+01
 ****** Core Hamiltonian ****** 
                1             2             3             4             5 
      1 -0.405742D+01
      2 -0.223671D-01 -0.179564D+03
      3 -0.467852D-01 -0.490573D+02 -0.542098D+02
      4  0.000000D+00  0.000000D+00  0.000000D+00 -0.430640D+02
      5  0.000000D+00  0.000000D+00  0.000000D+00  0.000000D+00 -0.430640D+02
      6  0.193740D-01  0.967662D-03  0.731228D-02  0.000000D+00  0.000000D+00
      7 -0.160434D+00 -0.189067D+01 -0.121899D+02  0.000000D+00  0.000000D+00
      8  0.000000D+00  0.000000D+00  0.000000D+00 -0.102376D+02  0.000000D+00
      9  0.000000D+00  0.000000D+00  0.000000D+00  0.000000D+00 -0.102376D+02
     10  0.224217D+00  0.485423D-04  0.337277D-02  0.000000D+00  0.000000D+00
     11 -0.979897D+00 -0.129808D+00 -0.431648D+00  0.000000D+00  0.000000D+00
     12  0.000000D+00  0.000000D+00  0.000000D+00 -0.332179D+00  0.000000D+00
     13  0.000000D+00  0.000000D+00  0.000000D+00  0.000000D+00 -0.332179D+00
     14  0.152204D+01  0.105488D-05  0.119504D-03  0.000000D+00  0.000000D+00
     15 -0.847363D+00 -0.963141D+00 -0.183244D+01  0.000000D+00  0.000000D+00
     16  0.000000D+00  0.000000D+00  0.000000D+00 -0.110627D+00  0.000000D+00
     17  0.000000D+00  0.000000D+00  0.000000D+00  0.000000D+00 -0.110627D+00
     18  0.983594D+00  0.000000D+00  0.398615D-04  0.000000D+00  0.000000D+00
                6             7             8             9            10 
      6 -0.430646D+02
      7  0.363885D-02 -0.173518D+02
      8  0.000000D+00  0.000000D+00 -0.152534D+02
      9  0.000000D+00  0.000000D+00  0.000000D+00 -0.152534D+02
     10 -0.102380D+02  0.264874D-01  0.000000D+00  0.000000D+00 -0.152623D+02
     11  0.134923D-03 -0.246114D+01  0.000000D+00  0.000000D+00  0.123970D-01
     12  0.000000D+00  0.000000D+00 -0.205889D+01  0.000000D+00  0.000000D+00
     13  0.000000D+00  0.000000D+00  0.000000D+00 -0.205889D+01  0.000000D+00
     14 -0.332197D+00  0.654998D-02  0.000000D+00  0.000000D+00 -0.206325D+01
     15  0.436982D-03 -0.317639D+01  0.000000D+00  0.000000D+00  0.105635D-01
     16  0.000000D+00  0.000000D+00 -0.754382D+00  0.000000D+00  0.000000D+00
     17  0.000000D+00  0.000000D+00  0.000000D+00 -0.754382D+00  0.000000D+00
     18 -0.110633D+00  0.247740D-02  0.000000D+00  0.000000D+00 -0.756126D+00
               11            12            13            14            15 
     11 -0.486689D+01
     12  0.000000D+00 -0.404224D+01
     13  0.000000D+00  0.000000D+00 -0.404224D+01
     14  0.753678D-01  0.000000D+00  0.000000D+00 -0.410742D+01
     15 -0.406564D+01  0.000000D+00  0.000000D+00  0.689571D-01 -0.397356D+01
     16  0.000000D+00 -0.270558D+01  0.000000D+00  0.000000D+00  0.000000D+00
     17  0.000000D+00  0.000000D+00 -0.270558D+01  0.000000D+00  0.000000D+00
     18  0.484274D-01  0.000000D+00  0.000000D+00 -0.275092D+01  0.542243D-01
               16            17            18 
     16 -0.263618D+01
     17  0.000000D+00 -0.263618D+01
     18  0.000000D+00  0.000000D+00 -0.267520D+01
 SVDSVc IOpt=   1 NormSV=T IR=1
 SVDSVc V= 2.14D+00 1.93D+00 1.35D+00 1.26D+00 9.59D-01 7.75D-01 7.01D-01 5.84D-01 1.91D-01 1.10D-01
 SVDSVc IOpt=   1 NormSV=T IR=3
 SVDSVc V= 1.84D+00 1.25D+00 7.08D-01 2.01D-01
 SVDSVc IOpt=   1 NormSV=T IR=4
 SVDSVc V= 1.84D+00 1.25D+00 7.08D-01 2.01D-01
 TstOVc:  Largest diagonal error= 2.89D-15 IB=1 I=    9.
 TstOVc:  Largest same sym error= 4.35D-15 IB=1 I=    8 J=    7.
 TstOVc:  Largest diff sym error= 0.00D+00 IB=0 JB=0 I=    0 J=    0.
 Orthogonalized basis functions: 
                 1             2             3             4             5 
      1   0.253380D+00 -0.125025D+00 -0.847530D-01  0.104154D+00  0.213007D+00
      2   0.170824D-01  0.229259D-01  0.442865D+00  0.555460D-01  0.746568D+00
      3   0.628313D-01  0.723568D-01  0.602979D+00  0.571374D-01 -0.100409D+00
      4   0.000000D+00  0.000000D+00  0.000000D+00  0.000000D+00  0.000000D+00
      5   0.000000D+00  0.000000D+00  0.000000D+00  0.000000D+00  0.000000D+00
      6  -0.201116D-01  0.454684D-01 -0.529276D-01  0.635694D+00 -0.485494D-01
      7   0.159839D+00  0.155540D+00  0.348391D+00  0.826359D-02 -0.627132D+00
      8   0.000000D+00  0.000000D+00  0.000000D+00  0.000000D+00  0.000000D+00
      9   0.000000D+00  0.000000D+00  0.000000D+00  0.000000D+00  0.000000D+00
     10  -0.695757D-01  0.132262D+00 -0.645196D-01  0.588309D+00  0.444420D-02
     11   0.355806D+00  0.276147D+00 -0.154842D+00 -0.385982D-01  0.113126D+00
     12   0.000000D+00  0.000000D+00  0.000000D+00  0.000000D+00  0.000000D+00
     13   0.000000D+00  0.000000D+00  0.000000D+00  0.000000D+00  0.000000D+00
     14  -0.249910D+00  0.394782D+00 -0.354087D-01 -0.713476D-01  0.595186D-01
     15   0.355425D+00  0.280056D+00 -0.133113D+00 -0.386128D-01  0.973090D-01
     16   0.000000D+00  0.000000D+00  0.000000D+00  0.000000D+00  0.000000D+00
     17   0.000000D+00  0.000000D+00  0.000000D+00  0.000000D+00  0.000000D+00
     18  -0.231065D+00  0.377114D+00 -0.360927D-01 -0.134566D+00  0.900428D-01
                 6             7             8             9            10 
      1   0.927272D+00 -0.314694D+00 -0.162182D+00  0.274426D+00 -0.627839D-01
      2  -0.206219D+00  0.642209D-01 -0.521384D+00  0.130520D-02 -0.103378D-01
      3   0.183761D+00 -0.767102D-01  0.873181D+00 -0.347515D-02  0.716593D-01
      4   0.000000D+00  0.000000D+00  0.000000D+00  0.000000D+00  0.000000D+00
      5   0.000000D+00  0.000000D+00  0.000000D+00  0.000000D+00  0.000000D+00
      6  -0.320131D+00 -0.754194D+00 -0.114972D-01  0.898257D-01 -0.213455D-02
      7   0.647211D-01  0.134756D-01 -0.778395D+00  0.161826D-01  0.957863D-02
      8   0.000000D+00  0.000000D+00  0.000000D+00  0.000000D+00  0.000000D+00
      9   0.000000D+00  0.000000D+00  0.000000D+00  0.000000D+00  0.000000D+00
     10   0.247817D+00  0.800853D+00  0.178374D-01 -0.294591D+00  0.794402D-02
     11  -0.173268D+00  0.481462D-01  0.125554D+00 -0.740491D-03  0.213527D+01
     12   0.000000D+00  0.000000D+00  0.000000D+00  0.000000D+00  0.000000D+00
     13   0.000000D+00  0.000000D+00  0.000000D+00  0.000000D+00  0.000000D+00
     14   0.172464D+00 -0.493399D-01 -0.148511D-01  0.166433D+01 -0.498334D-01
     15  -0.193001D+00  0.557916D-01  0.158959D+00 -0.681018D-01 -0.212555D+01
     16   0.000000D+00  0.000000D+00  0.000000D+00  0.000000D+00  0.000000D+00
     17   0.000000D+00  0.000000D+00  0.000000D+00  0.000000D+00  0.000000D+00
     18   0.299349D+00 -0.314054D+00 -0.678698D-01 -0.151380D+01  0.266643D-01
                11            12            13            14            15 
      1   0.000000D+00  0.000000D+00  0.000000D+00  0.000000D+00  0.000000D+00
      2   0.000000D+00  0.000000D+00  0.000000D+00  0.000000D+00  0.000000D+00
      3   0.000000D+00  0.000000D+00  0.000000D+00  0.000000D+00  0.000000D+00
      4   0.709850D-01  0.645112D+00 -0.813656D+00  0.880868D-01  0.000000D+00
      5   0.000000D+00  0.000000D+00  0.000000D+00  0.000000D+00  0.709850D-01
      6   0.000000D+00  0.000000D+00  0.000000D+00  0.000000D+00  0.000000D+00
      7   0.000000D+00  0.000000D+00  0.000000D+00  0.000000D+00  0.000000D+00
      8   0.188890D+00  0.576969D+00  0.841851D+00 -0.284389D+00  0.000000D+00
      9   0.000000D+00  0.000000D+00  0.000000D+00  0.000000D+00  0.188890D+00
     10   0.000000D+00  0.000000D+00  0.000000D+00  0.000000D+00  0.000000D+00
     11   0.000000D+00  0.000000D+00  0.000000D+00  0.000000D+00  0.000000D+00
     12   0.508568D+00 -0.118274D+00 -0.151283D-02  0.158900D+01  0.000000D+00
     13   0.000000D+00  0.000000D+00  0.000000D+00  0.000000D+00  0.508568D+00
     14   0.000000D+00  0.000000D+00  0.000000D+00  0.000000D+00  0.000000D+00
     15   0.000000D+00  0.000000D+00  0.000000D+00  0.000000D+00  0.000000D+00
     16   0.493792D+00 -0.191632D+00 -0.203508D+00 -0.154043D+01  0.000000D+00
     17   0.000000D+00  0.000000D+00  0.000000D+00  0.000000D+00  0.493792D+00
     18   0.000000D+00  0.000000D+00  0.000000D+00  0.000000D+00  0.000000D+00
                16            17            18 
      1   0.000000D+00  0.000000D+00  0.000000D+00
      2   0.000000D+00  0.000000D+00  0.000000D+00
      3   0.000000D+00  0.000000D+00  0.000000D+00
      4   0.000000D+00  0.000000D+00  0.000000D+00
      5   0.645112D+00 -0.813656D+00  0.880868D-01
      6   0.000000D+00  0.000000D+00  0.000000D+00
      7   0.000000D+00  0.000000D+00  0.000000D+00
      8   0.000000D+00  0.000000D+00  0.000000D+00
      9   0.576969D+00  0.841851D+00 -0.284389D+00
     10   0.000000D+00  0.000000D+00  0.000000D+00
     11   0.000000D+00  0.000000D+00  0.000000D+00
     12   0.000000D+00  0.000000D+00  0.000000D+00
     13  -0.118274D+00 -0.151283D-02  0.158900D+01
     14   0.000000D+00  0.000000D+00  0.000000D+00
     15   0.000000D+00  0.000000D+00  0.000000D+00
     16   0.000000D+00  0.000000D+00  0.000000D+00
     17  -0.191632D+00 -0.203508D+00 -0.154043D+01
     18   0.000000D+00  0.000000D+00  0.000000D+00
 NBasis=    18 RedAO= T EigKep=  1.10D-01  NBF=    10     0     4     4
 NBsUse=    18 1.00D-06 EigRej= -1.00D+00 NBFU=    10     0     4     4
 Leave Link  302 at Mon Mar 28 14:39:01 2022, MaxMem=  9663676416 cpu:               3.6 elap:               0.1
 (Enter /nopt/nrel/apps/gaussian/g16C_1/g16/l303.exe)
 DipDrv will not compute anything.
 Fermi contact integrals: 
                 1             2 
      1   0.628247D+00  0.738651D-03
      2   0.000000D+00  0.398968D+02
      3   0.000000D+00  0.785144D+00
      4   0.000000D+00  0.000000D+00
      5   0.000000D+00  0.000000D+00
      6   0.000000D+00  0.000000D+00
      7   0.750043D-05  0.165565D-01
      8   0.000000D+00  0.000000D+00
      9   0.000000D+00  0.000000D+00
     10  -0.387228D-04  0.000000D+00
     11   0.236322D-01  0.394321D-02
     12   0.000000D+00  0.000000D+00
     13   0.000000D+00  0.000000D+00
     14  -0.438559D-01  0.000000D+00
     15   0.205100D-01  0.321567D-01
     16   0.000000D+00  0.000000D+00
     17   0.000000D+00  0.000000D+00
     18  -0.275081D-01  0.000000D+00
 Leave Link  303 at Mon Mar 28 14:39:01 2022, MaxMem=  9663676416 cpu:               1.1 elap:               0.1
 (Enter /nopt/nrel/apps/gaussian/g16C_1/g16/l401.exe)
 ExpMin= 1.61D-02 ExpMax= 1.72D+03 ExpMxC= 1.72D+03 IAcc=3 IRadAn=         5 AccDes= 0.00D+00
 Harris functional with IExCor=  205 and IRadAn=       5 diagonalized for initial guess.
 HarFok:  IExCor=  205 AccDes= 0.00D+00 IRadAn=         5 IDoV= 1 UseB2=F ITyADJ=14
 ICtDFT=  3500011 ScaDFX=  1.000000  1.000000  1.000000  1.000000
 FoFCou: FMM=F IPFlag=           0 FMFlag=      100000 FMFlg1=           0
         NFxFlg=           0 DoJE=T BraDBF=F KetDBF=T FulRan=T
         wScrn=  0.000000 ICntrl=       500 IOpCl=  0 I1Cent=   200000004 NGrid=           0
         NMat0=    1 NMatS0=      1 NMatT0=    0 NMatD0=    1 NMtDS0=    0 NMtDT0=    0
 Petite list used in FoFCou.
 Harris En= -595.913744312156    
 JPrj=0 DoOrth=F DoCkMO=F.
 Initial guess orbital symmetries:
 Alpha Orbitals:
       Occupied  (SG) (SG) (SG) (PI) (PI) (SG) (SG) (PI) (PI) (SG)
                 (SG)
       Virtual   (PI) (PI) (SG) (SG) (PI) (PI) (SG)
 Beta  Orbitals:
       Occupied  (SG) (SG) (SG) (PI) (PI) (SG) (SG) (PI) (PI)
       Virtual   (SG) (SG) (PI) (PI) (SG) (SG) (PI) (PI) (SG)
 The electronic state of the initial guess is 3-SG.
 Initial guess <Sx>= 0.0000 <Sy>= 0.0000 <Sz>= 1.0000 <S**2>= 2.0000 S= 1.0000
 Leave Link  401 at Mon Mar 28 14:39:01 2022, MaxMem=  9663676416 cpu:               4.0 elap:               0.1
 (Enter /nopt/nrel/apps/gaussian/g16C_1/g16/l502.exe)
 Keep R1 and R2 ints in memory in symmetry-blocked form, NReq=7225781.
 FoFCou: FMM=F IPFlag=           0 FMFlag=           0 FMFlg1=           0
         NFxFlg=           0 DoJE=F BraDBF=F KetDBF=F FulRan=T
         wScrn=  0.000000 ICntrl=       600 IOpCl=  0 I1Cent=           0 NGrid=           0
         NMat0=    1 NMatS0=    171 NMatT0=    0 NMatD0=    1 NMtDS0=    0 NMtDT0=    0
 Petite list used in FoFCou.
 UHF open shell SCF:
 Using DIIS extrapolation, IDIIS=  1040.
 NGot=  9663676416 LenX=  9663664010 LenY=  9663663128
 Requested convergence on RMS density matrix=1.00D-08 within 128 cycles.
 Requested convergence on MAX density matrix=1.00D-06.
 Requested convergence on             energy=1.00D-06.
 No special actions if energy rises.

 Cycle   1  Pass 1  IDiag  1:
 E= -596.594908887108    
 DIIS: error= 2.54D-02 at cycle   1 NSaved=   1.
 NSaved= 1 IEnMin= 1 EnMin= -596.594908887108     IErMin= 1 ErrMin= 2.54D-02
 ErrMax= 2.54D-02  0.00D+00 EMaxC= 1.00D-01 BMatC= 3.85D-02 BMatP= 3.85D-02
 IDIUse=3 WtCom= 7.46D-01 WtEn= 2.54D-01
 Coeff-Com:  0.100D+01
 Coeff-En:   0.100D+01
 Coeff:      0.100D+01
 Gap=     0.167 Goal=   None    Shift=    0.000
 Gap=     0.989 Goal=   None    Shift=    0.000
 GapD=    0.167 DampG=1.000 DampE=0.500 DampFc=0.5000 IDamp=-1.
 Damping current iteration by 5.00D-01
 RMSDP=1.28D-02 MaxDP=1.55D-01              OVMax= 0.00D+00

 Cycle   2  Pass 1  IDiag  1:
 E= -596.604058136371     Delta-E=       -0.009149249262 Rises=F Damp=T
 DIIS: error= 1.71D-02 at cycle   2 NSaved=   2.
 NSaved= 2 IEnMin= 2 EnMin= -596.604058136371     IErMin= 2 ErrMin= 1.71D-02
 ErrMax= 1.71D-02  0.00D+00 EMaxC= 1.00D-01 BMatC= 1.31D-02 BMatP= 3.85D-02
 IDIUse=3 WtCom= 8.29D-01 WtEn= 1.71D-01
 Coeff-Com: -0.130D+01 0.230D+01
 Coeff-En:   0.000D+00 0.100D+01
 Coeff:     -0.108D+01 0.208D+01
 Gap=     0.151 Goal=   None    Shift=    0.000
 Gap=     0.932 Goal=   None    Shift=    0.000
 RMSDP=1.16D-02 MaxDP=1.66D-01 DE=-9.15D-03 OVMax= 0.00D+00

 Cycle   3  Pass 1  IDiag  1:
 E= -596.617526429726     Delta-E=       -0.013468293356 Rises=F Damp=F
 DIIS: error= 2.62D-03 at cycle   3 NSaved=   3.
 NSaved= 3 IEnMin= 3 EnMin= -596.617526429726     IErMin= 3 ErrMin= 2.62D-03
 ErrMax= 2.62D-03  0.00D+00 EMaxC= 1.00D-01 BMatC= 1.72D-04 BMatP= 1.31D-02
 IDIUse=3 WtCom= 9.74D-01 WtEn= 2.62D-02
 Coeff-Com:  0.467D+00-0.916D+00 0.145D+01
 Coeff-En:   0.000D+00 0.000D+00 0.100D+01
 Coeff:      0.455D+00-0.891D+00 0.144D+01
 Gap=     0.150 Goal=   None    Shift=    0.000
 Gap=     0.936 Goal=   None    Shift=    0.000
 RMSDP=3.63D-03 MaxDP=6.16D-02 DE=-1.35D-02 OVMax= 0.00D+00

 Cycle   4  Pass 1  IDiag  1:
 E= -596.617805996679     Delta-E=       -0.000279566952 Rises=F Damp=F
 DIIS: error= 4.44D-04 at cycle   4 NSaved=   4.
 NSaved= 4 IEnMin= 4 EnMin= -596.617805996679     IErMin= 4 ErrMin= 4.44D-04
 ErrMax= 4.44D-04  0.00D+00 EMaxC= 1.00D-01 BMatC= 3.07D-06 BMatP= 1.72D-04
 IDIUse=3 WtCom= 9.96D-01 WtEn= 4.44D-03
 Coeff-Com: -0.211D+00 0.414D+00-0.700D+00 0.150D+01
 Coeff-En:   0.000D+00 0.000D+00 0.000D+00 0.100D+01
 Coeff:     -0.210D+00 0.412D+00-0.697D+00 0.149D+01
 Gap=     0.150 Goal=   None    Shift=    0.000
 Gap=     0.938 Goal=   None    Shift=    0.000
 RMSDP=1.22D-03 MaxDP=2.07D-02 DE=-2.80D-04 OVMax= 0.00D+00

 Cycle   5  Pass 1  IDiag  1:
 E= -596.617820025578     Delta-E=       -0.000014028899 Rises=F Damp=F
 DIIS: error= 1.37D-04 at cycle   5 NSaved=   5.
 NSaved= 5 IEnMin= 5 EnMin= -596.617820025578     IErMin= 5 ErrMin= 1.37D-04
 ErrMax= 1.37D-04  0.00D+00 EMaxC= 1.00D-01 BMatC= 3.19D-07 BMatP= 3.07D-06
 IDIUse=3 WtCom= 9.99D-01 WtEn= 1.37D-03
 Coeff-Com:  0.732D-01-0.145D+00 0.258D+00-0.869D+00 0.168D+01
 Coeff-En:   0.000D+00 0.000D+00 0.000D+00 0.000D+00 0.100D+01
 Coeff:      0.731D-01-0.144D+00 0.257D+00-0.868D+00 0.168D+01
 Gap=     0.149 Goal=   None    Shift=    0.000
 Gap=     0.938 Goal=   None    Shift=    0.000
 RMSDP=5.17D-04 MaxDP=8.55D-03 DE=-1.40D-05 OVMax= 0.00D+00

 Cycle   6  Pass 1  IDiag  1:
 E= -596.617821470564     Delta-E=       -0.000001444986 Rises=F Damp=F
 DIIS: error= 3.40D-06 at cycle   6 NSaved=   6.
 NSaved= 6 IEnMin= 6 EnMin= -596.617821470564     IErMin= 6 ErrMin= 3.40D-06
 ErrMax= 3.40D-06  0.00D+00 EMaxC= 1.00D-01 BMatC= 6.46D-10 BMatP= 3.19D-07
 IDIUse=1 WtCom= 1.00D+00 WtEn= 0.00D+00
 Coeff-Com: -0.946D-02 0.187D-01-0.333D-01 0.118D+00-0.248D+00 0.115D+01
 Coeff:     -0.946D-02 0.187D-01-0.333D-01 0.118D+00-0.248D+00 0.115D+01
 Gap=     0.149 Goal=   None    Shift=    0.000
 Gap=     0.938 Goal=   None    Shift=    0.000
 RMSDP=8.54D-06 MaxDP=9.13D-05 DE=-1.44D-06 OVMax= 0.00D+00

 Cycle   7  Pass 1  IDiag  1:
 E= -596.617821472494     Delta-E=       -0.000000001930 Rises=F Damp=F
 DIIS: error= 1.40D-06 at cycle   7 NSaved=   7.
 NSaved= 7 IEnMin= 7 EnMin= -596.617821472494     IErMin= 7 ErrMin= 1.40D-06
 ErrMax= 1.40D-06  0.00D+00 EMaxC= 1.00D-01 BMatC= 7.27D-11 BMatP= 6.46D-10
 IDIUse=1 WtCom= 1.00D+00 WtEn= 0.00D+00
 Coeff-Com: -0.419D-04 0.736D-04-0.596D-04-0.292D-02 0.112D-01-0.358D+00
 Coeff-Com:  0.135D+01
 Coeff:     -0.419D-04 0.736D-04-0.596D-04-0.292D-02 0.112D-01-0.358D+00
 Coeff:      0.135D+01
 Gap=     0.149 Goal=   None    Shift=    0.000
 Gap=     0.938 Goal=   None    Shift=    0.000
 RMSDP=3.46D-06 MaxDP=3.49D-05 DE=-1.93D-09 OVMax= 0.00D+00

 Cycle   8  Pass 1  IDiag  1:
 E= -596.617821472890     Delta-E=       -0.000000000396 Rises=F Damp=F
 DIIS: error= 5.74D-07 at cycle   8 NSaved=   8.
 NSaved= 8 IEnMin= 8 EnMin= -596.617821472890     IErMin= 8 ErrMin= 5.74D-07
 ErrMax= 5.74D-07  0.00D+00 EMaxC= 1.00D-01 BMatC= 9.72D-12 BMatP= 7.27D-11
 IDIUse=1 WtCom= 1.00D+00 WtEn= 0.00D+00
 Coeff-Com: -0.608D-03 0.120D-02-0.213D-02 0.824D-02-0.176D-01 0.208D+00
 Coeff-Com: -0.983D+00 0.179D+01
 Coeff:     -0.608D-03 0.120D-02-0.213D-02 0.824D-02-0.176D-01 0.208D+00
 Coeff:     -0.983D+00 0.179D+01
 Gap=     0.149 Goal=   None    Shift=    0.000
 Gap=     0.938 Goal=   None    Shift=    0.000
 RMSDP=1.70D-06 MaxDP=1.77D-05 DE=-3.96D-10 OVMax= 0.00D+00

 Cycle   9  Pass 1  IDiag  1:
 E= -596.617821472952     Delta-E=       -0.000000000062 Rises=F Damp=F
 DIIS: error= 8.28D-08 at cycle   9 NSaved=   9.
 NSaved= 9 IEnMin= 9 EnMin= -596.617821472952     IErMin= 9 ErrMin= 8.28D-08
 ErrMax= 8.28D-08  0.00D+00 EMaxC= 1.00D-01 BMatC= 2.11D-13 BMatP= 9.72D-12
 IDIUse=1 WtCom= 1.00D+00 WtEn= 0.00D+00
 Coeff-Com: -0.998D-04 0.196D-03-0.352D-03 0.999D-03-0.185D-02-0.256D-01
 Coeff-Com:  0.204D+00-0.511D+00 0.133D+01
 Coeff:     -0.998D-04 0.196D-03-0.352D-03 0.999D-03-0.185D-02-0.256D-01
 Coeff:      0.204D+00-0.511D+00 0.133D+01
 Gap=     0.149 Goal=   None    Shift=    0.000
 Gap=     0.938 Goal=   None    Shift=    0.000
 RMSDP=1.25D-07 MaxDP=1.01D-06 DE=-6.18D-11 OVMax= 0.00D+00

 Cycle  10  Pass 1  IDiag  1:
 E= -596.617821472952     Delta-E=       -0.000000000000 Rises=F Damp=F
 DIIS: error= 2.07D-08 at cycle  10 NSaved=  10.
 NSaved=10 IEnMin=10 EnMin= -596.617821472952     IErMin=10 ErrMin= 2.07D-08
 ErrMax= 2.07D-08  0.00D+00 EMaxC= 1.00D-01 BMatC= 1.35D-14 BMatP= 2.11D-13
 IDIUse=1 WtCom= 1.00D+00 WtEn= 0.00D+00
 Coeff-Com: -0.178D-04 0.353D-04-0.607D-04 0.319D-03-0.730D-03 0.217D-01
 Coeff-Com: -0.131D+00 0.309D+00-0.889D+00 0.169D+01
 Coeff:     -0.178D-04 0.353D-04-0.607D-04 0.319D-03-0.730D-03 0.217D-01
 Coeff:     -0.131D+00 0.309D+00-0.889D+00 0.169D+01
 Gap=     0.149 Goal=   None    Shift=    0.000
 Gap=     0.938 Goal=   None    Shift=    0.000
 RMSDP=3.95D-08 MaxDP=3.51D-07 DE=-2.27D-13 OVMax= 0.00D+00

 Cycle  11  Pass 1  IDiag  1:
 E= -596.617821472952     Delta-E=       -0.000000000000 Rises=F Damp=F
 DIIS: error= 1.39D-09 at cycle  11 NSaved=  11.
 NSaved=11 IEnMin=11 EnMin= -596.617821472952     IErMin=11 ErrMin= 1.39D-09
 ErrMax= 1.39D-09  0.00D+00 EMaxC= 1.00D-01 BMatC= 7.17D-17 BMatP= 1.35D-14
 IDIUse=1 WtCom= 1.00D+00 WtEn= 0.00D+00
 Coeff-Com:  0.573D-06-0.116D-05 0.183D-05-0.171D-04 0.418D-04-0.199D-02
 Coeff-Com:  0.125D-01-0.308D-01 0.907D-01-0.236D+00 0.117D+01
 Coeff:      0.573D-06-0.116D-05 0.183D-05-0.171D-04 0.418D-04-0.199D-02
 Coeff:      0.125D-01-0.308D-01 0.907D-01-0.236D+00 0.117D+01
 Gap=     0.149 Goal=   None    Shift=    0.000
 Gap=     0.938 Goal=   None    Shift=    0.000
 RMSDP=2.70D-09 MaxDP=2.66D-08 DE=-3.41D-13 OVMax= 0.00D+00

 SCF Done:  E(UHF) =  -596.617821473     A.U. after   11 cycles
            NFock= 11  Conv=0.27D-08     -V/T= 2.0002
 <Sx>= 0.0000 <Sy>= 0.0000 <Sz>= 1.0000 <S**2>= 2.0001 S= 1.0000
 <L.S>= 0.000000000000E+00
 KE= 5.964968363869D+02 PE=-1.424360974636D+03 EE= 2.276554714166D+02
 Annihilation of the first spin contaminant:
 S**2 before annihilation     2.0001,   after     2.0000
 Leave Link  502 at Mon Mar 28 14:39:01 2022, MaxMem=  9663676416 cpu:               3.7 elap:               0.1
 (Enter /nopt/nrel/apps/gaussian/g16C_1/g16/l801.exe)
 Windowed orbitals will be sorted by symmetry type.
 ExpMin= 1.61D-02 ExpMax= 1.72D+03 ExpMxC= 1.72D+03 IAcc=3 IRadAn=         5 AccDes= 0.00D+00
 HarFok:  IExCor=  205 AccDes= 0.00D+00 IRadAn=         5 IDoV=-2 UseB2=F ITyADJ=14
 ICtDFT= 12500011 ScaDFX=  1.000000  1.000000  1.000000  1.000000
 Largest valence mixing into a core orbital is  9.76D-04
 Largest core mixing into a valence orbital is  8.08D-04
 Range of M.O.s used for correlation:    10    18
 NBasis=    18 NAE=    11 NBE=     9 NFC=     9 NFV=     0
 NROrb=      9 NOA=     2 NOB=     0 NVA=     7 NVB=     9
 Leave Link  801 at Mon Mar 28 14:39:02 2022, MaxMem=  9663676416 cpu:               2.1 elap:               0.1
 (Enter /nopt/nrel/apps/gaussian/g16C_1/g16/l804.exe)
 Open-shell transformation, MDV=  9663676416 ITran=4 ISComp=2.
 Unit  1 TFree=         22650 TCopy=          3942.
 Semi-Direct transformation.
 ModeAB=           2 MOrb=             2 LenV=    9663554215
 LASXX=          158 LTotXX=         158 LenRXX=         158
 LTotAB=         269 MaxLAS=        3078 LenRXY=        3078
 NonZer=        3510 LenScr=      785920 LnRSAI=           0
 LnScr1=           0 LExtra=      223048 Total=      1012204
 MaxDsk= 34359738368 SrtSym=           F ITran=            4
 DoSDTr:  NPSUse= 36
 JobTyp=1 Pass  1:  I=   1 to   2.
 (rs|ai) integrals will be sorted in core.
 Complete sort for first half transformation.
 First half transformation complete.
 Complete sort for second half transformation.
 Second half transformation complete.
 Spin components of T(2) and E(2):
     alpha-alpha T2 =       0.8877760461D-05 E2=     -0.7597046763D-05
     alpha-beta  T2 =       0.0000000000D+00 E2=      0.0000000000D+00
     beta-beta   T2 =       0.0000000000D+00 E2=      0.0000000000D+00
 ANorm=    0.1000004439D+01
 E2 =    -0.7597046763D-05 EUMP2 =    -0.59661782907000D+03
 Leave Link  804 at Mon Mar 28 14:39:02 2022, MaxMem=  9663676416 cpu:               2.3 elap:               0.1
 (Enter /nopt/nrel/apps/gaussian/g16C_1/g16/l913.exe)
 CIDS:  MDV=  9663676416.
 Frozen-core window:  NFC=   9 NFV=   0.
 IFCWin=0 IBDFC=1 NFBD=     0     0 NFCmp=     0     0 NFFFC=     0     0
 Using original routines for 1st iteration.
 Using DD4UQ or CC4UQ for 2nd and later iterations.
 Keep R2 and R3 ints in memory in symmetry-blocked form, NReq=7228199.
 FoFCou: FMM=F IPFlag=           0 FMFlag=           0 FMFlg1=           0
         NFxFlg=           0 DoJE=F BraDBF=F KetDBF=F FulRan=T
         wScrn=  0.000000 ICntrl=       600 IOpCl=  0 I1Cent=           0 NGrid=           0
         NMat0=    1 NMatS0=    171 NMatT0=    0 NMatD0=    1 NMtDS0=    0 NMtDT0=    0
 Petite list used in FoFCou.
 CIDS: In Core Option IDoMem=           1.
 Coupled Cluster theory with single and double substitutions
 ===========================================================
 Iterations= 200 Convergence= 0.100D-06
 Produce multiple copies of IABC intergrals
 Iteration Nr.   1
 **********************
 DD1Dir will call FoFMem   1 times, MxPair=         2
 NAB=     0 NAA=     1 NBB=     0.
 MP4(R+Q)=  0.67444761D-10
 Maximum subspace dimension=  5
 A-vector RMS=  2.9020465D-04 Max=  7.3094452D-04 conv= 1.00D-05.
 RLE energy=       -0.0000116001
 E3=       -0.26216766D-05        EUMP3=      -0.59661783169D+03
 E4(DQ)=   -0.91346544D-06        UMP4(DQ)=   -0.59661783261D+03
 E4(SDQ)=  -0.94511324D-06        UMP4(SDQ)=  -0.59661783264D+03
 VARIATIONAL ENERGIES WITH THE FIRST-ORDER WAVEFUNCTION:
 DE(Corr)= -0.10218679E-04 E(Corr)=     -596.61783169    
 NORM(A)=   0.10000104D+01
 Iteration Nr.   2
 **********************
 DD1Dir will call FoFMem   1 times, MxPair=         2
 NAB=     0 NAA=     1 NBB=     0.
 A-vector RMS=  4.2449657D-05 Max=  8.3451064D-05 conv= 1.00D-05.
 RLE energy=       -0.0000117238
 DE(Corr)= -0.11661782E-04 E(CORR)=     -596.61783313     Delta=-1.44D-06
 NORM(A)=   0.10000107D+01
 Iteration Nr.   3
 **********************
 DD1Dir will call FoFMem   1 times, MxPair=         2
 NAB=     0 NAA=     1 NBB=     0.
 A-vector RMS=  1.2970672D-05 Max=  3.7631479D-05 conv= 1.00D-05.
 RLE energy=       -0.0000117279
 DE(Corr)= -0.11723841E-04 E(CORR)=     -596.61783320     Delta=-6.21D-08
 NORM(A)=   0.10000107D+01
 Iteration Nr.   4
 **********************
 DD1Dir will call FoFMem   1 times, MxPair=         2
 NAB=     0 NAA=     1 NBB=     0.
 A-vector RMS=  3.1733483D-06 Max=  9.9778264D-06 conv= 1.00D-05.
 RLE energy=       -0.0000117281
 DE(Corr)= -0.11727917E-04 E(CORR)=     -596.61783320     Delta=-4.08D-09
 NORM(A)=   0.10000107D+01
 CI/CC converged in    4 iterations to DelEn=-4.08D-09 Conv= 1.00D-07 ErrA1= 3.17D-06 Conv= 1.00D-05
 Wavefunction amplitudes converged. E(Corr)=     -596.61783320    
 Largest amplitude= 3.30D-03
 Discarding MO integrals.
 Leave Link  913 at Mon Mar 28 14:39:02 2022, MaxMem=  9663676416 cpu:               3.2 elap:               0.1
 (Enter /nopt/nrel/apps/gaussian/g16C_1/g16/l601.exe)
 Copying SCF densities to generalized density rwf, IOpCl= 1 IROHF=0.

 **********************************************************************

            Population analysis using the SCF Density.

 **********************************************************************

 Orbital symmetries:
 Alpha Orbitals:
       Occupied  (SG) (SG) (SG) (PI) (PI) (SG) (SG) (PI) (PI) (SG)
                 (SG)
       Virtual   (PI) (PI) (SG) (SG) (PI) (PI) (SG)
 Beta  Orbitals:
       Occupied  (SG) (SG) (PI) (PI) (SG) (SG) (PI) (PI) (SG)
       Virtual   (SG) (PI) (PI) (SG) (SG) (PI) (PI) (SG) (SG)
 The electronic state is 3-SG.
 Alpha  occ. eigenvalues -- -132.62082 -14.41932 -11.43439 -11.43418 -11.43418
 Alpha  occ. eigenvalues --   -1.75004  -0.95307  -0.95160  -0.95160  -0.53689
 Alpha  occ. eigenvalues --   -0.13533
 Alpha virt. eigenvalues --    0.01400   0.01400   0.03322   0.07864   0.10328
 Alpha virt. eigenvalues --    0.10328   0.14382
  Beta  occ. eigenvalues -- -132.61989 -14.41774 -11.43367 -11.43367 -11.43338
  Beta  occ. eigenvalues --   -1.74504  -0.94971  -0.94971  -0.94898
  Beta virt. eigenvalues --   -0.01104   0.03189   0.03189   0.03936   0.07961
  Beta virt. eigenvalues --    0.12686   0.12686   0.12823   0.34054
          Condensed to atoms (all electrons):
               1          2
     1  H    0.874688   0.045404
     2  K    0.045404  19.034504
          Atomic-Atomic Spin Densities.
               1          2
     1  H    0.874681   0.045401
     2  K    0.045401   1.034516
 Mulliken charges and spin densities:
               1          2
     1  H    0.079908   0.920083
     2  K   -0.079908   1.079917
 Sum of Mulliken charges =  -0.00000   2.00000
 Mulliken charges and spin densities with hydrogens summed into heavy atoms:
               1          2
     2  K   -0.000000   2.000000
 N-N= 3.590845359814D+00 E-N=-1.424360974605D+03  KE= 5.964968363869D+02
 Symmetry A1   KE= 4.713239687949D+02
 Symmetry A2   KE= 0.000000000000D+00
 Symmetry B1   KE= 6.258643379600D+01
 Symmetry B2   KE= 6.258643379600D+01
 Symmetry A1   SP= 2.000000000000D+00
 Symmetry A2   SP= 0.000000000000D+00
 Symmetry B1   SP=-2.268675779851D-15
 Symmetry B2   SP=-1.812613371644D-16

 Atomic contributions to Alpha molecular orbitals:
 Alpha occ 1 OE=-132.621 is K2-s=1.0000
 Alpha occ 2 OE=-14.419 is K2-s=1.0000
 Alpha occ 3 OE=-11.434 is K2-p=1.0000
 Alpha occ 4 OE=-11.434 is K2-p=1.0000
 Alpha occ 5 OE=-11.434 is K2-p=1.0000
 Alpha occ 6 OE=-1.750 is K2-s=0.9998
 Alpha occ 7 OE=-0.953 is K2-p=0.9986
 Alpha occ 8 OE=-0.952 is K2-p=1.0000
 Alpha occ 9 OE=-0.952 is K2-p=1.0000
 Alpha occ 10 OE=-0.537 is H1-s=0.9095
 Alpha occ 11 OE=-0.135 is K2-s=0.8724 K2-p=0.1183
 Alpha vir 12 OE=0.014 is K2-p=1.0000
 Alpha vir 13 OE=0.014 is K2-p=1.0000
 Alpha vir 14 OE=0.033 is K2-p=0.8143 K2-s=0.1693
 Alpha vir 15 OE=0.079 is K2-s=0.8769 K2-p=0.1189
 Alpha vir 16 OE=0.103 is K2-p=1.0000
 Alpha vir 17 OE=0.103 is K2-p=1.0000
 Alpha vir 18 OE=0.144 is K2-p=0.8931

 Atomic contributions to Beta  molecular orbitals:
 Beta  occ 1 OE=-132.620 is K2-s=1.0000
 Beta  occ 2 OE=-14.418 is K2-s=1.0000
 Beta  occ 3 OE=-11.434 is K2-p=1.0000
 Beta  occ 4 OE=-11.434 is K2-p=1.0000
 Beta  occ 5 OE=-11.433 is K2-p=1.0000
 Beta  occ 6 OE=-1.745 is K2-s=0.9998
 Beta  occ 7 OE=-0.950 is K2-p=1.0000
 Beta  occ 8 OE=-0.950 is K2-p=1.0000
 Beta  occ 9 OE=-0.949 is K2-p=0.9997
 Beta  vir 10 OE=-0.011 is K2-s=0.6482 K2-p=0.2696
 Beta  vir 11 OE=0.032 is K2-p=1.0000
 Beta  vir 12 OE=0.032 is K2-p=1.0000
 Beta  vir 13 OE=0.039 is K2-p=0.7166 K2-s=0.2783
 Beta  vir 14 OE=0.080 is K2-s=0.6222 K2-p=0.3037
 Beta  vir 15 OE=0.127 is K2-p=1.0000
 Beta  vir 16 OE=0.127 is K2-p=1.0000
 Beta  vir 17 OE=0.128 is K2-p=0.5339 K2-s=0.4259
 Beta  vir 18 OE=0.341 is H1-s=0.7985 K2-p=0.1762
 
 Leave Link  601 at Mon Mar 28 14:39:02 2022, MaxMem=  9663676416 cpu:               1.2 elap:               0.1
 (Enter /nopt/nrel/apps/gaussian/g16C_1/g16/l9999.exe)

 Test job not archived.
 1\1\GINC-R102U34\SP\UCCSD-FC\Gen\H1K1(3)\USER\28-Mar-2022\0\\#P CC
 SD(MaxCyc=200,SaveAmplitudes,ReadAmplitudes)/GEN sp pop=AllOrbitals io
 p(3/33=1,3/36=-1)\\test\\0,3\H,0,0.,0.,0.\K,0,0.,0.,2.8\\Version=ES64L
 -G16RevC.01\State=3-SG\HF=-596.6178215\MP2=-596.6178291\MP3=-596.61783
 17\MP4D=-596.6178326\MP4DQ=-596.6178326\MP4SDQ=-596.6178326\CCSD=-596.
 6178332\S2=2.000089\S2-1=0.\S2A=2.\RMSD=2.701e-09\PG=C*V [C*(H1K1)]\\@


 OPTIMIST - A PESSIMIST WHO LACKS EXPERIENCE
 Job cpu time:       0 days  0 hours  0 minutes 31.0 seconds.
 Elapsed time:       0 days  0 hours  0 minutes  1.2 seconds.
 File lengths (MBytes):  RWF=     13 Int=      0 D2E=      0 Chk=      1 Scr=      1
 Normal termination of Gaussian 16 at Mon Mar 28 14:39:02 2022.
