 Entering Gaussian System, Link 0=g16
 Initial command:
 /nopt/nrel/apps/gaussian/g16C_1/g16/l1.exe "/lustre/eaglefs/scratch/user/qc/nah-dissc/nah-1-ccsd-3.2-sto3g/Gau-28163.inp" -scrdir="/lustre/eaglefs/scratch/user/qc/nah-dissc/nah-1-ccsd-3.2-sto3g/"
 Default is to use a total of  36 processors:
                               36 via shared-memory
                                1 via Linda
 Entering Link 1 = /nopt/nrel/apps/gaussian/g16C_1/g16/l1.exe PID=     28164.
  
 Copyright (c) 1988-2019, Gaussian, Inc.  All Rights Reserved.
  
 This is part of the Gaussian(R) 16 program.  It is based on
 the Gaussian(R) 09 system (copyright 2009, Gaussian, Inc.),
 the Gaussian(R) 03 system (copyright 2003, Gaussian, Inc.),
 the Gaussian(R) 98 system (copyright 1998, Gaussian, Inc.),
 the Gaussian(R) 94 system (copyright 1995, Gaussian, Inc.),
 the Gaussian 92(TM) system (copyright 1992, Gaussian, Inc.),
 the Gaussian 90(TM) system (copyright 1990, Gaussian, Inc.),
 the Gaussian 88(TM) system (copyright 1988, Gaussian, Inc.),
 the Gaussian 86(TM) system (copyright 1986, Carnegie Mellon
 University), and the Gaussian 82(TM) system (copyright 1983,
 Carnegie Mellon University). Gaussian is a federally registered
 trademark of Gaussian, Inc.
  
 This software contains proprietary and confidential information,
 including trade secrets, belonging to Gaussian, Inc.
  
 This software is provided under written license and may be
 used, copied, transmitted, or stored only in accord with that
 written license.
  
 The following legend is applicable only to US Government
 contracts under FAR:
  
                    RESTRICTED RIGHTS LEGEND
  
 Use, reproduction and disclosure by the US Government is
 subject to restrictions as set forth in subparagraphs (a)
 and (c) of the Commercial Computer Software - Restricted
 Rights clause in FAR 52.227-19.
  
 Gaussian, Inc.
 340 Quinnipiac St., Bldg. 40, Wallingford CT 06492
  
  
 ---------------------------------------------------------------
 Warning -- This program may not be used in any manner that
 competes with the business of Gaussian, Inc. or will provide
 assistance to any competitor of Gaussian, Inc.  The licensee
 of this program is prohibited from giving any competitor of
 Gaussian, Inc. access to this program.  By using this program,
 the user acknowledges that Gaussian, Inc. is engaged in the
 business of creating and licensing software in the field of
 computational chemistry and represents and warrants to the
 licensee that it is not a competitor of Gaussian, Inc. and that
 it will not use this program in any manner prohibited above.
 ---------------------------------------------------------------
  

 Cite this work as:
 Gaussian 16, Revision C.01,
 M. J. Frisch, G. W. Trucks, H. B. Schlegel, G. E. Scuseria, 
 M. A. Robb, J. R. Cheeseman, G. Scalmani, V. Barone, 
 G. A. Petersson, H. Nakatsuji, X. Li, M. Caricato, A. V. Marenich, 
 J. Bloino, B. G. Janesko, R. Gomperts, B. Mennucci, H. P. Hratchian, 
 J. V. Ortiz, A. F. Izmaylov, J. L. Sonnenberg, D. Williams-Young, 
 F. Ding, F. Lipparini, F. Egidi, J. Goings, B. Peng, A. Petrone, 
 T. Henderson, D. Ranasinghe, V. G. Zakrzewski, J. Gao, N. Rega, 
 G. Zheng, W. Liang, M. Hada, M. Ehara, K. Toyota, R. Fukuda, 
 J. Hasegawa, M. Ishida, T. Nakajima, Y. Honda, O. Kitao, H. Nakai, 
 T. Vreven, K. Throssell, J. A. Montgomery, Jr., J. E. Peralta, 
 F. Ogliaro, M. J. Bearpark, J. J. Heyd, E. N. Brothers, K. N. Kudin, 
 V. N. Staroverov, T. A. Keith, R. Kobayashi, J. Normand, 
 K. Raghavachari, A. P. Rendell, J. C. Burant, S. S. Iyengar, 
 J. Tomasi, M. Cossi, J. M. Millam, M. Klene, C. Adamo, R. Cammi, 
 J. W. Ochterski, R. L. Martin, K. Morokuma, O. Farkas, 
 J. B. Foresman, and D. J. Fox, Gaussian, Inc., Wallingford CT, 2019.
 
 ******************************************
 Gaussian 16:  ES64L-G16RevC.01  3-Jul-2019
                28-Mar-2022 
 ******************************************
 %chk=molecule
 Default route: CacheSize=180224 MaxDisk=256GB
 ----------------------------------------------------------------------
 #P CCSD(MaxCyc=200,SaveAmplitudes,ReadAmplitudes)/GEN sp pop=AllOrbita
 ls iop(3/33=1,3/36=-1)
 ----------------------------------------------------------------------
 1/4=180224,38=1,172=1/1;
 2/4=180224,12=2,17=6,18=5,40=1/2;
 3/4=180224,5=7,11=9,25=1,30=1,33=1,36=-1/1,2,3;
 4/4=180224/1;
 5/4=180224,5=2,38=5/2;
 8/4=180224,6=4,9=120000,10=1,24=1/1,4;
 9/4=180224,5=7,6=200,77=1/13;
 6/4=180224,7=2,8=2,9=2,10=2,96=-1/1;
 99/4=180224,5=1,9=1/99;
 Leave Link    1 at Mon Mar 28 14:18:55 2022, MaxMem=           0 cpu:               3.0 elap:               0.1
 (Enter /nopt/nrel/apps/gaussian/g16C_1/g16/l101.exe)
 ----
 test
 ----
 Symbolic Z-matrix:
 Charge =  0 Multiplicity = 1
 H                     0.        0.        0. 
 Na                    0.        0.        3.2 
 
 ITRead=  0  0
 MicOpt= -1 -1
 NAtoms=      2 NQM=        2 NQMF=       0 NMMI=      0 NMMIF=      0
                NMic=       0 NMicF=      0.
                    Isotopes and Nuclear Properties:
 (Nuclear quadrupole moments (NQMom) in fm**2, nuclear magnetic moments (NMagM)
  in nuclear magnetons)

  Atom         1           2
 IAtWgt=           1          23
 AtmWgt=   1.0078250  22.9897697
 NucSpn=           1           3
 AtZEff=  -0.0000000  -0.0000000
 NQMom=    0.0000000  10.4000000
 NMagM=    2.7928460   2.2175200
 AtZNuc=   1.0000000  11.0000000
 Leave Link  101 at Mon Mar 28 14:18:55 2022, MaxMem=  9663676416 cpu:               3.1 elap:               0.1
 (Enter /nopt/nrel/apps/gaussian/g16C_1/g16/l202.exe)
                          Input orientation:                          
 ---------------------------------------------------------------------
 Center     Atomic      Atomic             Coordinates (Angstroms)
 Number     Number       Type             X           Y           Z
 ---------------------------------------------------------------------
      1          1           0        0.000000    0.000000    0.000000
      2         11           0        0.000000    0.000000    3.200000
 ---------------------------------------------------------------------
 Stoichiometry    HNa
 Framework group  C*V[C*(HNa)]
 Deg. of freedom     1
 Full point group                 C*V     NOp   4
 Largest Abelian subgroup         C2V     NOp   4
 Largest concise Abelian subgroup C1      NOp   1
                         Standard orientation:                         
 ---------------------------------------------------------------------
 Center     Atomic      Atomic             Coordinates (Angstroms)
 Number     Number       Type             X           Y           Z
 ---------------------------------------------------------------------
      1          1           0        0.000000    0.000000   -2.933333
      2         11           0        0.000000    0.000000    0.266667
 ---------------------------------------------------------------------
 Rotational constants (GHZ):           0.0000000          51.1169807          51.1169807
 Leave Link  202 at Mon Mar 28 14:18:55 2022, MaxMem=  9663676416 cpu:               0.9 elap:               0.1
 (Enter /nopt/nrel/apps/gaussian/g16C_1/g16/l301.exe)
 General basis read from cards:  (5D, 7F)
                         Coordinates in L301:                         
 ---------------------------------------------------------------------
 Center     Atomic      Atomic             Coordinates (Angstroms)
 Number     Number       Type             X           Y           Z
 ---------------------------------------------------------------------
      1          1           0        0.000000    0.000000   -2.933333
      2         11           0        0.000000    0.000000    0.266667
 ---------------------------------------------------------------------
 Centers:       1
 STO-3G
 ****
 Centers:       2
 STO-3G
 ****
 FixB: optimizing general contractions.
 Ernie: Thresh=  0.10000D-02 Tol=  0.10000D-05 Strict=F.
 IA=     1 ShT= 0 ShC= 0 NL=   1 NS=   0.
 IA=     1 L=0 SC=0 ISt=    0 NBk=    0 NP=    0 IndPr=    0.
 IA=     2 ShT= 0 ShC= 0 NL=   1 NS=   0.
 IA=     2 L=0 SC=0 ISt=    0 NBk=    0 NP=    0 IndPr=    0.
 IA=     2 ShT= 1 ShC= 0 NL=   2 NS=   0.
 IA=     2 L=1 SC=0 ISt=    1 NBk=    2 NP=    6 IndPr=    0.
 DoElim1:  L=1 select primitive    1 from    2 using    1 C=-1.00D-01
 DoElim2:  L=1 select primitive    6 from    1 using    2 C= 9.00D-01
 DoElim1:  L=1 select primitive    1 from    2 using    1 C= 1.56D-01
 DoElim2:  L=1 select primitive    5 from    1 using    2 C= 5.95D-01
 Delete L=1 primitive    4 from    2 C=  0.00D+00.
 Delete L=1 primitive    2 from    2 C=  0.00D+00.
 Delete L=1 primitive    1 from    2 C=  0.00D+00.
 Delete L=1 primitive    6 from    1 C=  0.00D+00.
 Delete L=1 primitive    5 from    1 C=  0.00D+00.
 Delete L=1 primitive    3 from    1 C=  0.00D+00.
 IA=     2 L=1 SC=0 ISt=    0 NBk=    0 NP=    0 IndPr=    6.
 LdAtmC:  AtmChg=     1.000000    11.000000
 AtZEff=     -1.0000000    -10.0400000
 NEqShl: 
              1            2            3            4
     1            1            1            1            1
     2            2            2            2            2
     3            3            3            3            3
     4            4            4            4            4
 NEqBas: 
              1            2            3            4
     1            1            1            1            1
     2            2            2            2            2
     3            3            3            3            3
     4            4           -4           -4            4
     5            5           -5            5           -5
     6            6            6            6            6
     7            7            7            7            7
     8            8           -8           -8            8
     9            9           -9            9           -9
    10           10           10           10           10
 There are     6 symmetry adapted cartesian basis functions of A1  symmetry.
   1         1   1   1   1
   2         2   2   2   2
   3         3   3   3   3
   4         6   6   6   6
   5         7   7   7   7
   6        10  10  10  10
 There are     0 symmetry adapted cartesian basis functions of A2  symmetry.
 There are     2 symmetry adapted cartesian basis functions of B1  symmetry.
   7         4   4   4   4
   8         8   8   8   8
 There are     2 symmetry adapted cartesian basis functions of B2  symmetry.
   9         5   5   5   5
  10         9   9   9   9
 Order= 1 2 4 3
 Reordered character table:
              1            2            3            4            5
     1            1            1            1            1            1
     2            2            1            1           -1           -1
     3            4            1           -1           -1            1
     4            3            1           -1            1           -1
 NEqShl: 
              1            2            3            4
     1            1            1            1            1
     2            2            2            2            2
     3            3            3            3            3
     4            4            4            4            4
 NEqBas: 
              1            2            3            4
     1            1            1            1            1
     2            2            2            2            2
     3            3            3            3            3
     4            4           -4           -4            4
     5            5           -5            5           -5
     6            6            6            6            6
     7            7            7            7            7
     8            8           -8           -8            8
     9            9           -9            9           -9
    10           10           10           10           10
 There are     6 symmetry adapted basis functions of A1  symmetry.
   1         1   1   1   1
   2         2   2   2   2
   3         3   3   3   3
   4         6   6   6   6
   5         7   7   7   7
   6        10  10  10  10
 There are     0 symmetry adapted basis functions of A2  symmetry.
 There are     2 symmetry adapted basis functions of B1  symmetry.
   7         4   4   4   4
   8         8   8   8   8
 There are     2 symmetry adapted basis functions of B2  symmetry.
   9         5   5   5   5
  10         9   9   9   9
 Order= 1 2 4 3
 Reordered character table:
              1            2            3            4            5
     1            1            1            1            1            1
     2            2            1            1           -1           -1
     3            4            1           -1           -1            1
     4            3            1           -1            1           -1
    10 basis functions,    30 primitive gaussians,    10 cartesian basis functions
     6 alpha electrons        6 beta electrons
       nuclear repulsion energy         1.8190466625 Hartrees.
 IS=     1 IAt=     1 ISR=     1 T=0 IP=      1 IndIP=      1 IndIPD=      0 C=  2.769344D-01  0.000000D+00                             NZ=T
 IS=     1 IAt=     1 ISR=     1 T=0 IP=      2 IndIP=      2 IndIPD=      1 C=  2.678389D-01  0.000000D+00                             NZ=T
 IS=     1 IAt=     1 ISR=     1 T=0 IP=      3 IndIP=      3 IndIPD=      2 C=  8.347367D-02  0.000000D+00                             NZ=T
 IS=     2 IAt=     2 ISR=     1 T=0 IP=      1 IndIP=      4 IndIPD=      0 C=  6.931343D+00  0.000000D+00                             NZ=T
 IS=     2 IAt=     2 ISR=     1 T=0 IP=      2 IndIP=      5 IndIPD=      1 C=  6.703693D+00  0.000000D+00                             NZ=T
 IS=     2 IAt=     2 ISR=     1 T=0 IP=      3 IndIP=      6 IndIPD=      2 C=  2.089248D+00  0.000000D+00                             NZ=T
 IS=     3 IAt=     2 ISR=     2 T=1 IP=      1 IndIP=      7 IndIPD=      0 C= -4.605140D-01  4.984520D+00                             NZ=T
 IS=     3 IAt=     2 ISR=     2 T=1 IP=      2 IndIP=      8 IndIPD=      1 C=  6.159747D-01  3.134400D+00                             NZ=T
 IS=     3 IAt=     2 ISR=     2 T=1 IP=      3 IndIP=      9 IndIPD=      2 C=  4.648853D-01  4.965416D-01                             NZ=T
 IS=     4 IAt=     2 ISR=     3 T=1 IP=      1 IndIP=     10 IndIPD=      0 C= -2.098948D-01  2.460950D-02                             NZ=T
 IS=     4 IAt=     2 ISR=     3 T=1 IP=      2 IndIP=     11 IndIPD=      1 C=  8.276745D-02  2.805074D-01                             NZ=T
 IS=     4 IAt=     2 ISR=     3 T=1 IP=      3 IndIP=     12 IndIPD=      2 C=  1.634647D-01  6.740855D-02                             NZ=T
 IExCor=    0 DFT=F Ex=HF Corr=None ExCW=0 ScaHFX=  1.000000
 ScaDFX=  1.000000  1.000000  1.000000  1.000000 ScalE2=  1.000000  1.000000
 IRadAn=      5 IRanWt=     -1 IRanGd=            0 ICorTp=0 IEmpDi=  4
 NAtoms=    2 NActive=    2 NUniq=    2 SFac= 1.00D+00 NAtFMM=   60 NAOKFM=F Big=F
 Integral buffers will be    131072 words long.
 Raffenetti 1 integral format.
 Two-electron integral symmetry is turned on.
 Leave Link  301 at Mon Mar 28 14:18:56 2022, MaxMem=  9663676416 cpu:               2.2 elap:               0.1
 (Enter /nopt/nrel/apps/gaussian/g16C_1/g16/l302.exe)
 NPDir=0 NMtPBC=     1 NCelOv=     1 NCel=       1 NClECP=     1 NCelD=      1
         NCelK=      1 NCelE2=     1 NClLst=     1 CellRange=     0.0.
 One-electron integrals computed using PRISM.
 One-electron integral symmetry used in STVInt
 Entering OneElI...
 Calculate overlap and kinetic energy integrals
    NBasis =  10  MinDer = 0  MaxDer = 0
 Requested accuracy = 0.1000D-12
 Symmetry will be used
 PrmmSu-InSpLW:  IPartL=    0 NPrtUS=   36 NPrtUL=    1 DoSpLW=F IThBeg=    0 IThEnd=   35 NThAct=   36.
 PrSmSu:  IncTry=   512 NBBP=             10 NTPThr=   100 NPartT=   36 Incr=           1 LDynOK=F GPUOK=F.
 PrsmSu:  NPrtUS=  36 ThrOK=T IAlg=1 LenDen=           0 ISkipM=0 DoSpLW=F IThBeg=    0 IThEnd=   35.
 Prism:   IPart=     0 DynPar=F LinDyn=F Incr=           1.
 PRISM was handed   268433954 working-precision words and    10 shell-pairs
 PRISM was handed   268433954 working-precision words and    10 shell-pairs
 PRISM was handed   268433954 working-precision words and    10 shell-pairs
 PRISM was handed   268433954 working-precision words and    10 shell-pairs
 PRISM was handed   268433954 working-precision words and    10 shell-pairs
 PRISM was handed   268433954 working-precision words and    10 shell-pairs
 PRISM was handed   268433954 working-precision words and    10 shell-pairs
 PRISM was handed   268433954 working-precision words and    10 shell-pairs
 PRISM was handed   268433954 working-precision words and    10 shell-pairs
 IPart=  8 NShTot=           0 NBatch=           0 AvBLen=         0.0
 IPart= 15 NShTot=           0 NBatch=           0 AvBLen=         0.0
 IPart= 10 NShTot=           0 NBatch=           0 AvBLen=         0.0
 IPart= 11 NShTot=           0 NBatch=           0 AvBLen=         0.0
 IPart= 35 NShTot=           0 NBatch=           0 AvBLen=         0.0
 IPart= 32 NShTot=           0 NBatch=           0 AvBLen=         0.0
 IPart=  7 NShTot=           0 NBatch=           0 AvBLen=         0.0
 IPart= 12 NShTot=           0 NBatch=           0 AvBLen=         0.0
 PRISM was handed   268433954 working-precision words and    10 shell-pairs
 PRISM was handed   268433954 working-precision words and    10 shell-pairs
 PRISM was handed   268433954 working-precision words and    10 shell-pairs
 PRISM was handed   268433954 working-precision words and    10 shell-pairs
 PRISM was handed   268433954 working-precision words and    10 shell-pairs
 PRISM was handed   268433954 working-precision words and    10 shell-pairs
 PRISM was handed   268433954 working-precision words and    10 shell-pairs
 PRISM was handed   268433954 working-precision words and    10 shell-pairs
 PRISM was handed   268433954 working-precision words and    10 shell-pairs
 IPart= 21 NShTot=           0 NBatch=           0 AvBLen=         0.0
 IPart= 29 NShTot=           0 NBatch=           0 AvBLen=         0.0
 IPart= 16 NShTot=           0 NBatch=           0 AvBLen=         0.0
 IPart= 19 NShTot=           0 NBatch=           0 AvBLen=         0.0
 IPart= 20 NShTot=           0 NBatch=           0 AvBLen=         0.0
 IPart= 24 NShTot=           0 NBatch=           0 AvBLen=         0.0
 IPart= 25 NShTot=           0 NBatch=           0 AvBLen=         0.0
 IPart= 17 NShTot=           0 NBatch=           0 AvBLen=         0.0
 PRISM was handed   268433954 working-precision words and    10 shell-pairs
 IPart= 23 NShTot=           0 NBatch=           0 AvBLen=         0.0
 IPart=  2 NShTot=           2 NBatch=           2 AvBLen=         1.0
 PRISM was handed   268433954 working-precision words and    10 shell-pairs
 PRISM was handed   268433954 working-precision words and    10 shell-pairs
 PRISM was handed   268433954 working-precision words and    10 shell-pairs
 PRISM was handed   268433954 working-precision words and    10 shell-pairs
 IPart= 33 NShTot=           0 NBatch=           0 AvBLen=         0.0
 IPart= 13 NShTot=           0 NBatch=           0 AvBLen=         0.0
 PRISM was handed   268433954 working-precision words and    10 shell-pairs
 PRISM was handed   268433954 working-precision words and    10 shell-pairs
 PRISM was handed   268433954 working-precision words and    10 shell-pairs
 IPart=  3 NShTot=           0 NBatch=           0 AvBLen=         0.0
 IPart=  1 NShTot=           3 NBatch=           3 AvBLen=         1.0
 PRISM was handed   268433954 working-precision words and    10 shell-pairs
 PRISM was handed   268433954 working-precision words and    10 shell-pairs
 PRISM was handed   268433954 working-precision words and    10 shell-pairs
 IPart= 18 NShTot=           0 NBatch=           0 AvBLen=         0.0
 IPart=  6 NShTot=           0 NBatch=           0 AvBLen=         0.0
 IPart= 26 NShTot=           0 NBatch=           0 AvBLen=         0.0
 IPart=  5 NShTot=           0 NBatch=           0 AvBLen=         0.0
 IPart= 22 NShTot=           0 NBatch=           0 AvBLen=         0.0
 IPart=  0 NShTot=           5 NBatch=           5 AvBLen=         1.0
 PRISM was handed   268433954 working-precision words and    10 shell-pairs
 IPart=  9 NShTot=           0 NBatch=           0 AvBLen=         0.0
 PRISM was handed   268433954 working-precision words and    10 shell-pairs
 PRISM was handed   268433954 working-precision words and    10 shell-pairs
 PRISM was handed   268433954 working-precision words and    10 shell-pairs
 PRISM was handed   268433954 working-precision words and    10 shell-pairs
 PRISM was handed   268433954 working-precision words and    10 shell-pairs
 PRISM was handed   268433954 working-precision words and    10 shell-pairs
 IPart= 14 NShTot=           0 NBatch=           0 AvBLen=         0.0
 IPart= 28 NShTot=           0 NBatch=           0 AvBLen=         0.0
 IPart= 31 NShTot=           0 NBatch=           0 AvBLen=         0.0
 IPart=  4 NShTot=           0 NBatch=           0 AvBLen=         0.0
 IPart= 34 NShTot=           0 NBatch=           0 AvBLen=         0.0
 IPart= 30 NShTot=           0 NBatch=           0 AvBLen=         0.0
 IPart= 27 NShTot=           0 NBatch=           0 AvBLen=         0.0
 PrSmSu:  NxtVal=             37.
 *** Overlap *** 
                1             2             3             4             5 
      1  0.100000D+01
      2  0.725885D-04  0.100000D+01
      3  0.120998D-02  0.278512D+00  0.100000D+01
      4  0.000000D+00  0.000000D+00  0.000000D+00  0.100000D+01
      5  0.000000D+00  0.000000D+00  0.000000D+00  0.000000D+00  0.100000D+01
      6 -0.136853D-02  0.000000D+00  0.000000D+00  0.000000D+00  0.000000D+00
      7  0.238276D-01  0.222827D-01  0.449490D+00  0.000000D+00  0.000000D+00
      8  0.000000D+00  0.000000D+00  0.000000D+00  0.461768D+00  0.000000D+00
      9  0.000000D+00  0.000000D+00  0.000000D+00  0.000000D+00  0.461768D+00
     10 -0.382576D-01  0.000000D+00  0.000000D+00  0.000000D+00  0.000000D+00
                6             7             8             9            10 
      6  0.100000D+01
      7  0.000000D+00  0.100000D+01
      8  0.000000D+00  0.000000D+00  0.100000D+01
      9  0.000000D+00  0.000000D+00  0.000000D+00  0.100000D+01
     10  0.461768D+00  0.000000D+00  0.000000D+00  0.000000D+00  0.100000D+01
 *** Kinetic Energy *** 
                1             2             3             4             5 
      1  0.760032D+00
      2 -0.111877D-03  0.556441D+02
      3 -0.132967D-02 -0.216342D+00  0.193319D+01
      4  0.000000D+00  0.000000D+00  0.000000D+00  0.604917D+01
      5  0.000000D+00  0.000000D+00  0.000000D+00  0.000000D+00  0.604917D+01
      6  0.115289D-02  0.000000D+00  0.000000D+00  0.000000D+00  0.000000D+00
      7 -0.828202D-02 -0.231638D+00 -0.720563D-01  0.000000D+00  0.000000D+00
      8  0.000000D+00  0.000000D+00  0.000000D+00  0.652802D+00  0.000000D+00
      9  0.000000D+00  0.000000D+00  0.000000D+00  0.000000D+00  0.652802D+00
     10  0.948286D-02  0.000000D+00  0.000000D+00  0.000000D+00  0.000000D+00
                6             7             8             9            10 
      6  0.604917D+01
      7  0.000000D+00  0.304040D+00
      8  0.000000D+00  0.000000D+00  0.711196D+00
      9  0.000000D+00  0.000000D+00  0.000000D+00  0.711196D+00
     10  0.652802D+00  0.000000D+00  0.000000D+00  0.000000D+00  0.711196D+00
 Entering OneElI...
 Calculate potential energy integrals
    NBasis =  10  MinDer = 0  MaxDer = 0
 Requested accuracy = 0.1000D-12
 Symmetry will be used
 PrmmSu-InSpLW:  IPartL=    0 NPrtUS=   36 NPrtUL=    1 DoSpLW=F IThBeg=    0 IThEnd=   35 NThAct=   36.
 PrSmSu:  IncTry=   512 NBBP=             20 NTPThr=   100 NPartT=   36 Incr=           1 LDynOK=F GPUOK=F.
 PrsmSu:  NPrtUS=  36 ThrOK=T IAlg=1 LenDen=           0 ISkipM=0 DoSpLW=F IThBeg=    0 IThEnd=   35.
 Prism:   IPart=     0 DynPar=F LinDyn=F Incr=           1.
 PRISM was handed   268434005 working-precision words and    10 shell-pairs
 PRISM was handed   268434005 working-precision words and    10 shell-pairs
 PRISM was handed   268434005 working-precision words and    10 shell-pairs
 PRISM was handed   268434005 working-precision words and    10 shell-pairs
 PRISM was handed   268434005 working-precision words and    10 shell-pairs
 PRISM was handed   268434005 working-precision words and    10 shell-pairs
 PRISM was handed   268434005 working-precision words and    10 shell-pairs
 PRISM was handed   268434005 working-precision words and    10 shell-pairs
 PRISM was handed   268434005 working-precision words and    10 shell-pairs
 PRISM was handed   268434005 working-precision words and    10 shell-pairs
 PRISM was handed   268434005 working-precision words and    10 shell-pairs
 PRISM was handed   268434005 working-precision words and    10 shell-pairs
 PRISM was handed   268434005 working-precision words and    10 shell-pairs
 PRISM was handed   268434005 working-precision words and    10 shell-pairs
 PRISM was handed   268434005 working-precision words and    10 shell-pairs
 PRISM was handed   268434005 working-precision words and    10 shell-pairs
 PRISM was handed   268434005 working-precision words and    10 shell-pairs
 PRISM was handed   268434005 working-precision words and    10 shell-pairs
 PRISM was handed   268434005 working-precision words and    10 shell-pairs
 PRISM was handed   268434005 working-precision words and    10 shell-pairs
 PRISM was handed   268434005 working-precision words and    10 shell-pairs
 PRISM was handed   268434005 working-precision words and    10 shell-pairs
 PRISM was handed   268434005 working-precision words and    10 shell-pairs
 PRISM was handed   268434005 working-precision words and    10 shell-pairs
 PRISM was handed   268434005 working-precision words and    10 shell-pairs
 PRISM was handed   268434005 working-precision words and    10 shell-pairs
 PRISM was handed   268434005 working-precision words and    10 shell-pairs
 PRISM was handed   268434005 working-precision words and    10 shell-pairs
 PRISM was handed   268434005 working-precision words and    10 shell-pairs
 PRISM was handed   268434005 working-precision words and    10 shell-pairs
 PRISM was handed   268434005 working-precision words and    10 shell-pairs
 PRISM was handed   268434005 working-precision words and    10 shell-pairs
 PRISM was handed   268434005 working-precision words and    10 shell-pairs
 PRISM was handed   268434005 working-precision words and    10 shell-pairs
 PRISM was handed   268434005 working-precision words and    10 shell-pairs
 PRISM was handed   268434005 working-precision words and    10 shell-pairs
 IPart=  4 NShTot=           0 NBatch=           0 AvBLen=         0.0
 IPart= 28 NShTot=           0 NBatch=           0 AvBLen=         0.0
 IPart= 13 NShTot=           0 NBatch=           0 AvBLen=         0.0
 IPart= 30 NShTot=           0 NBatch=           0 AvBLen=         0.0
 IPart= 25 NShTot=           0 NBatch=           0 AvBLen=         0.0
 IPart= 21 NShTot=           0 NBatch=           0 AvBLen=         0.0
 IPart= 29 NShTot=           0 NBatch=           0 AvBLen=         0.0
 IPart= 24 NShTot=           0 NBatch=           0 AvBLen=         0.0
 IPart= 32 NShTot=           0 NBatch=           0 AvBLen=         0.0
 IPart= 10 NShTot=           0 NBatch=           0 AvBLen=         0.0
 IPart= 34 NShTot=           0 NBatch=           0 AvBLen=         0.0
 IPart= 20 NShTot=           0 NBatch=           0 AvBLen=         0.0
 IPart= 23 NShTot=           0 NBatch=           0 AvBLen=         0.0
 IPart= 16 NShTot=           0 NBatch=           0 AvBLen=         0.0
 IPart= 22 NShTot=           0 NBatch=           0 AvBLen=         0.0
 IPart= 26 NShTot=           0 NBatch=           0 AvBLen=         0.0
 IPart= 19 NShTot=           0 NBatch=           0 AvBLen=         0.0
 IPart=  6 NShTot=           0 NBatch=           0 AvBLen=         0.0
 IPart=  3 NShTot=           0 NBatch=           0 AvBLen=         0.0
 IPart= 27 NShTot=           0 NBatch=           0 AvBLen=         0.0
 IPart=  9 NShTot=           0 NBatch=           0 AvBLen=         0.0
 IPart= 12 NShTot=           0 NBatch=           0 AvBLen=         0.0
 IPart= 35 NShTot=           0 NBatch=           0 AvBLen=         0.0
 IPart= 17 NShTot=           0 NBatch=           0 AvBLen=         0.0
 IPart=  5 NShTot=           0 NBatch=           0 AvBLen=         0.0
 IPart= 18 NShTot=           0 NBatch=           0 AvBLen=         0.0
 IPart=  8 NShTot=           0 NBatch=           0 AvBLen=         0.0
 IPart= 15 NShTot=           0 NBatch=           0 AvBLen=         0.0
 IPart=  7 NShTot=           0 NBatch=           0 AvBLen=         0.0
 IPart= 33 NShTot=           0 NBatch=           0 AvBLen=         0.0
 IPart= 11 NShTot=           0 NBatch=           0 AvBLen=         0.0
 IPart= 14 NShTot=           0 NBatch=           0 AvBLen=         0.0
 IPart= 31 NShTot=           0 NBatch=           0 AvBLen=         0.0
 IPart=  2 NShTot=           2 NBatch=           1 AvBLen=         2.0
 IPart=  1 NShTot=           6 NBatch=           3 AvBLen=         2.0
 IPart=  0 NShTot=          12 NBatch=           6 AvBLen=         2.0
 PrSmSu:  NxtVal=             37.
 ***** Potential Energy ***** 
                1             2             3             4             5 
      1  0.304566D+01
      2  0.424454D-02  0.115615D+03
      3  0.131714D-01  0.162690D+02  0.194158D+02
      4  0.000000D+00  0.000000D+00  0.000000D+00  0.192611D+02
      5  0.000000D+00  0.000000D+00  0.000000D+00  0.000000D+00  0.192611D+02
      6 -0.121577D-01 -0.116940D-02 -0.113365D-01  0.000000D+00  0.000000D+00
      7  0.897357D-01  0.112750D+01  0.537979D+01  0.000000D+00  0.000000D+00
      8  0.000000D+00  0.000000D+00  0.000000D+00  0.552482D+01  0.000000D+00
      9  0.000000D+00  0.000000D+00  0.000000D+00  0.000000D+00  0.552482D+01
     10 -0.137378D+00 -0.114669D-03 -0.797163D-02  0.000000D+00  0.000000D+00
                6             7             8             9            10 
      6  0.192628D+02
      7 -0.824918D-02  0.658400D+01
      8  0.000000D+00  0.000000D+00  0.659037D+01
      9  0.000000D+00  0.000000D+00  0.000000D+00  0.659037D+01
     10  0.552670D+01 -0.315675D-01  0.000000D+00  0.000000D+00  0.660279D+01
 ****** Core Hamiltonian ****** 
                1             2             3             4             5 
      1 -0.228563D+01
      2 -0.435641D-02 -0.599713D+02
      3 -0.145011D-01 -0.164854D+02 -0.174826D+02
      4  0.000000D+00  0.000000D+00  0.000000D+00 -0.132119D+02
      5  0.000000D+00  0.000000D+00  0.000000D+00  0.000000D+00 -0.132119D+02
      6  0.133106D-01  0.116940D-02  0.113365D-01  0.000000D+00  0.000000D+00
      7 -0.980177D-01 -0.135914D+01 -0.545185D+01  0.000000D+00  0.000000D+00
      8  0.000000D+00  0.000000D+00  0.000000D+00 -0.487202D+01  0.000000D+00
      9  0.000000D+00  0.000000D+00  0.000000D+00  0.000000D+00 -0.487202D+01
     10  0.146861D+00  0.114669D-03  0.797163D-02  0.000000D+00  0.000000D+00
                6             7             8             9            10 
      6 -0.132136D+02
      7  0.824918D-02 -0.627996D+01
      8  0.000000D+00  0.000000D+00 -0.587918D+01
      9  0.000000D+00  0.000000D+00  0.000000D+00 -0.587918D+01
     10 -0.487390D+01  0.315675D-01  0.000000D+00  0.000000D+00 -0.589160D+01
 SVDSVc IOpt=   1 NormSV=T IR=1
 SVDSVc V= 1.54D+00 1.46D+00 1.01D+00 9.74D-01 5.37D-01 4.81D-01
 SVDSVc IOpt=   1 NormSV=T IR=3
 SVDSVc V= 1.46D+00 5.38D-01
 SVDSVc IOpt=   1 NormSV=T IR=4
 SVDSVc V= 1.46D+00 5.38D-01
 TstOVc:  Largest diagonal error= 1.11D-15 IB=1 I=    5.
 TstOVc:  Largest same sym error= 2.84D-15 IB=1 I=    3 J=    2.
 TstOVc:  Largest diff sym error= 0.00D+00 IB=0 JB=0 I=    0 J=    0.
 Orthogonalized basis functions: 
                 1             2             3             4             5 
      1   0.231450D-01 -0.496892D-01  0.893609D+00  0.440035D+00  0.764256D-01
      2   0.311197D+00  0.471007D-02 -0.371343D+00  0.775036D+00  0.800216D-02
      3   0.563959D+00  0.745825D-02 -0.260633D-01 -0.340407D-01 -0.140769D-01
      4   0.000000D+00  0.000000D+00  0.000000D+00  0.000000D+00  0.000000D+00
      5   0.000000D+00  0.000000D+00  0.000000D+00  0.000000D+00  0.000000D+00
      6  -0.548231D-02  0.582422D+00  0.740801D-01  0.364992D-01 -0.961899D+00
      7   0.483853D+00  0.490529D-02  0.227353D+00 -0.479444D+00  0.934324D-02
      8   0.000000D+00  0.000000D+00  0.000000D+00  0.000000D+00  0.000000D+00
      9   0.000000D+00  0.000000D+00  0.000000D+00  0.000000D+00  0.000000D+00
     10  -0.633513D-02  0.584404D+00  0.356771D-02 -0.749062D-03  0.965173D+00
                 6             7             8             9            10 
      1   0.385178D-01  0.000000D+00  0.000000D+00  0.000000D+00  0.000000D+00
      2  -0.514217D+00  0.000000D+00  0.000000D+00  0.000000D+00  0.000000D+00
      3   0.102847D+01  0.000000D+00  0.000000D+00  0.000000D+00  0.000000D+00
      4   0.000000D+00  0.584852D+00  0.963829D+00  0.000000D+00  0.000000D+00
      5   0.000000D+00  0.000000D+00  0.000000D+00  0.584852D+00  0.963829D+00
      6  -0.115586D-01  0.000000D+00  0.000000D+00  0.000000D+00  0.000000D+00
      7  -0.869819D+00  0.000000D+00  0.000000D+00  0.000000D+00  0.000000D+00
      8   0.000000D+00  0.584852D+00 -0.963829D+00  0.000000D+00  0.000000D+00
      9   0.000000D+00  0.000000D+00  0.000000D+00  0.584852D+00 -0.963829D+00
     10   0.131143D-01  0.000000D+00  0.000000D+00  0.000000D+00  0.000000D+00
 NBasis=    10 RedAO= T EigKep=  4.81D-01  NBF=     6     0     2     2
 NBsUse=    10 1.00D-06 EigRej= -1.00D+00 NBFU=     6     0     2     2
 Leave Link  302 at Mon Mar 28 14:18:56 2022, MaxMem=  9663676416 cpu:               3.5 elap:               0.1
 (Enter /nopt/nrel/apps/gaussian/g16C_1/g16/l303.exe)
 DipDrv will not compute anything.
 Fermi contact integrals: 
                 1             2 
      1   0.628247D+00  0.173753D-03
      2   0.000000D+00  0.157243D+02
      3   0.000000D+00  0.620346D+00
      4   0.000000D+00  0.000000D+00
      5   0.000000D+00  0.000000D+00
      6   0.000000D+00  0.000000D+00
      7   0.445693D-03  0.363373D-01
      8   0.000000D+00  0.000000D+00
      9   0.000000D+00  0.000000D+00
     10  -0.111183D-02  0.000000D+00
 Leave Link  303 at Mon Mar 28 14:18:56 2022, MaxMem=  9663676416 cpu:               1.0 elap:               0.1
 (Enter /nopt/nrel/apps/gaussian/g16C_1/g16/l401.exe)
 ExpMin= 1.61D-01 ExpMax= 2.51D+02 ExpMxC= 2.51D+02 IAcc=3 IRadAn=         5 AccDes= 0.00D+00
 Harris functional with IExCor=  205 and IRadAn=       5 diagonalized for initial guess.
 HarFok:  IExCor=  205 AccDes= 0.00D+00 IRadAn=         5 IDoV= 1 UseB2=F ITyADJ=14
 ICtDFT=  3500011 ScaDFX=  1.000000  1.000000  1.000000  1.000000
 FoFCou: FMM=F IPFlag=           0 FMFlag=      100000 FMFlg1=           0
         NFxFlg=           0 DoJE=T BraDBF=F KetDBF=T FulRan=T
         wScrn=  0.000000 ICntrl=       500 IOpCl=  0 I1Cent=   200000004 NGrid=           0
         NMat0=    1 NMatS0=      1 NMatT0=    0 NMatD0=    1 NMtDS0=    0 NMtDT0=    0
 Petite list used in FoFCou.
 Harris En= -160.203098309358    
 JPrj=0 DoOrth=F DoCkMO=F.
 Initial guess orbital symmetries:
       Occupied  (SG) (SG) (SG) (PI) (PI) (SG)
       Virtual   (SG) (PI) (PI) (SG)
 The electronic state of the initial guess is 1-SG.
 Leave Link  401 at Mon Mar 28 14:18:56 2022, MaxMem=  9663676416 cpu:               3.5 elap:               0.1
 (Enter /nopt/nrel/apps/gaussian/g16C_1/g16/l502.exe)
 Keep R1 ints in memory in symmetry-blocked form, NReq=7208727.
 FoFCou: FMM=F IPFlag=           0 FMFlag=           0 FMFlg1=           0
         NFxFlg=           0 DoJE=F BraDBF=F KetDBF=F FulRan=T
         wScrn=  0.000000 ICntrl=       600 IOpCl=  0 I1Cent=           0 NGrid=           0
         NMat0=    1 NMatS0=     55 NMatT0=    0 NMatD0=    1 NMtDS0=    0 NMtDT0=    0
 Petite list used in FoFCou.
 Closed shell SCF:
 Using DIIS extrapolation, IDIIS=  1040.
 NGot=  9663676416 LenX=  9663673310 LenY=  9663672428
 Requested convergence on RMS density matrix=1.00D-08 within 128 cycles.
 Requested convergence on MAX density matrix=1.00D-06.
 Requested convergence on             energy=1.00D-06.
 No special actions if energy rises.

 Cycle   1  Pass 1  IDiag  1:
 E= -160.046857689774    
 DIIS: error= 8.56D-02 at cycle   1 NSaved=   1.
 NSaved= 1 IEnMin= 1 EnMin= -160.046857689774     IErMin= 1 ErrMin= 8.56D-02
 ErrMax= 8.56D-02  0.00D+00 EMaxC= 1.00D-01 BMatC= 1.18D-01 BMatP= 1.18D-01
 IDIUse=3 WtCom= 1.44D-01 WtEn= 8.56D-01
 Coeff-Com:  0.100D+01
 Coeff-En:   0.100D+01
 Coeff:      0.100D+01
 Gap=     0.104 Goal=   None    Shift=    0.000
 GapD=    0.104 DampG=1.000 DampE=0.500 DampFc=0.5000 IDamp=-1.
 Damping current iteration by 5.00D-01
 RMSDP=4.16D-02 MaxDP=1.92D-01              OVMax= 0.00D+00

 Cycle   2  Pass 1  IDiag  1:
 E= -160.089542163910     Delta-E=       -0.042684474135 Rises=F Damp=T
 DIIS: error= 3.93D-02 at cycle   2 NSaved=   2.
 NSaved= 2 IEnMin= 2 EnMin= -160.089542163910     IErMin= 2 ErrMin= 3.93D-02
 ErrMax= 3.93D-02  0.00D+00 EMaxC= 1.00D-01 BMatC= 1.84D-02 BMatP= 1.18D-01
 IDIUse=3 WtCom= 6.07D-01 WtEn= 3.93D-01
 Coeff-Com: -0.632D+00 0.163D+01
 Coeff-En:   0.000D+00 0.100D+01
 Coeff:     -0.384D+00 0.138D+01
 Gap=     0.186 Goal=   None    Shift=    0.000
 RMSDP=2.43D-02 MaxDP=1.27D-01 DE=-4.27D-02 OVMax= 0.00D+00

 Cycle   3  Pass 1  IDiag  1:
 E= -160.129920454577     Delta-E=       -0.040378290668 Rises=F Damp=F
 DIIS: error= 4.68D-03 at cycle   3 NSaved=   3.
 NSaved= 3 IEnMin= 3 EnMin= -160.129920454577     IErMin= 3 ErrMin= 4.68D-03
 ErrMax= 4.68D-03  0.00D+00 EMaxC= 1.00D-01 BMatC= 3.06D-04 BMatP= 1.84D-02
 IDIUse=3 WtCom= 9.53D-01 WtEn= 4.68D-02
 Coeff-Com:  0.391D+00-0.847D+00 0.146D+01
 Coeff-En:   0.000D+00 0.000D+00 0.100D+01
 Coeff:      0.373D+00-0.807D+00 0.143D+01
 Gap=     0.229 Goal=   None    Shift=    0.000
 RMSDP=6.09D-03 MaxDP=3.07D-02 DE=-4.04D-02 OVMax= 0.00D+00

 Cycle   4  Pass 1  IDiag  1:
 E= -160.130581751207     Delta-E=       -0.000661296630 Rises=F Damp=F
 DIIS: error= 2.04D-04 at cycle   4 NSaved=   4.
 NSaved= 4 IEnMin= 4 EnMin= -160.130581751207     IErMin= 4 ErrMin= 2.04D-04
 ErrMax= 2.04D-04  0.00D+00 EMaxC= 1.00D-01 BMatC= 9.16D-07 BMatP= 3.06D-04
 IDIUse=3 WtCom= 9.98D-01 WtEn= 2.04D-03
 Coeff-Com: -0.391D-01 0.811D-01-0.207D+00 0.117D+01
 Coeff-En:   0.000D+00 0.000D+00 0.000D+00 0.100D+01
 Coeff:     -0.391D-01 0.809D-01-0.207D+00 0.117D+01
 Gap=     0.236 Goal=   None    Shift=    0.000
 RMSDP=4.48D-04 MaxDP=2.16D-03 DE=-6.61D-04 OVMax= 0.00D+00

 Cycle   5  Pass 1  IDiag  1:
 E= -160.130584262373     Delta-E=       -0.000002511165 Rises=F Damp=F
 DIIS: error= 4.30D-05 at cycle   5 NSaved=   5.
 NSaved= 5 IEnMin= 5 EnMin= -160.130584262373     IErMin= 5 ErrMin= 4.30D-05
 ErrMax= 4.30D-05  0.00D+00 EMaxC= 1.00D-01 BMatC= 2.62D-08 BMatP= 9.16D-07
 IDIUse=1 WtCom= 1.00D+00 WtEn= 0.00D+00
 Coeff-Com:  0.296D-02-0.538D-02 0.329D-01-0.211D+00 0.118D+01
 Coeff:      0.296D-02-0.538D-02 0.329D-01-0.211D+00 0.118D+01
 Gap=     0.235 Goal=   None    Shift=    0.000
 RMSDP=7.05D-05 MaxDP=2.73D-04 DE=-2.51D-06 OVMax= 0.00D+00

 Cycle   6  Pass 1  IDiag  1:
 E= -160.130584345079     Delta-E=       -0.000000082706 Rises=F Damp=F
 DIIS: error= 6.45D-06 at cycle   6 NSaved=   6.
 NSaved= 6 IEnMin= 6 EnMin= -160.130584345079     IErMin= 6 ErrMin= 6.45D-06
 ErrMax= 6.45D-06  0.00D+00 EMaxC= 1.00D-01 BMatC= 5.35D-10 BMatP= 2.62D-08
 IDIUse=1 WtCom= 1.00D+00 WtEn= 0.00D+00
 Coeff-Com:  0.453D-03-0.124D-02-0.391D-02 0.321D-01-0.255D+00 0.123D+01
 Coeff:      0.453D-03-0.124D-02-0.391D-02 0.321D-01-0.255D+00 0.123D+01
 Gap=     0.235 Goal=   None    Shift=    0.000
 RMSDP=2.00D-05 MaxDP=9.97D-05 DE=-8.27D-08 OVMax= 0.00D+00

 Cycle   7  Pass 1  IDiag  1:
 E= -160.130584349205     Delta-E=       -0.000000004127 Rises=F Damp=F
 DIIS: error= 1.43D-06 at cycle   7 NSaved=   7.
 NSaved= 7 IEnMin= 7 EnMin= -160.130584349205     IErMin= 7 ErrMin= 1.43D-06
 ErrMax= 1.43D-06  0.00D+00 EMaxC= 1.00D-01 BMatC= 3.25D-11 BMatP= 5.35D-10
 IDIUse=1 WtCom= 1.00D+00 WtEn= 0.00D+00
 Coeff-Com:  0.325D-03-0.706D-03 0.441D-03 0.211D-02-0.533D-01 0.137D+00
 Coeff-Com:  0.914D+00
 Coeff:      0.325D-03-0.706D-03 0.441D-03 0.211D-02-0.533D-01 0.137D+00
 Coeff:      0.914D+00
 Gap=     0.235 Goal=   None    Shift=    0.000
 RMSDP=1.66D-06 MaxDP=6.04D-06 DE=-4.13D-09 OVMax= 0.00D+00

 Cycle   8  Pass 1  IDiag  1:
 E= -160.130584349280     Delta-E=       -0.000000000075 Rises=F Damp=F
 DIIS: error= 1.74D-07 at cycle   8 NSaved=   8.
 NSaved= 8 IEnMin= 8 EnMin= -160.130584349280     IErMin= 8 ErrMin= 1.74D-07
 ErrMax= 1.74D-07  0.00D+00 EMaxC= 1.00D-01 BMatC= 4.06D-13 BMatP= 3.25D-11
 IDIUse=1 WtCom= 1.00D+00 WtEn= 0.00D+00
 Coeff-Com: -0.368D-04 0.831D-04 0.112D-03-0.155D-02 0.156D-01-0.336D-01
 Coeff-Com: -0.300D+00 0.132D+01
 Coeff:     -0.368D-04 0.831D-04 0.112D-03-0.155D-02 0.156D-01-0.336D-01
 Coeff:     -0.300D+00 0.132D+01
 Gap=     0.235 Goal=   None    Shift=    0.000
 RMSDP=1.50D-07 MaxDP=6.29D-07 DE=-7.46D-11 OVMax= 0.00D+00

 Cycle   9  Pass 1  IDiag  1:
 E= -160.130584349280     Delta-E=       -0.000000000000 Rises=F Damp=F
 DIIS: error= 2.75D-08 at cycle   9 NSaved=   9.
 NSaved= 9 IEnMin= 9 EnMin= -160.130584349280     IErMin= 9 ErrMin= 2.75D-08
 ErrMax= 2.75D-08  0.00D+00 EMaxC= 1.00D-01 BMatC= 9.03D-15 BMatP= 4.06D-13
 IDIUse=1 WtCom= 1.00D+00 WtEn= 0.00D+00
 Coeff-Com: -0.299D-06 0.633D-06-0.105D-04 0.115D-03-0.499D-03-0.203D-02
 Coeff-Com:  0.328D-01-0.111D+00 0.108D+01
 Coeff:     -0.299D-06 0.633D-06-0.105D-04 0.115D-03-0.499D-03-0.203D-02
 Coeff:      0.328D-01-0.111D+00 0.108D+01
 Gap=     0.235 Goal=   None    Shift=    0.000
 RMSDP=6.53D-08 MaxDP=3.22D-07 DE=-3.98D-13 OVMax= 0.00D+00

 Cycle  10  Pass 1  IDiag  1:
 E= -160.130584349281     Delta-E=       -0.000000000000 Rises=F Damp=F
 DIIS: error= 1.01D-09 at cycle  10 NSaved=  10.
 NSaved=10 IEnMin=10 EnMin= -160.130584349281     IErMin=10 ErrMin= 1.01D-09
 ErrMax= 1.01D-09  0.00D+00 EMaxC= 1.00D-01 BMatC= 8.09D-18 BMatP= 9.03D-15
 IDIUse=1 WtCom= 1.00D+00 WtEn= 0.00D+00
 Coeff-Com:  0.668D-07-0.145D-06 0.130D-05-0.134D-04 0.527D-04 0.385D-03
 Coeff-Com: -0.429D-02 0.139D-01-0.131D+00 0.112D+01
 Coeff:      0.668D-07-0.145D-06 0.130D-05-0.134D-04 0.527D-04 0.385D-03
 Coeff:     -0.429D-02 0.139D-01-0.131D+00 0.112D+01
 Gap=     0.235 Goal=   None    Shift=    0.000
 RMSDP=2.92D-09 MaxDP=1.48D-08 DE=-1.71D-13 OVMax= 0.00D+00

 SCF Done:  E(RHF) =  -160.130584349     A.U. after   10 cycles
            NFock= 10  Conv=0.29D-08     -V/T= 2.0198
 KE= 1.570163432572D+02 PE=-3.853887450332D+02 EE= 6.642277076420D+01
 Leave Link  502 at Mon Mar 28 14:18:56 2022, MaxMem=  9663676416 cpu:               3.4 elap:               0.1
 (Enter /nopt/nrel/apps/gaussian/g16C_1/g16/l801.exe)
 Windowed orbitals will be sorted by symmetry type.
 ExpMin= 1.61D-01 ExpMax= 2.51D+02 ExpMxC= 2.51D+02 IAcc=3 IRadAn=         5 AccDes= 0.00D+00
 HarFok:  IExCor=  205 AccDes= 0.00D+00 IRadAn=         5 IDoV=-2 UseB2=F ITyADJ=14
 ICtDFT= 12500011 ScaDFX=  1.000000  1.000000  1.000000  1.000000
 Largest valence mixing into a core orbital is  1.20D-03
 Largest core mixing into a valence orbital is  1.41D-04
 Range of M.O.s used for correlation:     6    10
 NBasis=    10 NAE=     6 NBE=     6 NFC=     5 NFV=     0
 NROrb=      5 NOA=     1 NOB=     1 NVA=     4 NVB=     4
 Leave Link  801 at Mon Mar 28 14:18:56 2022, MaxMem=  9663676416 cpu:               2.4 elap:               0.1
 (Enter /nopt/nrel/apps/gaussian/g16C_1/g16/l804.exe)
 Closed-shell transformation, MDV=  9663676416 ITran=4 ISComp=2.
 Unit  1 TFree=          4870 TCopy=          1211.
 Semi-Direct transformation.
 ModeAB=           2 MOrb=             1 LenV=    9663556802
 LASXX=           12 LTotXX=          12 LenRXX=          12
 LTotAB=          28 MaxLAS=         275 LenRXY=         275
 NonZer=         335 LenScr=      785920 LnRSAI=           0
 LnScr1=           0 LExtra=      218701 Total=      1004908
 MaxDsk= 34359738368 SrtSym=           F ITran=            4
 DoSDTr:  NPSUse= 36
 JobTyp=0 Pass  1:  I=   1 to   1.
 (rs|ai) integrals will be sorted in core.
 Complete sort for first half transformation.
 First half transformation complete.
 Complete sort for second half transformation.
 Second half transformation complete.
 Spin components of T(2) and E(2):
     alpha-alpha T2 =       0.0000000000D+00 E2=      0.0000000000D+00
     alpha-beta  T2 =       0.1945331356D-01 E2=     -0.1005302155D-01
     beta-beta   T2 =       0.0000000000D+00 E2=      0.0000000000D+00
 ANorm=    0.1009679807D+01
 E2 =    -0.1005302155D-01 EUMP2 =    -0.16014063737083D+03
 Leave Link  804 at Mon Mar 28 14:18:56 2022, MaxMem=  9663676416 cpu:               1.7 elap:               0.1
 (Enter /nopt/nrel/apps/gaussian/g16C_1/g16/l913.exe)
 CIDS:  MDV=  9663676416.
 Frozen-core window:  NFC=   5 NFV=   0.
 IFCWin=0 IBDFC=1 NFBD=     0     0 NFCmp=     0     0 NFFFC=     0     0
 Using DD3R+UMP44R for 1st iteration.
 Using DD4RQ for 2nd and later iterations.
 Keep R2 and R3 ints in memory in symmetry-blocked form, NReq=7211101.
 FoFCou: FMM=F IPFlag=           0 FMFlag=           0 FMFlg1=           0
         NFxFlg=           0 DoJE=F BraDBF=F KetDBF=F FulRan=T
         wScrn=  0.000000 ICntrl=       600 IOpCl=  0 I1Cent=           0 NGrid=           0
         NMat0=    1 NMatS0=     55 NMatT0=    0 NMatD0=    1 NMtDS0=    0 NMtDT0=    0
 Petite list used in FoFCou.
 CIDS: In Core Option IDoMem=           1.
 Coupled Cluster theory with single and double substitutions
 ===========================================================
 Iterations= 200 Convergence= 0.100D-06
 Produce multiple copies of IABC intergrals
 Iteration Nr.   1
 **********************
 DD1Dir will call FoFMem   1 times, MxPair=         2
 NAB=     1 NAA=     0 NBB=     0.
 MP4(R+Q)=  0.19556458D-03
 Maximum subspace dimension=  5
 A-vector RMS=  1.3819319D-01 Max=  1.1738546D-01 conv= 1.00D-05.
 RLE energy=       -0.0062746420
 E3=        0.48727467D-02        EUMP3=      -0.16013576462D+03
 E4(DQ)=   -0.29622893D-02        UMP4(DQ)=   -0.16013872691D+03
 E4(SDQ)=  -0.96250837D-02        UMP4(SDQ)=  -0.16014538971D+03
 VARIATIONAL ENERGIES WITH THE FIRST-ORDER WAVEFUNCTION:
 DE(Corr)= -0.40597005E-02 E(Corr)=     -160.13464405    
 NORM(A)=   0.10103772D+01
 Iteration Nr.   2
 **********************
 DD1Dir will call FoFMem   1 times, MxPair=         2
 NAB=     1 NAA=     0 NBB=     0.
 A-vector RMS=  4.4341651D-02 Max=  8.8172998D-02 conv= 1.00D-05.
 RLE energy=       -0.0133166675
 DE(Corr)= -0.11763796E-01 E(CORR)=     -160.14234815     Delta=-7.70D-03
 NORM(A)=   0.11244431D+01
 Iteration Nr.   3
 **********************
 DD1Dir will call FoFMem   1 times, MxPair=         2
 NAB=     1 NAA=     0 NBB=     0.
 A-vector RMS=  5.7917977D-02 Max=  6.1974542D-02 conv= 1.00D-05.
 RLE energy=       -0.0174635190
 DE(Corr)= -0.20653673E-01 E(CORR)=     -160.15123802     Delta=-8.89D-03
 NORM(A)=   0.12262496D+01
 Iteration Nr.   4
 **********************
 DD1Dir will call FoFMem   1 times, MxPair=         2
 NAB=     1 NAA=     0 NBB=     0.
 A-vector RMS=  8.9931026D-02 Max=  9.4151774D-02 conv= 1.00D-05.
 RLE energy=       -0.0208918389
 DE(Corr)= -0.26443410E-01 E(CORR)=     -160.15702776     Delta=-5.79D-03
 NORM(A)=   0.11402575D+01
 Iteration Nr.   5
 **********************
 DD1Dir will call FoFMem   1 times, MxPair=         2
 NAB=     1 NAA=     0 NBB=     0.
 A-vector RMS=  8.0694824D-02 Max=  7.4377022D-02 conv= 1.00D-05.
 RLE energy=       -0.0203345575
 DE(Corr)= -0.13804904E-01 E(CORR)=     -160.14438925     Delta= 1.26D-02
 NORM(A)=   0.11781892D+01
 Iteration Nr.   6
 **********************
 DD1Dir will call FoFMem   1 times, MxPair=         2
 NAB=     1 NAA=     0 NBB=     0.
 A-vector RMS=  2.0852450D-02 Max=  1.7542647D-02 conv= 1.00D-05.
 RLE energy=       -0.0202609679
 DE(Corr)= -0.18417596E-01 E(CORR)=     -160.14900195     Delta=-4.61D-03
 NORM(A)=   0.11907121D+01
 Iteration Nr.   7
 **********************
 DD1Dir will call FoFMem   1 times, MxPair=         2
 NAB=     1 NAA=     0 NBB=     0.
 A-vector RMS=  6.7302238D-03 Max=  6.2435313D-03 conv= 1.00D-05.
 RLE energy=       -0.0201330146
 DE(Corr)= -0.19613347E-01 E(CORR)=     -160.15019770     Delta=-1.20D-03
 NORM(A)=   0.11951369D+01
 Iteration Nr.   8
 **********************
 DD1Dir will call FoFMem   1 times, MxPair=         2
 NAB=     1 NAA=     0 NBB=     0.
 A-vector RMS=  3.2061698D-04 Max=  2.8313092D-04 conv= 1.00D-05.
 RLE energy=       -0.0201211241
 DE(Corr)= -0.20153689E-01 E(CORR)=     -160.15073804     Delta=-5.40D-04
 NORM(A)=   0.11943781D+01
 Iteration Nr.   9
 **********************
 DD1Dir will call FoFMem   1 times, MxPair=         2
 NAB=     1 NAA=     0 NBB=     0.
 A-vector RMS=  2.0082227D-04 Max=  2.0054081D-04 conv= 1.00D-05.
 RLE energy=       -0.0201183741
 DE(Corr)= -0.20102194E-01 E(CORR)=     -160.15068654     Delta= 5.15D-05
 NORM(A)=   0.11944685D+01
 Iteration Nr.  10
 **********************
 DD1Dir will call FoFMem   1 times, MxPair=         2
 NAB=     1 NAA=     0 NBB=     0.
 A-vector RMS=  4.1886839D-05 Max=  4.4561918D-05 conv= 1.00D-05.
 RLE energy=       -0.0201168107
 DE(Corr)= -0.20114200E-01 E(CORR)=     -160.15069855     Delta=-1.20D-05
 NORM(A)=   0.11944881D+01
 Iteration Nr.  11
 **********************
 DD1Dir will call FoFMem   1 times, MxPair=         2
 NAB=     1 NAA=     0 NBB=     0.
 A-vector RMS=  1.2665370D-05 Max=  1.1765979D-05 conv= 1.00D-05.
 RLE energy=       -0.0201170258
 DE(Corr)= -0.20118018E-01 E(CORR)=     -160.15070237     Delta=-3.82D-06
 NORM(A)=   0.11944814D+01
 Iteration Nr.  12
 **********************
 DD1Dir will call FoFMem   1 times, MxPair=         2
 NAB=     1 NAA=     0 NBB=     0.
 A-vector RMS=  1.3567902D-06 Max=  1.2196844D-06 conv= 1.00D-05.
 RLE energy=       -0.0201170465
 DE(Corr)= -0.20117157E-01 E(CORR)=     -160.15070151     Delta= 8.60D-07
 NORM(A)=   0.11944808D+01
 Iteration Nr.  13
 **********************
 DD1Dir will call FoFMem   1 times, MxPair=         2
 NAB=     1 NAA=     0 NBB=     0.
 A-vector RMS=  3.6815493D-07 Max=  3.5074718D-07 conv= 1.00D-05.
 RLE energy=       -0.0201170536
 DE(Corr)= -0.20117082E-01 E(CORR)=     -160.15070143     Delta= 7.55D-08
 NORM(A)=   0.11944806D+01
 CI/CC converged in   13 iterations to DelEn= 7.55D-08 Conv= 1.00D-07 ErrA1= 3.68D-07 Conv= 1.00D-05
 Wavefunction amplitudes converged. E(Corr)=     -160.15070143    
 Dominant configurations:
 ***********************
 Spin Case        I    J    A    B          Value
    AA            6         7            0.358103D+00
   ABAB           6    6    7    7      -0.394984D+00
 Largest amplitude= 3.95D-01
 Discarding MO integrals.
 Leave Link  913 at Mon Mar 28 14:18:56 2022, MaxMem=  9663676416 cpu:               3.9 elap:               0.1
 (Enter /nopt/nrel/apps/gaussian/g16C_1/g16/l601.exe)
 Copying SCF densities to generalized density rwf, IOpCl= 0 IROHF=0.

 **********************************************************************

            Population analysis using the SCF Density.

 **********************************************************************

 Orbital symmetries:
       Occupied  (SG) (SG) (PI) (PI) (SG) (SG)
       Virtual   (SG) (PI) (PI) (SG)
 The electronic state is 1-SG.
 Alpha  occ. eigenvalues --  -40.33747  -2.88681  -1.54011  -1.54011  -1.53859
 Alpha  occ. eigenvalues --    0.07965
 Alpha virt. eigenvalues --    0.31504   0.62533   0.62533   0.64331
          Condensed to atoms (all electrons):
               1          2
     1  H    1.801103   0.018902
     2  Na   0.018902  10.161093
 Mulliken charges:
               1
     1  H   -0.820005
     2  Na   0.820005
 Sum of Mulliken charges =  -0.00000
 Mulliken charges with hydrogens summed into heavy atoms:
               1
     2  Na  -0.000000
 N-N= 1.819046662538D+00 E-N=-3.853887449890D+02  KE= 1.570163432572D+02
 Symmetry A1   KE= 1.362263944349D+02
 Symmetry A2   KE= 0.000000000000D+00
 Symmetry B1   KE= 1.039497441114D+01
 Symmetry B2   KE= 1.039497441114D+01

 Atomic contributions to Alpha molecular orbitals:
 Alpha occ 1 OE=-40.337 is Na2-s=1.0000
 Alpha occ 2 OE=-2.887 is Na2-s=0.9999
 Alpha occ 3 OE=-1.540 is Na2-p=1.0000
 Alpha occ 4 OE=-1.540 is Na2-p=1.0000
 Alpha occ 5 OE=-1.539 is Na2-p=0.9998
 Alpha occ 6 OE=0.080 is H1-s=0.9100
 Alpha vir 7 OE=0.315 is Na2-s=0.9094
 Alpha vir 8 OE=0.625 is Na2-p=1.0000
 Alpha vir 9 OE=0.625 is Na2-p=1.0000
 Alpha vir 10 OE=0.643 is Na2-p=0.9789
 
 Leave Link  601 at Mon Mar 28 14:18:56 2022, MaxMem=  9663676416 cpu:               1.2 elap:               0.1
 (Enter /nopt/nrel/apps/gaussian/g16C_1/g16/l9999.exe)

 Test job not archived.
 1\1\GINC-R102U34\SP\RCCSD-FC\Gen\H1Na1\USER\28-Mar-2022\0\\#P CCSD
 (MaxCyc=200,SaveAmplitudes,ReadAmplitudes)/GEN sp pop=AllOrbitals iop(
 3/33=1,3/36=-1)\\test\\0,1\H,0,0.,0.,0.\Na,0,0.,0.,3.2\\Version=ES64L-
 G16RevC.01\State=1-SG\HF=-160.1305843\MP2=-160.1406374\MP3=-160.135764
 6\MP4D=-160.1389225\MP4DQ=-160.1387269\MP4SDQ=-160.1453897\CCSD=-160.1
 507014\RMSD=2.919e-09\PG=C*V [C*(H1Na1)]\\@


 ONE BIG VICE IN A MAN IS APT TO KEEP OUT MANY SMALLER ONES.

                           -- BRET HARTE
 Job cpu time:       0 days  0 hours  0 minutes 31.3 seconds.
 Elapsed time:       0 days  0 hours  0 minutes  1.2 seconds.
 File lengths (MBytes):  RWF=     13 Int=      0 D2E=      0 Chk=      1 Scr=      1
 Normal termination of Gaussian 16 at Mon Mar 28 14:18:56 2022.
