 Entering Gaussian System, Link 0=g16
 Initial command:
 /nopt/nrel/apps/gaussian/g16C_1/g16/l1.exe "/lustre/eaglefs/scratch/user/qc/lih-dissc/lih-1-ccsd-0.5-ccd/Gau-19073.inp" -scrdir="/lustre/eaglefs/scratch/user/qc/lih-dissc/lih-1-ccsd-0.5-ccd/"
 Default is to use a total of  36 processors:
                               36 via shared-memory
                                1 via Linda
 Entering Link 1 = /nopt/nrel/apps/gaussian/g16C_1/g16/l1.exe PID=     19074.
  
 Copyright (c) 1988-2019, Gaussian, Inc.  All Rights Reserved.
  
 This is part of the Gaussian(R) 16 program.  It is based on
 the Gaussian(R) 09 system (copyright 2009, Gaussian, Inc.),
 the Gaussian(R) 03 system (copyright 2003, Gaussian, Inc.),
 the Gaussian(R) 98 system (copyright 1998, Gaussian, Inc.),
 the Gaussian(R) 94 system (copyright 1995, Gaussian, Inc.),
 the Gaussian 92(TM) system (copyright 1992, Gaussian, Inc.),
 the Gaussian 90(TM) system (copyright 1990, Gaussian, Inc.),
 the Gaussian 88(TM) system (copyright 1988, Gaussian, Inc.),
 the Gaussian 86(TM) system (copyright 1986, Carnegie Mellon
 University), and the Gaussian 82(TM) system (copyright 1983,
 Carnegie Mellon University). Gaussian is a federally registered
 trademark of Gaussian, Inc.
  
 This software contains proprietary and confidential information,
 including trade secrets, belonging to Gaussian, Inc.
  
 This software is provided under written license and may be
 used, copied, transmitted, or stored only in accord with that
 written license.
  
 The following legend is applicable only to US Government
 contracts under FAR:
  
                    RESTRICTED RIGHTS LEGEND
  
 Use, reproduction and disclosure by the US Government is
 subject to restrictions as set forth in subparagraphs (a)
 and (c) of the Commercial Computer Software - Restricted
 Rights clause in FAR 52.227-19.
  
 Gaussian, Inc.
 340 Quinnipiac St., Bldg. 40, Wallingford CT 06492
  
  
 ---------------------------------------------------------------
 Warning -- This program may not be used in any manner that
 competes with the business of Gaussian, Inc. or will provide
 assistance to any competitor of Gaussian, Inc.  The licensee
 of this program is prohibited from giving any competitor of
 Gaussian, Inc. access to this program.  By using this program,
 the user acknowledges that Gaussian, Inc. is engaged in the
 business of creating and licensing software in the field of
 computational chemistry and represents and warrants to the
 licensee that it is not a competitor of Gaussian, Inc. and that
 it will not use this program in any manner prohibited above.
 ---------------------------------------------------------------
  

 Cite this work as:
 Gaussian 16, Revision C.01,
 M. J. Frisch, G. W. Trucks, H. B. Schlegel, G. E. Scuseria, 
 M. A. Robb, J. R. Cheeseman, G. Scalmani, V. Barone, 
 G. A. Petersson, H. Nakatsuji, X. Li, M. Caricato, A. V. Marenich, 
 J. Bloino, B. G. Janesko, R. Gomperts, B. Mennucci, H. P. Hratchian, 
 J. V. Ortiz, A. F. Izmaylov, J. L. Sonnenberg, D. Williams-Young, 
 F. Ding, F. Lipparini, F. Egidi, J. Goings, B. Peng, A. Petrone, 
 T. Henderson, D. Ranasinghe, V. G. Zakrzewski, J. Gao, N. Rega, 
 G. Zheng, W. Liang, M. Hada, M. Ehara, K. Toyota, R. Fukuda, 
 J. Hasegawa, M. Ishida, T. Nakajima, Y. Honda, O. Kitao, H. Nakai, 
 T. Vreven, K. Throssell, J. A. Montgomery, Jr., J. E. Peralta, 
 F. Ogliaro, M. J. Bearpark, J. J. Heyd, E. N. Brothers, K. N. Kudin, 
 V. N. Staroverov, T. A. Keith, R. Kobayashi, J. Normand, 
 K. Raghavachari, A. P. Rendell, J. C. Burant, S. S. Iyengar, 
 J. Tomasi, M. Cossi, J. M. Millam, M. Klene, C. Adamo, R. Cammi, 
 J. W. Ochterski, R. L. Martin, K. Morokuma, O. Farkas, 
 J. B. Foresman, and D. J. Fox, Gaussian, Inc., Wallingford CT, 2019.
 
 ******************************************
 Gaussian 16:  ES64L-G16RevC.01  3-Jul-2019
                28-Mar-2022 
 ******************************************
 %chk=molecule
 Default route: CacheSize=180224 MaxDisk=256GB
 ----------------------------------------------------------------------
 #P CCSD(MaxCyc=200,SaveAmplitudes,ReadAmplitudes)/GEN sp pop=AllOrbita
 ls iop(3/33=1,3/36=-1)
 ----------------------------------------------------------------------
 1/4=180224,38=1,172=1/1;
 2/4=180224,12=2,17=6,18=5,40=1/2;
 3/4=180224,5=7,11=9,25=1,30=1,33=1,36=-1/1,2,3;
 4/4=180224/1;
 5/4=180224,5=2,38=5/2;
 8/4=180224,6=4,9=120000,10=1,24=1/1,4;
 9/4=180224,5=7,6=200,77=1/13;
 6/4=180224,7=2,8=2,9=2,10=2,96=-1/1;
 99/4=180224,5=1,9=1/99;
 Leave Link    1 at Mon Mar 28 14:01:19 2022, MaxMem=           0 cpu:               2.2 elap:               0.1
 (Enter /nopt/nrel/apps/gaussian/g16C_1/g16/l101.exe)
 ----
 test
 ----
 Symbolic Z-matrix:
 Charge =  0 Multiplicity = 1
 H                     0.        0.        0. 
 Li                    0.        0.        0.5 
 
 ITRead=  0  0
 MicOpt= -1 -1
 NAtoms=      2 NQM=        2 NQMF=       0 NMMI=      0 NMMIF=      0
                NMic=       0 NMicF=      0.
                    Isotopes and Nuclear Properties:
 (Nuclear quadrupole moments (NQMom) in fm**2, nuclear magnetic moments (NMagM)
  in nuclear magnetons)

  Atom         1           2
 IAtWgt=           1           7
 AtmWgt=   1.0078250   7.0160045
 NucSpn=           1           3
 AtZEff=  -0.0000000  -0.0000000
 NQMom=    0.0000000  -4.0100000
 NMagM=    2.7928460   3.2564240
 AtZNuc=   1.0000000   3.0000000
 Leave Link  101 at Mon Mar 28 14:01:19 2022, MaxMem=  9663676416 cpu:               3.0 elap:               0.1
 (Enter /nopt/nrel/apps/gaussian/g16C_1/g16/l202.exe)
                          Input orientation:                          
 ---------------------------------------------------------------------
 Center     Atomic      Atomic             Coordinates (Angstroms)
 Number     Number       Type             X           Y           Z
 ---------------------------------------------------------------------
      1          1           0        0.000000    0.000000    0.000000
      2          3           0        0.000000    0.000000    0.500000
 ---------------------------------------------------------------------
 Stoichiometry    HLi
 Framework group  C*V[C*(HLi)]
 Deg. of freedom     1
 Full point group                 C*V     NOp   4
 Largest Abelian subgroup         C2V     NOp   4
 Largest concise Abelian subgroup C1      NOp   1
                         Standard orientation:                         
 ---------------------------------------------------------------------
 Center     Atomic      Atomic             Coordinates (Angstroms)
 Number     Number       Type             X           Y           Z
 ---------------------------------------------------------------------
      1          1           0        0.000000    0.000000   -0.375000
      2          3           0        0.000000    0.000000    0.125000
 ---------------------------------------------------------------------
 Rotational constants (GHZ):           0.0000000        2293.9496568        2293.9496568
 Leave Link  202 at Mon Mar 28 14:01:19 2022, MaxMem=  9663676416 cpu:               0.6 elap:               0.0
 (Enter /nopt/nrel/apps/gaussian/g16C_1/g16/l301.exe)
 General basis read from cards:  (5D, 7F)
                         Coordinates in L301:                         
 ---------------------------------------------------------------------
 Center     Atomic      Atomic             Coordinates (Angstroms)
 Number     Number       Type             X           Y           Z
 ---------------------------------------------------------------------
      1          1           0        0.000000    0.000000   -0.375000
      2          3           0        0.000000    0.000000    0.125000
 ---------------------------------------------------------------------
 Centers:       1
 STO-3G
 ****
 Centers:       2
 cc-pVDZ
 ****
 FixB: optimizing general contractions.
 Ernie: Thresh=  0.10000D-02 Tol=  0.10000D-05 Strict=F.
 IA=     1 ShT= 0 ShC= 0 NL=   1 NS=   0.
 IA=     1 L=0 SC=0 ISt=    0 NBk=    0 NP=    0 IndPr=    0.
 IA=     2 ShT= 0 ShC= 0 NL=   3 NS=   1.
 IA=     2 L=0 SC=0 ISt=    1 NBk=    2 NP=    8 IndPr=    0.
 DoElim1:  L=0 select primitive    2 from    2 using    1 C= 5.89D-03
 DoElim2:  L=0 select primitive    8 from    1 using    2 C= 5.77D-01
 Delete L=0 primitive    2 from    2 C=  2.10D-22.
 Delete L=0 primitive    1 from    2 C=  3.73D-09.
 Delete L=0 primitive    8 from    1 C=  8.70D-19.
 IA=     2 L=0 SC=0 ISt=    0 NBk=    0 NP=    0 IndPr=   13.
 IA=     2 ShT= 1 ShC= 1 NL=   2 NS=   1.
 IA=     2 L=1 SC=1 ISt=    0 NBk=    0 NP=    0 IndPr=    0.
 IA=     2 ShT= 2 ShC= 2 NL=   1 NS=   1.
 IA=     2 L=2 SC=2 ISt=    0 NBk=    0 NP=    0 IndPr=    0.
 Ernie:  3 primitive shells out of 25 were deleted.
 LdAtmC:  AtmChg=     1.000000     3.000000
 AtZEff=     -1.0000000     -1.3500000
 NEqShl: 
              1            2            3            4
     1            1            1            1            1
     2            2            2            2            2
     3            3            3            3            3
     4            4            4            4            4
     5            5            5            5            5
     6            6            6            6            6
     7            7            7            7            7
 NEqBas: 
              1            2            3            4
     1            1            1            1            1
     2            2            2            2            2
     3            3            3            3            3
     4            4            4            4            4
     5            5           -5           -5            5
     6            6           -6            6           -6
     7            7            7            7            7
     8            8           -8           -8            8
     9            9           -9            9           -9
    10           10           10           10           10
    11           11           11           11           11
    12           12           12           12           12
    13           13           13           13           13
    14           14           14          -14          -14
    15           15          -15          -15           15
    16           16          -16           16          -16
 There are     9 symmetry adapted cartesian basis functions of A1  symmetry.
   1         1   1   1   1
   2         2   2   2   2
   3         3   3   3   3
   4         4   4   4   4
   5         7   7   7   7
   6        10  10  10  10
   7        11  11  11  11
   8        12  12  12  12
   9        13  13  13  13
 There are     1 symmetry adapted cartesian basis functions of A2  symmetry.
  10        14  14  14  14
 There are     3 symmetry adapted cartesian basis functions of B1  symmetry.
  11         5   5   5   5
  12         8   8   8   8
  13        15  15  15  15
 There are     3 symmetry adapted cartesian basis functions of B2  symmetry.
  14         6   6   6   6
  15         9   9   9   9
  16        16  16  16  16
 Order= 1 2 4 3
 Reordered character table:
              1            2            3            4            5
     1            1            1            1            1            1
     2            2            1            1           -1           -1
     3            4            1           -1           -1            1
     4            3            1           -1            1           -1
 NEqShl: 
              1            2            3            4
     1            1            1            1            1
     2            2            2            2            2
     3            3            3            3            3
     4            4            4            4            4
     5            5            5            5            5
     6            6            6            6            6
     7            7            7            7            7
 NEqBas: 
              1            2            3            4
     1            1            1            1            1
     2            2            2            2            2
     3            3            3            3            3
     4            4            4            4            4
     5            5           -5           -5            5
     6            6           -6            6           -6
     7            7            7            7            7
     8            8           -8           -8            8
     9            9           -9            9           -9
    10           10           10           10           10
    11           11           11           11           11
    12           12          -12          -12           12
    13           13          -13           13          -13
    14           14           14           14           14
    15           15           15          -15          -15
 There are     8 symmetry adapted basis functions of A1  symmetry.
   1         1   1   1   1
   2         2   2   2   2
   3         3   3   3   3
   4         4   4   4   4
   5         7   7   7   7
   6        10  10  10  10
   7        11  11  11  11
   8        14  14  14  14
 There are     1 symmetry adapted basis functions of A2  symmetry.
   9        15  15  15  15
 There are     3 symmetry adapted basis functions of B1  symmetry.
  10         5   5   5   5
  11         8   8   8   8
  12        12  12  12  12
 There are     3 symmetry adapted basis functions of B2  symmetry.
  13         6   6   6   6
  14         9   9   9   9
  15        13  13  13  13
 Order= 1 2 4 3
 Reordered character table:
              1            2            3            4            5
     1            1            1            1            1            1
     2            2            1            1           -1           -1
     3            4            1           -1           -1            1
     4            3            1           -1            1           -1
    15 basis functions,    35 primitive gaussians,    16 cartesian basis functions
     2 alpha electrons        2 beta electrons
       nuclear repulsion energy         3.1750632655 Hartrees.
 IS=     1 IAt=     1 ISR=     1 T=0 IP=      1 IndIP=      1 IndIPD=      0 C=  2.769344D-01  0.000000D+00                             NZ=T
 IS=     1 IAt=     1 ISR=     1 T=0 IP=      2 IndIP=      2 IndIPD=      1 C=  2.678389D-01  0.000000D+00                             NZ=T
 IS=     1 IAt=     1 ISR=     1 T=0 IP=      3 IndIP=      3 IndIPD=      2 C=  8.347367D-02  0.000000D+00                             NZ=T
 IS=     2 IAt=     2 ISR=     1 T=0 IP=      1 IndIP=      4 IndIPD=      0 C=  1.296301D-01  0.000000D+00                             NZ=T
 IS=     2 IAt=     2 ISR=     1 T=0 IP=      2 IndIP=      5 IndIPD=      1 C=  2.404528D-01  0.000000D+00                             NZ=T
 IS=     2 IAt=     2 ISR=     1 T=0 IP=      3 IndIP=      6 IndIPD=      2 C=  3.994569D-01  0.000000D+00                             NZ=T
 IS=     2 IAt=     2 ISR=     1 T=0 IP=      4 IndIP=      7 IndIPD=      3 C=  5.708542D-01  0.000000D+00                             NZ=T
 IS=     2 IAt=     2 ISR=     1 T=0 IP=      5 IndIP=      8 IndIPD=      4 C=  6.317030D-01  0.000000D+00                             NZ=T
 IS=     2 IAt=     2 ISR=     1 T=0 IP=      6 IndIP=      9 IndIPD=      5 C=  4.558532D-01  0.000000D+00                             NZ=T
 IS=     2 IAt=     2 ISR=     1 T=0 IP=      7 IndIP=     10 IndIPD=      6 C=  1.282724D-01  0.000000D+00                             NZ=T
 IS=     3 IAt=     2 ISR=     2 T=0 IP=      1 IndIP=     11 IndIPD=      0 C= -1.035279D-03  0.000000D+00                             NZ=T
 IS=     3 IAt=     2 ISR=     2 T=0 IP=      2 IndIP=     12 IndIPD=      1 C= -5.681325D-03  0.000000D+00                             NZ=T
 IS=     3 IAt=     2 ISR=     2 T=0 IP=      3 IndIP=     13 IndIPD=      2 C= -1.930258D-02  0.000000D+00                             NZ=T
 IS=     3 IAt=     2 ISR=     2 T=0 IP=      4 IndIP=     14 IndIPD=      3 C= -4.723991D-02  0.000000D+00                             NZ=T
 IS=     3 IAt=     2 ISR=     2 T=0 IP=      5 IndIP=     15 IndIPD=      4 C= -8.136441D-02  0.000000D+00                             NZ=T
 IS=     3 IAt=     2 ISR=     2 T=0 IP=      6 IndIP=     16 IndIPD=      5 C=  1.089727D-01  0.000000D+00                             NZ=T
 IS=     4 IAt=     2 ISR=     3 T=0 IP=      1 IndIP=     17 IndIPD=      0 C=  4.884946D-02  0.000000D+00                             NZ=T
 IS=     5 IAt=     2 ISR=     4 T=1 IP=      1 IndIP=     18 IndIPD=      0 C=  0.000000D+00  9.248065D-02                             NZ=T
 IS=     5 IAt=     2 ISR=     4 T=1 IP=      2 IndIP=     19 IndIPD=      1 C=  0.000000D+00  6.583497D-02                             NZ=T
 IS=     5 IAt=     2 ISR=     4 T=1 IP=      3 IndIP=     20 IndIPD=      2 C=  0.000000D+00  4.562255D-02                             NZ=T
 IS=     6 IAt=     2 ISR=     5 T=1 IP=      1 IndIP=     21 IndIPD=      0 C=  0.000000D+00  1.348597D-02                             NZ=T
 IS=     7 IAt=     2 ISR=     6 T=2 IP=      1 IndIP=     22 IndIPD=      1 C=  0.000000D+00  0.000000D+00  4.258771D-02  0.000000D+00 NZ=T
 IExCor=    0 DFT=F Ex=HF Corr=None ExCW=0 ScaHFX=  1.000000
 ScaDFX=  1.000000  1.000000  1.000000  1.000000 ScalE2=  1.000000  1.000000
 IRadAn=      5 IRanWt=     -1 IRanGd=            0 ICorTp=0 IEmpDi=  4
 NAtoms=    2 NActive=    2 NUniq=    2 SFac= 1.00D+00 NAtFMM=   60 NAOKFM=F Big=F
 Integral buffers will be    131072 words long.
 Raffenetti 1 integral format.
 Two-electron integral symmetry is turned on.
 Leave Link  301 at Mon Mar 28 14:01:19 2022, MaxMem=  9663676416 cpu:               2.3 elap:               0.1
 (Enter /nopt/nrel/apps/gaussian/g16C_1/g16/l302.exe)
 NPDir=0 NMtPBC=     1 NCelOv=     1 NCel=       1 NClECP=     1 NCelD=      1
         NCelK=      1 NCelE2=     1 NClLst=     1 CellRange=     0.0.
 One-electron integrals computed using PRISM.
 One-electron integral symmetry used in STVInt
 Entering OneElI...
 Calculate overlap and kinetic energy integrals
    NBasis =  15  MinDer = 0  MaxDer = 0
 Requested accuracy = 0.1000D-12
 Symmetry will be used
 PrmmSu-InSpLW:  IPartL=    0 NPrtUS=   36 NPrtUL=    1 DoSpLW=F IThBeg=    0 IThEnd=   35 NThAct=   36.
 PrSmSu:  IncTry=   512 NBBP=             28 NTPThr=   100 NPartT=   36 Incr=           1 LDynOK=F GPUOK=F.
 PrsmSu:  NPrtUS=  36 ThrOK=T IAlg=1 LenDen=           0 ISkipM=0 DoSpLW=F IThBeg=    0 IThEnd=   35.
 Prism:   IPart=     0 DynPar=F LinDyn=F Incr=           1.
 PRISM was handed   268432079 working-precision words and    28 shell-pairs
 PRISM was handed   268432079 working-precision words and    28 shell-pairs
 PRISM was handed   268432079 working-precision words and    28 shell-pairs
 PRISM was handed   268432079 working-precision words and    28 shell-pairs
 PRISM was handed   268432079 working-precision words and    28 shell-pairs
 PRISM was handed   268432079 working-precision words and    28 shell-pairs
 PRISM was handed   268432079 working-precision words and    28 shell-pairs
 PRISM was handed   268432079 working-precision words and    28 shell-pairs
 PRISM was handed   268432079 working-precision words and    28 shell-pairs
 PRISM was handed   268432079 working-precision words and    28 shell-pairs
 PRISM was handed   268432079 working-precision words and    28 shell-pairs
 IPart= 24 NShTot=           0 NBatch=           0 AvBLen=         0.0
 IPart= 14 NShTot=           0 NBatch=           0 AvBLen=         0.0
 IPart= 17 NShTot=           0 NBatch=           0 AvBLen=         0.0
 IPart= 26 NShTot=           0 NBatch=           0 AvBLen=         0.0
 IPart= 28 NShTot=           0 NBatch=           0 AvBLen=         0.0
 IPart= 32 NShTot=           0 NBatch=           0 AvBLen=         0.0
 IPart=  8 NShTot=           0 NBatch=           0 AvBLen=         0.0
 IPart=  4 NShTot=           0 NBatch=           0 AvBLen=         0.0
 IPart=  2 NShTot=           0 NBatch=           0 AvBLen=         0.0
 PRISM was handed   268432079 working-precision words and    28 shell-pairs
 PRISM was handed   268432079 working-precision words and    28 shell-pairs
 IPart= 23 NShTot=           0 NBatch=           0 AvBLen=         0.0
 PRISM was handed   268432079 working-precision words and    28 shell-pairs
 PRISM was handed   268432079 working-precision words and    28 shell-pairs
 PRISM was handed   268432079 working-precision words and    28 shell-pairs
 PRISM was handed   268432079 working-precision words and    28 shell-pairs
 PRISM was handed   268432079 working-precision words and    28 shell-pairs
 IPart= 21 NShTot=           0 NBatch=           0 AvBLen=         0.0
 PRISM was handed   268432079 working-precision words and    28 shell-pairs
 IPart=  3 NShTot=           0 NBatch=           0 AvBLen=         0.0
 IPart= 29 NShTot=           0 NBatch=           0 AvBLen=         0.0
 IPart= 30 NShTot=           0 NBatch=           0 AvBLen=         0.0
 IPart= 27 NShTot=           0 NBatch=           0 AvBLen=         0.0
 PRISM was handed   268432079 working-precision words and    28 shell-pairs
 PRISM was handed   268432079 working-precision words and    28 shell-pairs
 PRISM was handed   268432079 working-precision words and    28 shell-pairs
 IPart= 35 NShTot=           0 NBatch=           0 AvBLen=         0.0
 IPart= 10 NShTot=           0 NBatch=           0 AvBLen=         0.0
 IPart=  0 NShTot=          27 NBatch=          27 AvBLen=         1.0
 IPart=  1 NShTot=           1 NBatch=           1 AvBLen=         1.0
 PRISM was handed   268432079 working-precision words and    28 shell-pairs
 PRISM was handed   268432079 working-precision words and    28 shell-pairs
 IPart= 16 NShTot=           0 NBatch=           0 AvBLen=         0.0
 IPart= 22 NShTot=           0 NBatch=           0 AvBLen=         0.0
 IPart=  9 NShTot=           0 NBatch=           0 AvBLen=         0.0
 PRISM was handed   268432079 working-precision words and    28 shell-pairs
 IPart= 12 NShTot=           0 NBatch=           0 AvBLen=         0.0
 IPart= 25 NShTot=           0 NBatch=           0 AvBLen=         0.0
 PRISM was handed   268432079 working-precision words and    28 shell-pairs
 PRISM was handed   268432079 working-precision words and    28 shell-pairs
 IPart= 15 NShTot=           0 NBatch=           0 AvBLen=         0.0
 PRISM was handed   268432079 working-precision words and    28 shell-pairs
 PRISM was handed   268432079 working-precision words and    28 shell-pairs
 PRISM was handed   268432079 working-precision words and    28 shell-pairs
 PRISM was handed   268432079 working-precision words and    28 shell-pairs
 PRISM was handed   268432079 working-precision words and    28 shell-pairs
 PRISM was handed   268432079 working-precision words and    28 shell-pairs
 PRISM was handed   268432079 working-precision words and    28 shell-pairs
 PRISM was handed   268432079 working-precision words and    28 shell-pairs
 IPart= 19 NShTot=           0 NBatch=           0 AvBLen=         0.0
 PRISM was handed   268432079 working-precision words and    28 shell-pairs
 IPart= 18 NShTot=           0 NBatch=           0 AvBLen=         0.0
 IPart= 34 NShTot=           0 NBatch=           0 AvBLen=         0.0
 IPart= 13 NShTot=           0 NBatch=           0 AvBLen=         0.0
 IPart=  6 NShTot=           0 NBatch=           0 AvBLen=         0.0
 IPart= 20 NShTot=           0 NBatch=           0 AvBLen=         0.0
 IPart= 11 NShTot=           0 NBatch=           0 AvBLen=         0.0
 IPart= 31 NShTot=           0 NBatch=           0 AvBLen=         0.0
 IPart= 33 NShTot=           0 NBatch=           0 AvBLen=         0.0
 IPart=  5 NShTot=           0 NBatch=           0 AvBLen=         0.0
 IPart=  7 NShTot=           0 NBatch=           0 AvBLen=         0.0
 PrSmSu:  NxtVal=             37.
 *** Overlap *** 
                1             2             3             4             5 
      1  0.100000D+01
      2  0.553479D+00  0.100000D+01
      3  0.529300D+00  0.130369D+00  0.100000D+01
      4  0.400913D+00  0.157971D+00  0.861205D+00  0.100000D+01
      5  0.000000D+00  0.000000D+00  0.000000D+00  0.000000D+00  0.100000D+01
      6  0.000000D+00  0.000000D+00  0.000000D+00  0.000000D+00  0.000000D+00
      7 -0.334461D+00  0.000000D+00  0.000000D+00  0.000000D+00  0.000000D+00
      8  0.000000D+00  0.000000D+00  0.000000D+00  0.000000D+00  0.626620D+00
      9  0.000000D+00  0.000000D+00  0.000000D+00  0.000000D+00  0.000000D+00
     10 -0.974171D-01  0.000000D+00  0.000000D+00  0.000000D+00  0.000000D+00
     11  0.978181D-01  0.000000D+00  0.000000D+00  0.000000D+00  0.000000D+00
     12  0.000000D+00  0.000000D+00  0.000000D+00  0.000000D+00  0.000000D+00
     13  0.000000D+00  0.000000D+00  0.000000D+00  0.000000D+00  0.000000D+00
     14  0.000000D+00  0.000000D+00  0.000000D+00  0.000000D+00  0.000000D+00
     15  0.000000D+00  0.000000D+00  0.000000D+00  0.000000D+00  0.000000D+00
                6             7             8             9            10 
      6  0.100000D+01
      7  0.000000D+00  0.100000D+01
      8  0.000000D+00  0.000000D+00  0.100000D+01
      9  0.626620D+00  0.000000D+00  0.000000D+00  0.100000D+01
     10  0.000000D+00  0.626620D+00  0.000000D+00  0.000000D+00  0.100000D+01
     11  0.000000D+00  0.000000D+00  0.000000D+00  0.000000D+00  0.000000D+00
     12  0.000000D+00  0.000000D+00  0.000000D+00  0.000000D+00  0.000000D+00
     13  0.000000D+00  0.000000D+00  0.000000D+00  0.000000D+00  0.000000D+00
     14  0.000000D+00  0.000000D+00  0.000000D+00  0.000000D+00  0.000000D+00
     15  0.000000D+00  0.000000D+00  0.000000D+00  0.000000D+00  0.000000D+00
               11            12            13            14            15 
     11  0.100000D+01
     12  0.000000D+00  0.100000D+01
     13  0.000000D+00  0.000000D+00  0.100000D+01
     14  0.000000D+00  0.000000D+00  0.000000D+00  0.100000D+01
     15  0.000000D+00  0.000000D+00  0.000000D+00  0.000000D+00  0.100000D+01
 *** Kinetic Energy *** 
                1             2             3             4             5 
      1  0.760032D+00
      2  0.392815D+00  0.362154D+01
      3  0.103312D-01 -0.261904D+00  0.139297D+00
      4  0.297384D-01  0.128893D-01  0.513567D-01  0.420750D-01
      5  0.000000D+00  0.000000D+00  0.000000D+00  0.000000D+00  0.249967D+00
      6  0.000000D+00  0.000000D+00  0.000000D+00  0.000000D+00  0.000000D+00
      7 -0.173369D+00  0.000000D+00  0.000000D+00  0.000000D+00  0.000000D+00
      8  0.000000D+00  0.000000D+00  0.000000D+00  0.000000D+00  0.578002D-01
      9  0.000000D+00  0.000000D+00  0.000000D+00  0.000000D+00  0.000000D+00
     10 -0.105666D-01  0.000000D+00  0.000000D+00  0.000000D+00  0.000000D+00
     11  0.622693D-01  0.000000D+00  0.000000D+00  0.000000D+00  0.000000D+00
     12  0.000000D+00  0.000000D+00  0.000000D+00  0.000000D+00  0.000000D+00
     13  0.000000D+00  0.000000D+00  0.000000D+00  0.000000D+00  0.000000D+00
     14  0.000000D+00  0.000000D+00  0.000000D+00  0.000000D+00  0.000000D+00
     15  0.000000D+00  0.000000D+00  0.000000D+00  0.000000D+00  0.000000D+00
                6             7             8             9            10 
      6  0.249967D+00
      7  0.000000D+00  0.249967D+00
      8  0.000000D+00  0.000000D+00  0.600750D-01
      9  0.578002D-01  0.000000D+00  0.000000D+00  0.600750D-01
     10  0.000000D+00  0.578002D-01  0.000000D+00  0.000000D+00  0.600750D-01
     11  0.000000D+00  0.000000D+00  0.000000D+00  0.000000D+00  0.000000D+00
     12  0.000000D+00  0.000000D+00  0.000000D+00  0.000000D+00  0.000000D+00
     13  0.000000D+00  0.000000D+00  0.000000D+00  0.000000D+00  0.000000D+00
     14  0.000000D+00  0.000000D+00  0.000000D+00  0.000000D+00  0.000000D+00
     15  0.000000D+00  0.000000D+00  0.000000D+00  0.000000D+00  0.000000D+00
               11            12            13            14            15 
     11  0.433650D+00
     12  0.000000D+00  0.433650D+00
     13  0.000000D+00  0.000000D+00  0.433650D+00
     14  0.000000D+00  0.000000D+00  0.000000D+00  0.433650D+00
     15  0.000000D+00  0.000000D+00  0.000000D+00  0.000000D+00  0.433650D+00
 Entering OneElI...
 Calculate potential energy integrals
    NBasis =  15  MinDer = 0  MaxDer = 0
 Requested accuracy = 0.1000D-12
 Symmetry will be used
 PrmmSu-InSpLW:  IPartL=    0 NPrtUS=   36 NPrtUL=    1 DoSpLW=F IThBeg=    0 IThEnd=   35 NThAct=   36.
 PrSmSu:  IncTry=   512 NBBP=             56 NTPThr=   100 NPartT=   36 Incr=           1 LDynOK=F GPUOK=F.
 PrsmSu:  NPrtUS=  36 ThrOK=T IAlg=1 LenDen=           0 ISkipM=0 DoSpLW=F IThBeg=    0 IThEnd=   35.
 Prism:   IPart=     0 DynPar=F LinDyn=F Incr=           1.
 PRISM was handed   268432199 working-precision words and    28 shell-pairs
 PRISM was handed   268432199 working-precision words and    28 shell-pairs
 PRISM was handed   268432199 working-precision words and    28 shell-pairs
 PRISM was handed   268432199 working-precision words and    28 shell-pairs
 PRISM was handed   268432199 working-precision words and    28 shell-pairs
 PRISM was handed   268432199 working-precision words and    28 shell-pairs
 PRISM was handed   268432199 working-precision words and    28 shell-pairs
 PRISM was handed   268432199 working-precision words and    28 shell-pairs
 PRISM was handed   268432199 working-precision words and    28 shell-pairs
 PRISM was handed   268432199 working-precision words and    28 shell-pairs
 PRISM was handed   268432199 working-precision words and    28 shell-pairs
 PRISM was handed   268432199 working-precision words and    28 shell-pairs
 PRISM was handed   268432199 working-precision words and    28 shell-pairs
 PRISM was handed   268432199 working-precision words and    28 shell-pairs
 PRISM was handed   268432199 working-precision words and    28 shell-pairs
 PRISM was handed   268432199 working-precision words and    28 shell-pairs
 PRISM was handed   268432199 working-precision words and    28 shell-pairs
 PRISM was handed   268432199 working-precision words and    28 shell-pairs
 PRISM was handed   268432199 working-precision words and    28 shell-pairs
 PRISM was handed   268432199 working-precision words and    28 shell-pairs
 PRISM was handed   268432199 working-precision words and    28 shell-pairs
 PRISM was handed   268432199 working-precision words and    28 shell-pairs
 PRISM was handed   268432199 working-precision words and    28 shell-pairs
 PRISM was handed   268432199 working-precision words and    28 shell-pairs
 PRISM was handed   268432199 working-precision words and    28 shell-pairs
 PRISM was handed   268432199 working-precision words and    28 shell-pairs
 PRISM was handed   268432199 working-precision words and    28 shell-pairs
 PRISM was handed   268432199 working-precision words and    28 shell-pairs
 PRISM was handed   268432199 working-precision words and    28 shell-pairs
 PRISM was handed   268432199 working-precision words and    28 shell-pairs
 PRISM was handed   268432199 working-precision words and    28 shell-pairs
 PRISM was handed   268432199 working-precision words and    28 shell-pairs
 PRISM was handed   268432199 working-precision words and    28 shell-pairs
 PRISM was handed   268432199 working-precision words and    28 shell-pairs
 PRISM was handed   268432199 working-precision words and    28 shell-pairs
 PRISM was handed   268432199 working-precision words and    28 shell-pairs
 IPart=  6 NShTot=           0 NBatch=           0 AvBLen=         0.0
 IPart=  8 NShTot=           0 NBatch=           0 AvBLen=         0.0
 IPart=  2 NShTot=           0 NBatch=           0 AvBLen=         0.0
 IPart=  3 NShTot=           0 NBatch=           0 AvBLen=         0.0
 IPart=  7 NShTot=           0 NBatch=           0 AvBLen=         0.0
 IPart=  4 NShTot=           0 NBatch=           0 AvBLen=         0.0
 IPart=  1 NShTot=           2 NBatch=           1 AvBLen=         2.0
 IPart=  5 NShTot=           0 NBatch=           0 AvBLen=         0.0
 IPart=  0 NShTot=          54 NBatch=          27 AvBLen=         2.0
 IPart= 33 NShTot=           0 NBatch=           0 AvBLen=         0.0
 IPart= 21 NShTot=           0 NBatch=           0 AvBLen=         0.0
 IPart= 20 NShTot=           0 NBatch=           0 AvBLen=         0.0
 IPart= 34 NShTot=           0 NBatch=           0 AvBLen=         0.0
 IPart= 14 NShTot=           0 NBatch=           0 AvBLen=         0.0
 IPart= 35 NShTot=           0 NBatch=           0 AvBLen=         0.0
 IPart= 10 NShTot=           0 NBatch=           0 AvBLen=         0.0
 IPart= 25 NShTot=           0 NBatch=           0 AvBLen=         0.0
 IPart= 30 NShTot=           0 NBatch=           0 AvBLen=         0.0
 IPart= 16 NShTot=           0 NBatch=           0 AvBLen=         0.0
 IPart=  9 NShTot=           0 NBatch=           0 AvBLen=         0.0
 IPart= 11 NShTot=           0 NBatch=           0 AvBLen=         0.0
 IPart= 29 NShTot=           0 NBatch=           0 AvBLen=         0.0
 IPart= 13 NShTot=           0 NBatch=           0 AvBLen=         0.0
 IPart= 27 NShTot=           0 NBatch=           0 AvBLen=         0.0
 IPart= 22 NShTot=           0 NBatch=           0 AvBLen=         0.0
 IPart= 17 NShTot=           0 NBatch=           0 AvBLen=         0.0
 IPart= 24 NShTot=           0 NBatch=           0 AvBLen=         0.0
 IPart= 18 NShTot=           0 NBatch=           0 AvBLen=         0.0
 IPart= 15 NShTot=           0 NBatch=           0 AvBLen=         0.0
 IPart= 26 NShTot=           0 NBatch=           0 AvBLen=         0.0
 IPart= 12 NShTot=           0 NBatch=           0 AvBLen=         0.0
 IPart= 23 NShTot=           0 NBatch=           0 AvBLen=         0.0
 IPart= 19 NShTot=           0 NBatch=           0 AvBLen=         0.0
 IPart= 32 NShTot=           0 NBatch=           0 AvBLen=         0.0
 IPart= 28 NShTot=           0 NBatch=           0 AvBLen=         0.0
 IPart= 31 NShTot=           0 NBatch=           0 AvBLen=         0.0
 PrSmSu:  NxtVal=             37.
 ***** Potential Energy ***** 
                1             2             3             4             5 
      1  0.373784D+01
      2  0.328820D+01  0.909677D+01
      3  0.113405D+01  0.290044D+00  0.143210D+01
      4  0.989619D+00  0.768643D+00  0.110813D+01  0.106465D+01
      5  0.000000D+00  0.000000D+00  0.000000D+00  0.000000D+00  0.138706D+01
      6  0.000000D+00  0.000000D+00  0.000000D+00  0.000000D+00  0.000000D+00
      7 -0.899683D+00 -0.675621D-01 -0.789372D-01 -0.616517D-01  0.000000D+00
      8  0.000000D+00  0.000000D+00  0.000000D+00  0.000000D+00  0.624500D+00
      9  0.000000D+00  0.000000D+00  0.000000D+00  0.000000D+00  0.000000D+00
     10 -0.191467D+00 -0.833443D-02 -0.252274D-01 -0.243453D-01  0.000000D+00
     11  0.243852D+00  0.108797D-01  0.191138D-01  0.139473D-01  0.000000D+00
     12  0.000000D+00  0.000000D+00  0.000000D+00  0.000000D+00 -0.426437D-01
     13  0.000000D+00  0.000000D+00  0.000000D+00  0.000000D+00  0.000000D+00
     14  0.000000D+00  0.000000D+00  0.000000D+00  0.000000D+00  0.000000D+00
     15  0.000000D+00  0.000000D+00  0.000000D+00  0.000000D+00  0.000000D+00
                6             7             8             9            10 
      6  0.138706D+01
      7  0.000000D+00  0.142858D+01
      8  0.000000D+00  0.000000D+00  0.658251D+00
      9  0.624500D+00  0.000000D+00  0.000000D+00  0.658251D+00
     10  0.000000D+00  0.634250D+00  0.000000D+00  0.000000D+00  0.662368D+00
     11  0.000000D+00 -0.603717D-01  0.000000D+00  0.000000D+00 -0.222945D-01
     12  0.000000D+00  0.000000D+00 -0.170097D-01  0.000000D+00  0.000000D+00
     13 -0.426437D-01  0.000000D+00  0.000000D+00 -0.170097D-01  0.000000D+00
     14  0.000000D+00  0.000000D+00  0.000000D+00  0.000000D+00  0.000000D+00
     15  0.000000D+00  0.000000D+00  0.000000D+00  0.000000D+00  0.000000D+00
               11            12            13            14            15 
     11  0.120933D+01
     12  0.000000D+00  0.120174D+01
     13  0.000000D+00  0.000000D+00  0.120174D+01
     14  0.000000D+00  0.000000D+00  0.000000D+00  0.118917D+01
     15  0.000000D+00  0.000000D+00  0.000000D+00  0.000000D+00  0.118917D+01
 ****** Core Hamiltonian ****** 
                1             2             3             4             5 
      1 -0.297781D+01
      2 -0.289539D+01 -0.547523D+01
      3 -0.112372D+01 -0.551948D+00 -0.129281D+01
      4 -0.959881D+00 -0.755753D+00 -0.105678D+01 -0.102258D+01
      5  0.000000D+00  0.000000D+00  0.000000D+00  0.000000D+00 -0.113710D+01
      6  0.000000D+00  0.000000D+00  0.000000D+00  0.000000D+00  0.000000D+00
      7  0.726313D+00  0.675621D-01  0.789372D-01  0.616517D-01  0.000000D+00
      8  0.000000D+00  0.000000D+00  0.000000D+00  0.000000D+00 -0.566700D+00
      9  0.000000D+00  0.000000D+00  0.000000D+00  0.000000D+00  0.000000D+00
     10  0.180900D+00  0.833443D-02  0.252274D-01  0.243453D-01  0.000000D+00
     11 -0.181582D+00 -0.108797D-01 -0.191138D-01 -0.139473D-01  0.000000D+00
     12  0.000000D+00  0.000000D+00  0.000000D+00  0.000000D+00  0.426437D-01
     13  0.000000D+00  0.000000D+00  0.000000D+00  0.000000D+00  0.000000D+00
     14  0.000000D+00  0.000000D+00  0.000000D+00  0.000000D+00  0.000000D+00
     15  0.000000D+00  0.000000D+00  0.000000D+00  0.000000D+00  0.000000D+00
                6             7             8             9            10 
      6 -0.113710D+01
      7  0.000000D+00 -0.117862D+01
      8  0.000000D+00  0.000000D+00 -0.598176D+00
      9 -0.566700D+00  0.000000D+00  0.000000D+00 -0.598176D+00
     10  0.000000D+00 -0.576450D+00  0.000000D+00  0.000000D+00 -0.602293D+00
     11  0.000000D+00  0.603717D-01  0.000000D+00  0.000000D+00  0.222945D-01
     12  0.000000D+00  0.000000D+00  0.170097D-01  0.000000D+00  0.000000D+00
     13  0.426437D-01  0.000000D+00  0.000000D+00  0.170097D-01  0.000000D+00
     14  0.000000D+00  0.000000D+00  0.000000D+00  0.000000D+00  0.000000D+00
     15  0.000000D+00  0.000000D+00  0.000000D+00  0.000000D+00  0.000000D+00
               11            12            13            14            15 
     11 -0.775681D+00
     12  0.000000D+00 -0.768090D+00
     13  0.000000D+00  0.000000D+00 -0.768090D+00
     14  0.000000D+00  0.000000D+00  0.000000D+00 -0.755517D+00
     15  0.000000D+00  0.000000D+00  0.000000D+00  0.000000D+00 -0.755517D+00
 SVDSVc IOpt=   1 NormSV=T IR=1
 SVDSVc V= 2.41D+00 1.66D+00 1.12D+00 1.00D+00 9.97D-01 4.76D-01 2.41D-01 9.39D-02
 SVDSVc IOpt=   1 NormSV=T IR=2
 SVDSVc V= 1.00D+00
 SVDSVc IOpt=   1 NormSV=T IR=3
 SVDSVc V= 1.63D+00 1.00D+00 3.73D-01
 SVDSVc IOpt=   1 NormSV=T IR=4
 SVDSVc V= 1.63D+00 1.00D+00 3.73D-01
 TstOVc:  Largest diagonal error= 1.78D-15 IB=3 I=   12.
 TstOVc:  Largest same sym error= 1.18D-15 IB=1 I=    8 J=    2.
 TstOVc:  Largest diff sym error= 0.00D+00 IB=0 JB=0 I=    0 J=    0.
 Orthogonalized basis functions: 
                 1             2             3             4             5 
      1   0.342142D+00 -0.806902D-01  0.323508D+00  0.000000D+00 -0.317295D-01
      2   0.204594D+00  0.107603D-01  0.671879D+00  0.000000D+00 -0.283211D+00
      3   0.352527D+00  0.175697D+00 -0.323065D+00  0.000000D+00  0.664861D-01
      4   0.335668D+00  0.182700D+00 -0.346438D+00  0.000000D+00  0.621228D-01
      5   0.000000D+00  0.000000D+00  0.000000D+00  0.000000D+00  0.000000D+00
      6   0.000000D+00  0.000000D+00  0.000000D+00  0.000000D+00  0.000000D+00
      7  -0.114302D+00  0.522758D+00  0.873416D-01  0.000000D+00 -0.484518D-02
      8   0.000000D+00  0.000000D+00  0.000000D+00  0.000000D+00  0.000000D+00
      9   0.000000D+00  0.000000D+00  0.000000D+00  0.000000D+00  0.000000D+00
     10  -0.744682D-01  0.507897D+00  0.189729D+00  0.000000D+00 -0.169107D-01
     11   0.237463D-01 -0.119512D-01  0.258626D+00  0.000000D+00  0.955748D+00
     12   0.000000D+00  0.000000D+00  0.000000D+00  0.000000D+00  0.000000D+00
     13   0.000000D+00  0.000000D+00  0.000000D+00  0.000000D+00  0.000000D+00
     14   0.000000D+00  0.000000D+00  0.000000D+00  0.100000D+01  0.000000D+00
     15   0.000000D+00  0.000000D+00  0.000000D+00  0.000000D+00  0.000000D+00
                 6             7             8             9            10 
      1   0.659369D+00  0.996898D+00 -0.122949D+01  0.000000D+00  0.000000D+00
      2  -0.600919D+00 -0.613586D+00  0.727272D+00  0.000000D+00  0.000000D+00
      3  -0.861940D-02  0.474712D+00  0.224532D+01  0.000000D+00  0.000000D+00
      4  -0.309038D+00 -0.937976D+00 -0.171684D+01  0.000000D+00  0.000000D+00
      5   0.000000D+00  0.000000D+00  0.000000D+00  0.000000D+00  0.554424D+00
      6   0.000000D+00  0.000000D+00  0.000000D+00  0.000000D+00  0.000000D+00
      7  -0.639342D+00  0.105053D+01 -0.694601D+00  0.000000D+00  0.000000D+00
      8   0.000000D+00  0.000000D+00  0.000000D+00  0.000000D+00  0.554424D+00
      9   0.000000D+00  0.000000D+00  0.000000D+00  0.000000D+00  0.000000D+00
     10   0.886789D+00 -0.739728D+00  0.348166D+00  0.000000D+00  0.000000D+00
     11  -0.123040D+00 -0.128543D+00  0.132728D+00  0.000000D+00  0.000000D+00
     12   0.000000D+00  0.000000D+00  0.000000D+00  0.000000D+00  0.000000D+00
     13   0.000000D+00  0.000000D+00  0.000000D+00  0.000000D+00  0.000000D+00
     14   0.000000D+00  0.000000D+00  0.000000D+00  0.000000D+00  0.000000D+00
     15   0.000000D+00  0.000000D+00  0.000000D+00  0.100000D+01  0.000000D+00
                11            12            13            14            15 
      1   0.000000D+00  0.000000D+00  0.000000D+00  0.000000D+00  0.000000D+00
      2   0.000000D+00  0.000000D+00  0.000000D+00  0.000000D+00  0.000000D+00
      3   0.000000D+00  0.000000D+00  0.000000D+00  0.000000D+00  0.000000D+00
      4   0.000000D+00  0.000000D+00  0.000000D+00  0.000000D+00  0.000000D+00
      5   0.000000D+00  0.115720D+01  0.000000D+00  0.000000D+00  0.000000D+00
      6   0.000000D+00  0.000000D+00  0.554424D+00  0.000000D+00  0.115720D+01
      7   0.000000D+00  0.000000D+00  0.000000D+00  0.000000D+00  0.000000D+00
      8   0.000000D+00 -0.115720D+01  0.000000D+00  0.000000D+00  0.000000D+00
      9   0.000000D+00  0.000000D+00  0.554424D+00  0.000000D+00 -0.115720D+01
     10   0.000000D+00  0.000000D+00  0.000000D+00  0.000000D+00  0.000000D+00
     11   0.000000D+00  0.000000D+00  0.000000D+00  0.000000D+00  0.000000D+00
     12   0.100000D+01  0.000000D+00  0.000000D+00  0.000000D+00  0.000000D+00
     13   0.000000D+00  0.000000D+00  0.000000D+00  0.100000D+01  0.000000D+00
     14   0.000000D+00  0.000000D+00  0.000000D+00  0.000000D+00  0.000000D+00
     15   0.000000D+00  0.000000D+00  0.000000D+00  0.000000D+00  0.000000D+00
 NBasis=    15 RedAO= T EigKep=  9.39D-02  NBF=     8     1     3     3
 NBsUse=    15 1.00D-06 EigRej= -1.00D+00 NBFU=     8     1     3     3
 Leave Link  302 at Mon Mar 28 14:01:20 2022, MaxMem=  9663676416 cpu:               3.5 elap:               0.1
 (Enter /nopt/nrel/apps/gaussian/g16C_1/g16/l303.exe)
 DipDrv will not compute anything.
 Fermi contact integrals: 
                 1             2 
      1   0.628247D+00  0.238254D+00
      2   0.199336D+00  0.255622D+01
      3   0.410297D-01 -0.456508D-01
      4   0.476414D-01  0.488495D-01
      5   0.000000D+00  0.000000D+00
      6   0.000000D+00  0.000000D+00
      7  -0.111248D+00  0.000000D+00
      8   0.000000D+00  0.000000D+00
      9   0.000000D+00  0.000000D+00
     10  -0.124719D-01  0.000000D+00
     11   0.340395D-01  0.000000D+00
     12   0.000000D+00  0.000000D+00
     13   0.000000D+00  0.000000D+00
     14   0.000000D+00  0.000000D+00
     15   0.000000D+00  0.000000D+00
 Leave Link  303 at Mon Mar 28 14:01:20 2022, MaxMem=  9663676416 cpu:               0.8 elap:               0.0
 (Enter /nopt/nrel/apps/gaussian/g16C_1/g16/l401.exe)
 ExpMin= 2.40D-02 ExpMax= 1.47D+03 ExpMxC= 5.03D+01 IAcc=3 IRadAn=         5 AccDes= 0.00D+00
 Harris functional with IExCor=  205 and IRadAn=       5 diagonalized for initial guess.
 HarFok:  IExCor=  205 AccDes= 0.00D+00 IRadAn=         5 IDoV= 1 UseB2=F ITyADJ=14
 ICtDFT=  3500011 ScaDFX=  1.000000  1.000000  1.000000  1.000000
 FoFCou: FMM=F IPFlag=           0 FMFlag=      100000 FMFlg1=           0
         NFxFlg=           0 DoJE=T BraDBF=F KetDBF=T FulRan=T
         wScrn=  0.000000 ICntrl=       500 IOpCl=  0 I1Cent=   200000004 NGrid=           0
         NMat0=    1 NMatS0=      1 NMatT0=    0 NMatD0=    1 NMtDS0=    0 NMtDT0=    0
 Petite list used in FoFCou.
 Harris En= -7.19184604371709    
 JPrj=0 DoOrth=F DoCkMO=F.
 Initial guess orbital symmetries:
       Occupied  (SG) (SG)
       Virtual   (SG) (PI) (PI) (SG) (PI) (PI) (SG) (SG) (PI) (PI)
                 (DLTA) (DLTA) (SG)
 The electronic state of the initial guess is 1-SG.
 Leave Link  401 at Mon Mar 28 14:01:20 2022, MaxMem=  9663676416 cpu:               4.2 elap:               0.1
 (Enter /nopt/nrel/apps/gaussian/g16C_1/g16/l502.exe)
 Keep R1 ints in memory in symmetry-blocked form, NReq=7408286.
 FoFCou: FMM=F IPFlag=           0 FMFlag=           0 FMFlg1=           0
         NFxFlg=           0 DoJE=F BraDBF=F KetDBF=F FulRan=T
         wScrn=  0.000000 ICntrl=       600 IOpCl=  0 I1Cent=           0 NGrid=           0
         NMat0=    1 NMatS0=    120 NMatT0=    0 NMatD0=    1 NMtDS0=    0 NMtDT0=    0
 Petite list used in FoFCou.
 Closed shell SCF:
 Using DIIS extrapolation, IDIIS=  1040.
 NGot=  9663676416 LenX=  9663671353 LenY=  9663670471
 Requested convergence on RMS density matrix=1.00D-08 within 128 cycles.
 Requested convergence on MAX density matrix=1.00D-06.
 Requested convergence on             energy=1.00D-06.
 No special actions if energy rises.

 Cycle   1  Pass 1  IDiag  1:
 E= -7.10672563821096    
 DIIS: error= 2.80D-02 at cycle   1 NSaved=   1.
 NSaved= 1 IEnMin= 1 EnMin= -7.10672563821096     IErMin= 1 ErrMin= 2.80D-02
 ErrMax= 2.80D-02  0.00D+00 EMaxC= 1.00D-01 BMatC= 1.41D-02 BMatP= 1.41D-02
 IDIUse=3 WtCom= 7.20D-01 WtEn= 2.80D-01
 Coeff-Com:  0.100D+01
 Coeff-En:   0.100D+01
 Coeff:      0.100D+01
 Gap=     0.266 Goal=   None    Shift=    0.000
 GapD=    0.266 DampG=1.000 DampE=0.500 DampFc=0.5000 IDamp=-1.
 Damping current iteration by 5.00D-01
 RMSDP=8.85D-03 MaxDP=4.31D-02              OVMax= 7.01D-02

 Cycle   2  Pass 1  IDiag  1:
 E= -7.11295138118606     Delta-E=       -0.006225742975 Rises=F Damp=T
 DIIS: error= 1.54D-02 at cycle   2 NSaved=   2.
 NSaved= 2 IEnMin= 2 EnMin= -7.11295138118606     IErMin= 2 ErrMin= 1.54D-02
 ErrMax= 1.54D-02  0.00D+00 EMaxC= 1.00D-01 BMatC= 4.25D-03 BMatP= 1.41D-02
 IDIUse=3 WtCom= 8.46D-01 WtEn= 1.54D-01
 Coeff-Com: -0.119D+01 0.219D+01
 Coeff-En:   0.000D+00 0.100D+01
 Coeff:     -0.101D+01 0.201D+01
 Gap=     0.265 Goal=   None    Shift=    0.000
 RMSDP=7.09D-03 MaxDP=4.45D-02 DE=-6.23D-03 OVMax= 3.44D-02

 Cycle   3  Pass 1  IDiag  1:
 E= -7.12157249647549     Delta-E=       -0.008621115289 Rises=F Damp=F
 DIIS: error= 2.05D-03 at cycle   3 NSaved=   3.
 NSaved= 3 IEnMin= 3 EnMin= -7.12157249647549     IErMin= 3 ErrMin= 2.05D-03
 ErrMax= 2.05D-03  0.00D+00 EMaxC= 1.00D-01 BMatC= 4.71D-05 BMatP= 4.25D-03
 IDIUse=3 WtCom= 9.79D-01 WtEn= 2.05D-02
 Coeff-Com:  0.120D+01-0.222D+01 0.202D+01
 Coeff-En:   0.000D+00 0.000D+00 0.100D+01
 Coeff:      0.118D+01-0.218D+01 0.200D+01
 Gap=     0.274 Goal=   None    Shift=    0.000
 RMSDP=3.57D-03 MaxDP=2.87D-02 DE=-8.62D-03 OVMax= 4.03D-02

 Cycle   4  Pass 1  IDiag  1:
 E= -7.12230207805211     Delta-E=       -0.000729581577 Rises=F Damp=F
 DIIS: error= 8.27D-04 at cycle   4 NSaved=   4.
 NSaved= 4 IEnMin= 4 EnMin= -7.12230207805211     IErMin= 4 ErrMin= 8.27D-04
 ErrMax= 8.27D-04  0.00D+00 EMaxC= 1.00D-01 BMatC= 7.34D-06 BMatP= 4.71D-05
 IDIUse=3 WtCom= 9.92D-01 WtEn= 8.27D-03
 Coeff-Com: -0.101D+01 0.189D+01-0.209D+01 0.221D+01
 Coeff-En:   0.000D+00 0.000D+00 0.000D+00 0.100D+01
 Coeff:     -0.101D+01 0.188D+01-0.207D+01 0.220D+01
 Gap=     0.278 Goal=   None    Shift=    0.000
 RMSDP=2.05D-03 MaxDP=1.59D-02 DE=-7.30D-04 OVMax= 2.38D-02

 Cycle   5  Pass 1  IDiag  1:
 E= -7.12242668789863     Delta-E=       -0.000124609847 Rises=F Damp=F
 DIIS: error= 5.64D-05 at cycle   5 NSaved=   5.
 NSaved= 5 IEnMin= 5 EnMin= -7.12242668789863     IErMin= 5 ErrMin= 5.64D-05
 ErrMax= 5.64D-05  0.00D+00 EMaxC= 1.00D-01 BMatC= 3.71D-08 BMatP= 7.34D-06
 IDIUse=1 WtCom= 1.00D+00 WtEn= 0.00D+00
 Coeff-Com:  0.944D-01-0.178D+00 0.246D+00-0.322D+00 0.116D+01
 Coeff:      0.944D-01-0.178D+00 0.246D+00-0.322D+00 0.116D+01
 Gap=     0.278 Goal=   None    Shift=    0.000
 RMSDP=4.94D-05 MaxDP=2.49D-04 DE=-1.25D-04 OVMax= 4.54D-04

 Cycle   6  Pass 1  IDiag  1:
 E= -7.12242682106564     Delta-E=       -0.000000133167 Rises=F Damp=F
 DIIS: error= 1.12D-05 at cycle   6 NSaved=   6.
 NSaved= 6 IEnMin= 6 EnMin= -7.12242682106564     IErMin= 6 ErrMin= 1.12D-05
 ErrMax= 1.12D-05  0.00D+00 EMaxC= 1.00D-01 BMatC= 9.72D-10 BMatP= 3.71D-08
 IDIUse=1 WtCom= 1.00D+00 WtEn= 0.00D+00
 Coeff-Com:  0.267D-02-0.490D-02-0.203D-02 0.200D-02-0.499D-01 0.105D+01
 Coeff:      0.267D-02-0.490D-02-0.203D-02 0.200D-02-0.499D-01 0.105D+01
 Gap=     0.278 Goal=   None    Shift=    0.000
 RMSDP=2.27D-05 MaxDP=1.75D-04 DE=-1.33D-07 OVMax= 2.76D-04

 Cycle   7  Pass 1  IDiag  1:
 E= -7.12242683656992     Delta-E=       -0.000000015504 Rises=F Damp=F
 DIIS: error= 1.49D-06 at cycle   7 NSaved=   7.
 NSaved= 7 IEnMin= 7 EnMin= -7.12242683656992     IErMin= 7 ErrMin= 1.49D-06
 ErrMax= 1.49D-06  0.00D+00 EMaxC= 1.00D-01 BMatC= 1.52D-11 BMatP= 9.72D-10
 IDIUse=1 WtCom= 1.00D+00 WtEn= 0.00D+00
 Coeff-Com: -0.566D-02 0.106D-01-0.116D-01 0.153D-01-0.408D-01-0.268D+00
 Coeff-Com:  0.130D+01
 Coeff:     -0.566D-02 0.106D-01-0.116D-01 0.153D-01-0.408D-01-0.268D+00
 Coeff:      0.130D+01
 Gap=     0.278 Goal=   None    Shift=    0.000
 RMSDP=1.92D-06 MaxDP=1.09D-05 DE=-1.55D-08 OVMax= 1.43D-05

 Cycle   8  Pass 1  IDiag  1:
 E= -7.12242683669195     Delta-E=       -0.000000000122 Rises=F Damp=F
 DIIS: error= 2.20D-07 at cycle   8 NSaved=   8.
 NSaved= 8 IEnMin= 8 EnMin= -7.12242683669195     IErMin= 8 ErrMin= 2.20D-07
 ErrMax= 2.20D-07  0.00D+00 EMaxC= 1.00D-01 BMatC= 7.34D-13 BMatP= 1.52D-11
 IDIUse=1 WtCom= 1.00D+00 WtEn= 0.00D+00
 Coeff-Com: -0.763D-04 0.132D-03 0.118D-03-0.103D-05 0.100D-02-0.238D-01
 Coeff-Com: -0.459D-01 0.107D+01
 Coeff:     -0.763D-04 0.132D-03 0.118D-03-0.103D-05 0.100D-02-0.238D-01
 Coeff:     -0.459D-01 0.107D+01
 Gap=     0.278 Goal=   None    Shift=    0.000
 RMSDP=6.36D-07 MaxDP=4.87D-06 DE=-1.22D-10 OVMax= 6.32D-06

 Cycle   9  Pass 1  IDiag  1:
 E= -7.12242683669954     Delta-E=       -0.000000000008 Rises=F Damp=F
 DIIS: error= 3.36D-08 at cycle   9 NSaved=   9.
 NSaved= 9 IEnMin= 9 EnMin= -7.12242683669954     IErMin= 9 ErrMin= 3.36D-08
 ErrMax= 3.36D-08  0.00D+00 EMaxC= 1.00D-01 BMatC= 1.25D-14 BMatP= 7.34D-13
 IDIUse=1 WtCom= 1.00D+00 WtEn= 0.00D+00
 Coeff-Com: -0.195D-04 0.378D-04-0.443D-04 0.303D-04 0.205D-05-0.512D-02
 Coeff-Com:  0.366D-01-0.225D+00 0.119D+01
 Coeff:     -0.195D-04 0.378D-04-0.443D-04 0.303D-04 0.205D-05-0.512D-02
 Coeff:      0.366D-01-0.225D+00 0.119D+01
 Gap=     0.278 Goal=   None    Shift=    0.000
 RMSDP=7.02D-08 MaxDP=5.44D-07 DE=-7.60D-12 OVMax= 8.06D-07

 Cycle  10  Pass 1  IDiag  1:
 E= -7.12242683669968     Delta-E=       -0.000000000000 Rises=F Damp=F
 DIIS: error= 1.12D-09 at cycle  10 NSaved=  10.
 NSaved=10 IEnMin=10 EnMin= -7.12242683669968     IErMin=10 ErrMin= 1.12D-09
 ErrMax= 1.12D-09  0.00D+00 EMaxC= 1.00D-01 BMatC= 1.45D-17 BMatP= 1.25D-14
 IDIUse=1 WtCom= 1.00D+00 WtEn= 0.00D+00
 Coeff-Com: -0.193D-05 0.369D-05-0.698D-05 0.919D-05-0.416D-04 0.427D-03
 Coeff-Com: -0.867D-03-0.864D-03-0.577D-01 0.106D+01
 Coeff:     -0.193D-05 0.369D-05-0.698D-05 0.919D-05-0.416D-04 0.427D-03
 Coeff:     -0.867D-03-0.864D-03-0.577D-01 0.106D+01
 Gap=     0.278 Goal=   None    Shift=    0.000
 RMSDP=1.73D-09 MaxDP=1.31D-08 DE=-1.37D-13 OVMax= 2.04D-08

 SCF Done:  E(RHF) =  -7.12242683670     A.U. after   10 cycles
            NFock= 10  Conv=0.17D-08     -V/T= 1.8457
 KE= 8.421541478770D+00 PE=-2.267317158407D+01 EE= 3.954140003080D+00
 Leave Link  502 at Mon Mar 28 14:01:20 2022, MaxMem=  9663676416 cpu:               4.0 elap:               0.1
 (Enter /nopt/nrel/apps/gaussian/g16C_1/g16/l801.exe)
 Windowed orbitals will be sorted by symmetry type.
 ExpMin= 2.40D-02 ExpMax= 1.47D+03 ExpMxC= 5.03D+01 IAcc=3 IRadAn=         5 AccDes= 0.00D+00
 HarFok:  IExCor=  205 AccDes= 0.00D+00 IRadAn=         5 IDoV=-2 UseB2=F ITyADJ=14
 ICtDFT= 12500011 ScaDFX=  1.000000  1.000000  1.000000  1.000000
 Largest valence mixing into a core orbital is  2.95D-03
 Largest core mixing into a valence orbital is  6.70D-06
 Range of M.O.s used for correlation:     2    15
 NBasis=    15 NAE=     2 NBE=     2 NFC=     1 NFV=     0
 NROrb=     14 NOA=     1 NOB=     1 NVA=    13 NVB=    13
 Leave Link  801 at Mon Mar 28 14:01:20 2022, MaxMem=  9663676416 cpu:               2.0 elap:               0.1
 (Enter /nopt/nrel/apps/gaussian/g16C_1/g16/l804.exe)
 Closed-shell transformation, MDV=  9663676416 ITran=4 ISComp=2.
 Unit  1 TFree=          9011 TCopy=        117616.
 Semi-Direct transformation.
 ModeAB=           2 MOrb=             1 LenV=    9663497428
 LASXX=          322 LTotXX=         322 LenRXX=         322
 LTotAB=         441 MaxLAS=        1904 LenRXY=        1904
 NonZer=        2198 LenScr=      785920 LnRSAI=           0
 LnScr1=           0 LExtra=      220923 Total=      1009069
 MaxDsk= 34359738368 SrtSym=           F ITran=            4
 DoSDTr:  NPSUse= 36
 JobTyp=0 Pass  1:  I=   1 to   1.
 (rs|ai) integrals will be sorted in core.
 Complete sort for first half transformation.
 First half transformation complete.
 Complete sort for second half transformation.
 Second half transformation complete.
 Spin components of T(2) and E(2):
     alpha-alpha T2 =       0.0000000000D+00 E2=      0.0000000000D+00
     alpha-beta  T2 =       0.1596114230D-01 E2=     -0.1781453612D-01
     beta-beta   T2 =       0.0000000000D+00 E2=      0.0000000000D+00
 ANorm=    0.1007948978D+01
 E2 =    -0.1781453612D-01 EUMP2 =    -0.71402413728204D+01
 Leave Link  804 at Mon Mar 28 14:01:20 2022, MaxMem=  9663676416 cpu:               2.4 elap:               0.1
 (Enter /nopt/nrel/apps/gaussian/g16C_1/g16/l913.exe)
 CIDS:  MDV=  9663676416.
 Frozen-core window:  NFC=   1 NFV=   0.
 IFCWin=0 IBDFC=1 NFBD=     0     0 NFCmp=     0     0 NFFFC=     0     0
 Using DD3R+UMP44R for 1st iteration.
 Using DD4RQ for 2nd and later iterations.
 Keep R2 and R3 ints in memory in symmetry-blocked form, NReq=7410700.
 FoFCou: FMM=F IPFlag=           0 FMFlag=           0 FMFlg1=           0
         NFxFlg=           0 DoJE=F BraDBF=F KetDBF=F FulRan=T
         wScrn=  0.000000 ICntrl=       600 IOpCl=  0 I1Cent=           0 NGrid=           0
         NMat0=    1 NMatS0=    120 NMatT0=    0 NMatD0=    1 NMtDS0=    0 NMtDT0=    0
 Petite list used in FoFCou.
 CIDS: In Core Option IDoMem=           1.
 Coupled Cluster theory with single and double substitutions
 ===========================================================
 Iterations= 200 Convergence= 0.100D-06
 Produce multiple copies of IABC intergrals
 Iteration Nr.   1
 **********************
 DD1Dir will call FoFMem   1 times, MxPair=         2
 NAB=     1 NAA=     0 NBB=     0.
 MP4(R+Q)=  0.28434035D-03
 Maximum subspace dimension=  5
 A-vector RMS=  9.4520133D-03 Max=  1.2849884D-02 conv= 1.00D-05.
 RLE energy=       -0.0265144153
 E3=       -0.61332077D-02        EUMP3=      -0.71463745806D+01
 E4(DQ)=   -0.22080020D-02        UMP4(DQ)=   -0.71485825825D+01
 E4(SDQ)=  -0.22974398D-02        UMP4(SDQ)=  -0.71486720204D+01
 VARIATIONAL ENERGIES WITH THE FIRST-ORDER WAVEFUNCTION:
 DE(Corr)= -0.23659822E-01 E(Corr)=     -7.1460866588    
 NORM(A)=   0.10191397D+01
 Iteration Nr.   2
 **********************
 DD1Dir will call FoFMem   1 times, MxPair=         2
 NAB=     1 NAA=     0 NBB=     0.
 A-vector RMS=  6.1335572D-03 Max=  7.6330478D-03 conv= 1.00D-05.
 RLE energy=       -0.0276218078
 DE(Corr)= -0.26973038E-01 E(CORR)=     -7.1493998747     Delta=-3.31D-03
 NORM(A)=   0.10230613D+01
 Iteration Nr.   3
 **********************
 DD1Dir will call FoFMem   1 times, MxPair=         2
 NAB=     1 NAA=     0 NBB=     0.
 A-vector RMS=  4.0930400D-03 Max=  6.1305598D-03 conv= 1.00D-05.
 RLE energy=       -0.0280776876
 DE(Corr)= -0.27705129E-01 E(CORR)=     -7.1501319654     Delta=-7.32D-04
 NORM(A)=   0.10259504D+01
 Iteration Nr.   4
 **********************
 DD1Dir will call FoFMem   1 times, MxPair=         2
 NAB=     1 NAA=     0 NBB=     0.
 A-vector RMS=  1.9360790D-03 Max=  2.6916010D-03 conv= 1.00D-05.
 RLE energy=       -0.0281047703
 DE(Corr)= -0.28036241E-01 E(CORR)=     -7.1504630782     Delta=-3.31D-04
 NORM(A)=   0.10274125D+01
 Iteration Nr.   5
 **********************
 DD1Dir will call FoFMem   1 times, MxPair=         2
 NAB=     1 NAA=     0 NBB=     0.
 A-vector RMS=  4.8309302D-04 Max=  4.8017735D-04 conv= 1.00D-05.
 RLE energy=       -0.0280922931
 DE(Corr)= -0.28098006E-01 E(CORR)=     -7.1505248422     Delta=-6.18D-05
 NORM(A)=   0.10276860D+01
 Iteration Nr.   6
 **********************
 DD1Dir will call FoFMem   1 times, MxPair=         2
 NAB=     1 NAA=     0 NBB=     0.
 A-vector RMS=  1.1173200D-04 Max=  2.0797527D-04 conv= 1.00D-05.
 RLE energy=       -0.0281091420
 DE(Corr)= -0.28101858E-01 E(CORR)=     -7.1505286948     Delta=-3.85D-06
 NORM(A)=   0.10277328D+01
 Iteration Nr.   7
 **********************
 DD1Dir will call FoFMem   1 times, MxPair=         2
 NAB=     1 NAA=     0 NBB=     0.
 A-vector RMS=  2.4822536D-05 Max=  3.0256065D-05 conv= 1.00D-05.
 RLE energy=       -0.0281078119
 DE(Corr)= -0.28108297E-01 E(CORR)=     -7.1505351337     Delta=-6.44D-06
 NORM(A)=   0.10277261D+01
 Iteration Nr.   8
 **********************
 DD1Dir will call FoFMem   1 times, MxPair=         2
 NAB=     1 NAA=     0 NBB=     0.
 A-vector RMS=  4.5815796D-06 Max=  5.0528495D-06 conv= 1.00D-05.
 RLE energy=       -0.0281078406
 DE(Corr)= -0.28107797E-01 E(CORR)=     -7.1505346341     Delta= 5.00D-07
 NORM(A)=   0.10277272D+01
 Iteration Nr.   9
 **********************
 DD1Dir will call FoFMem   1 times, MxPair=         2
 NAB=     1 NAA=     0 NBB=     0.
 A-vector RMS=  1.7513136D-06 Max=  1.9812915D-06 conv= 1.00D-05.
 RLE energy=       -0.0281077184
 DE(Corr)= -0.28107790E-01 E(CORR)=     -7.1505346269     Delta= 7.14D-09
 NORM(A)=   0.10277268D+01
 CI/CC converged in    9 iterations to DelEn= 7.14D-09 Conv= 1.00D-07 ErrA1= 1.75D-06 Conv= 1.00D-05
 Wavefunction amplitudes converged. E(Corr)=     -7.1505346269    
 Largest amplitude= 6.63D-02
 Discarding MO integrals.
 Leave Link  913 at Mon Mar 28 14:01:20 2022, MaxMem=  9663676416 cpu:               4.8 elap:               0.2
 (Enter /nopt/nrel/apps/gaussian/g16C_1/g16/l601.exe)
 Copying SCF densities to generalized density rwf, IOpCl= 0 IROHF=0.

 **********************************************************************

            Population analysis using the SCF Density.

 **********************************************************************

 Orbital symmetries:
       Occupied  (SG) (SG)
       Virtual   (SG) (PI) (PI) (SG) (SG) (PI) (PI) (SG) (PI) (PI)
                 (DLTA) (DLTA) (SG)
 The electronic state is 1-SG.
 Alpha  occ. eigenvalues --   -2.89197  -0.27971
 Alpha virt. eigenvalues --   -0.00172   0.04053   0.04053   0.08772   0.13086
 Alpha virt. eigenvalues --    0.14080   0.14080   0.35081   0.35960   0.35960
 Alpha virt. eigenvalues --    0.36183   0.36183   0.90151
          Condensed to atoms (all electrons):
               1          2
     1  H    0.448158   0.301849
     2  Li   0.301849   2.948144
 Mulliken charges:
               1
     1  H    0.249993
     2  Li  -0.249993
 Sum of Mulliken charges =  -0.00000
 Mulliken charges with hydrogens summed into heavy atoms:
               1
     2  Li  -0.000000
 N-N= 3.175063265520D+00 E-N=-2.267317159481D+01  KE= 8.421541478770D+00
 Symmetry A1   KE= 8.421541478770D+00
 Symmetry A2   KE= 1.186878156920D-53
 Symmetry B1   KE= 0.000000000000D+00
 Symmetry B2   KE= 0.000000000000D+00

 Atomic contributions to Alpha molecular orbitals:
 Alpha occ 1 OE=-2.892 is Li2-s=0.9583
 Alpha occ 2 OE=-0.280 is Li2-s=0.4721 H1-s=0.3332 Li2-p=0.1938
 Alpha vir 3 OE=-0.002 is Li2-p=0.5511 Li2-s=0.4308
 Alpha vir 4 OE=0.041 is Li2-p=0.9974
 Alpha vir 5 OE=0.041 is Li2-p=0.9974
 Alpha vir 6 OE=0.088 is Li2-p=0.8457 Li2-s=0.1336
 Alpha vir 7 OE=0.131 is Li2-s=0.7498 Li2-p=0.2312
 Alpha vir 8 OE=0.141 is Li2-p=0.9972
 Alpha vir 9 OE=0.141 is Li2-p=0.9972
 Alpha vir 10 OE=0.351 is Li2-d=0.9680
 Alpha vir 11 OE=0.360 is Li2-d=0.9946
 Alpha vir 12 OE=0.360 is Li2-d=0.9946
 Alpha vir 13 OE=0.362 is Li2-d=1.0000
 Alpha vir 14 OE=0.362 is Li2-d=1.0000
 Alpha vir 15 OE=0.902 is H1-s=0.5645 Li2-s=0.2363 Li2-p=0.1743
 
 Leave Link  601 at Mon Mar 28 14:01:20 2022, MaxMem=  9663676416 cpu:               3.0 elap:               0.1
 (Enter /nopt/nrel/apps/gaussian/g16C_1/g16/l9999.exe)

 Test job not archived.
 1\1\GINC-R102U34\SP\RCCSD-FC\Gen\H1Li1\USER\28-Mar-2022\0\\#P CCSD
 (MaxCyc=200,SaveAmplitudes,ReadAmplitudes)/GEN sp pop=AllOrbitals iop(
 3/33=1,3/36=-1)\\test\\0,1\H,0,0.,0.,0.\Li,0,0.,0.,0.5\\Version=ES64L-
 G16RevC.01\State=1-SG\HF=-7.1224268\MP2=-7.1402414\MP3=-7.1463746\MP4D
 =-7.1488669\MP4DQ=-7.1485826\MP4SDQ=-7.148672\CCSD=-7.1505346\RMSD=1.7
 33e-09\PG=C*V [C*(H1Li1)]\\@


 REFRAIN FROM ILLUSIONS, INSIST ON WORK AND NOT WORDS,
 PATIENTLY SEEK DIVINE AND SCIENTIFIC TRUTH.
 LAST WORDS OF MARIA MENDELEEVA TO HER SON DMITRI, C. 1850
 Job cpu time:       0 days  0 hours  0 minutes 34.4 seconds.
 Elapsed time:       0 days  0 hours  0 minutes  1.3 seconds.
 File lengths (MBytes):  RWF=     13 Int=      0 D2E=      0 Chk=      1 Scr=      1
 Normal termination of Gaussian 16 at Mon Mar 28 14:01:20 2022.
