 Entering Gaussian System, Link 0=g16
 Initial command:
 /nopt/nrel/apps/gaussian/g16C_1/g16/l1.exe "/lustre/eaglefs/scratch/user/qc/lih-dissc/lih-1-ccsd-1.5-sto3g/Gau-15561.inp" -scrdir="/lustre/eaglefs/scratch/user/qc/lih-dissc/lih-1-ccsd-1.5-sto3g/"
 Default is to use a total of  36 processors:
                               36 via shared-memory
                                1 via Linda
 Entering Link 1 = /nopt/nrel/apps/gaussian/g16C_1/g16/l1.exe PID=     15562.
  
 Copyright (c) 1988-2019, Gaussian, Inc.  All Rights Reserved.
  
 This is part of the Gaussian(R) 16 program.  It is based on
 the Gaussian(R) 09 system (copyright 2009, Gaussian, Inc.),
 the Gaussian(R) 03 system (copyright 2003, Gaussian, Inc.),
 the Gaussian(R) 98 system (copyright 1998, Gaussian, Inc.),
 the Gaussian(R) 94 system (copyright 1995, Gaussian, Inc.),
 the Gaussian 92(TM) system (copyright 1992, Gaussian, Inc.),
 the Gaussian 90(TM) system (copyright 1990, Gaussian, Inc.),
 the Gaussian 88(TM) system (copyright 1988, Gaussian, Inc.),
 the Gaussian 86(TM) system (copyright 1986, Carnegie Mellon
 University), and the Gaussian 82(TM) system (copyright 1983,
 Carnegie Mellon University). Gaussian is a federally registered
 trademark of Gaussian, Inc.
  
 This software contains proprietary and confidential information,
 including trade secrets, belonging to Gaussian, Inc.
  
 This software is provided under written license and may be
 used, copied, transmitted, or stored only in accord with that
 written license.
  
 The following legend is applicable only to US Government
 contracts under FAR:
  
                    RESTRICTED RIGHTS LEGEND
  
 Use, reproduction and disclosure by the US Government is
 subject to restrictions as set forth in subparagraphs (a)
 and (c) of the Commercial Computer Software - Restricted
 Rights clause in FAR 52.227-19.
  
 Gaussian, Inc.
 340 Quinnipiac St., Bldg. 40, Wallingford CT 06492
  
  
 ---------------------------------------------------------------
 Warning -- This program may not be used in any manner that
 competes with the business of Gaussian, Inc. or will provide
 assistance to any competitor of Gaussian, Inc.  The licensee
 of this program is prohibited from giving any competitor of
 Gaussian, Inc. access to this program.  By using this program,
 the user acknowledges that Gaussian, Inc. is engaged in the
 business of creating and licensing software in the field of
 computational chemistry and represents and warrants to the
 licensee that it is not a competitor of Gaussian, Inc. and that
 it will not use this program in any manner prohibited above.
 ---------------------------------------------------------------
  

 Cite this work as:
 Gaussian 16, Revision C.01,
 M. J. Frisch, G. W. Trucks, H. B. Schlegel, G. E. Scuseria, 
 M. A. Robb, J. R. Cheeseman, G. Scalmani, V. Barone, 
 G. A. Petersson, H. Nakatsuji, X. Li, M. Caricato, A. V. Marenich, 
 J. Bloino, B. G. Janesko, R. Gomperts, B. Mennucci, H. P. Hratchian, 
 J. V. Ortiz, A. F. Izmaylov, J. L. Sonnenberg, D. Williams-Young, 
 F. Ding, F. Lipparini, F. Egidi, J. Goings, B. Peng, A. Petrone, 
 T. Henderson, D. Ranasinghe, V. G. Zakrzewski, J. Gao, N. Rega, 
 G. Zheng, W. Liang, M. Hada, M. Ehara, K. Toyota, R. Fukuda, 
 J. Hasegawa, M. Ishida, T. Nakajima, Y. Honda, O. Kitao, H. Nakai, 
 T. Vreven, K. Throssell, J. A. Montgomery, Jr., J. E. Peralta, 
 F. Ogliaro, M. J. Bearpark, J. J. Heyd, E. N. Brothers, K. N. Kudin, 
 V. N. Staroverov, T. A. Keith, R. Kobayashi, J. Normand, 
 K. Raghavachari, A. P. Rendell, J. C. Burant, S. S. Iyengar, 
 J. Tomasi, M. Cossi, J. M. Millam, M. Klene, C. Adamo, R. Cammi, 
 J. W. Ochterski, R. L. Martin, K. Morokuma, O. Farkas, 
 J. B. Foresman, and D. J. Fox, Gaussian, Inc., Wallingford CT, 2019.
 
 ******************************************
 Gaussian 16:  ES64L-G16RevC.01  3-Jul-2019
                28-Mar-2022 
 ******************************************
 %chk=molecule
 Default route: CacheSize=180224 MaxDisk=256GB
 ----------------------------------------------------------------------
 #P CCSD(MaxCyc=200,SaveAmplitudes,ReadAmplitudes)/GEN sp pop=AllOrbita
 ls iop(3/33=1,3/36=-1)
 ----------------------------------------------------------------------
 1/4=180224,38=1,172=1/1;
 2/4=180224,12=2,17=6,18=5,40=1/2;
 3/4=180224,5=7,11=9,25=1,30=1,33=1,36=-1/1,2,3;
 4/4=180224/1;
 5/4=180224,5=2,38=5/2;
 8/4=180224,6=4,9=120000,10=1,24=1/1,4;
 9/4=180224,5=7,6=200,77=1/13;
 6/4=180224,7=2,8=2,9=2,10=2,96=-1/1;
 99/4=180224,5=1,9=1/99;
 Leave Link    1 at Mon Mar 28 13:59:14 2022, MaxMem=           0 cpu:               2.2 elap:               0.1
 (Enter /nopt/nrel/apps/gaussian/g16C_1/g16/l101.exe)
 ----
 test
 ----
 Symbolic Z-matrix:
 Charge =  0 Multiplicity = 1
 H                     0.        0.        0. 
 Li                    0.        0.        1.5 
 
 ITRead=  0  0
 MicOpt= -1 -1
 NAtoms=      2 NQM=        2 NQMF=       0 NMMI=      0 NMMIF=      0
                NMic=       0 NMicF=      0.
                    Isotopes and Nuclear Properties:
 (Nuclear quadrupole moments (NQMom) in fm**2, nuclear magnetic moments (NMagM)
  in nuclear magnetons)

  Atom         1           2
 IAtWgt=           1           7
 AtmWgt=   1.0078250   7.0160045
 NucSpn=           1           3
 AtZEff=  -0.0000000  -0.0000000
 NQMom=    0.0000000  -4.0100000
 NMagM=    2.7928460   3.2564240
 AtZNuc=   1.0000000   3.0000000
 Leave Link  101 at Mon Mar 28 13:59:14 2022, MaxMem=  9663676416 cpu:               3.4 elap:               0.1
 (Enter /nopt/nrel/apps/gaussian/g16C_1/g16/l202.exe)
                          Input orientation:                          
 ---------------------------------------------------------------------
 Center     Atomic      Atomic             Coordinates (Angstroms)
 Number     Number       Type             X           Y           Z
 ---------------------------------------------------------------------
      1          1           0        0.000000    0.000000    0.000000
      2          3           0        0.000000    0.000000    1.500000
 ---------------------------------------------------------------------
 Stoichiometry    HLi
 Framework group  C*V[C*(HLi)]
 Deg. of freedom     1
 Full point group                 C*V     NOp   4
 Largest Abelian subgroup         C2V     NOp   4
 Largest concise Abelian subgroup C1      NOp   1
                         Standard orientation:                         
 ---------------------------------------------------------------------
 Center     Atomic      Atomic             Coordinates (Angstroms)
 Number     Number       Type             X           Y           Z
 ---------------------------------------------------------------------
      1          1           0        0.000000    0.000000   -1.125000
      2          3           0        0.000000    0.000000    0.375000
 ---------------------------------------------------------------------
 Rotational constants (GHZ):           0.0000000         254.8832952         254.8832952
 Leave Link  202 at Mon Mar 28 13:59:14 2022, MaxMem=  9663676416 cpu:               0.9 elap:               0.0
 (Enter /nopt/nrel/apps/gaussian/g16C_1/g16/l301.exe)
 General basis read from cards:  (5D, 7F)
                         Coordinates in L301:                         
 ---------------------------------------------------------------------
 Center     Atomic      Atomic             Coordinates (Angstroms)
 Number     Number       Type             X           Y           Z
 ---------------------------------------------------------------------
      1          1           0        0.000000    0.000000   -1.125000
      2          3           0        0.000000    0.000000    0.375000
 ---------------------------------------------------------------------
 Centers:       1
 STO-3G
 ****
 Centers:       2
 STO-3G
 ****
 FixB: optimizing general contractions.
 Ernie: Thresh=  0.10000D-02 Tol=  0.10000D-05 Strict=F.
 IA=     1 ShT= 0 ShC= 0 NL=   1 NS=   0.
 IA=     1 L=0 SC=0 ISt=    0 NBk=    0 NP=    0 IndPr=    0.
 IA=     2 ShT= 0 ShC= 0 NL=   1 NS=   0.
 IA=     2 L=0 SC=0 ISt=    0 NBk=    0 NP=    0 IndPr=    0.
 IA=     2 ShT= 1 ShC= 0 NL=   1 NS=   0.
 IA=     2 L=1 SC=0 ISt=    0 NBk=    0 NP=    0 IndPr=    0.
 LdAtmC:  AtmChg=     1.000000     3.000000
 AtZEff=     -1.0000000     -1.3500000
 NEqShl: 
              1            2            3            4
     1            1            1            1            1
     2            2            2            2            2
     3            3            3            3            3
 NEqBas: 
              1            2            3            4
     1            1            1            1            1
     2            2            2            2            2
     3            3            3            3            3
     4            4           -4           -4            4
     5            5           -5            5           -5
     6            6            6            6            6
 There are     4 symmetry adapted cartesian basis functions of A1  symmetry.
   1         1   1   1   1
   2         2   2   2   2
   3         3   3   3   3
   4         6   6   6   6
 There are     0 symmetry adapted cartesian basis functions of A2  symmetry.
 There are     1 symmetry adapted cartesian basis functions of B1  symmetry.
   5         4   4   4   4
 There are     1 symmetry adapted cartesian basis functions of B2  symmetry.
   6         5   5   5   5
 Order= 1 2 4 3
 Reordered character table:
              1            2            3            4            5
     1            1            1            1            1            1
     2            2            1            1           -1           -1
     3            4            1           -1           -1            1
     4            3            1           -1            1           -1
 NEqShl: 
              1            2            3            4
     1            1            1            1            1
     2            2            2            2            2
     3            3            3            3            3
 NEqBas: 
              1            2            3            4
     1            1            1            1            1
     2            2            2            2            2
     3            3            3            3            3
     4            4           -4           -4            4
     5            5           -5            5           -5
     6            6            6            6            6
 There are     4 symmetry adapted basis functions of A1  symmetry.
   1         1   1   1   1
   2         2   2   2   2
   3         3   3   3   3
   4         6   6   6   6
 There are     0 symmetry adapted basis functions of A2  symmetry.
 There are     1 symmetry adapted basis functions of B1  symmetry.
   5         4   4   4   4
 There are     1 symmetry adapted basis functions of B2  symmetry.
   6         5   5   5   5
 Order= 1 2 4 3
 Reordered character table:
              1            2            3            4            5
     1            1            1            1            1            1
     2            2            1            1           -1           -1
     3            4            1           -1           -1            1
     4            3            1           -1            1           -1
     6 basis functions,    18 primitive gaussians,     6 cartesian basis functions
     2 alpha electrons        2 beta electrons
       nuclear repulsion energy         1.0583544218 Hartrees.
 IS=     1 IAt=     1 ISR=     1 T=0 IP=      1 IndIP=      1 IndIPD=      0 C=  2.769344D-01  0.000000D+00                             NZ=T
 IS=     1 IAt=     1 ISR=     1 T=0 IP=      2 IndIP=      2 IndIPD=      1 C=  2.678389D-01  0.000000D+00                             NZ=T
 IS=     1 IAt=     1 ISR=     1 T=0 IP=      3 IndIP=      3 IndIPD=      2 C=  8.347367D-02  0.000000D+00                             NZ=T
 IS=     2 IAt=     2 ISR=     1 T=0 IP=      1 IndIP=      4 IndIPD=      0 C=  8.848563D-01  0.000000D+00                             NZ=T
 IS=     2 IAt=     2 ISR=     1 T=0 IP=      2 IndIP=      5 IndIPD=      1 C=  8.557945D-01  0.000000D+00                             NZ=T
 IS=     2 IAt=     2 ISR=     1 T=0 IP=      3 IndIP=      6 IndIPD=      2 C=  2.667138D-01  0.000000D+00                             NZ=T
 IS=     3 IAt=     2 ISR=     2 T=1 IP=      1 IndIP=      7 IndIPD=      0 C= -5.075852D-02  1.262991D-01                             NZ=T
 IS=     3 IAt=     2 ISR=     2 T=1 IP=      2 IndIP=      8 IndIPD=      1 C=  6.789362D-02  7.942025D-02                             NZ=T
 IS=     3 IAt=     2 ISR=     2 T=1 IP=      3 IndIP=      9 IndIPD=      2 C=  5.124033D-02  1.258150D-02                             NZ=T
 IExCor=    0 DFT=F Ex=HF Corr=None ExCW=0 ScaHFX=  1.000000
 ScaDFX=  1.000000  1.000000  1.000000  1.000000 ScalE2=  1.000000  1.000000
 IRadAn=      5 IRanWt=     -1 IRanGd=            0 ICorTp=0 IEmpDi=  4
 NAtoms=    2 NActive=    2 NUniq=    2 SFac= 1.00D+00 NAtFMM=   60 NAOKFM=F Big=F
 Integral buffers will be    131072 words long.
 Raffenetti 1 integral format.
 Two-electron integral symmetry is turned on.
 Leave Link  301 at Mon Mar 28 13:59:15 2022, MaxMem=  9663676416 cpu:               2.2 elap:               0.1
 (Enter /nopt/nrel/apps/gaussian/g16C_1/g16/l302.exe)
 NPDir=0 NMtPBC=     1 NCelOv=     1 NCel=       1 NClECP=     1 NCelD=      1
         NCelK=      1 NCelE2=     1 NClLst=     1 CellRange=     0.0.
 One-electron integrals computed using PRISM.
 One-electron integral symmetry used in STVInt
 Entering OneElI...
 Calculate overlap and kinetic energy integrals
    NBasis =   6  MinDer = 0  MaxDer = 0
 Requested accuracy = 0.1000D-12
 Symmetry will be used
 PrmmSu-InSpLW:  IPartL=    0 NPrtUS=   36 NPrtUL=    1 DoSpLW=F IThBeg=    0 IThEnd=   35 NThAct=   36.
 PrSmSu:  IncTry=   512 NBBP=              6 NTPThr=   100 NPartT=   36 Incr=           1 LDynOK=F GPUOK=F.
 PrsmSu:  NPrtUS=  36 ThrOK=T IAlg=1 LenDen=           0 ISkipM=0 DoSpLW=F IThBeg=    0 IThEnd=   35.
 Prism:   IPart=     0 DynPar=F LinDyn=F Incr=           1.
 PRISM was handed   268434353 working-precision words and     6 shell-pairs
 PRISM was handed   268434353 working-precision words and     6 shell-pairs
 PRISM was handed   268434353 working-precision words and     6 shell-pairs
 PRISM was handed   268434353 working-precision words and     6 shell-pairs
 PRISM was handed   268434353 working-precision words and     6 shell-pairs
 PRISM was handed   268434353 working-precision words and     6 shell-pairs
 PRISM was handed   268434353 working-precision words and     6 shell-pairs
 PRISM was handed   268434353 working-precision words and     6 shell-pairs
 PRISM was handed   268434353 working-precision words and     6 shell-pairs
 PRISM was handed   268434353 working-precision words and     6 shell-pairs
 PRISM was handed   268434353 working-precision words and     6 shell-pairs
 IPart= 32 NShTot=           0 NBatch=           0 AvBLen=         0.0
 IPart= 33 NShTot=           0 NBatch=           0 AvBLen=         0.0
 IPart=  3 NShTot=           0 NBatch=           0 AvBLen=         0.0
 IPart=  5 NShTot=           0 NBatch=           0 AvBLen=         0.0
 IPart=  7 NShTot=           0 NBatch=           0 AvBLen=         0.0
 IPart=  4 NShTot=           0 NBatch=           0 AvBLen=         0.0
 IPart=  6 NShTot=           0 NBatch=           0 AvBLen=         0.0
 IPart= 11 NShTot=           0 NBatch=           0 AvBLen=         0.0
 IPart= 25 NShTot=           0 NBatch=           0 AvBLen=         0.0
 PRISM was handed   268434353 working-precision words and     6 shell-pairs
 PRISM was handed   268434353 working-precision words and     6 shell-pairs
 PRISM was handed   268434353 working-precision words and     6 shell-pairs
 PRISM was handed   268434353 working-precision words and     6 shell-pairs
 PRISM was handed   268434353 working-precision words and     6 shell-pairs
 PRISM was handed   268434353 working-precision words and     6 shell-pairs
 PRISM was handed   268434353 working-precision words and     6 shell-pairs
 IPart=  1 NShTot=           2 NBatch=           2 AvBLen=         1.0
 PRISM was handed   268434353 working-precision words and     6 shell-pairs
 IPart=  0 NShTot=           3 NBatch=           3 AvBLen=         1.0
 IPart= 19 NShTot=           0 NBatch=           0 AvBLen=         0.0
 IPart= 28 NShTot=           0 NBatch=           0 AvBLen=         0.0
 IPart= 16 NShTot=           0 NBatch=           0 AvBLen=         0.0
 IPart= 27 NShTot=           0 NBatch=           0 AvBLen=         0.0
 IPart=  9 NShTot=           0 NBatch=           0 AvBLen=         0.0
 IPart= 18 NShTot=           0 NBatch=           0 AvBLen=         0.0
 PRISM was handed   268434353 working-precision words and     6 shell-pairs
 IPart= 15 NShTot=           0 NBatch=           0 AvBLen=         0.0
 IPart= 14 NShTot=           0 NBatch=           0 AvBLen=         0.0
 PRISM was handed   268434353 working-precision words and     6 shell-pairs
 PRISM was handed   268434353 working-precision words and     6 shell-pairs
 PRISM was handed   268434353 working-precision words and     6 shell-pairs
 PRISM was handed   268434353 working-precision words and     6 shell-pairs
 PRISM was handed   268434353 working-precision words and     6 shell-pairs
 IPart= 13 NShTot=           0 NBatch=           0 AvBLen=         0.0
 IPart= 29 NShTot=           0 NBatch=           0 AvBLen=         0.0
 IPart= 22 NShTot=           0 NBatch=           0 AvBLen=         0.0
 IPart= 20 NShTot=           0 NBatch=           0 AvBLen=         0.0
 PRISM was handed   268434353 working-precision words and     6 shell-pairs
 PRISM was handed   268434353 working-precision words and     6 shell-pairs
 IPart= 17 NShTot=           0 NBatch=           0 AvBLen=         0.0
 PRISM was handed   268434353 working-precision words and     6 shell-pairs
 PRISM was handed   268434353 working-precision words and     6 shell-pairs
 PRISM was handed   268434353 working-precision words and     6 shell-pairs
 IPart=  8 NShTot=           0 NBatch=           0 AvBLen=         0.0
 IPart= 12 NShTot=           0 NBatch=           0 AvBLen=         0.0
 PRISM was handed   268434353 working-precision words and     6 shell-pairs
 PRISM was handed   268434353 working-precision words and     6 shell-pairs
 PRISM was handed   268434353 working-precision words and     6 shell-pairs
 PRISM was handed   268434353 working-precision words and     6 shell-pairs
 PRISM was handed   268434353 working-precision words and     6 shell-pairs
 PRISM was handed   268434353 working-precision words and     6 shell-pairs
 IPart= 30 NShTot=           0 NBatch=           0 AvBLen=         0.0
 IPart= 23 NShTot=           0 NBatch=           0 AvBLen=         0.0
 IPart= 21 NShTot=           0 NBatch=           0 AvBLen=         0.0
 IPart=  2 NShTot=           1 NBatch=           1 AvBLen=         1.0
 IPart= 26 NShTot=           0 NBatch=           0 AvBLen=         0.0
 IPart= 10 NShTot=           0 NBatch=           0 AvBLen=         0.0
 IPart= 34 NShTot=           0 NBatch=           0 AvBLen=         0.0
 IPart= 31 NShTot=           0 NBatch=           0 AvBLen=         0.0
 IPart= 35 NShTot=           0 NBatch=           0 AvBLen=         0.0
 IPart= 24 NShTot=           0 NBatch=           0 AvBLen=         0.0
 PrSmSu:  NxtVal=             37.
 *** Overlap *** 
                1             2             3             4             5 
      1  0.100000D+01
      2  0.822635D-01  0.100000D+01
      3  0.420265D+00  0.241137D+00  0.100000D+01
      4  0.000000D+00  0.000000D+00  0.000000D+00  0.100000D+01
      5  0.000000D+00  0.000000D+00  0.000000D+00  0.000000D+00  0.100000D+01
      6 -0.530157D+00  0.000000D+00  0.000000D+00  0.000000D+00  0.000000D+00
                6 
      6  0.100000D+01
 *** Kinetic Energy *** 
                1             2             3             4             5 
      1  0.760032D+00
      2 -0.170975D-01  0.357679D+01
      3  0.490230D-01 -0.202374D-01  0.102163D+00
      4  0.000000D+00  0.000000D+00  0.000000D+00  0.319682D+00
      5  0.000000D+00  0.000000D+00  0.000000D+00  0.000000D+00  0.319682D+00
      6 -0.144582D+00  0.000000D+00  0.000000D+00  0.000000D+00  0.000000D+00
                6 
      6  0.319682D+00
 Entering OneElI...
 Calculate potential energy integrals
    NBasis =   6  MinDer = 0  MaxDer = 0
 Requested accuracy = 0.1000D-12
 Symmetry will be used
 PrmmSu-InSpLW:  IPartL=    0 NPrtUS=   36 NPrtUL=    1 DoSpLW=F IThBeg=    0 IThEnd=   35 NThAct=   36.
 PrSmSu:  IncTry=   512 NBBP=             12 NTPThr=   100 NPartT=   36 Incr=           1 LDynOK=F GPUOK=F.
 PrsmSu:  NPrtUS=  36 ThrOK=T IAlg=1 LenDen=           0 ISkipM=0 DoSpLW=F IThBeg=    0 IThEnd=   35.
 Prism:   IPart=     0 DynPar=F LinDyn=F Incr=           1.
 PRISM was handed   268434362 working-precision words and     6 shell-pairs
 PRISM was handed   268434362 working-precision words and     6 shell-pairs
 PRISM was handed   268434362 working-precision words and     6 shell-pairs
 PRISM was handed   268434362 working-precision words and     6 shell-pairs
 PRISM was handed   268434362 working-precision words and     6 shell-pairs
 PRISM was handed   268434362 working-precision words and     6 shell-pairs
 PRISM was handed   268434362 working-precision words and     6 shell-pairs
 PRISM was handed   268434362 working-precision words and     6 shell-pairs
 PRISM was handed   268434362 working-precision words and     6 shell-pairs
 PRISM was handed   268434362 working-precision words and     6 shell-pairs
 PRISM was handed   268434362 working-precision words and     6 shell-pairs
 PRISM was handed   268434362 working-precision words and     6 shell-pairs
 PRISM was handed   268434362 working-precision words and     6 shell-pairs
 PRISM was handed   268434362 working-precision words and     6 shell-pairs
 PRISM was handed   268434362 working-precision words and     6 shell-pairs
 PRISM was handed   268434362 working-precision words and     6 shell-pairs
 PRISM was handed   268434362 working-precision words and     6 shell-pairs
 PRISM was handed   268434362 working-precision words and     6 shell-pairs
 PRISM was handed   268434362 working-precision words and     6 shell-pairs
 PRISM was handed   268434362 working-precision words and     6 shell-pairs
 PRISM was handed   268434362 working-precision words and     6 shell-pairs
 PRISM was handed   268434362 working-precision words and     6 shell-pairs
 PRISM was handed   268434362 working-precision words and     6 shell-pairs
 PRISM was handed   268434362 working-precision words and     6 shell-pairs
 PRISM was handed   268434362 working-precision words and     6 shell-pairs
 PRISM was handed   268434362 working-precision words and     6 shell-pairs
 PRISM was handed   268434362 working-precision words and     6 shell-pairs
 PRISM was handed   268434362 working-precision words and     6 shell-pairs
 PRISM was handed   268434362 working-precision words and     6 shell-pairs
 PRISM was handed   268434362 working-precision words and     6 shell-pairs
 PRISM was handed   268434362 working-precision words and     6 shell-pairs
 PRISM was handed   268434362 working-precision words and     6 shell-pairs
 PRISM was handed   268434362 working-precision words and     6 shell-pairs
 PRISM was handed   268434362 working-precision words and     6 shell-pairs
 PRISM was handed   268434362 working-precision words and     6 shell-pairs
 PRISM was handed   268434362 working-precision words and     6 shell-pairs
 IPart=  1 NShTot=           4 NBatch=           2 AvBLen=         2.0
 IPart=  2 NShTot=           2 NBatch=           1 AvBLen=         2.0
 IPart=  0 NShTot=           6 NBatch=           3 AvBLen=         2.0
 IPart= 33 NShTot=           0 NBatch=           0 AvBLen=         0.0
 IPart=  4 NShTot=           0 NBatch=           0 AvBLen=         0.0
 IPart= 15 NShTot=           0 NBatch=           0 AvBLen=         0.0
 IPart= 17 NShTot=           0 NBatch=           0 AvBLen=         0.0
 IPart= 23 NShTot=           0 NBatch=           0 AvBLen=         0.0
 IPart= 29 NShTot=           0 NBatch=           0 AvBLen=         0.0
 IPart= 20 NShTot=           0 NBatch=           0 AvBLen=         0.0
 IPart=  5 NShTot=           0 NBatch=           0 AvBLen=         0.0
 IPart= 13 NShTot=           0 NBatch=           0 AvBLen=         0.0
 IPart= 11 NShTot=           0 NBatch=           0 AvBLen=         0.0
 IPart= 14 NShTot=           0 NBatch=           0 AvBLen=         0.0
 IPart= 16 NShTot=           0 NBatch=           0 AvBLen=         0.0
 IPart=  8 NShTot=           0 NBatch=           0 AvBLen=         0.0
 IPart=  3 NShTot=           0 NBatch=           0 AvBLen=         0.0
 IPart= 18 NShTot=           0 NBatch=           0 AvBLen=         0.0
 IPart= 26 NShTot=           0 NBatch=           0 AvBLen=         0.0
 IPart= 34 NShTot=           0 NBatch=           0 AvBLen=         0.0
 IPart= 32 NShTot=           0 NBatch=           0 AvBLen=         0.0
 IPart= 12 NShTot=           0 NBatch=           0 AvBLen=         0.0
 IPart= 35 NShTot=           0 NBatch=           0 AvBLen=         0.0
 IPart= 28 NShTot=           0 NBatch=           0 AvBLen=         0.0
 IPart= 24 NShTot=           0 NBatch=           0 AvBLen=         0.0
 IPart=  9 NShTot=           0 NBatch=           0 AvBLen=         0.0
 IPart= 27 NShTot=           0 NBatch=           0 AvBLen=         0.0
 IPart= 30 NShTot=           0 NBatch=           0 AvBLen=         0.0
 IPart=  6 NShTot=           0 NBatch=           0 AvBLen=         0.0
 IPart= 10 NShTot=           0 NBatch=           0 AvBLen=         0.0
 IPart= 25 NShTot=           0 NBatch=           0 AvBLen=         0.0
 IPart= 22 NShTot=           0 NBatch=           0 AvBLen=         0.0
 IPart= 21 NShTot=           0 NBatch=           0 AvBLen=         0.0
 IPart= 19 NShTot=           0 NBatch=           0 AvBLen=         0.0
 IPart=  7 NShTot=           0 NBatch=           0 AvBLen=         0.0
 IPart= 31 NShTot=           0 NBatch=           0 AvBLen=         0.0
 PrSmSu:  NxtVal=             37.
 ***** Potential Energy ***** 
                1             2             3             4             5 
      1  0.228068D+01
      2  0.358635D+00  0.833567D+01
      3  0.806223D+00  0.104940D+01  0.150914D+01
      4  0.000000D+00  0.000000D+00  0.000000D+00  0.146503D+01
      5  0.000000D+00  0.000000D+00  0.000000D+00  0.000000D+00  0.146503D+01
      6 -0.103214D+01 -0.183040D-01 -0.127479D+00  0.000000D+00  0.000000D+00
                6 
      6  0.156748D+01
 ****** Core Hamiltonian ****** 
                1             2             3             4             5 
      1 -0.152065D+01
      2 -0.375732D+00 -0.475888D+01
      3 -0.757200D+00 -0.106964D+01 -0.140698D+01
      4  0.000000D+00  0.000000D+00  0.000000D+00 -0.114534D+01
      5  0.000000D+00  0.000000D+00  0.000000D+00  0.000000D+00 -0.114534D+01
      6  0.887562D+00  0.183040D-01  0.127479D+00  0.000000D+00  0.000000D+00
                6 
      6 -0.124779D+01
 SVDSVc IOpt=   1 NormSV=T IR=1
 SVDSVc V= 1.72D+00 1.17D+00 7.98D-01 3.20D-01
 SVDSVc IOpt=   1 NormSV=T IR=3
 SVDSVc V= 1.00D+00
 SVDSVc IOpt=   1 NormSV=T IR=4
 SVDSVc V= 1.00D+00
 TstOVc:  Largest diagonal error= 6.66D-16 IB=1 I=    4.
 TstOVc:  Largest same sym error= 3.05D-16 IB=1 I=    4 J=    2.
 TstOVc:  Largest diff sym error= 0.00D+00 IB=0 JB=0 I=    0 J=    0.
 Orthogonalized basis functions: 
                 1             2             3             4             5 
      1   0.518472D+00 -0.159481D+00 -0.164334D+00  0.123451D+01  0.000000D+00
      2   0.182319D+00  0.596861D+00  0.808605D+00  0.138450D+00  0.000000D+00
      3   0.365224D+00  0.464336D+00 -0.622381D+00 -0.811739D+00  0.000000D+00
      4   0.000000D+00  0.000000D+00  0.000000D+00  0.000000D+00  0.100000D+01
      5   0.000000D+00  0.000000D+00  0.000000D+00  0.000000D+00  0.000000D+00
      6  -0.383372D+00  0.510521D+00 -0.430617D+00  0.962085D+00  0.000000D+00
                 6 
      1   0.000000D+00
      2   0.000000D+00
      3   0.000000D+00
      4   0.000000D+00
      5   0.100000D+01
      6   0.000000D+00
 NBasis=     6 RedAO= T EigKep=  3.20D-01  NBF=     4     0     1     1
 NBsUse=     6 1.00D-06 EigRej= -1.00D+00 NBFU=     4     0     1     1
 Leave Link  302 at Mon Mar 28 13:59:15 2022, MaxMem=  9663676416 cpu:               2.9 elap:               0.1
 (Enter /nopt/nrel/apps/gaussian/g16C_1/g16/l303.exe)
 DipDrv will not compute anything.
 Fermi contact integrals: 
                 1             2 
      1   0.628247D+00  0.232757D-01
      2   0.449887D-03  0.200736D+01
      3   0.552078D-01  0.683754D-01
      4   0.000000D+00  0.000000D+00
      5   0.000000D+00  0.000000D+00
      6  -0.950108D-01  0.000000D+00
 Leave Link  303 at Mon Mar 28 13:59:15 2022, MaxMem=  9663676416 cpu:               1.3 elap:               0.1
 (Enter /nopt/nrel/apps/gaussian/g16C_1/g16/l401.exe)
 ExpMin= 4.81D-02 ExpMax= 1.61D+01 ExpMxC= 1.61D+01 IAcc=3 IRadAn=         5 AccDes= 0.00D+00
 Harris functional with IExCor=  205 and IRadAn=       5 diagonalized for initial guess.
 HarFok:  IExCor=  205 AccDes= 0.00D+00 IRadAn=         5 IDoV= 1 UseB2=F ITyADJ=14
 ICtDFT=  3500011 ScaDFX=  1.000000  1.000000  1.000000  1.000000
 FoFCou: FMM=F IPFlag=           0 FMFlag=      100000 FMFlg1=           0
         NFxFlg=           0 DoJE=T BraDBF=F KetDBF=T FulRan=T
         wScrn=  0.000000 ICntrl=       500 IOpCl=  0 I1Cent=   200000004 NGrid=           0
         NMat0=    1 NMatS0=      1 NMatT0=    0 NMatD0=    1 NMtDS0=    0 NMtDT0=    0
 Petite list used in FoFCou.
 Harris En= -7.91702846540843    
 JPrj=0 DoOrth=F DoCkMO=F.
 Initial guess orbital symmetries:
       Occupied  (SG) (SG)
       Virtual   (SG) (PI) (PI) (SG)
 The electronic state of the initial guess is 1-SG.
 Leave Link  401 at Mon Mar 28 13:59:15 2022, MaxMem=  9663676416 cpu:               3.1 elap:               0.1
 (Enter /nopt/nrel/apps/gaussian/g16C_1/g16/l502.exe)
 Keep R1 ints in memory in symmetry-blocked form, NReq=7204841.
 FoFCou: FMM=F IPFlag=           0 FMFlag=           0 FMFlg1=           0
         NFxFlg=           0 DoJE=F BraDBF=F KetDBF=F FulRan=T
         wScrn=  0.000000 ICntrl=       600 IOpCl=  0 I1Cent=           0 NGrid=           0
         NMat0=    1 NMatS0=     21 NMatT0=    0 NMatD0=    1 NMtDS0=    0 NMtDT0=    0
 Petite list used in FoFCou.
 Closed shell SCF:
 Using DIIS extrapolation, IDIIS=  1040.
 NGot=  9663676416 LenX=  9663674003 LenY=  9663673121
 Requested convergence on RMS density matrix=1.00D-08 within 128 cycles.
 Requested convergence on MAX density matrix=1.00D-06.
 Requested convergence on             energy=1.00D-06.
 No special actions if energy rises.

 Cycle   1  Pass 1  IDiag  1:
 E= -7.84026632527627    
 DIIS: error= 3.59D-02 at cycle   1 NSaved=   1.
 NSaved= 1 IEnMin= 1 EnMin= -7.84026632527627     IErMin= 1 ErrMin= 3.59D-02
 ErrMax= 3.59D-02  0.00D+00 EMaxC= 1.00D-01 BMatC= 9.27D-03 BMatP= 9.27D-03
 IDIUse=3 WtCom= 6.41D-01 WtEn= 3.59D-01
 Coeff-Com:  0.100D+01
 Coeff-En:   0.100D+01
 Coeff:      0.100D+01
 Gap=     0.319 Goal=   None    Shift=    0.000
 GapD=    0.319 DampG=1.000 DampE=0.500 DampFc=0.5000 IDamp=-1.
 Damping current iteration by 5.00D-01
 RMSDP=3.72D-02 MaxDP=1.57D-01              OVMax= 0.00D+00

 Cycle   2  Pass 1  IDiag  1:
 E= -7.85101407105049     Delta-E=       -0.010747745774 Rises=F Damp=T
 DIIS: error= 1.94D-02 at cycle   2 NSaved=   2.
 NSaved= 2 IEnMin= 2 EnMin= -7.85101407105049     IErMin= 2 ErrMin= 1.94D-02
 ErrMax= 1.94D-02  0.00D+00 EMaxC= 1.00D-01 BMatC= 2.76D-03 BMatP= 9.27D-03
 IDIUse=3 WtCom= 8.06D-01 WtEn= 1.94D-01
 Coeff-Com: -0.119D+01 0.219D+01
 Coeff-En:   0.000D+00 0.100D+01
 Coeff:     -0.957D+00 0.196D+01
 Gap=     0.366 Goal=   None    Shift=    0.000
 RMSDP=2.23D-02 MaxDP=9.04D-02 DE=-1.07D-02 OVMax= 0.00D+00

 Cycle   3  Pass 1  IDiag  1:
 E= -7.86325594774266     Delta-E=       -0.012241876692 Rises=F Damp=F
 DIIS: error= 9.87D-04 at cycle   3 NSaved=   3.
 NSaved= 3 IEnMin= 3 EnMin= -7.86325594774266     IErMin= 3 ErrMin= 9.87D-04
 ErrMax= 9.87D-04  0.00D+00 EMaxC= 1.00D-01 BMatC= 9.39D-06 BMatP= 2.76D-03
 IDIUse=3 WtCom= 9.90D-01 WtEn= 9.87D-03
 Coeff-Com:  0.107D+01-0.199D+01 0.192D+01
 Coeff-En:   0.000D+00 0.000D+00 0.100D+01
 Coeff:      0.105D+01-0.197D+01 0.191D+01
 Gap=     0.372 Goal=   None    Shift=    0.000
 RMSDP=2.79D-03 MaxDP=9.54D-03 DE=-1.22D-02 OVMax= 0.00D+00

 Cycle   4  Pass 1  IDiag  1:
 E= -7.86335459780446     Delta-E=       -0.000098650062 Rises=F Damp=F
 DIIS: error= 1.85D-04 at cycle   4 NSaved=   4.
 NSaved= 4 IEnMin= 4 EnMin= -7.86335459780446     IErMin= 4 ErrMin= 1.85D-04
 ErrMax= 1.85D-04  0.00D+00 EMaxC= 1.00D-01 BMatC= 2.84D-07 BMatP= 9.39D-06
 IDIUse=3 WtCom= 9.98D-01 WtEn= 1.85D-03
 Coeff-Com: -0.442D-01 0.877D-01-0.305D+00 0.126D+01
 Coeff-En:   0.000D+00 0.000D+00 0.000D+00 0.100D+01
 Coeff:     -0.441D-01 0.875D-01-0.305D+00 0.126D+01
 Gap=     0.373 Goal=   None    Shift=    0.000
 RMSDP=5.87D-04 MaxDP=1.82D-03 DE=-9.87D-05 OVMax= 0.00D+00

 Cycle   5  Pass 1  IDiag  1:
 E= -7.86335763155832     Delta-E=       -0.000003033754 Rises=F Damp=F
 DIIS: error= 6.16D-06 at cycle   5 NSaved=   5.
 NSaved= 5 IEnMin= 5 EnMin= -7.86335763155832     IErMin= 5 ErrMin= 6.16D-06
 ErrMax= 6.16D-06  0.00D+00 EMaxC= 1.00D-01 BMatC= 1.97D-10 BMatP= 2.84D-07
 IDIUse=1 WtCom= 1.00D+00 WtEn= 0.00D+00
 Coeff-Com: -0.745D-03 0.102D-02 0.207D-01-0.101D+00 0.108D+01
 Coeff:     -0.745D-03 0.102D-02 0.207D-01-0.101D+00 0.108D+01
 Gap=     0.373 Goal=   None    Shift=    0.000
 RMSDP=1.11D-05 MaxDP=3.89D-05 DE=-3.03D-06 OVMax= 0.00D+00

 Cycle   6  Pass 1  IDiag  1:
 E= -7.86335763272725     Delta-E=       -0.000000001169 Rises=F Damp=F
 DIIS: error= 3.06D-07 at cycle   6 NSaved=   6.
 NSaved= 6 IEnMin= 6 EnMin= -7.86335763272725     IErMin= 6 ErrMin= 3.06D-07
 ErrMax= 3.06D-07  0.00D+00 EMaxC= 1.00D-01 BMatC= 8.09D-13 BMatP= 1.97D-10
 IDIUse=1 WtCom= 1.00D+00 WtEn= 0.00D+00
 Coeff-Com:  0.101D-03-0.200D-03-0.440D-03 0.240D-02-0.780D-01 0.108D+01
 Coeff:      0.101D-03-0.200D-03-0.440D-03 0.240D-02-0.780D-01 0.108D+01
 Gap=     0.373 Goal=   None    Shift=    0.000
 RMSDP=3.82D-07 MaxDP=1.41D-06 DE=-1.17D-09 OVMax= 0.00D+00

 Cycle   7  Pass 1  IDiag  1:
 E= -7.86335763272902     Delta-E=       -0.000000000002 Rises=F Damp=F
 DIIS: error= 1.52D-08 at cycle   7 NSaved=   7.
 NSaved= 7 IEnMin= 7 EnMin= -7.86335763272902     IErMin= 7 ErrMin= 1.52D-08
 ErrMax= 1.52D-08  0.00D+00 EMaxC= 1.00D-01 BMatC= 1.88D-15 BMatP= 8.09D-13
 IDIUse=1 WtCom= 1.00D+00 WtEn= 0.00D+00
 Coeff-Com: -0.149D-05 0.311D-05-0.587D-04 0.219D-03-0.383D-02 0.675D-01
 Coeff-Com:  0.936D+00
 Coeff:     -0.149D-05 0.311D-05-0.587D-04 0.219D-03-0.383D-02 0.675D-01
 Coeff:      0.936D+00
 Gap=     0.373 Goal=   None    Shift=    0.000
 RMSDP=2.74D-08 MaxDP=8.47D-08 DE=-1.77D-12 OVMax= 0.00D+00

 Cycle   8  Pass 1  IDiag  1:
 E= -7.86335763272903     Delta-E=       -0.000000000000 Rises=F Damp=F
 DIIS: error= 8.77D-10 at cycle   8 NSaved=   8.
 NSaved= 8 IEnMin= 8 EnMin= -7.86335763272903     IErMin= 8 ErrMin= 8.77D-10
 ErrMax= 8.77D-10  0.00D+00 EMaxC= 1.00D-01 BMatC= 6.74D-18 BMatP= 1.88D-15
 IDIUse=1 WtCom= 1.00D+00 WtEn= 0.00D+00
 Large coefficients: NSaved=  8 BigCof=    0.00 CofMax=   10.00 Det= 6.93D-30
 Inversion failed.  Reducing to  7 matrices.
 Coeff-Com:  0.149D-08-0.312D-06 0.966D-05-0.517D-04-0.274D-02-0.153D+00
 Coeff-Com:  0.116D+01
 Coeff:      0.149D-08-0.312D-06 0.966D-05-0.517D-04-0.274D-02-0.153D+00
 Coeff:      0.116D+01
 Gap=     0.373 Goal=   None    Shift=    0.000
 RMSDP=1.97D-09 MaxDP=7.76D-09 DE=-3.55D-15 OVMax= 0.00D+00

 SCF Done:  E(RHF) =  -7.86335763273     A.U. after    8 cycles
            NFock=  8  Conv=0.20D-08     -V/T= 1.9852
 KE= 7.981100325118D+00 PE=-2.054373046151D+01 EE= 3.640918081821D+00
 Leave Link  502 at Mon Mar 28 13:59:15 2022, MaxMem=  9663676416 cpu:               5.6 elap:               0.2
 (Enter /nopt/nrel/apps/gaussian/g16C_1/g16/l801.exe)
 Windowed orbitals will be sorted by symmetry type.
 ExpMin= 4.81D-02 ExpMax= 1.61D+01 ExpMxC= 1.61D+01 IAcc=3 IRadAn=         5 AccDes= 0.00D+00
 HarFok:  IExCor=  205 AccDes= 0.00D+00 IRadAn=         5 IDoV=-2 UseB2=F ITyADJ=14
 ICtDFT= 12500011 ScaDFX=  1.000000  1.000000  1.000000  1.000000
 Largest valence mixing into a core orbital is  3.85D-04
 Largest core mixing into a valence orbital is  1.53D-04
 Range of M.O.s used for correlation:     2     6
 NBasis=     6 NAE=     2 NBE=     2 NFC=     1 NFV=     0
 NROrb=      5 NOA=     1 NOB=     1 NVA=     4 NVB=     4
 Leave Link  801 at Mon Mar 28 13:59:15 2022, MaxMem=  9663676416 cpu:               1.6 elap:               0.1
 (Enter /nopt/nrel/apps/gaussian/g16C_1/g16/l804.exe)
 Closed-shell transformation, MDV=  9663676416 ITran=4 ISComp=2.
 Unit  1 TFree=          2626 TCopy=        216738.
 Semi-Direct transformation.
 ModeAB=           2 MOrb=             1 LenV=    9663557528
 LASXX=           12 LTotXX=          12 LenRXX=          12
 LTotAB=          28 MaxLAS=         105 LenRXY=         105
 NonZer=         135 LenScr=      785920 LnRSAI=           0
 LnScr1=           0 LExtra=      217703 Total=      1003740
 MaxDsk= 34359738368 SrtSym=           F ITran=            4
 DoSDTr:  NPSUse= 36
 JobTyp=0 Pass  1:  I=   1 to   1.
 (rs|ai) integrals will be sorted in core.
 Complete sort for first half transformation.
 First half transformation complete.
 Complete sort for second half transformation.
 Second half transformation complete.
 Spin components of T(2) and E(2):
     alpha-alpha T2 =       0.0000000000D+00 E2=      0.0000000000D+00
     alpha-beta  T2 =       0.8117133224D-02 E2=     -0.1197436541D-01
     beta-beta   T2 =       0.0000000000D+00 E2=      0.0000000000D+00
 ANorm=    0.1004050364D+01
 E2 =    -0.1197436541D-01 EUMP2 =    -0.78753319981390D+01
 Leave Link  804 at Mon Mar 28 13:59:15 2022, MaxMem=  9663676416 cpu:               1.7 elap:               0.1
 (Enter /nopt/nrel/apps/gaussian/g16C_1/g16/l913.exe)
 CIDS:  MDV=  9663676416.
 Frozen-core window:  NFC=   1 NFV=   0.
 IFCWin=0 IBDFC=1 NFBD=     0     0 NFCmp=     0     0 NFFFC=     0     0
 Using DD3R+UMP44R for 1st iteration.
 Using DD4RQ for 2nd and later iterations.
 Keep R2 and R3 ints in memory in symmetry-blocked form, NReq=7207203.
 FoFCou: FMM=F IPFlag=           0 FMFlag=           0 FMFlg1=           0
         NFxFlg=           0 DoJE=F BraDBF=F KetDBF=F FulRan=T
         wScrn=  0.000000 ICntrl=       600 IOpCl=  0 I1Cent=           0 NGrid=           0
         NMat0=    1 NMatS0=     21 NMatT0=    0 NMatD0=    1 NMtDS0=    0 NMtDT0=    0
 Petite list used in FoFCou.
 CIDS: In Core Option IDoMem=           1.
 Coupled Cluster theory with single and double substitutions
 ===========================================================
 Iterations= 200 Convergence= 0.100D-06
 Produce multiple copies of IABC intergrals
 Iteration Nr.   1
 **********************
 DD1Dir will call FoFMem   1 times, MxPair=         2
 NAB=     1 NAA=     0 NBB=     0.
 MP4(R+Q)=  0.97197519D-04
 Maximum subspace dimension=  5
 A-vector RMS=  1.6555046D-02 Max=  2.5276813D-02 conv= 1.00D-05.
 RLE energy=       -0.0182322835
 E3=       -0.42078799D-02        EUMP3=      -0.78795398781D+01
 E4(DQ)=   -0.14690254D-02        UMP4(DQ)=   -0.78810089034D+01
 E4(SDQ)=  -0.15268416D-02        UMP4(SDQ)=  -0.78810667197D+01
 VARIATIONAL ENERGIES WITH THE FIRST-ORDER WAVEFUNCTION:
 DE(Corr)= -0.16084361E-01 E(Corr)=     -7.8794419934    
 NORM(A)=   0.10093648D+01
 Iteration Nr.   2
 **********************
 DD1Dir will call FoFMem   1 times, MxPair=         2
 NAB=     1 NAA=     0 NBB=     0.
 A-vector RMS=  8.1735556D-03 Max=  6.5900787D-03 conv= 1.00D-05.
 RLE energy=       -0.0185816191
 DE(Corr)= -0.18382499E-01 E(CORR)=     -7.8817401314     Delta=-2.30D-03
 NORM(A)=   0.10102540D+01
 Iteration Nr.   3
 **********************
 DD1Dir will call FoFMem   1 times, MxPair=         2
 NAB=     1 NAA=     0 NBB=     0.
 A-vector RMS=  4.2269971D-03 Max=  3.5325502D-03 conv= 1.00D-05.
 RLE energy=       -0.0187765837
 DE(Corr)= -0.18615942E-01 E(CORR)=     -7.8819735745     Delta=-2.33D-04
 NORM(A)=   0.10112572D+01
 Iteration Nr.   4
 **********************
 DD1Dir will call FoFMem   1 times, MxPair=         2
 NAB=     1 NAA=     0 NBB=     0.
 A-vector RMS=  9.9834717D-04 Max=  7.8383788D-04 conv= 1.00D-05.
 RLE energy=       -0.0187850424
 DE(Corr)= -0.18769240E-01 E(CORR)=     -7.8821268732     Delta=-1.53D-04
 NORM(A)=   0.10114933D+01
 Iteration Nr.   5
 **********************
 DD1Dir will call FoFMem   1 times, MxPair=         2
 NAB=     1 NAA=     0 NBB=     0.
 A-vector RMS=  1.1766498D-04 Max=  8.9197506D-05 conv= 1.00D-05.
 RLE energy=       -0.0187811695
 DE(Corr)= -0.18783058E-01 E(CORR)=     -7.8821406903     Delta=-1.38D-05
 NORM(A)=   0.10114984D+01
 Iteration Nr.   6
 **********************
 DD1Dir will call FoFMem   1 times, MxPair=         2
 NAB=     1 NAA=     0 NBB=     0.
 A-vector RMS=  3.2354563D-06 Max=  5.3627962D-06 conv= 1.00D-05.
 RLE energy=       -0.0187823652
 DE(Corr)= -0.18781976E-01 E(CORR)=     -7.8821396086     Delta= 1.08D-06
 NORM(A)=   0.10114999D+01
 Iteration Nr.   7
 **********************
 DD1Dir will call FoFMem   1 times, MxPair=         2
 NAB=     1 NAA=     0 NBB=     0.
 A-vector RMS=  2.4079375D-07 Max=  1.7296208D-07 conv= 1.00D-05.
 RLE energy=       -0.0187823366
 DE(Corr)= -0.18782352E-01 E(CORR)=     -7.8821399844     Delta=-3.76D-07
 NORM(A)=   0.10114998D+01
 Iteration Nr.   8
 **********************
 DD1Dir will call FoFMem   1 times, MxPair=         2
 NAB=     1 NAA=     0 NBB=     0.
 A-vector RMS=  4.4830855D-08 Max=  2.7956570D-08 conv= 1.00D-05.
 RLE energy=       -0.0187823400
 DE(Corr)= -0.18782338E-01 E(CORR)=     -7.8821399709     Delta= 1.35D-08
 NORM(A)=   0.10114998D+01
 CI/CC converged in    8 iterations to DelEn= 1.35D-08 Conv= 1.00D-07 ErrA1= 4.48D-08 Conv= 1.00D-05
 Wavefunction amplitudes converged. E(Corr)=     -7.8821399709    
 Dominant configurations:
 ***********************
 Spin Case        I    J    A    B          Value
   ABAB           2    2    6    6      -0.108392D+00
 Largest amplitude= 1.08D-01
 Discarding MO integrals.
 Leave Link  913 at Mon Mar 28 13:59:16 2022, MaxMem=  9663676416 cpu:              10.7 elap:               0.4
 (Enter /nopt/nrel/apps/gaussian/g16C_1/g16/l601.exe)
 Copying SCF densities to generalized density rwf, IOpCl= 0 IROHF=0.

 **********************************************************************

            Population analysis using the SCF Density.

 **********************************************************************

 Orbital symmetries:
       Occupied  (SG) (SG)
       Virtual   (SG) (PI) (PI) (SG)
 The electronic state is 1-SG.
 Alpha  occ. eigenvalues --   -2.34684  -0.29356
 Alpha virt. eigenvalues --    0.07899   0.16375   0.16375   0.57430
          Condensed to atoms (all electrons):
               1          2
     1  H    0.592026   0.391257
     2  Li   0.391257   2.625461
 Mulliken charges:
               1
     1  H    0.016717
     2  Li  -0.016717
 Sum of Mulliken charges =  -0.00000
 Mulliken charges with hydrogens summed into heavy atoms:
               1
     2  Li  -0.000000
 N-N= 1.058354421840D+00 E-N=-2.054373046348D+01  KE= 7.981100325118D+00
 Symmetry A1   KE= 7.981100325118D+00
 Symmetry A2   KE= 0.000000000000D+00
 Symmetry B1   KE= 0.000000000000D+00
 Symmetry B2   KE= 0.000000000000D+00

 Atomic contributions to Alpha molecular orbitals:
 Alpha occ 1 OE=-2.347 is Li2-s=0.9993
 Alpha occ 2 OE=-0.294 is H1-s=0.4910 Li2-s=0.2861 Li2-p=0.2230
 Alpha vir 3 OE=0.079 is Li2-s=0.5624 Li2-p=0.4190
 Alpha vir 4 OE=0.164 is Li2-p=1.0000
 Alpha vir 5 OE=0.164 is Li2-p=1.0000
 Alpha vir 6 OE=0.574 is H1-s=0.4898 Li2-p=0.3580 Li2-s=0.1522
 
 Leave Link  601 at Mon Mar 28 13:59:16 2022, MaxMem=  9663676416 cpu:               1.0 elap:               0.1
 (Enter /nopt/nrel/apps/gaussian/g16C_1/g16/l9999.exe)

 Test job not archived.
 1\1\GINC-R102U34\SP\RCCSD-FC\Gen\H1Li1\USER\28-Mar-2022\0\\#P CCSD
 (MaxCyc=200,SaveAmplitudes,ReadAmplitudes)/GEN sp pop=AllOrbitals iop(
 3/33=1,3/36=-1)\\test\\0,1\H,0,0.,0.,0.\Li,0,0.,0.,1.5\\Version=ES64L-
 G16RevC.01\State=1-SG\HF=-7.8633576\MP2=-7.875332\MP3=-7.8795399\MP4D=
 -7.8811061\MP4DQ=-7.8810089\MP4SDQ=-7.8810667\CCSD=-7.88214\RMSD=1.970
 e-09\PG=C*V [C*(H1Li1)]\\@


 MOST BUREAUCRACIES FUNCTION LIKE A SEPTIC TANK.
 THE LARGE CHUNKS RISE TO THE TOP.
 Job cpu time:       0 days  0 hours  0 minutes 38.2 seconds.
 Elapsed time:       0 days  0 hours  0 minutes  1.4 seconds.
 File lengths (MBytes):  RWF=     13 Int=      0 D2E=      0 Chk=      1 Scr=      1
 Normal termination of Gaussian 16 at Mon Mar 28 13:59:16 2022.
