 Entering Gaussian System, Link 0=g16
 Initial command:
 /nopt/nrel/apps/gaussian/g16C_1/g16/l1.exe "/lustre/eaglefs/scratch/user/qc/kh-dissc/kh-1-ccsd-3.4-631g/Gau-26935.inp" -scrdir="/lustre/eaglefs/scratch/user/qc/kh-dissc/kh-1-ccsd-3.4-631g/"
 Default is to use a total of  36 processors:
                               36 via shared-memory
                                1 via Linda
 Entering Link 1 = /nopt/nrel/apps/gaussian/g16C_1/g16/l1.exe PID=     26936.
  
 Copyright (c) 1988-2019, Gaussian, Inc.  All Rights Reserved.
  
 This is part of the Gaussian(R) 16 program.  It is based on
 the Gaussian(R) 09 system (copyright 2009, Gaussian, Inc.),
 the Gaussian(R) 03 system (copyright 2003, Gaussian, Inc.),
 the Gaussian(R) 98 system (copyright 1998, Gaussian, Inc.),
 the Gaussian(R) 94 system (copyright 1995, Gaussian, Inc.),
 the Gaussian 92(TM) system (copyright 1992, Gaussian, Inc.),
 the Gaussian 90(TM) system (copyright 1990, Gaussian, Inc.),
 the Gaussian 88(TM) system (copyright 1988, Gaussian, Inc.),
 the Gaussian 86(TM) system (copyright 1986, Carnegie Mellon
 University), and the Gaussian 82(TM) system (copyright 1983,
 Carnegie Mellon University). Gaussian is a federally registered
 trademark of Gaussian, Inc.
  
 This software contains proprietary and confidential information,
 including trade secrets, belonging to Gaussian, Inc.
  
 This software is provided under written license and may be
 used, copied, transmitted, or stored only in accord with that
 written license.
  
 The following legend is applicable only to US Government
 contracts under FAR:
  
                    RESTRICTED RIGHTS LEGEND
  
 Use, reproduction and disclosure by the US Government is
 subject to restrictions as set forth in subparagraphs (a)
 and (c) of the Commercial Computer Software - Restricted
 Rights clause in FAR 52.227-19.
  
 Gaussian, Inc.
 340 Quinnipiac St., Bldg. 40, Wallingford CT 06492
  
  
 ---------------------------------------------------------------
 Warning -- This program may not be used in any manner that
 competes with the business of Gaussian, Inc. or will provide
 assistance to any competitor of Gaussian, Inc.  The licensee
 of this program is prohibited from giving any competitor of
 Gaussian, Inc. access to this program.  By using this program,
 the user acknowledges that Gaussian, Inc. is engaged in the
 business of creating and licensing software in the field of
 computational chemistry and represents and warrants to the
 licensee that it is not a competitor of Gaussian, Inc. and that
 it will not use this program in any manner prohibited above.
 ---------------------------------------------------------------
  

 Cite this work as:
 Gaussian 16, Revision C.01,
 M. J. Frisch, G. W. Trucks, H. B. Schlegel, G. E. Scuseria, 
 M. A. Robb, J. R. Cheeseman, G. Scalmani, V. Barone, 
 G. A. Petersson, H. Nakatsuji, X. Li, M. Caricato, A. V. Marenich, 
 J. Bloino, B. G. Janesko, R. Gomperts, B. Mennucci, H. P. Hratchian, 
 J. V. Ortiz, A. F. Izmaylov, J. L. Sonnenberg, D. Williams-Young, 
 F. Ding, F. Lipparini, F. Egidi, J. Goings, B. Peng, A. Petrone, 
 T. Henderson, D. Ranasinghe, V. G. Zakrzewski, J. Gao, N. Rega, 
 G. Zheng, W. Liang, M. Hada, M. Ehara, K. Toyota, R. Fukuda, 
 J. Hasegawa, M. Ishida, T. Nakajima, Y. Honda, O. Kitao, H. Nakai, 
 T. Vreven, K. Throssell, J. A. Montgomery, Jr., J. E. Peralta, 
 F. Ogliaro, M. J. Bearpark, J. J. Heyd, E. N. Brothers, K. N. Kudin, 
 V. N. Staroverov, T. A. Keith, R. Kobayashi, J. Normand, 
 K. Raghavachari, A. P. Rendell, J. C. Burant, S. S. Iyengar, 
 J. Tomasi, M. Cossi, J. M. Millam, M. Klene, C. Adamo, R. Cammi, 
 J. W. Ochterski, R. L. Martin, K. Morokuma, O. Farkas, 
 J. B. Foresman, and D. J. Fox, Gaussian, Inc., Wallingford CT, 2019.
 
 ******************************************
 Gaussian 16:  ES64L-G16RevC.01  3-Jul-2019
                28-Mar-2022 
 ******************************************
 %chk=molecule
 Default route: CacheSize=180224 MaxDisk=256GB
 ----------------------------------------------------------------------
 #P CCSD(MaxCyc=200,SaveAmplitudes,ReadAmplitudes)/GEN sp pop=AllOrbita
 ls iop(3/33=1,3/36=-1)
 ----------------------------------------------------------------------
 1/4=180224,38=1,172=1/1;
 2/4=180224,12=2,17=6,18=5,40=1/2;
 3/4=180224,5=7,11=9,25=1,30=1,33=1,36=-1/1,2,3;
 4/4=180224/1;
 5/4=180224,5=2,38=5/2;
 8/4=180224,6=4,9=120000,10=1,24=1/1,4;
 9/4=180224,5=7,6=200,77=1/13;
 6/4=180224,7=2,8=2,9=2,10=2,96=-1/1;
 99/4=180224,5=1,9=1/99;
 Leave Link    1 at Mon Mar 28 14:32:07 2022, MaxMem=           0 cpu:               2.2 elap:               0.1
 (Enter /nopt/nrel/apps/gaussian/g16C_1/g16/l101.exe)
 ----
 test
 ----
 Symbolic Z-matrix:
 Charge =  0 Multiplicity = 1
 H                     0.        0.        0. 
 K                     0.        0.        3.4 
 
 ITRead=  0  0
 MicOpt= -1 -1
 NAtoms=      2 NQM=        2 NQMF=       0 NMMI=      0 NMMIF=      0
                NMic=       0 NMicF=      0.
                    Isotopes and Nuclear Properties:
 (Nuclear quadrupole moments (NQMom) in fm**2, nuclear magnetic moments (NMagM)
  in nuclear magnetons)

  Atom         1           2
 IAtWgt=           1          39
 AtmWgt=   1.0078250  38.9637079
 NucSpn=           1           3
 AtZEff=  -0.0000000  -0.0000000
 NQMom=    0.0000000   5.8500000
 NMagM=    2.7928460   0.3914660
 AtZNuc=   1.0000000  19.0000000
 Leave Link  101 at Mon Mar 28 14:32:07 2022, MaxMem=  9663676416 cpu:               3.2 elap:               0.1
 (Enter /nopt/nrel/apps/gaussian/g16C_1/g16/l202.exe)
                          Input orientation:                          
 ---------------------------------------------------------------------
 Center     Atomic      Atomic             Coordinates (Angstroms)
 Number     Number       Type             X           Y           Z
 ---------------------------------------------------------------------
      1          1           0        0.000000    0.000000    0.000000
      2         19           0        0.000000    0.000000    3.400000
 ---------------------------------------------------------------------
 Stoichiometry    HK
 Framework group  C*V[C*(HK)]
 Deg. of freedom     1
 Full point group                 C*V     NOp   4
 Largest Abelian subgroup         C2V     NOp   4
 Largest concise Abelian subgroup C1      NOp   1
                         Standard orientation:                         
 ---------------------------------------------------------------------
 Center     Atomic      Atomic             Coordinates (Angstroms)
 Number     Number       Type             X           Y           Z
 ---------------------------------------------------------------------
      1          1           0        0.000000    0.000000   -3.230000
      2         19           0        0.000000    0.000000    0.170000
 ---------------------------------------------------------------------
 Rotational constants (GHZ):           0.0000000          44.5004853          44.5004853
 Leave Link  202 at Mon Mar 28 14:32:08 2022, MaxMem=  9663676416 cpu:               1.0 elap:               0.0
 (Enter /nopt/nrel/apps/gaussian/g16C_1/g16/l301.exe)
 General basis read from cards:  (5D, 7F)
                         Coordinates in L301:                         
 ---------------------------------------------------------------------
 Center     Atomic      Atomic             Coordinates (Angstroms)
 Number     Number       Type             X           Y           Z
 ---------------------------------------------------------------------
      1          1           0        0.000000    0.000000   -3.230000
      2         19           0        0.000000    0.000000    0.170000
 ---------------------------------------------------------------------
 Centers:       1
 STO-3G
 ****
 Centers:       2
 6-31G
 ****
 FixB: optimizing general contractions.
 Ernie: Thresh=  0.10000D-02 Tol=  0.10000D-05 Strict=F.
 IA=     1 ShT= 0 ShC= 0 NL=   1 NS=   0.
 IA=     1 L=0 SC=0 ISt=    0 NBk=    0 NP=    0 IndPr=    0.
 IA=     2 ShT= 0 ShC= 0 NL=   1 NS=   0.
 IA=     2 L=0 SC=0 ISt=    0 NBk=    0 NP=    0 IndPr=    0.
 IA=     2 ShT= 1 ShC= 0 NL=   4 NS=   1.
 IA=     2 L=1 SC=0 ISt=    1 NBk=    3 NP=   15 IndPr=    0.
 DoElim1:  L=1 select primitive    1 from    2 using    1 C=-2.50D-03
 DoElim1:  L=1 select primitive    1 from    3 using    1 C=-2.50D-03
 DoElim1:  L=1 select primitive    5 from    3 using    2 C= 1.28D-02
 DoElim2:  L=1 select primitive   15 from    2 using    3 C= 1.14D+00
 DoElim2:  L=1 select primitive   15 from    1 using    3 C= 1.14D+00
 DoElim2:  L=1 select primitive   10 from    1 using    2 C=-5.59D-01
 DoElim1:  L=1 select primitive    1 from    2 using    1 C= 4.09D-03
 DoElim1:  L=1 select primitive    1 from    3 using    1 C= 4.09D-03
 DoElim1:  L=1 select primitive    5 from    3 using    2 C=-1.22D-02
 DoElim2:  L=1 select primitive   15 from    2 using    3 C= 1.01D+00
 DoElim2:  L=1 select primitive   15 from    1 using    3 C= 1.01D+00
 DoElim2:  L=1 select primitive   10 from    1 using    2 C= 4.28D-01
 Delete L=1 primitive   14 from    3 C=  0.00D+00.
 Delete L=1 primitive   12 from    3 C=  0.00D+00.
 Delete L=1 primitive   10 from    3 C=  0.00D+00.
 Delete L=1 primitive    9 from    3 C=  0.00D+00.
 Delete L=1 primitive    8 from    3 C=  0.00D+00.
 Delete L=1 primitive    7 from    3 C=  0.00D+00.
 Delete L=1 primitive    6 from    3 C=  0.00D+00.
 Delete L=1 primitive    5 from    3 C=  0.00D+00.
 Delete L=1 primitive    4 from    3 C=  0.00D+00.
 Delete L=1 primitive    3 from    3 C=  0.00D+00.
 Delete L=1 primitive    2 from    3 C=  0.00D+00.
 Delete L=1 primitive    1 from    3 C=  0.00D+00.
 Delete L=1 primitive   15 from    2 C=  0.00D+00.
 Delete L=1 primitive   13 from    2 C=  0.00D+00.
 Delete L=1 primitive   11 from    2 C=  0.00D+00.
 Delete L=1 primitive    8 from    2 C=  0.00D+00.
 Delete L=1 primitive    6 from    2 C=  0.00D+00.
 Delete L=1 primitive    4 from    2 C=  0.00D+00.
 Delete L=1 primitive    3 from    2 C=  0.00D+00.
 Delete L=1 primitive    2 from    2 C=  0.00D+00.
 Delete L=1 primitive    1 from    2 C=  0.00D+00.
 Delete L=1 primitive   15 from    1 C=  0.00D+00.
 Delete L=1 primitive   14 from    1 C=  0.00D+00.
 Delete L=1 primitive   13 from    1 C=  0.00D+00.
 Delete L=1 primitive   12 from    1 C=  0.00D+00.
 Delete L=1 primitive   11 from    1 C=  0.00D+00.
 Delete L=1 primitive   10 from    1 C=  0.00D+00.
 Delete L=1 primitive    9 from    1 C=  0.00D+00.
 Delete L=1 primitive    7 from    1 C=  0.00D+00.
 Delete L=1 primitive    5 from    1 C=  0.00D+00.
 IA=     2 L=1 SC=0 ISt=    0 NBk=    0 NP=    0 IndPr=   15.
 LdAtmC:  AtmChg=     1.000000    19.000000
 AtZEff=     -1.0000000    -22.4200000
 NEqShl: 
              1            2            3            4
     1            1            1            1            1
     2            2            2            2            2
     3            3            3            3            3
     4            4            4            4            4
     5            5            5            5            5
     6            6            6            6            6
 NEqBas: 
              1            2            3            4
     1            1            1            1            1
     2            2            2            2            2
     3            3            3            3            3
     4            4           -4           -4            4
     5            5           -5            5           -5
     6            6            6            6            6
     7            7            7            7            7
     8            8           -8           -8            8
     9            9           -9            9           -9
    10           10           10           10           10
    11           11           11           11           11
    12           12          -12          -12           12
    13           13          -13           13          -13
    14           14           14           14           14
    15           15           15           15           15
    16           16          -16          -16           16
    17           17          -17           17          -17
    18           18           18           18           18
 There are    10 symmetry adapted cartesian basis functions of A1  symmetry.
   1         1   1   1   1
   2         2   2   2   2
   3         3   3   3   3
   4         6   6   6   6
   5         7   7   7   7
   6        10  10  10  10
   7        11  11  11  11
   8        14  14  14  14
   9        15  15  15  15
  10        18  18  18  18
 There are     0 symmetry adapted cartesian basis functions of A2  symmetry.
 There are     4 symmetry adapted cartesian basis functions of B1  symmetry.
  11         4   4   4   4
  12         8   8   8   8
  13        12  12  12  12
  14        16  16  16  16
 There are     4 symmetry adapted cartesian basis functions of B2  symmetry.
  15         5   5   5   5
  16         9   9   9   9
  17        13  13  13  13
  18        17  17  17  17
 Order= 1 2 4 3
 Reordered character table:
              1            2            3            4            5
     1            1            1            1            1            1
     2            2            1            1           -1           -1
     3            4            1           -1           -1            1
     4            3            1           -1            1           -1
 NEqShl: 
              1            2            3            4
     1            1            1            1            1
     2            2            2            2            2
     3            3            3            3            3
     4            4            4            4            4
     5            5            5            5            5
     6            6            6            6            6
 NEqBas: 
              1            2            3            4
     1            1            1            1            1
     2            2            2            2            2
     3            3            3            3            3
     4            4           -4           -4            4
     5            5           -5            5           -5
     6            6            6            6            6
     7            7            7            7            7
     8            8           -8           -8            8
     9            9           -9            9           -9
    10           10           10           10           10
    11           11           11           11           11
    12           12          -12          -12           12
    13           13          -13           13          -13
    14           14           14           14           14
    15           15           15           15           15
    16           16          -16          -16           16
    17           17          -17           17          -17
    18           18           18           18           18
 There are    10 symmetry adapted basis functions of A1  symmetry.
   1         1   1   1   1
   2         2   2   2   2
   3         3   3   3   3
   4         6   6   6   6
   5         7   7   7   7
   6        10  10  10  10
   7        11  11  11  11
   8        14  14  14  14
   9        15  15  15  15
  10        18  18  18  18
 There are     0 symmetry adapted basis functions of A2  symmetry.
 There are     4 symmetry adapted basis functions of B1  symmetry.
  11         4   4   4   4
  12         8   8   8   8
  13        12  12  12  12
  14        16  16  16  16
 There are     4 symmetry adapted basis functions of B2  symmetry.
  15         5   5   5   5
  16         9   9   9   9
  17        13  13  13  13
  18        17  17  17  17
 Order= 1 2 4 3
 Reordered character table:
              1            2            3            4            5
     1            1            1            1            1            1
     2            2            1            1           -1           -1
     3            4            1           -1           -1            1
     4            3            1           -1            1           -1
    18 basis functions,    73 primitive gaussians,    18 cartesian basis functions
    10 alpha electrons       10 beta electrons
       nuclear repulsion energy         2.9571667669 Hartrees.
 IS=     1 IAt=     1 ISR=     1 T=0 IP=      1 IndIP=      1 IndIPD=      0 C=  2.769344D-01  0.000000D+00                             NZ=T
 IS=     1 IAt=     1 ISR=     1 T=0 IP=      2 IndIP=      2 IndIPD=      1 C=  2.678389D-01  0.000000D+00                             NZ=T
 IS=     1 IAt=     1 ISR=     1 T=0 IP=      3 IndIP=      3 IndIPD=      2 C=  8.347367D-02  0.000000D+00                             NZ=T
 IS=     2 IAt=     2 ISR=     1 T=0 IP=      1 IndIP=      4 IndIPD=      0 C=  3.087425D+00  0.000000D+00                             NZ=T
 IS=     2 IAt=     2 ISR=     1 T=0 IP=      2 IndIP=      5 IndIPD=      1 C=  5.701433D+00  0.000000D+00                             NZ=T
 IS=     2 IAt=     2 ISR=     1 T=0 IP=      3 IndIP=      6 IndIPD=      2 C=  9.250015D+00  0.000000D+00                             NZ=T
 IS=     2 IAt=     2 ISR=     1 T=0 IP=      4 IndIP=      7 IndIPD=      3 C=  1.230326D+01  0.000000D+00                             NZ=T
 IS=     2 IAt=     2 ISR=     1 T=0 IP=      5 IndIP=      8 IndIPD=      4 C=  1.065796D+01  0.000000D+00                             NZ=T
 IS=     2 IAt=     2 ISR=     1 T=0 IP=      6 IndIP=      9 IndIPD=      5 C=  3.342971D+00  0.000000D+00                             NZ=T
 IS=     3 IAt=     2 ISR=     2 T=1 IP=      1 IndIP=     10 IndIPD=      0 C= -2.223866D-01  1.815760D+01                             NZ=T
 IS=     3 IAt=     2 ISR=     2 T=1 IP=      2 IndIP=     11 IndIPD=      1 C= -1.002089D+00  2.312008D+01                             NZ=T
 IS=     3 IAt=     2 ISR=     2 T=1 IP=      3 IndIP=     12 IndIPD=      2 C= -1.577145D+00  2.391470D+01                             NZ=T
 IS=     3 IAt=     2 ISR=     2 T=1 IP=      4 IndIP=     13 IndIPD=      3 C=  3.266752D-01  1.731669D+01                             NZ=T
 IS=     3 IAt=     2 ISR=     2 T=1 IP=      5 IndIP=     14 IndIPD=      4 C=  1.883992D+00  7.409963D+00                             NZ=T
 IS=     3 IAt=     2 ISR=     2 T=1 IP=      6 IndIP=     15 IndIPD=      5 C=  6.647292D-01  1.141461D+00                             NZ=T
 IS=     4 IAt=     2 ISR=     3 T=1 IP=      1 IndIP=     16 IndIPD=      0 C=  5.815266D-02 -3.826900D-01                             NZ=T
 IS=     4 IAt=     2 ISR=     3 T=1 IP=      2 IndIP=     17 IndIPD=      1 C=  4.293450D-01 -5.702211D-02                             NZ=T
 IS=     4 IAt=     2 ISR=     3 T=1 IP=      3 IndIP=     18 IndIPD=      2 C= -3.375882D-03  5.815028D-01                             NZ=T
 IS=     4 IAt=     2 ISR=     3 T=1 IP=      4 IndIP=     19 IndIPD=      3 C= -3.337346D-01  4.537484D-01                             NZ=T
 IS=     4 IAt=     2 ISR=     3 T=1 IP=      5 IndIP=     20 IndIPD=      4 C= -1.666638D-01  1.525572D-01                             NZ=T
 IS=     4 IAt=     2 ISR=     3 T=1 IP=      6 IndIP=     21 IndIPD=      5 C= -1.112643D-02  1.425313D-02                             NZ=T
 IS=     5 IAt=     2 ISR=     4 T=1 IP=      1 IndIP=     22 IndIPD=      0 C= -2.908072D-02  2.974856D-02                             NZ=T
 IS=     5 IAt=     2 ISR=     4 T=1 IP=      2 IndIP=     23 IndIPD=      1 C= -6.704811D-02 -9.373500D-03                             NZ=T
 IS=     5 IAt=     2 ISR=     4 T=1 IP=      3 IndIP=     24 IndIPD=      2 C=  7.095388D-02  2.474121D-02                             NZ=T
 IS=     6 IAt=     2 ISR=     5 T=1 IP=      1 IndIP=     25 IndIPD=      0 C=  3.284259D-02  8.442781D-03                             NZ=T
 IExCor=    0 DFT=F Ex=HF Corr=None ExCW=0 ScaHFX=  1.000000
 ScaDFX=  1.000000  1.000000  1.000000  1.000000 ScalE2=  1.000000  1.000000
 IRadAn=      5 IRanWt=     -1 IRanGd=            0 ICorTp=0 IEmpDi=  4
 NAtoms=    2 NActive=    2 NUniq=    2 SFac= 1.00D+00 NAtFMM=   60 NAOKFM=F Big=F
 Integral buffers will be    131072 words long.
 Raffenetti 1 integral format.
 Two-electron integral symmetry is turned on.
 Leave Link  301 at Mon Mar 28 14:32:08 2022, MaxMem=  9663676416 cpu:               2.0 elap:               0.1
 (Enter /nopt/nrel/apps/gaussian/g16C_1/g16/l302.exe)
 NPDir=0 NMtPBC=     1 NCelOv=     1 NCel=       1 NClECP=     1 NCelD=      1
         NCelK=      1 NCelE2=     1 NClLst=     1 CellRange=     0.0.
 One-electron integrals computed using PRISM.
 One-electron integral symmetry used in STVInt
 Entering OneElI...
 Calculate overlap and kinetic energy integrals
    NBasis =  18  MinDer = 0  MaxDer = 0
 Requested accuracy = 0.1000D-12
 Symmetry will be used
 PrmmSu-InSpLW:  IPartL=    0 NPrtUS=   36 NPrtUL=    1 DoSpLW=F IThBeg=    0 IThEnd=   35 NThAct=   36.
 PrSmSu:  IncTry=   512 NBBP=             21 NTPThr=   100 NPartT=   36 Incr=           1 LDynOK=F GPUOK=F.
 PrsmSu:  NPrtUS=  36 ThrOK=T IAlg=1 LenDen=           0 ISkipM=0 DoSpLW=F IThBeg=    0 IThEnd=   35.
 Prism:   IPart=     0 DynPar=F LinDyn=F Incr=           1.
 PRISM was handed   268430880 working-precision words and    21 shell-pairs
 PRISM was handed   268430880 working-precision words and    21 shell-pairs
 PRISM was handed   268430880 working-precision words and    21 shell-pairs
 PRISM was handed   268430880 working-precision words and    21 shell-pairs
 PRISM was handed   268430880 working-precision words and    21 shell-pairs
 PRISM was handed   268430880 working-precision words and    21 shell-pairs
 PRISM was handed   268430880 working-precision words and    21 shell-pairs
 PRISM was handed   268430880 working-precision words and    21 shell-pairs
 PRISM was handed   268430880 working-precision words and    21 shell-pairs
 IPart= 21 NShTot=           0 NBatch=           0 AvBLen=         0.0
 IPart= 25 NShTot=           0 NBatch=           0 AvBLen=         0.0
 IPart=  3 NShTot=           0 NBatch=           0 AvBLen=         0.0
 IPart=  7 NShTot=           0 NBatch=           0 AvBLen=         0.0
 IPart= 34 NShTot=           0 NBatch=           0 AvBLen=         0.0
 IPart= 13 NShTot=           0 NBatch=           0 AvBLen=         0.0
 IPart= 16 NShTot=           0 NBatch=           0 AvBLen=         0.0
 IPart= 27 NShTot=           0 NBatch=           0 AvBLen=         0.0
 PRISM was handed   268430880 working-precision words and    21 shell-pairs
 PRISM was handed   268430880 working-precision words and    21 shell-pairs
 PRISM was handed   268430880 working-precision words and    21 shell-pairs
 PRISM was handed   268430880 working-precision words and    21 shell-pairs
 PRISM was handed   268430880 working-precision words and    21 shell-pairs
 PRISM was handed   268430880 working-precision words and    21 shell-pairs
 PRISM was handed   268430880 working-precision words and    21 shell-pairs
 IPart= 20 NShTot=           0 NBatch=           0 AvBLen=         0.0
 IPart= 11 NShTot=           0 NBatch=           0 AvBLen=         0.0
 IPart= 33 NShTot=           0 NBatch=           0 AvBLen=         0.0
 IPart= 28 NShTot=           0 NBatch=           0 AvBLen=         0.0
 PRISM was handed   268430880 working-precision words and    21 shell-pairs
 IPart= 19 NShTot=           0 NBatch=           0 AvBLen=         0.0
 IPart=  4 NShTot=           0 NBatch=           0 AvBLen=         0.0
 IPart= 23 NShTot=           0 NBatch=           0 AvBLen=         0.0
 PRISM was handed   268430880 working-precision words and    21 shell-pairs
 IPart= 14 NShTot=           0 NBatch=           0 AvBLen=         0.0
 PRISM was handed   268430880 working-precision words and    21 shell-pairs
 PRISM was handed   268430880 working-precision words and    21 shell-pairs
 IPart=  1 NShTot=           4 NBatch=           4 AvBLen=         1.0
 PRISM was handed   268430880 working-precision words and    21 shell-pairs
 PRISM was handed   268430880 working-precision words and    21 shell-pairs
 IPart= 30 NShTot=           0 NBatch=           0 AvBLen=         0.0
 IPart= 12 NShTot=           0 NBatch=           0 AvBLen=         0.0
 PRISM was handed   268430880 working-precision words and    21 shell-pairs
 PRISM was handed   268430880 working-precision words and    21 shell-pairs
 PRISM was handed   268430880 working-precision words and    21 shell-pairs
 IPart= 26 NShTot=           0 NBatch=           0 AvBLen=         0.0
 PRISM was handed   268430880 working-precision words and    21 shell-pairs
 PRISM was handed   268430880 working-precision words and    21 shell-pairs
 IPart=  6 NShTot=           0 NBatch=           0 AvBLen=         0.0
 IPart=  2 NShTot=           1 NBatch=           1 AvBLen=         1.0
 PRISM was handed   268430880 working-precision words and    21 shell-pairs
 PRISM was handed   268430880 working-precision words and    21 shell-pairs
 PRISM was handed   268430880 working-precision words and    21 shell-pairs
 PRISM was handed   268430880 working-precision words and    21 shell-pairs
 IPart= 15 NShTot=           0 NBatch=           0 AvBLen=         0.0
 IPart= 32 NShTot=           0 NBatch=           0 AvBLen=         0.0
 PRISM was handed   268430880 working-precision words and    21 shell-pairs
 IPart=  8 NShTot=           0 NBatch=           0 AvBLen=         0.0
 IPart= 10 NShTot=           0 NBatch=           0 AvBLen=         0.0
 PRISM was handed   268430880 working-precision words and    21 shell-pairs
 IPart= 35 NShTot=           0 NBatch=           0 AvBLen=         0.0
 PRISM was handed   268430880 working-precision words and    21 shell-pairs
 PRISM was handed   268430880 working-precision words and    21 shell-pairs
 PRISM was handed   268430880 working-precision words and    21 shell-pairs
 IPart= 24 NShTot=           0 NBatch=           0 AvBLen=         0.0
 IPart=  9 NShTot=           0 NBatch=           0 AvBLen=         0.0
 IPart= 17 NShTot=           0 NBatch=           0 AvBLen=         0.0
 IPart= 22 NShTot=           0 NBatch=           0 AvBLen=         0.0
 IPart= 29 NShTot=           0 NBatch=           0 AvBLen=         0.0
 IPart= 18 NShTot=           0 NBatch=           0 AvBLen=         0.0
 IPart= 31 NShTot=           0 NBatch=           0 AvBLen=         0.0
 IPart=  5 NShTot=           0 NBatch=           0 AvBLen=         0.0
 IPart=  0 NShTot=          16 NBatch=          16 AvBLen=         1.0
 PrSmSu:  NxtVal=             37.
 *** Overlap *** 
                1             2             3             4             5 
      1  0.100000D+01
      2  0.139395D-04  0.100000D+01
      3  0.137105D-03  0.267715D+00  0.100000D+01
      4  0.000000D+00  0.000000D+00  0.000000D+00  0.100000D+01
      5  0.000000D+00  0.000000D+00  0.000000D+00  0.000000D+00  0.100000D+01
      6 -0.929702D-04  0.000000D+00  0.000000D+00  0.000000D+00  0.000000D+00
      7 -0.374439D-02 -0.141866D-01 -0.343708D+00  0.000000D+00  0.000000D+00
      8  0.000000D+00  0.000000D+00  0.000000D+00  0.295021D+00  0.000000D+00
      9  0.000000D+00  0.000000D+00  0.000000D+00  0.000000D+00  0.295021D+00
     10 -0.109481D-01  0.000000D+00  0.000000D+00  0.000000D+00  0.000000D+00
     11  0.139991D+00 -0.420963D-02 -0.188996D-01  0.000000D+00  0.000000D+00
     12  0.000000D+00  0.000000D+00  0.000000D+00  0.163990D-01  0.000000D+00
     13  0.000000D+00  0.000000D+00  0.000000D+00  0.000000D+00  0.163990D-01
     14 -0.272463D+00  0.000000D+00  0.000000D+00  0.000000D+00  0.000000D+00
     15  0.155963D+00  0.572576D-02  0.448310D-01  0.000000D+00  0.000000D+00
     16  0.000000D+00  0.000000D+00  0.000000D+00  0.380126D-02  0.000000D+00
     17  0.000000D+00  0.000000D+00  0.000000D+00  0.000000D+00  0.380126D-02
     18 -0.240348D+00  0.000000D+00  0.000000D+00  0.000000D+00  0.000000D+00
                6             7             8             9            10 
      6  0.100000D+01
      7  0.000000D+00  0.100000D+01
      8  0.000000D+00  0.000000D+00  0.100000D+01
      9  0.000000D+00  0.000000D+00  0.000000D+00  0.100000D+01
     10  0.295021D+00  0.000000D+00  0.000000D+00  0.000000D+00  0.100000D+01
     11  0.000000D+00 -0.172500D+00  0.000000D+00  0.000000D+00  0.000000D+00
     12  0.000000D+00  0.000000D+00  0.234662D+00  0.000000D+00  0.000000D+00
     13  0.000000D+00  0.000000D+00  0.000000D+00  0.234662D+00  0.000000D+00
     14  0.163990D-01  0.000000D+00  0.000000D+00  0.000000D+00  0.234662D+00
     15  0.000000D+00 -0.243058D+00  0.000000D+00  0.000000D+00  0.000000D+00
     16  0.000000D+00  0.000000D+00  0.967693D-01  0.000000D+00  0.000000D+00
     17  0.000000D+00  0.000000D+00  0.000000D+00  0.967693D-01  0.000000D+00
     18  0.380126D-02  0.000000D+00  0.000000D+00  0.000000D+00  0.967693D-01
               11            12            13            14            15 
     11  0.100000D+01
     12  0.000000D+00  0.100000D+01
     13  0.000000D+00  0.000000D+00  0.100000D+01
     14  0.000000D+00  0.000000D+00  0.000000D+00  0.100000D+01
     15  0.894230D+00  0.000000D+00  0.000000D+00  0.000000D+00  0.100000D+01
     16  0.000000D+00  0.807003D+00  0.000000D+00  0.000000D+00  0.000000D+00
     17  0.000000D+00  0.000000D+00  0.807003D+00  0.000000D+00  0.000000D+00
     18  0.000000D+00  0.000000D+00  0.000000D+00  0.807003D+00  0.000000D+00
               16            17            18 
     16  0.100000D+01
     17  0.000000D+00  0.100000D+01
     18  0.000000D+00  0.000000D+00  0.100000D+01
 *** Kinetic Energy *** 
                1             2             3             4             5 
      1  0.760032D+00
      2 -0.255465D-04  0.173384D+03
      3 -0.228062D-03 -0.928634D+01  0.818361D+01
      4  0.000000D+00  0.000000D+00  0.000000D+00  0.275843D+02
      5  0.000000D+00  0.000000D+00  0.000000D+00  0.000000D+00  0.275843D+02
      6  0.125609D-03  0.000000D+00  0.000000D+00  0.000000D+00  0.000000D+00
      7  0.250667D-02  0.803816D+00  0.546853D+00  0.000000D+00  0.000000D+00
      8  0.000000D+00  0.000000D+00  0.000000D+00  0.918943D+00  0.000000D+00
      9  0.000000D+00  0.000000D+00  0.000000D+00  0.000000D+00  0.918943D+00
     10  0.427936D-02  0.000000D+00  0.000000D+00  0.000000D+00  0.000000D+00
     11  0.251898D-02 -0.171808D-01 -0.100476D+00  0.000000D+00  0.000000D+00
     12  0.000000D+00  0.000000D+00  0.000000D+00  0.261790D-01  0.000000D+00
     13  0.000000D+00  0.000000D+00  0.000000D+00  0.000000D+00  0.261790D-01
     14 -0.206377D-01  0.000000D+00  0.000000D+00  0.000000D+00  0.000000D+00
     15  0.414931D-02  0.283688D-03  0.221202D-02  0.000000D+00  0.000000D+00
     16  0.000000D+00  0.000000D+00  0.000000D+00  0.312691D-03  0.000000D+00
     17  0.000000D+00  0.000000D+00  0.000000D+00  0.000000D+00  0.312691D-03
     18 -0.138138D-01  0.000000D+00  0.000000D+00  0.000000D+00  0.000000D+00
                6             7             8             9            10 
      6  0.275843D+02
      7  0.000000D+00  0.837208D+00
      8  0.000000D+00  0.000000D+00  0.154401D+01
      9  0.000000D+00  0.000000D+00  0.000000D+00  0.154401D+01
     10  0.918943D+00  0.000000D+00  0.000000D+00  0.000000D+00  0.154401D+01
     11  0.000000D+00  0.104916D+00  0.000000D+00  0.000000D+00  0.000000D+00
     12  0.000000D+00  0.000000D+00  0.663770D-01  0.000000D+00  0.000000D+00
     13  0.000000D+00  0.000000D+00  0.000000D+00  0.663770D-01  0.000000D+00
     14  0.261790D-01  0.000000D+00  0.000000D+00  0.000000D+00  0.663770D-01
     15  0.000000D+00 -0.115010D-01  0.000000D+00  0.000000D+00  0.000000D+00
     16  0.000000D+00  0.000000D+00  0.753429D-02  0.000000D+00  0.000000D+00
     17  0.000000D+00  0.000000D+00  0.000000D+00  0.753429D-02  0.000000D+00
     18  0.312691D-03  0.000000D+00  0.000000D+00  0.000000D+00  0.753429D-02
               11            12            13            14            15 
     11  0.774479D-01
     12  0.000000D+00  0.962091D-01
     13  0.000000D+00  0.000000D+00  0.962091D-01
     14  0.000000D+00  0.000000D+00  0.000000D+00  0.962091D-01
     15  0.298062D-01  0.000000D+00  0.000000D+00  0.000000D+00  0.247815D-01
     16  0.000000D+00  0.466086D-01  0.000000D+00  0.000000D+00  0.000000D+00
     17  0.000000D+00  0.000000D+00  0.466086D-01  0.000000D+00  0.000000D+00
     18  0.000000D+00  0.000000D+00  0.000000D+00  0.466086D-01  0.000000D+00
               16            17            18 
     16  0.413025D-01
     17  0.000000D+00  0.413025D-01
     18  0.000000D+00  0.000000D+00  0.413025D-01
 Entering OneElI...
 Calculate potential energy integrals
    NBasis =  18  MinDer = 0  MaxDer = 0
 Requested accuracy = 0.1000D-12
 Symmetry will be used
 PrmmSu-InSpLW:  IPartL=    0 NPrtUS=   36 NPrtUL=    1 DoSpLW=F IThBeg=    0 IThEnd=   35 NThAct=   36.
 PrSmSu:  IncTry=   512 NBBP=             42 NTPThr=   100 NPartT=   36 Incr=           1 LDynOK=F GPUOK=F.
 PrsmSu:  NPrtUS=  36 ThrOK=T IAlg=1 LenDen=           0 ISkipM=0 DoSpLW=F IThBeg=    0 IThEnd=   35.
 Prism:   IPart=     0 DynPar=F LinDyn=F Incr=           1.
 PRISM was handed   268431060 working-precision words and    21 shell-pairs
 PRISM was handed   268431060 working-precision words and    21 shell-pairs
 PRISM was handed   268431060 working-precision words and    21 shell-pairs
 PRISM was handed   268431060 working-precision words and    21 shell-pairs
 PRISM was handed   268431060 working-precision words and    21 shell-pairs
 PRISM was handed   268431060 working-precision words and    21 shell-pairs
 PRISM was handed   268431060 working-precision words and    21 shell-pairs
 PRISM was handed   268431060 working-precision words and    21 shell-pairs
 PRISM was handed   268431060 working-precision words and    21 shell-pairs
 PRISM was handed   268431060 working-precision words and    21 shell-pairs
 PRISM was handed   268431060 working-precision words and    21 shell-pairs
 PRISM was handed   268431060 working-precision words and    21 shell-pairs
 PRISM was handed   268431060 working-precision words and    21 shell-pairs
 PRISM was handed   268431060 working-precision words and    21 shell-pairs
 PRISM was handed   268431060 working-precision words and    21 shell-pairs
 PRISM was handed   268431060 working-precision words and    21 shell-pairs
 PRISM was handed   268431060 working-precision words and    21 shell-pairs
 PRISM was handed   268431060 working-precision words and    21 shell-pairs
 PRISM was handed   268431060 working-precision words and    21 shell-pairs
 PRISM was handed   268431060 working-precision words and    21 shell-pairs
 PRISM was handed   268431060 working-precision words and    21 shell-pairs
 PRISM was handed   268431060 working-precision words and    21 shell-pairs
 PRISM was handed   268431060 working-precision words and    21 shell-pairs
 PRISM was handed   268431060 working-precision words and    21 shell-pairs
 PRISM was handed   268431060 working-precision words and    21 shell-pairs
 PRISM was handed   268431060 working-precision words and    21 shell-pairs
 PRISM was handed   268431060 working-precision words and    21 shell-pairs
 PRISM was handed   268431060 working-precision words and    21 shell-pairs
 PRISM was handed   268431060 working-precision words and    21 shell-pairs
 PRISM was handed   268431060 working-precision words and    21 shell-pairs
 PRISM was handed   268431060 working-precision words and    21 shell-pairs
 PRISM was handed   268431060 working-precision words and    21 shell-pairs
 PRISM was handed   268431060 working-precision words and    21 shell-pairs
 PRISM was handed   268431060 working-precision words and    21 shell-pairs
 PRISM was handed   268431060 working-precision words and    21 shell-pairs
 PRISM was handed   268431060 working-precision words and    21 shell-pairs
 IPart= 27 NShTot=           0 NBatch=           0 AvBLen=         0.0
 IPart= 20 NShTot=           0 NBatch=           0 AvBLen=         0.0
 IPart= 19 NShTot=           0 NBatch=           0 AvBLen=         0.0
 IPart=  3 NShTot=           0 NBatch=           0 AvBLen=         0.0
 IPart=  4 NShTot=           0 NBatch=           0 AvBLen=         0.0
 IPart= 32 NShTot=           0 NBatch=           0 AvBLen=         0.0
 IPart= 21 NShTot=           0 NBatch=           0 AvBLen=         0.0
 IPart= 16 NShTot=           0 NBatch=           0 AvBLen=         0.0
 IPart= 23 NShTot=           0 NBatch=           0 AvBLen=         0.0
 IPart= 12 NShTot=           0 NBatch=           0 AvBLen=         0.0
 IPart= 11 NShTot=           0 NBatch=           0 AvBLen=         0.0
 IPart= 13 NShTot=           0 NBatch=           0 AvBLen=         0.0
 IPart= 10 NShTot=           0 NBatch=           0 AvBLen=         0.0
 IPart= 17 NShTot=           0 NBatch=           0 AvBLen=         0.0
 IPart= 24 NShTot=           0 NBatch=           0 AvBLen=         0.0
 IPart=  8 NShTot=           0 NBatch=           0 AvBLen=         0.0
 IPart= 18 NShTot=           0 NBatch=           0 AvBLen=         0.0
 IPart= 34 NShTot=           0 NBatch=           0 AvBLen=         0.0
 IPart=  5 NShTot=           0 NBatch=           0 AvBLen=         0.0
 IPart= 29 NShTot=           0 NBatch=           0 AvBLen=         0.0
 IPart= 31 NShTot=           0 NBatch=           0 AvBLen=         0.0
 IPart= 28 NShTot=           0 NBatch=           0 AvBLen=         0.0
 IPart= 22 NShTot=           0 NBatch=           0 AvBLen=         0.0
 IPart= 26 NShTot=           0 NBatch=           0 AvBLen=         0.0
 IPart= 35 NShTot=           0 NBatch=           0 AvBLen=         0.0
 IPart= 33 NShTot=           0 NBatch=           0 AvBLen=         0.0
 IPart=  6 NShTot=           0 NBatch=           0 AvBLen=         0.0
 IPart= 30 NShTot=           0 NBatch=           0 AvBLen=         0.0
 IPart=  7 NShTot=           0 NBatch=           0 AvBLen=         0.0
 IPart=  9 NShTot=           0 NBatch=           0 AvBLen=         0.0
 IPart= 14 NShTot=           0 NBatch=           0 AvBLen=         0.0
 IPart= 15 NShTot=           0 NBatch=           0 AvBLen=         0.0
 IPart= 25 NShTot=           0 NBatch=           0 AvBLen=         0.0
 IPart=  2 NShTot=           2 NBatch=           1 AvBLen=         2.0
 IPart=  1 NShTot=           8 NBatch=           4 AvBLen=         2.0
 IPart=  0 NShTot=          32 NBatch=          16 AvBLen=         2.0
 PrSmSu:  NxtVal=             37.
 ***** Potential Energy ***** 
                1             2             3             4             5 
      1  0.418378D+01
      2  0.247091D-02  0.353937D+03
      3  0.538636D-02  0.380099D+02  0.610960D+02
      4  0.000000D+00  0.000000D+00  0.000000D+00  0.705562D+02
      5  0.000000D+00  0.000000D+00  0.000000D+00  0.000000D+00  0.705562D+02
      6 -0.287032D-02 -0.777730D-03 -0.503790D-02  0.000000D+00  0.000000D+00
      7 -0.313694D-01 -0.179409D+01 -0.126205D+02  0.000000D+00  0.000000D+00
      8  0.000000D+00  0.000000D+00  0.000000D+00  0.109894D+02  0.000000D+00
      9  0.000000D+00  0.000000D+00  0.000000D+00  0.000000D+00  0.109894D+02
     10 -0.700863D-01 -0.384714D-04 -0.263908D-02  0.000000D+00  0.000000D+00
     11  0.567030D+00 -0.768196D+00 -0.103574D+01  0.000000D+00  0.000000D+00
     12  0.000000D+00  0.000000D+00  0.000000D+00  0.573349D+00  0.000000D+00
     13  0.000000D+00  0.000000D+00  0.000000D+00  0.000000D+00  0.573349D+00
     14 -0.106333D+01 -0.193796D-05 -0.155672D-03  0.000000D+00  0.000000D+00
     15  0.596222D+00  0.102442D+01  0.192182D+01  0.000000D+00  0.000000D+00
     16  0.000000D+00  0.000000D+00  0.000000D+00  0.124625D+00  0.000000D+00
     17  0.000000D+00  0.000000D+00  0.000000D+00  0.000000D+00  0.124625D+00
     18 -0.878911D+00  0.000000D+00 -0.377886D-04  0.000000D+00  0.000000D+00
                6             7             8             9            10 
      6  0.705565D+02
      7  0.289846D-02  0.183369D+02
      8  0.000000D+00  0.000000D+00  0.166248D+02
      9  0.000000D+00  0.000000D+00  0.000000D+00  0.166248D+02
     10  0.109897D+02  0.179340D-01  0.000000D+00  0.000000D+00  0.166300D+02
     11  0.941763D-04 -0.132918D+01  0.000000D+00  0.000000D+00 -0.997412D-02
     12  0.000000D+00  0.000000D+00  0.236654D+01  0.000000D+00  0.000000D+00
     13  0.000000D+00  0.000000D+00  0.000000D+00  0.236654D+01  0.000000D+00
     14  0.573369D+00  0.494311D-02  0.000000D+00  0.000000D+00  0.237040D+01
     15 -0.358198D-03 -0.328842D+01  0.000000D+00  0.000000D+00 -0.910761D-02
     16  0.000000D+00  0.000000D+00  0.870276D+00  0.000000D+00  0.000000D+00
     17  0.000000D+00  0.000000D+00  0.000000D+00  0.870276D+00  0.000000D+00
     18  0.124630D+00  0.207298D-02  0.000000D+00  0.000000D+00  0.872159D+00
               11            12            13            14            15 
     11  0.480986D+01
     12  0.000000D+00  0.406520D+01
     13  0.000000D+00  0.000000D+00  0.406520D+01
     14 -0.607161D-01  0.000000D+00  0.000000D+00  0.411922D+01
     15  0.396827D+01  0.000000D+00  0.000000D+00 -0.601772D-01  0.403740D+01
     16  0.000000D+00  0.279618D+01  0.000000D+00  0.000000D+00  0.000000D+00
     17  0.000000D+00  0.000000D+00  0.279618D+01  0.000000D+00  0.000000D+00
     18 -0.434932D-01  0.000000D+00  0.000000D+00  0.283997D+01 -0.531954D-01
               16            17            18 
     16  0.270616D+01
     17  0.000000D+00  0.270616D+01
     18  0.000000D+00  0.000000D+00  0.275034D+01
 ****** Core Hamiltonian ****** 
                1             2             3             4             5 
      1 -0.342375D+01
      2 -0.249646D-02 -0.180553D+03
      3 -0.561442D-02 -0.472963D+02 -0.529124D+02
      4  0.000000D+00  0.000000D+00  0.000000D+00 -0.429719D+02
      5  0.000000D+00  0.000000D+00  0.000000D+00  0.000000D+00 -0.429719D+02
      6  0.299593D-02  0.777730D-03  0.503790D-02  0.000000D+00  0.000000D+00
      7  0.338761D-01  0.259791D+01  0.131673D+02  0.000000D+00  0.000000D+00
      8  0.000000D+00  0.000000D+00  0.000000D+00 -0.100704D+02  0.000000D+00
      9  0.000000D+00  0.000000D+00  0.000000D+00  0.000000D+00 -0.100704D+02
     10  0.743657D-01  0.384714D-04  0.263908D-02  0.000000D+00  0.000000D+00
     11 -0.564511D+00  0.751015D+00  0.935260D+00  0.000000D+00  0.000000D+00
     12  0.000000D+00  0.000000D+00  0.000000D+00 -0.547170D+00  0.000000D+00
     13  0.000000D+00  0.000000D+00  0.000000D+00  0.000000D+00 -0.547170D+00
     14  0.104269D+01  0.193796D-05  0.155672D-03  0.000000D+00  0.000000D+00
     15 -0.592073D+00 -0.102414D+01 -0.191961D+01  0.000000D+00  0.000000D+00
     16  0.000000D+00  0.000000D+00  0.000000D+00 -0.124312D+00  0.000000D+00
     17  0.000000D+00  0.000000D+00  0.000000D+00  0.000000D+00 -0.124312D+00
     18  0.865097D+00  0.000000D+00  0.377886D-04  0.000000D+00  0.000000D+00
                6             7             8             9            10 
      6 -0.429722D+02
      7 -0.289846D-02 -0.174996D+02
      8  0.000000D+00  0.000000D+00 -0.150808D+02
      9  0.000000D+00  0.000000D+00  0.000000D+00 -0.150808D+02
     10 -0.100707D+02 -0.179340D-01  0.000000D+00  0.000000D+00 -0.150860D+02
     11 -0.941763D-04  0.143410D+01  0.000000D+00  0.000000D+00  0.997412D-02
     12  0.000000D+00  0.000000D+00 -0.230016D+01  0.000000D+00  0.000000D+00
     13  0.000000D+00  0.000000D+00  0.000000D+00 -0.230016D+01  0.000000D+00
     14 -0.547190D+00 -0.494311D-02  0.000000D+00  0.000000D+00 -0.230402D+01
     15  0.358198D-03  0.327692D+01  0.000000D+00  0.000000D+00  0.910761D-02
     16  0.000000D+00  0.000000D+00 -0.862742D+00  0.000000D+00  0.000000D+00
     17  0.000000D+00  0.000000D+00  0.000000D+00 -0.862742D+00  0.000000D+00
     18 -0.124317D+00 -0.207298D-02  0.000000D+00  0.000000D+00 -0.864624D+00
               11            12            13            14            15 
     11 -0.473242D+01
     12  0.000000D+00 -0.396899D+01
     13  0.000000D+00  0.000000D+00 -0.396899D+01
     14  0.607161D-01  0.000000D+00  0.000000D+00 -0.402301D+01
     15 -0.393847D+01  0.000000D+00  0.000000D+00  0.601772D-01 -0.401262D+01
     16  0.000000D+00 -0.274957D+01  0.000000D+00  0.000000D+00  0.000000D+00
     17  0.000000D+00  0.000000D+00 -0.274957D+01  0.000000D+00  0.000000D+00
     18  0.434932D-01  0.000000D+00  0.000000D+00 -0.279336D+01  0.531954D-01
               16            17            18 
     16 -0.266485D+01
     17  0.000000D+00 -0.266485D+01
     18  0.000000D+00  0.000000D+00 -0.270904D+01
 SVDSVc IOpt=   1 NormSV=T IR=1
 SVDSVc V= 2.08D+00 1.95D+00 1.40D+00 1.26D+00 9.61D-01 8.30D-01 6.81D-01 5.51D-01 1.79D-01 1.02D-01
 SVDSVc IOpt=   1 NormSV=T IR=3
 SVDSVc V= 1.88D+00 1.25D+00 6.91D-01 1.80D-01
 SVDSVc IOpt=   1 NormSV=T IR=4
 SVDSVc V= 1.88D+00 1.25D+00 6.91D-01 1.80D-01
 TstOVc:  Largest diagonal error= 1.78D-15 IB=1 I=    1.
 TstOVc:  Largest same sym error= 6.34D-16 IB=1 I=    4 J=    3.
 TstOVc:  Largest diff sym error= 0.00D+00 IB=0 JB=0 I=    0 J=    0.
 Orthogonalized basis functions: 
                 1             2             3             4             5 
      1   0.224117D+00 -0.109923D+00 -0.725298D-01  0.152827D+00  0.226004D+00
      2   0.182439D-01  0.225371D-01  0.411279D+00  0.429483D-01  0.771317D+00
      3   0.632446D-01  0.701080D-01  0.592098D+00  0.425191D-01 -0.802082D-01
      4   0.000000D+00  0.000000D+00  0.000000D+00  0.000000D+00  0.000000D+00
      5   0.000000D+00  0.000000D+00  0.000000D+00  0.000000D+00  0.000000D+00
      6  -0.302007D-01  0.539658D-01 -0.358824D-01  0.633181D+00 -0.668043D-01
      7  -0.157306D+00 -0.153624D+00 -0.372433D+00 -0.161920D-02  0.595249D+00
      8   0.000000D+00  0.000000D+00  0.000000D+00  0.000000D+00  0.000000D+00
      9   0.000000D+00  0.000000D+00  0.000000D+00  0.000000D+00  0.000000D+00
     10  -0.923647D-01  0.148212D+00 -0.466294D-01  0.574770D+00  0.439295D-02
     11   0.349259D+00  0.289360D+00 -0.176409D+00 -0.398508D-01  0.118145D+00
     12   0.000000D+00  0.000000D+00  0.000000D+00  0.000000D+00  0.000000D+00
     13   0.000000D+00  0.000000D+00  0.000000D+00  0.000000D+00  0.000000D+00
     14  -0.270551D+00  0.377612D+00 -0.275996D-01 -0.768057D-01  0.635673D-01
     15   0.358815D+00  0.296827D+00 -0.124620D+00 -0.349403D-01  0.762466D-01
     16   0.000000D+00  0.000000D+00  0.000000D+00  0.000000D+00  0.000000D+00
     17   0.000000D+00  0.000000D+00  0.000000D+00  0.000000D+00  0.000000D+00
     18  -0.259800D+00  0.363591D+00 -0.238226D-01 -0.153611D+00  0.733233D-01
                 6             7             8             9            10 
      1   0.934874D+00 -0.278945D+00 -0.103098D+00  0.927165D-01 -0.508381D-01
      2  -0.206238D+00  0.398045D-01 -0.524036D+00  0.609396D-03  0.919436D-02
      3   0.125645D+00 -0.480195D-01  0.921339D+00 -0.244294D-02 -0.105469D+00
      4   0.000000D+00  0.000000D+00  0.000000D+00  0.000000D+00  0.000000D+00
      5   0.000000D+00  0.000000D+00  0.000000D+00  0.000000D+00  0.000000D+00
      6  -0.301783D+00 -0.768287D+00 -0.128843D-01  0.914243D-01 -0.117836D-02
      7  -0.105859D+00 -0.122140D-01  0.804400D+00 -0.392070D-02  0.143330D+00
      8   0.000000D+00  0.000000D+00  0.000000D+00  0.000000D+00  0.000000D+00
      9   0.000000D+00  0.000000D+00  0.000000D+00  0.000000D+00  0.000000D+00
     10   0.159708D+00  0.837510D+00  0.208465D-01 -0.328301D+00  0.465446D-02
     11  -0.171591D+00  0.378622D-01  0.132670D+00 -0.194705D-01 -0.219058D+01
     12   0.000000D+00  0.000000D+00  0.000000D+00  0.000000D+00  0.000000D+00
     13   0.000000D+00  0.000000D+00  0.000000D+00  0.000000D+00  0.000000D+00
     14   0.212051D+00 -0.623645D-01 -0.152741D-01  0.170043D+01 -0.204789D-01
     15  -0.132417D+00  0.269852D-01  0.121677D+00  0.256173D-02  0.223372D+01
     16   0.000000D+00  0.000000D+00  0.000000D+00  0.000000D+00  0.000000D+00
     17   0.000000D+00  0.000000D+00  0.000000D+00  0.000000D+00  0.000000D+00
     18   0.230588D+00 -0.297460D+00 -0.321068D-01 -0.160554D+01  0.429947D-02
                11            12            13            14            15 
      1   0.000000D+00  0.000000D+00  0.000000D+00  0.000000D+00  0.000000D+00
      2   0.000000D+00  0.000000D+00  0.000000D+00  0.000000D+00  0.000000D+00
      3   0.000000D+00  0.000000D+00  0.000000D+00  0.000000D+00  0.000000D+00
      4   0.827827D-01  0.650522D+00 -0.813669D+00  0.900001D-01  0.000000D+00
      5   0.000000D+00  0.000000D+00  0.000000D+00  0.000000D+00  0.827827D-01
      6   0.000000D+00  0.000000D+00  0.000000D+00  0.000000D+00  0.000000D+00
      7   0.000000D+00  0.000000D+00  0.000000D+00  0.000000D+00  0.000000D+00
      8   0.213287D+00  0.558240D+00  0.856396D+00 -0.322873D+00  0.000000D+00
      9   0.000000D+00  0.000000D+00  0.000000D+00  0.000000D+00  0.213287D+00
     10   0.000000D+00  0.000000D+00  0.000000D+00  0.000000D+00  0.000000D+00
     11   0.000000D+00  0.000000D+00  0.000000D+00  0.000000D+00  0.000000D+00
     12   0.498483D+00 -0.137035D+00 -0.114594D-01  0.168244D+01  0.000000D+00
     13   0.000000D+00  0.000000D+00  0.000000D+00  0.000000D+00  0.498483D+00
     14   0.000000D+00  0.000000D+00  0.000000D+00  0.000000D+00  0.000000D+00
     15   0.000000D+00  0.000000D+00  0.000000D+00  0.000000D+00  0.000000D+00
     16   0.480441D+00 -0.217733D+00 -0.228099D+00 -0.161779D+01  0.000000D+00
     17   0.000000D+00  0.000000D+00  0.000000D+00  0.000000D+00  0.480441D+00
     18   0.000000D+00  0.000000D+00  0.000000D+00  0.000000D+00  0.000000D+00
                16            17            18 
      1   0.000000D+00  0.000000D+00  0.000000D+00
      2   0.000000D+00  0.000000D+00  0.000000D+00
      3   0.000000D+00  0.000000D+00  0.000000D+00
      4   0.000000D+00  0.000000D+00  0.000000D+00
      5   0.650522D+00 -0.813669D+00  0.900001D-01
      6   0.000000D+00  0.000000D+00  0.000000D+00
      7   0.000000D+00  0.000000D+00  0.000000D+00
      8   0.000000D+00  0.000000D+00  0.000000D+00
      9   0.558240D+00  0.856396D+00 -0.322873D+00
     10   0.000000D+00  0.000000D+00  0.000000D+00
     11   0.000000D+00  0.000000D+00  0.000000D+00
     12   0.000000D+00  0.000000D+00  0.000000D+00
     13  -0.137035D+00 -0.114594D-01  0.168244D+01
     14   0.000000D+00  0.000000D+00  0.000000D+00
     15   0.000000D+00  0.000000D+00  0.000000D+00
     16   0.000000D+00  0.000000D+00  0.000000D+00
     17  -0.217733D+00 -0.228099D+00 -0.161779D+01
     18   0.000000D+00  0.000000D+00  0.000000D+00
 NBasis=    18 RedAO= T EigKep=  1.02D-01  NBF=    10     0     4     4
 NBsUse=    18 1.00D-06 EigRej= -1.00D+00 NBFU=    10     0     4     4
 Leave Link  302 at Mon Mar 28 14:32:08 2022, MaxMem=  9663676416 cpu:               4.0 elap:               0.1
 (Enter /nopt/nrel/apps/gaussian/g16C_1/g16/l303.exe)
 DipDrv will not compute anything.
 Fermi contact integrals: 
                 1             2 
      1   0.628247D+00  0.783888D-04
      2   0.000000D+00  0.443431D+02
      3   0.000000D+00  0.737756D-01
      4   0.000000D+00  0.000000D+00
      5   0.000000D+00  0.000000D+00
      6   0.000000D+00  0.000000D+00
      7  -0.265509D-04 -0.274029D-01
      8   0.000000D+00  0.000000D+00
      9   0.000000D+00  0.000000D+00
     10  -0.218325D-03  0.000000D+00
     11   0.143703D-01 -0.251750D-01
     12   0.000000D+00  0.000000D+00
     13   0.000000D+00  0.000000D+00
     14  -0.322009D-01  0.000000D+00
     15   0.166052D-01  0.328426D-01
     16   0.000000D+00  0.000000D+00
     17   0.000000D+00  0.000000D+00
     18  -0.274264D-01  0.000000D+00
 Leave Link  303 at Mon Mar 28 14:32:08 2022, MaxMem=  9663676416 cpu:               1.1 elap:               0.1
 (Enter /nopt/nrel/apps/gaussian/g16C_1/g16/l401.exe)
 ExpMin= 1.65D-02 ExpMax= 3.16D+04 ExpMxC= 4.74D+03 IAcc=3 IRadAn=         5 AccDes= 0.00D+00
 Harris functional with IExCor=  205 and IRadAn=       5 diagonalized for initial guess.
 HarFok:  IExCor=  205 AccDes= 0.00D+00 IRadAn=         5 IDoV= 1 UseB2=F ITyADJ=14
 ICtDFT=  3500011 ScaDFX=  1.000000  1.000000  1.000000  1.000000
 FoFCou: FMM=F IPFlag=           0 FMFlag=      100000 FMFlg1=           0
         NFxFlg=           0 DoJE=T BraDBF=F KetDBF=T FulRan=T
         wScrn=  0.000000 ICntrl=       500 IOpCl=  0 I1Cent=   200000004 NGrid=           0
         NMat0=    1 NMatS0=      1 NMatT0=    0 NMatD0=    1 NMtDS0=    0 NMtDT0=    0
 Petite list used in FoFCou.
 Harris En= -598.998449930363    
 JPrj=0 DoOrth=F DoCkMO=F.
 Initial guess orbital symmetries:
       Occupied  (SG) (SG) (SG) (PI) (PI) (SG) (SG) (PI) (PI) (SG)
       Virtual   (SG) (PI) (PI) (SG) (SG) (SG) (PI) (PI)
 The electronic state of the initial guess is 1-SG.
 Leave Link  401 at Mon Mar 28 14:32:08 2022, MaxMem=  9663676416 cpu:               3.9 elap:               0.1
 (Enter /nopt/nrel/apps/gaussian/g16C_1/g16/l502.exe)
 Keep R1 ints in memory in symmetry-blocked form, NReq=7243289.
 FoFCou: FMM=F IPFlag=           0 FMFlag=           0 FMFlg1=           0
         NFxFlg=           0 DoJE=F BraDBF=F KetDBF=F FulRan=T
         wScrn=  0.000000 ICntrl=       600 IOpCl=  0 I1Cent=           0 NGrid=           0
         NMat0=    1 NMatS0=    171 NMatT0=    0 NMatD0=    1 NMtDS0=    0 NMtDT0=    0
 Petite list used in FoFCou.
 Closed shell SCF:
 Using DIIS extrapolation, IDIIS=  1040.
 NGot=  9663676416 LenX=  9663668636 LenY=  9663667754
 Requested convergence on RMS density matrix=1.00D-08 within 128 cycles.
 Requested convergence on MAX density matrix=1.00D-06.
 Requested convergence on             energy=1.00D-06.
 No special actions if energy rises.

 Cycle   1  Pass 1  IDiag  1:
 E= -599.491255210039    
 DIIS: error= 4.64D-02 at cycle   1 NSaved=   1.
 NSaved= 1 IEnMin= 1 EnMin= -599.491255210039     IErMin= 1 ErrMin= 4.64D-02
 ErrMax= 4.64D-02  0.00D+00 EMaxC= 1.00D-01 BMatC= 1.76D-02 BMatP= 1.76D-02
 IDIUse=3 WtCom= 5.36D-01 WtEn= 4.64D-01
 Coeff-Com:  0.100D+01
 Coeff-En:   0.100D+01
 Coeff:      0.100D+01
 Gap=     0.078 Goal=   None    Shift=    0.000
 GapD=    0.078 DampG=0.500 DampE=0.500 DampFc=0.2500 IDamp=-1.
 Damping current iteration by 2.50D-01
 RMSDP=2.59D-02 MaxDP=3.61D-01              OVMax= 0.00D+00

 Cycle   2  Pass 1  IDiag  1:
 E= -599.510119938518     Delta-E=       -0.018864728479 Rises=F Damp=T
 DIIS: error= 3.20D-02 at cycle   2 NSaved=   2.
 NSaved= 2 IEnMin= 2 EnMin= -599.510119938518     IErMin= 2 ErrMin= 3.20D-02
 ErrMax= 3.20D-02  0.00D+00 EMaxC= 1.00D-01 BMatC= 8.83D-03 BMatP= 1.76D-02
 IDIUse=3 WtCom= 6.80D-01 WtEn= 3.20D-01
 Coeff-Com: -0.238D+01 0.338D+01
 Coeff-En:   0.000D+00 0.100D+01
 Coeff:     -0.162D+01 0.262D+01
 Gap=     0.164 Goal=   None    Shift=    0.000
 RMSDP=1.54D-02 MaxDP=2.05D-01 DE=-1.89D-02 OVMax= 0.00D+00

 Cycle   3  Pass 1  IDiag  1:
 E= -599.556989067261     Delta-E=       -0.046869128743 Rises=F Damp=F
 DIIS: error= 2.07D-03 at cycle   3 NSaved=   3.
 NSaved= 3 IEnMin= 3 EnMin= -599.556989067261     IErMin= 3 ErrMin= 2.07D-03
 ErrMax= 2.07D-03  0.00D+00 EMaxC= 1.00D-01 BMatC= 2.77D-05 BMatP= 8.83D-03
 IDIUse=3 WtCom= 9.79D-01 WtEn= 2.07D-02
 Coeff-Com:  0.460D+00-0.611D+00 0.115D+01
 Coeff-En:   0.000D+00 0.000D+00 0.100D+01
 Coeff:      0.450D+00-0.599D+00 0.115D+01
 Gap=     0.183 Goal=   None    Shift=    0.000
 RMSDP=9.67D-04 MaxDP=1.04D-02 DE=-4.69D-02 OVMax= 0.00D+00

 Cycle   4  Pass 1  IDiag  1:
 E= -599.557135416883     Delta-E=       -0.000146349622 Rises=F Damp=F
 DIIS: error= 2.29D-04 at cycle   4 NSaved=   4.
 NSaved= 4 IEnMin= 4 EnMin= -599.557135416883     IErMin= 4 ErrMin= 2.29D-04
 ErrMax= 2.29D-04  0.00D+00 EMaxC= 1.00D-01 BMatC= 5.67D-07 BMatP= 2.77D-05
 IDIUse=3 WtCom= 9.98D-01 WtEn= 2.29D-03
 Coeff-Com: -0.119D+00 0.159D+00-0.222D+00 0.118D+01
 Coeff-En:   0.000D+00 0.000D+00 0.000D+00 0.100D+01
 Coeff:     -0.119D+00 0.158D+00-0.221D+00 0.118D+01
 Gap=     0.183 Goal=   None    Shift=    0.000
 RMSDP=2.96D-04 MaxDP=2.43D-03 DE=-1.46D-04 OVMax= 0.00D+00

 Cycle   5  Pass 1  IDiag  1:
 E= -599.557142549974     Delta-E=       -0.000007133091 Rises=F Damp=F
 DIIS: error= 9.69D-05 at cycle   5 NSaved=   5.
 NSaved= 5 IEnMin= 5 EnMin= -599.557142549974     IErMin= 5 ErrMin= 9.69D-05
 ErrMax= 9.69D-05  0.00D+00 EMaxC= 1.00D-01 BMatC= 1.18D-07 BMatP= 5.67D-07
 IDIUse=1 WtCom= 1.00D+00 WtEn= 0.00D+00
 Coeff-Com: -0.147D-01 0.205D-01 0.321D-01-0.726D+00 0.169D+01
 Coeff:     -0.147D-01 0.205D-01 0.321D-01-0.726D+00 0.169D+01
 Gap=     0.182 Goal=   None    Shift=    0.000
 RMSDP=1.82D-04 MaxDP=1.47D-03 DE=-7.13D-06 OVMax= 0.00D+00

 Cycle   6  Pass 1  IDiag  1:
 E= -599.557144338126     Delta-E=       -0.000001788152 Rises=F Damp=F
 DIIS: error= 1.65D-05 at cycle   6 NSaved=   6.
 NSaved= 6 IEnMin= 6 EnMin= -599.557144338126     IErMin= 6 ErrMin= 1.65D-05
 ErrMax= 1.65D-05  0.00D+00 EMaxC= 1.00D-01 BMatC= 3.26D-09 BMatP= 1.18D-07
 IDIUse=1 WtCom= 1.00D+00 WtEn= 0.00D+00
 Coeff-Com: -0.571D-02 0.763D-02-0.159D-01 0.176D+00-0.485D+00 0.132D+01
 Coeff:     -0.571D-02 0.763D-02-0.159D-01 0.176D+00-0.485D+00 0.132D+01
 Gap=     0.182 Goal=   None    Shift=    0.000
 RMSDP=2.13D-05 MaxDP=1.19D-04 DE=-1.79D-06 OVMax= 0.00D+00

 Cycle   7  Pass 1  IDiag  1:
 E= -599.557144387754     Delta-E=       -0.000000049628 Rises=F Damp=F
 DIIS: error= 3.31D-06 at cycle   7 NSaved=   7.
 NSaved= 7 IEnMin= 7 EnMin= -599.557144387754     IErMin= 7 ErrMin= 3.31D-06
 ErrMax= 3.31D-06  0.00D+00 EMaxC= 1.00D-01 BMatC= 1.78D-10 BMatP= 3.26D-09
 IDIUse=1 WtCom= 1.00D+00 WtEn= 0.00D+00
 Coeff-Com: -0.811D-03 0.109D-02 0.135D-02-0.389D-01 0.122D+00-0.504D+00
 Coeff-Com:  0.142D+01
 Coeff:     -0.811D-03 0.109D-02 0.135D-02-0.389D-01 0.122D+00-0.504D+00
 Coeff:      0.142D+01
 Gap=     0.182 Goal=   None    Shift=    0.000
 RMSDP=5.42D-06 MaxDP=3.65D-05 DE=-4.96D-08 OVMax= 0.00D+00

 Cycle   8  Pass 1  IDiag  1:
 E= -599.557144390018     Delta-E=       -0.000000002263 Rises=F Damp=F
 DIIS: error= 4.45D-07 at cycle   8 NSaved=   8.
 NSaved= 8 IEnMin= 8 EnMin= -599.557144390018     IErMin= 8 ErrMin= 4.45D-07
 ErrMax= 4.45D-07  0.00D+00 EMaxC= 1.00D-01 BMatC= 3.30D-12 BMatP= 1.78D-10
 IDIUse=1 WtCom= 1.00D+00 WtEn= 0.00D+00
 Coeff-Com: -0.411D-04 0.554D-04-0.923D-03 0.158D-01-0.475D-01 0.183D+00
 Coeff-Com: -0.567D+00 0.142D+01
 Coeff:     -0.411D-04 0.554D-04-0.923D-03 0.158D-01-0.475D-01 0.183D+00
 Coeff:     -0.567D+00 0.142D+01
 Gap=     0.182 Goal=   None    Shift=    0.000
 RMSDP=7.86D-07 MaxDP=5.42D-06 DE=-2.26D-09 OVMax= 0.00D+00

 Cycle   9  Pass 1  IDiag  1:
 E= -599.557144390057     Delta-E=       -0.000000000039 Rises=F Damp=F
 DIIS: error= 2.79D-08 at cycle   9 NSaved=   9.
 NSaved= 9 IEnMin= 9 EnMin= -599.557144390057     IErMin= 9 ErrMin= 2.79D-08
 ErrMax= 2.79D-08  0.00D+00 EMaxC= 1.00D-01 BMatC= 1.40D-14 BMatP= 3.30D-12
 IDIUse=1 WtCom= 1.00D+00 WtEn= 0.00D+00
 Coeff-Com: -0.987D-05 0.132D-04 0.155D-03-0.295D-02 0.894D-02-0.357D-01
 Coeff-Com:  0.116D+00-0.321D+00 0.123D+01
 Coeff:     -0.987D-05 0.132D-04 0.155D-03-0.295D-02 0.894D-02-0.357D-01
 Coeff:      0.116D+00-0.321D+00 0.123D+01
 Gap=     0.182 Goal=   None    Shift=    0.000
 RMSDP=5.06D-08 MaxDP=3.69D-07 DE=-3.92D-11 OVMax= 0.00D+00

 Cycle  10  Pass 1  IDiag  1:
 E= -599.557144390057     Delta-E=        0.000000000000 Rises=F Damp=F
 DIIS: error= 4.59D-09 at cycle  10 NSaved=  10.
 NSaved=10 IEnMin= 9 EnMin= -599.557144390057     IErMin=10 ErrMin= 4.59D-09
 ErrMax= 4.59D-09  0.00D+00 EMaxC= 1.00D-01 BMatC= 3.18D-16 BMatP= 1.40D-14
 IDIUse=1 WtCom= 1.00D+00 WtEn= 0.00D+00
 Coeff-Com:  0.773D-06-0.102D-05-0.376D-04 0.683D-03-0.205D-02 0.823D-02
 Coeff-Com: -0.274D-01 0.753D-01-0.397D+00 0.134D+01
 Coeff:      0.773D-06-0.102D-05-0.376D-04 0.683D-03-0.205D-02 0.823D-02
 Coeff:     -0.274D-01 0.753D-01-0.397D+00 0.134D+01
 Gap=     0.182 Goal=   None    Shift=    0.000
 RMSDP=9.44D-09 MaxDP=7.27D-08 DE= 0.00D+00 OVMax= 0.00D+00

 SCF Done:  E(RHF) =  -599.557144390     A.U. after   10 cycles
            NFock= 10  Conv=0.94D-08     -V/T= 1.9999
 KE= 5.996010771606D+02 PE=-1.429373314917D+03 EE= 2.272579265990D+02
 Leave Link  502 at Mon Mar 28 14:32:08 2022, MaxMem=  9663676416 cpu:               5.6 elap:               0.2
 (Enter /nopt/nrel/apps/gaussian/g16C_1/g16/l801.exe)
 Windowed orbitals will be sorted by symmetry type.
 ExpMin= 1.65D-02 ExpMax= 3.16D+04 ExpMxC= 4.74D+03 IAcc=3 IRadAn=         5 AccDes= 0.00D+00
 HarFok:  IExCor=  205 AccDes= 0.00D+00 IRadAn=         5 IDoV=-2 UseB2=F ITyADJ=14
 ICtDFT= 12500011 ScaDFX=  1.000000  1.000000  1.000000  1.000000
 Largest valence mixing into a core orbital is  2.35D-04
 Largest core mixing into a valence orbital is  4.46D-05
 Range of M.O.s used for correlation:    10    18
 NBasis=    18 NAE=    10 NBE=    10 NFC=     9 NFV=     0
 NROrb=      9 NOA=     1 NOB=     1 NVA=     8 NVB=     8
 Leave Link  801 at Mon Mar 28 14:32:08 2022, MaxMem=  9663676416 cpu:               2.0 elap:               0.1
 (Enter /nopt/nrel/apps/gaussian/g16C_1/g16/l804.exe)
 Closed-shell transformation, MDV=  9663676416 ITran=4 ISComp=2.
 Unit  1 TFree=         12474 TCopy=        221008.
 Semi-Direct transformation.
 ModeAB=           2 MOrb=             1 LenV=    9663550188
 LASXX=           88 LTotXX=          88 LenRXX=          88
 LTotAB=         141 MaxLAS=        1539 LenRXY=        1539
 NonZer=        1755 LenScr=      785920 LnRSAI=           0
 LnScr1=           0 LExtra=      222029 Total=      1009576
 MaxDsk= 34359738368 SrtSym=           F ITran=            4
 DoSDTr:  NPSUse= 36
 JobTyp=0 Pass  1:  I=   1 to   1.
 (rs|ai) integrals will be sorted in core.
 Complete sort for first half transformation.
 First half transformation complete.
 Complete sort for second half transformation.
 Second half transformation complete.
 Spin components of T(2) and E(2):
     alpha-alpha T2 =       0.0000000000D+00 E2=      0.0000000000D+00
     alpha-beta  T2 =       0.4188819819D-01 E2=     -0.2980016005D-01
     beta-beta   T2 =       0.0000000000D+00 E2=      0.0000000000D+00
 ANorm=    0.1020729248D+01
 E2 =    -0.2980016005D-01 EUMP2 =    -0.59958694455010D+03
 Leave Link  804 at Mon Mar 28 14:32:08 2022, MaxMem=  9663676416 cpu:               1.7 elap:               0.1
 (Enter /nopt/nrel/apps/gaussian/g16C_1/g16/l913.exe)
 CIDS:  MDV=  9663676416.
 Frozen-core window:  NFC=   9 NFV=   0.
 IFCWin=0 IBDFC=1 NFBD=     0     0 NFCmp=     0     0 NFFFC=     0     0
 Using DD3R+UMP44R for 1st iteration.
 Using DD4RQ for 2nd and later iterations.
 Keep R2 and R3 ints in memory in symmetry-blocked form, NReq=7245695.
 FoFCou: FMM=F IPFlag=           0 FMFlag=           0 FMFlg1=           0
         NFxFlg=           0 DoJE=F BraDBF=F KetDBF=F FulRan=T
         wScrn=  0.000000 ICntrl=       600 IOpCl=  0 I1Cent=           0 NGrid=           0
         NMat0=    1 NMatS0=    171 NMatT0=    0 NMatD0=    1 NMtDS0=    0 NMtDT0=    0
 Petite list used in FoFCou.
 CIDS: In Core Option IDoMem=           1.
 Coupled Cluster theory with single and double substitutions
 ===========================================================
 Iterations= 200 Convergence= 0.100D-06
 Produce multiple copies of IABC intergrals
 Iteration Nr.   1
 **********************
 DD1Dir will call FoFMem   1 times, MxPair=         2
 NAB=     1 NAA=     0 NBB=     0.
 MP4(R+Q)=  0.12482750D-02
 Maximum subspace dimension=  5
 A-vector RMS=  3.1685321D-02 Max=  6.9842400D-02 conv= 1.00D-05.
 RLE energy=       -0.0538025658
 E3=       -0.14546706D-01        EUMP3=      -0.59960149126D+03
 E4(DQ)=   -0.63575329D-02        UMP4(DQ)=   -0.59960784879D+03
 E4(SDQ)=  -0.66685218D-02        UMP4(SDQ)=  -0.59960815978D+03
 VARIATIONAL ENERGIES WITH THE FIRST-ORDER WAVEFUNCTION:
 DE(Corr)= -0.43094611E-01 E(Corr)=     -599.60023900    
 NORM(A)=   0.10691578D+01
 Iteration Nr.   2
 **********************
 DD1Dir will call FoFMem   1 times, MxPair=         2
 NAB=     1 NAA=     0 NBB=     0.
 A-vector RMS=  1.5020232D-02 Max=  2.3721579D-02 conv= 1.00D-05.
 RLE energy=       -0.0532600241
 DE(Corr)= -0.53516112E-01 E(CORR)=     -599.61066050     Delta=-1.04D-02
 NORM(A)=   0.10711722D+01
 Iteration Nr.   3
 **********************
 DD1Dir will call FoFMem   1 times, MxPair=         2
 NAB=     1 NAA=     0 NBB=     0.
 A-vector RMS=  1.7980864D-02 Max=  2.1286819D-02 conv= 1.00D-05.
 RLE energy=       -0.0535284256
 DE(Corr)= -0.53391002E-01 E(CORR)=     -599.61053539     Delta= 1.25D-04
 NORM(A)=   0.10900730D+01
 Iteration Nr.   4
 **********************
 DD1Dir will call FoFMem   1 times, MxPair=         2
 NAB=     1 NAA=     0 NBB=     0.
 A-vector RMS=  6.7421400D-03 Max=  2.3699868D-02 conv= 1.00D-05.
 RLE energy=       -0.0565364604
 DE(Corr)= -0.54545017E-01 E(CORR)=     -599.61168941     Delta=-1.15D-03
 NORM(A)=   0.11264764D+01
 Iteration Nr.   5
 **********************
 DD1Dir will call FoFMem   1 times, MxPair=         2
 NAB=     1 NAA=     0 NBB=     0.
 A-vector RMS=  5.0210179D-03 Max=  7.7772122D-03 conv= 1.00D-05.
 RLE energy=       -0.0558164097
 DE(Corr)= -0.56388671E-01 E(CORR)=     -599.61353306     Delta=-1.84D-03
 NORM(A)=   0.11170765D+01
 Iteration Nr.   6
 **********************
 DD1Dir will call FoFMem   1 times, MxPair=         2
 NAB=     1 NAA=     0 NBB=     0.
 A-vector RMS=  2.1673187D-03 Max=  2.5718697D-03 conv= 1.00D-05.
 RLE energy=       -0.0559585921
 DE(Corr)= -0.55839946E-01 E(CORR)=     -599.61298434     Delta= 5.49D-04
 NORM(A)=   0.11194045D+01
 Iteration Nr.   7
 **********************
 DD1Dir will call FoFMem   1 times, MxPair=         2
 NAB=     1 NAA=     0 NBB=     0.
 A-vector RMS=  7.2944135D-04 Max=  6.1094950D-04 conv= 1.00D-05.
 RLE energy=       -0.0560411103
 DE(Corr)= -0.55962796E-01 E(CORR)=     -599.61310719     Delta=-1.23D-04
 NORM(A)=   0.11210658D+01
 Iteration Nr.   8
 **********************
 DD1Dir will call FoFMem   1 times, MxPair=         2
 NAB=     1 NAA=     0 NBB=     0.
 A-vector RMS=  5.6108692D-04 Max=  1.1701475D-03 conv= 1.00D-05.
 RLE energy=       -0.0559951509
 DE(Corr)= -0.56033013E-01 E(CORR)=     -599.61317740     Delta=-7.02D-05
 NORM(A)=   0.11204499D+01
 Iteration Nr.   9
 **********************
 DD1Dir will call FoFMem   1 times, MxPair=         2
 NAB=     1 NAA=     0 NBB=     0.
 A-vector RMS=  7.1508245D-05 Max=  1.0133969D-04 conv= 1.00D-05.
 RLE energy=       -0.0559897134
 DE(Corr)= -0.55994981E-01 E(CORR)=     -599.61313937     Delta= 3.80D-05
 NORM(A)=   0.11203443D+01
 Iteration Nr.  10
 **********************
 DD1Dir will call FoFMem   1 times, MxPair=         2
 NAB=     1 NAA=     0 NBB=     0.
 A-vector RMS=  3.5205644D-05 Max=  5.5936221D-05 conv= 1.00D-05.
 RLE energy=       -0.0559900244
 DE(Corr)= -0.55991150E-01 E(CORR)=     -599.61313554     Delta= 3.83D-06
 NORM(A)=   0.11203016D+01
 Iteration Nr.  11
 **********************
 DD1Dir will call FoFMem   1 times, MxPair=         2
 NAB=     1 NAA=     0 NBB=     0.
 A-vector RMS=  1.3212246D-05 Max=  9.9832916D-06 conv= 1.00D-05.
 RLE energy=       -0.0559887557
 DE(Corr)= -0.55989782E-01 E(CORR)=     -599.61313417     Delta= 1.37D-06
 NORM(A)=   0.11202770D+01
 Iteration Nr.  12
 **********************
 DD1Dir will call FoFMem   1 times, MxPair=         2
 NAB=     1 NAA=     0 NBB=     0.
 A-vector RMS=  6.4933123D-06 Max=  5.3517538D-06 conv= 1.00D-05.
 RLE energy=       -0.0559888684
 DE(Corr)= -0.55988688E-01 E(CORR)=     -599.61313308     Delta= 1.09D-06
 NORM(A)=   0.11202816D+01
 Iteration Nr.  13
 **********************
 DD1Dir will call FoFMem   1 times, MxPair=         2
 NAB=     1 NAA=     0 NBB=     0.
 A-vector RMS=  2.1974411D-06 Max=  2.1796760D-06 conv= 1.00D-05.
 RLE energy=       -0.0559890377
 DE(Corr)= -0.55988894E-01 E(CORR)=     -599.61313328     Delta=-2.06D-07
 NORM(A)=   0.11202849D+01
 Iteration Nr.  14
 **********************
 DD1Dir will call FoFMem   1 times, MxPair=         2
 NAB=     1 NAA=     0 NBB=     0.
 A-vector RMS=  1.3048260D-06 Max=  1.4383787D-06 conv= 1.00D-05.
 RLE energy=       -0.0559890611
 DE(Corr)= -0.55989012E-01 E(CORR)=     -599.61313340     Delta=-1.18D-07
 NORM(A)=   0.11202870D+01
 Iteration Nr.  15
 **********************
 DD1Dir will call FoFMem   1 times, MxPair=         2
 NAB=     1 NAA=     0 NBB=     0.
 A-vector RMS=  2.5692617D-07 Max=  3.8136251D-07 conv= 1.00D-05.
 RLE energy=       -0.0559890862
 DE(Corr)= -0.55989069E-01 E(CORR)=     -599.61313346     Delta=-5.74D-08
 NORM(A)=   0.11202875D+01
 CI/CC converged in   15 iterations to DelEn=-5.74D-08 Conv= 1.00D-07 ErrA1= 2.57D-07 Conv= 1.00D-05
 Wavefunction amplitudes converged. E(Corr)=     -599.61313346    
 Dominant configurations:
 ***********************
 Spin Case        I    J    A    B          Value
    AA           10        11            0.170851D+00
   ABAB          10   10   11   11      -0.117755D+00
   ABAB          10   10   11   18       0.170544D+00
   ABAB          10   10   14   18       0.112554D+00
   ABAB          10   10   18   11       0.170544D+00
   ABAB          10   10   18   14       0.112554D+00
   ABAB          10   10   18   18      -0.251821D+00
 Largest amplitude= 2.52D-01
 Discarding MO integrals.
 Leave Link  913 at Mon Mar 28 14:32:08 2022, MaxMem=  9663676416 cpu:               4.3 elap:               0.1
 (Enter /nopt/nrel/apps/gaussian/g16C_1/g16/l601.exe)
 Copying SCF densities to generalized density rwf, IOpCl= 0 IROHF=0.

 **********************************************************************

            Population analysis using the SCF Density.

 **********************************************************************

 Orbital symmetries:
       Occupied  (SG) (SG) (PI) (PI) (SG) (SG) (PI) (PI) (SG) (SG)
       Virtual   (SG) (PI) (PI) (SG) (SG) (PI) (PI) (SG)
 The electronic state is 1-SG.
 Alpha  occ. eigenvalues -- -133.54643 -14.51823 -11.54819 -11.54819 -11.54796
 Alpha  occ. eigenvalues --   -1.77620  -0.98275  -0.98275  -0.98017  -0.19733
 Alpha virt. eigenvalues --   -0.01499   0.02133   0.02133   0.06622   0.09877
 Alpha virt. eigenvalues --    0.10566   0.10566   0.19986
          Condensed to atoms (all electrons):
               1          2
     1  H    0.715664   0.230866
     2  K    0.230866  18.822604
 Mulliken charges:
               1
     1  H    0.053470
     2  K   -0.053470
 Sum of Mulliken charges =  -0.00000
 Mulliken charges with hydrogens summed into heavy atoms:
               1
     2  K   -0.000000
 N-N= 2.957166766906D+00 E-N=-1.429373314969D+03  KE= 5.996010771606D+02
 Symmetry A1   KE= 4.743578359497D+02
 Symmetry A2   KE= 0.000000000000D+00
 Symmetry B1   KE= 6.262162060545D+01
 Symmetry B2   KE= 6.262162060545D+01

 Atomic contributions to Alpha molecular orbitals:
 Alpha occ 1 OE=-133.546 is K2-s=1.0000
 Alpha occ 2 OE=-14.518 is K2-s=1.0000
 Alpha occ 3 OE=-11.548 is K2-p=1.0000
 Alpha occ 4 OE=-11.548 is K2-p=1.0000
 Alpha occ 5 OE=-11.548 is K2-p=1.0000
 Alpha occ 6 OE=-1.776 is K2-s=0.9995
 Alpha occ 7 OE=-0.983 is K2-p=1.0000
 Alpha occ 8 OE=-0.983 is K2-p=1.0000
 Alpha occ 9 OE=-0.980 is K2-p=0.9994
 Alpha occ 10 OE=-0.197 is H1-s=0.4732 K2-s=0.2754 K2-p=0.2514
 Alpha vir 11 OE=-0.015 is K2-s=0.5863 K2-p=0.3961
 Alpha vir 12 OE=0.021 is K2-p=1.0000
 Alpha vir 13 OE=0.021 is K2-p=1.0000
 Alpha vir 14 OE=0.066 is K2-s=0.5506 K2-p=0.4232
 Alpha vir 15 OE=0.099 is K2-s=0.4924 K2-p=0.4716
 Alpha vir 16 OE=0.106 is K2-p=1.0000
 Alpha vir 17 OE=0.106 is K2-p=1.0000
 Alpha vir 18 OE=0.200 is K2-p=0.4579 H1-s=0.4469
 
 Leave Link  601 at Mon Mar 28 14:32:09 2022, MaxMem=  9663676416 cpu:               2.1 elap:               0.1
 (Enter /nopt/nrel/apps/gaussian/g16C_1/g16/l9999.exe)

 Test job not archived.
 1\1\GINC-R102U34\SP\RCCSD-FC\Gen\H1K1\USER\28-Mar-2022\0\\#P CCSD(
 MaxCyc=200,SaveAmplitudes,ReadAmplitudes)/GEN sp pop=AllOrbitals iop(3
 /33=1,3/36=-1)\\test\\0,1\H,0,0.,0.,0.\K,0,0.,0.,3.4\\Version=ES64L-G1
 6RevC.01\State=1-SG\HF=-599.5571444\MP2=-599.5869446\MP3=-599.6014913\
 MP4D=-599.6090971\MP4DQ=-599.6078488\MP4SDQ=-599.6081598\CCSD=-599.613
 1335\RMSD=9.441e-09\PG=C*V [C*(H1K1)]\\@


 A SOLDIER'S LIFE IS A LIFE OF HONOR, BUT A DOG WOULD NOT LEAD IT.
 -- PRINCE RUPERT, FOUNDER OF THE HUDSON'S BAY COMPANY
 Job cpu time:       0 days  0 hours  0 minutes 34.5 seconds.
 Elapsed time:       0 days  0 hours  0 minutes  1.3 seconds.
 File lengths (MBytes):  RWF=     13 Int=      0 D2E=      0 Chk=      1 Scr=      1
 Normal termination of Gaussian 16 at Mon Mar 28 14:32:09 2022.
