 Entering Gaussian System, Link 0=g16
 Initial command:
 /nopt/nrel/apps/gaussian/g16C_1/g16/l1.exe "/lustre/eaglefs/scratch/user/qc/tih-dissc-sto3g/tih-6-ccsd-0.6-sto3g/Gau-240170.inp" -scrdir="/lustre/eaglefs/scratch/user/qc/tih-dissc-sto3g/tih-6-ccsd-0.6-sto3g/"
 Default is to use a total of  36 processors:
                               36 via shared-memory
                                1 via Linda
 Entering Link 1 = /nopt/nrel/apps/gaussian/g16C_1/g16/l1.exe PID=    240171.
  
 Copyright (c) 1988-2019, Gaussian, Inc.  All Rights Reserved.
  
 This is part of the Gaussian(R) 16 program.  It is based on
 the Gaussian(R) 09 system (copyright 2009, Gaussian, Inc.),
 the Gaussian(R) 03 system (copyright 2003, Gaussian, Inc.),
 the Gaussian(R) 98 system (copyright 1998, Gaussian, Inc.),
 the Gaussian(R) 94 system (copyright 1995, Gaussian, Inc.),
 the Gaussian 92(TM) system (copyright 1992, Gaussian, Inc.),
 the Gaussian 90(TM) system (copyright 1990, Gaussian, Inc.),
 the Gaussian 88(TM) system (copyright 1988, Gaussian, Inc.),
 the Gaussian 86(TM) system (copyright 1986, Carnegie Mellon
 University), and the Gaussian 82(TM) system (copyright 1983,
 Carnegie Mellon University). Gaussian is a federally registered
 trademark of Gaussian, Inc.
  
 This software contains proprietary and confidential information,
 including trade secrets, belonging to Gaussian, Inc.
  
 This software is provided under written license and may be
 used, copied, transmitted, or stored only in accord with that
 written license.
  
 The following legend is applicable only to US Government
 contracts under FAR:
  
                    RESTRICTED RIGHTS LEGEND
  
 Use, reproduction and disclosure by the US Government is
 subject to restrictions as set forth in subparagraphs (a)
 and (c) of the Commercial Computer Software - Restricted
 Rights clause in FAR 52.227-19.
  
 Gaussian, Inc.
 340 Quinnipiac St., Bldg. 40, Wallingford CT 06492
  
  
 ---------------------------------------------------------------
 Warning -- This program may not be used in any manner that
 competes with the business of Gaussian, Inc. or will provide
 assistance to any competitor of Gaussian, Inc.  The licensee
 of this program is prohibited from giving any competitor of
 Gaussian, Inc. access to this program.  By using this program,
 the user acknowledges that Gaussian, Inc. is engaged in the
 business of creating and licensing software in the field of
 computational chemistry and represents and warrants to the
 licensee that it is not a competitor of Gaussian, Inc. and that
 it will not use this program in any manner prohibited above.
 ---------------------------------------------------------------
  

 Cite this work as:
 Gaussian 16, Revision C.01,
 M. J. Frisch, G. W. Trucks, H. B. Schlegel, G. E. Scuseria, 
 M. A. Robb, J. R. Cheeseman, G. Scalmani, V. Barone, 
 G. A. Petersson, H. Nakatsuji, X. Li, M. Caricato, A. V. Marenich, 
 J. Bloino, B. G. Janesko, R. Gomperts, B. Mennucci, H. P. Hratchian, 
 J. V. Ortiz, A. F. Izmaylov, J. L. Sonnenberg, D. Williams-Young, 
 F. Ding, F. Lipparini, F. Egidi, J. Goings, B. Peng, A. Petrone, 
 T. Henderson, D. Ranasinghe, V. G. Zakrzewski, J. Gao, N. Rega, 
 G. Zheng, W. Liang, M. Hada, M. Ehara, K. Toyota, R. Fukuda, 
 J. Hasegawa, M. Ishida, T. Nakajima, Y. Honda, O. Kitao, H. Nakai, 
 T. Vreven, K. Throssell, J. A. Montgomery, Jr., J. E. Peralta, 
 F. Ogliaro, M. J. Bearpark, J. J. Heyd, E. N. Brothers, K. N. Kudin, 
 V. N. Staroverov, T. A. Keith, R. Kobayashi, J. Normand, 
 K. Raghavachari, A. P. Rendell, J. C. Burant, S. S. Iyengar, 
 J. Tomasi, M. Cossi, J. M. Millam, M. Klene, C. Adamo, R. Cammi, 
 J. W. Ochterski, R. L. Martin, K. Morokuma, O. Farkas, 
 J. B. Foresman, and D. J. Fox, Gaussian, Inc., Wallingford CT, 2019.
 
 ******************************************
 Gaussian 16:  ES64L-G16RevC.01  3-Jul-2019
                28-Mar-2022 
 ******************************************
 %chk=molecule
 Default route: CacheSize=180224 MaxDisk=256GB
 ----------------------------------------------------------------------
 #P CCSD(MaxCyc=300,SaveAmplitudes,ReadAmplitudes)/GEN sp pop=AllOrbita
 ls iop(3/33=1,3/36=-1)
 ----------------------------------------------------------------------
 1/4=180224,38=1,172=1/1;
 2/4=180224,12=2,17=6,18=5,40=1/2;
 3/4=180224,5=7,11=9,25=1,30=1,33=1,36=-1/1,2,3;
 4/4=180224/1;
 5/4=180224,5=2,38=5/2;
 8/4=180224,6=4,9=120000,10=1,24=1/1,4;
 9/4=180224,5=7,6=300,77=1/13;
 6/4=180224,7=2,8=2,9=2,10=2,96=-1/1;
 99/4=180224,5=1,9=1/99;
 Leave Link    1 at Mon Mar 28 12:45:26 2022, MaxMem=           0 cpu:               2.1 elap:               0.1
 (Enter /nopt/nrel/apps/gaussian/g16C_1/g16/l101.exe)
 ----
 test
 ----
 Symbolic Z-matrix:
 Charge =  0 Multiplicity = 6
 H                     0.        0.        0. 
 Ti                    0.        0.        0.6 
 
 ITRead=  0  0
 MicOpt= -1 -1
 NAtoms=      2 NQM=        2 NQMF=       0 NMMI=      0 NMMIF=      0
                NMic=       0 NMicF=      0.
                    Isotopes and Nuclear Properties:
 (Nuclear quadrupole moments (NQMom) in fm**2, nuclear magnetic moments (NMagM)
  in nuclear magnetons)

  Atom         1           2
 IAtWgt=           1          48
 AtmWgt=   1.0078250  47.9479467
 NucSpn=           1           0
 AtZEff=  -0.0000000  -0.0000000
 NQMom=    0.0000000   0.0000000
 NMagM=    2.7928460   0.0000000
 AtZNuc=   1.0000000  22.0000000
 Leave Link  101 at Mon Mar 28 12:45:27 2022, MaxMem=  9663676416 cpu:               2.8 elap:               0.1
 (Enter /nopt/nrel/apps/gaussian/g16C_1/g16/l202.exe)
                          Input orientation:                          
 ---------------------------------------------------------------------
 Center     Atomic      Atomic             Coordinates (Angstroms)
 Number     Number       Type             X           Y           Z
 ---------------------------------------------------------------------
      1          1           0        0.000000    0.000000    0.000000
      2         22           0        0.000000    0.000000    0.600000
 ---------------------------------------------------------------------
 Stoichiometry    HTi(6)
 Framework group  C*V[C*(HTi)]
 Deg. of freedom     1
 Full point group                 C*V     NOp   4
 Largest Abelian subgroup         C2V     NOp   4
 Largest concise Abelian subgroup C1      NOp   1
                         Standard orientation:                         
 ---------------------------------------------------------------------
 Center     Atomic      Atomic             Coordinates (Angstroms)
 Number     Number       Type             X           Y           Z
 ---------------------------------------------------------------------
      1          1           0        0.000000    0.000000   -0.573913
      2         22           0        0.000000    0.000000    0.026087
 ---------------------------------------------------------------------
 Rotational constants (GHZ):           0.0000000        1422.2090668        1422.2090668
 Leave Link  202 at Mon Mar 28 12:45:27 2022, MaxMem=  9663676416 cpu:               0.9 elap:               0.1
 (Enter /nopt/nrel/apps/gaussian/g16C_1/g16/l301.exe)
 General basis read from cards:  (5D, 7F)
                         Coordinates in L301:                         
 ---------------------------------------------------------------------
 Center     Atomic      Atomic             Coordinates (Angstroms)
 Number     Number       Type             X           Y           Z
 ---------------------------------------------------------------------
      1          1           0        0.000000    0.000000   -0.573913
      2         22           0        0.000000    0.000000    0.026087
 ---------------------------------------------------------------------
 Centers:       1
 STO-3G
 ****
 Centers:       2
 STO-3G
 ****
 FixB: optimizing general contractions.
 Ernie: Thresh=  0.10000D-02 Tol=  0.10000D-05 Strict=F.
 IA=     1 ShT= 0 ShC= 0 NL=   1 NS=   0.
 IA=     1 L=0 SC=0 ISt=    0 NBk=    0 NP=    0 IndPr=    0.
 IA=     2 ShT= 0 ShC= 0 NL=   1 NS=   0.
 IA=     2 L=0 SC=0 ISt=    0 NBk=    0 NP=    0 IndPr=    0.
 IA=     2 ShT= 1 ShC= 0 NL=   3 NS=   0.
 IA=     2 L=1 SC=0 ISt=    1 NBk=    3 NP=    9 IndPr=    0.
 DoElim1:  L=1 select primitive    1 from    2 using    1 C=-1.00D-01
 DoElim1:  L=1 select primitive    1 from    3 using    1 C=-1.00D-01
 DoElim1:  L=1 select primitive    4 from    3 using    2 C=-2.28D-01
 DoElim2:  L=1 select primitive    9 from    2 using    3 C= 1.13D+00
 DoElim2:  L=1 select primitive    9 from    1 using    3 C= 1.13D+00
 DoElim2:  L=1 select primitive    7 from    1 using    2 C= 9.17D-01
 DoElim1:  L=1 select primitive    1 from    2 using    1 C= 1.56D-01
 DoElim1:  L=1 select primitive    1 from    3 using    1 C= 1.56D-01
 DoElim1:  L=1 select primitive    4 from    3 using    2 C= 4.95D-03
 DoElim2:  L=1 select primitive    8 from    2 using    3 C= 5.72D-01
 DoElim2:  L=1 select primitive    8 from    1 using    3 C= 5.72D-01
 DoElim2:  L=1 select primitive    5 from    1 using    2 C= 5.78D-01
 Delete L=1 primitive    7 from    3 C=  0.00D+00.
 Delete L=1 primitive    5 from    3 C=  0.00D+00.
 Delete L=1 primitive    4 from    3 C=  0.00D+00.
 Delete L=1 primitive    3 from    3 C=  0.00D+00.
 Delete L=1 primitive    2 from    3 C=  0.00D+00.
 Delete L=1 primitive    1 from    3 C=  0.00D+00.
 Delete L=1 primitive    9 from    2 C=  0.00D+00.
 Delete L=1 primitive    8 from    2 C=  0.00D+00.
 Delete L=1 primitive    6 from    2 C=  0.00D+00.
 Delete L=1 primitive    3 from    2 C=  0.00D+00.
 Delete L=1 primitive    2 from    2 C=  0.00D+00.
 Delete L=1 primitive    1 from    2 C=  0.00D+00.
 Delete L=1 primitive    9 from    1 C=  0.00D+00.
 Delete L=1 primitive    8 from    1 C=  0.00D+00.
 Delete L=1 primitive    7 from    1 C=  0.00D+00.
 Delete L=1 primitive    6 from    1 C=  0.00D+00.
 Delete L=1 primitive    5 from    1 C=  0.00D+00.
 Delete L=1 primitive    4 from    1 C=  0.00D+00.
 IA=     2 L=1 SC=0 ISt=    0 NBk=    0 NP=    0 IndPr=    9.
 IA=     2 ShT= 2 ShC= 2 NL=   1 NS=   0.
 IA=     2 L=2 SC=2 ISt=    0 NBk=    0 NP=    0 IndPr=    0.
 LdAtmC:  AtmChg=     1.000000    22.000000
 AtZEff=     -1.0000000    -23.9800000
 NEqShl: 
              1            2            3            4
     1            1            1            1            1
     2            2            2            2            2
     3            3            3            3            3
     4            4            4            4            4
     5            5            5            5            5
     6            6            6            6            6
 NEqBas: 
              1            2            3            4
     1            1            1            1            1
     2            2            2            2            2
     3            3            3            3            3
     4            4           -4           -4            4
     5            5           -5            5           -5
     6            6            6            6            6
     7            7            7            7            7
     8            8           -8           -8            8
     9            9           -9            9           -9
    10           10           10           10           10
    11           11           11           11           11
    12           12          -12          -12           12
    13           13          -13           13          -13
    14           14           14           14           14
    15           15           15           15           15
    16           16           16           16           16
    17           17           17           17           17
    18           18           18          -18          -18
    19           19          -19          -19           19
    20           20          -20           20          -20
 There are    11 symmetry adapted cartesian basis functions of A1  symmetry.
   1         1   1   1   1
   2         2   2   2   2
   3         3   3   3   3
   4         6   6   6   6
   5         7   7   7   7
   6        10  10  10  10
   7        11  11  11  11
   8        14  14  14  14
   9        15  15  15  15
  10        16  16  16  16
  11        17  17  17  17
 There are     1 symmetry adapted cartesian basis functions of A2  symmetry.
  12        18  18  18  18
 There are     4 symmetry adapted cartesian basis functions of B1  symmetry.
  13         4   4   4   4
  14         8   8   8   8
  15        12  12  12  12
  16        19  19  19  19
 There are     4 symmetry adapted cartesian basis functions of B2  symmetry.
  17         5   5   5   5
  18         9   9   9   9
  19        13  13  13  13
  20        20  20  20  20
 Order= 1 2 4 3
 Reordered character table:
              1            2            3            4            5
     1            1            1            1            1            1
     2            2            1            1           -1           -1
     3            4            1           -1           -1            1
     4            3            1           -1            1           -1
 NEqShl: 
              1            2            3            4
     1            1            1            1            1
     2            2            2            2            2
     3            3            3            3            3
     4            4            4            4            4
     5            5            5            5            5
     6            6            6            6            6
 NEqBas: 
              1            2            3            4
     1            1            1            1            1
     2            2            2            2            2
     3            3            3            3            3
     4            4           -4           -4            4
     5            5           -5            5           -5
     6            6            6            6            6
     7            7            7            7            7
     8            8           -8           -8            8
     9            9           -9            9           -9
    10           10           10           10           10
    11           11           11           11           11
    12           12          -12          -12           12
    13           13          -13           13          -13
    14           14           14           14           14
    15           15           15           15           15
    16           16          -16          -16           16
    17           17          -17           17          -17
    18           18           18           18           18
    19           19           19          -19          -19
 There are    10 symmetry adapted basis functions of A1  symmetry.
   1         1   1   1   1
   2         2   2   2   2
   3         3   3   3   3
   4         6   6   6   6
   5         7   7   7   7
   6        10  10  10  10
   7        11  11  11  11
   8        14  14  14  14
   9        15  15  15  15
  10        18  18  18  18
 There are     1 symmetry adapted basis functions of A2  symmetry.
  11        19  19  19  19
 There are     4 symmetry adapted basis functions of B1  symmetry.
  12         4   4   4   4
  13         8   8   8   8
  14        12  12  12  12
  15        16  16  16  16
 There are     4 symmetry adapted basis functions of B2  symmetry.
  16         5   5   5   5
  17         9   9   9   9
  18        13  13  13  13
  19        17  17  17  17
 Order= 1 2 4 3
 Reordered character table:
              1            2            3            4            5
     1            1            1            1            1            1
     2            2            1            1           -1           -1
     3            4            1           -1           -1            1
     4            3            1           -1            1           -1
    19 basis functions,    60 primitive gaussians,    20 cartesian basis functions
    14 alpha electrons        9 beta electrons
       nuclear repulsion energy        19.4031644004 Hartrees.
 IS=     1 IAt=     1 ISR=     1 T=0 IP=      1 IndIP=      1 IndIPD=      0 C=  2.769344D-01  0.000000D+00                             NZ=T
 IS=     1 IAt=     1 ISR=     1 T=0 IP=      2 IndIP=      2 IndIPD=      1 C=  2.678389D-01  0.000000D+00                             NZ=T
 IS=     1 IAt=     1 ISR=     1 T=0 IP=      3 IndIP=      3 IndIPD=      2 C=  8.347367D-02  0.000000D+00                             NZ=T
 IS=     2 IAt=     2 ISR=     1 T=0 IP=      1 IndIP=      4 IndIPD=      0 C=  2.004993D+01  0.000000D+00                             NZ=T
 IS=     2 IAt=     2 ISR=     1 T=0 IP=      2 IndIP=      5 IndIPD=      1 C=  1.939142D+01  0.000000D+00                             NZ=T
 IS=     2 IAt=     2 ISR=     1 T=0 IP=      3 IndIP=      6 IndIPD=      2 C=  6.043458D+00  0.000000D+00                             NZ=T
 IS=     3 IAt=     2 ISR=     2 T=1 IP=      1 IndIP=      7 IndIPD=      0 C= -1.820341D+00  4.925761D+01                             NZ=T
 IS=     3 IAt=     2 ISR=     2 T=1 IP=      2 IndIP=      8 IndIPD=      1 C=  2.434854D+00  3.097451D+01                             NZ=T
 IS=     3 IAt=     2 ISR=     2 T=1 IP=      3 IndIP=      9 IndIPD=      2 C=  1.837620D+00  4.906883D+00                             NZ=T
 IS=     4 IAt=     2 ISR=     3 T=1 IP=      1 IndIP=     10 IndIPD=      0 C= -5.746721D-01  5.803915D-02                             NZ=T
 IS=     4 IAt=     2 ISR=     3 T=1 IP=      2 IndIP=     11 IndIPD=      1 C=  2.252897D-01  1.535208D+00                             NZ=T
 IS=     4 IAt=     2 ISR=     3 T=1 IP=      3 IndIP=     12 IndIPD=      2 C=  4.647390D-01  3.915940D-01                             NZ=T
 IS=     5 IAt=     2 ISR=     4 T=1 IP=      1 IndIP=     13 IndIPD=      0 C= -1.706594D-01 -1.133666D-01                             NZ=T
 IS=     5 IAt=     2 ISR=     4 T=1 IP=      2 IndIP=     14 IndIPD=      1 C=  5.129963D-03  1.533382D-01                             NZ=T
 IS=     5 IAt=     2 ISR=     4 T=1 IP=      3 IndIP=     15 IndIPD=      2 C=  1.603140D-01  5.311239D-02                             NZ=T
 IS=     6 IAt=     2 ISR=     5 T=2 IP=      1 IndIP=     16 IndIPD=      1 C=  0.000000D+00  0.000000D+00  8.652016D-01  0.000000D+00 NZ=T
 IS=     6 IAt=     2 ISR=     5 T=2 IP=      2 IndIP=     17 IndIPD=      2 C=  0.000000D+00  0.000000D+00  3.231180D-01  0.000000D+00 NZ=T
 IS=     6 IAt=     2 ISR=     5 T=2 IP=      3 IndIP=     18 IndIPD=      3 C=  0.000000D+00  0.000000D+00  2.668013D-02  0.000000D+00 NZ=T
 IExCor=    0 DFT=F Ex=HF Corr=None ExCW=0 ScaHFX=  1.000000
 ScaDFX=  1.000000  1.000000  1.000000  1.000000 ScalE2=  1.000000  1.000000
 IRadAn=      5 IRanWt=     -1 IRanGd=            0 ICorTp=0 IEmpDi=  4
 NAtoms=    2 NActive=    2 NUniq=    2 SFac= 1.00D+00 NAtFMM=   60 NAOKFM=F Big=F
 Integral buffers will be    131072 words long.
 Raffenetti 2 integral format.
 Two-electron integral symmetry is turned on.
 Leave Link  301 at Mon Mar 28 12:45:27 2022, MaxMem=  9663676416 cpu:               2.1 elap:               0.1
 (Enter /nopt/nrel/apps/gaussian/g16C_1/g16/l302.exe)
 NPDir=0 NMtPBC=     1 NCelOv=     1 NCel=       1 NClECP=     1 NCelD=      1
         NCelK=      1 NCelE2=     1 NClLst=     1 CellRange=     0.0.
 One-electron integrals computed using PRISM.
 One-electron integral symmetry used in STVInt
 Entering OneElI...
 Calculate overlap and kinetic energy integrals
    NBasis =  19  MinDer = 0  MaxDer = 0
 Requested accuracy = 0.1000D-12
 Symmetry will be used
 PrmmSu-InSpLW:  IPartL=    0 NPrtUS=   36 NPrtUL=    1 DoSpLW=F IThBeg=    0 IThEnd=   35 NThAct=   36.
 PrSmSu:  IncTry=   512 NBBP=             21 NTPThr=   100 NPartT=   36 Incr=           1 LDynOK=F GPUOK=F.
 PrsmSu:  NPrtUS=  36 ThrOK=T IAlg=1 LenDen=           0 ISkipM=0 DoSpLW=F IThBeg=    0 IThEnd=   35.
 Prism:   IPart=     0 DynPar=F LinDyn=F Incr=           1.
 PRISM was handed   268432635 working-precision words and    21 shell-pairs
 PRISM was handed   268432635 working-precision words and    21 shell-pairs
 PRISM was handed   268432635 working-precision words and    21 shell-pairs
 PRISM was handed   268432635 working-precision words and    21 shell-pairs
 PRISM was handed   268432635 working-precision words and    21 shell-pairs
 PRISM was handed   268432635 working-precision words and    21 shell-pairs
 PRISM was handed   268432635 working-precision words and    21 shell-pairs
 PRISM was handed   268432635 working-precision words and    21 shell-pairs
 PRISM was handed   268432635 working-precision words and    21 shell-pairs
 PRISM was handed   268432635 working-precision words and    21 shell-pairs
 PRISM was handed   268432635 working-precision words and    21 shell-pairs
 IPart=  9 NShTot=           0 NBatch=           0 AvBLen=         0.0
 IPart=  6 NShTot=           0 NBatch=           0 AvBLen=         0.0
 IPart= 13 NShTot=           0 NBatch=           0 AvBLen=         0.0
 IPart= 16 NShTot=           0 NBatch=           0 AvBLen=         0.0
 IPart=  8 NShTot=           0 NBatch=           0 AvBLen=         0.0
 IPart= 23 NShTot=           0 NBatch=           0 AvBLen=         0.0
 IPart= 33 NShTot=           0 NBatch=           0 AvBLen=         0.0
 PRISM was handed   268432635 working-precision words and    21 shell-pairs
 PRISM was handed   268432635 working-precision words and    21 shell-pairs
 PRISM was handed   268432635 working-precision words and    21 shell-pairs
 IPart= 18 NShTot=           0 NBatch=           0 AvBLen=         0.0
 IPart= 15 NShTot=           0 NBatch=           0 AvBLen=         0.0
 PRISM was handed   268432635 working-precision words and    21 shell-pairs
 PRISM was handed   268432635 working-precision words and    21 shell-pairs
 PRISM was handed   268432635 working-precision words and    21 shell-pairs
 PRISM was handed   268432635 working-precision words and    21 shell-pairs
 IPart=  5 NShTot=           2 NBatch=           2 AvBLen=         1.0
 IPart=  4 NShTot=           2 NBatch=           2 AvBLen=         1.0
 IPart= 20 NShTot=           0 NBatch=           0 AvBLen=         0.0
 IPart= 22 NShTot=           0 NBatch=           0 AvBLen=         0.0
 PRISM was handed   268432635 working-precision words and    21 shell-pairs
 IPart= 30 NShTot=           0 NBatch=           0 AvBLen=         0.0
 IPart= 14 NShTot=           0 NBatch=           0 AvBLen=         0.0
 IPart=  7 NShTot=           0 NBatch=           0 AvBLen=         0.0
 PRISM was handed   268432635 working-precision words and    21 shell-pairs
 PRISM was handed   268432635 working-precision words and    21 shell-pairs
 PRISM was handed   268432635 working-precision words and    21 shell-pairs
 PRISM was handed   268432635 working-precision words and    21 shell-pairs
 IPart= 35 NShTot=           0 NBatch=           0 AvBLen=         0.0
 IPart=  1 NShTot=           5 NBatch=           5 AvBLen=         1.0
 PRISM was handed   268432635 working-precision words and    21 shell-pairs
 PRISM was handed   268432635 working-precision words and    21 shell-pairs
 PRISM was handed   268432635 working-precision words and    21 shell-pairs
 IPart= 26 NShTot=           0 NBatch=           0 AvBLen=         0.0
 IPart= 21 NShTot=           0 NBatch=           0 AvBLen=         0.0
 IPart=  2 NShTot=           4 NBatch=           4 AvBLen=         1.0
 PRISM was handed   268432635 working-precision words and    21 shell-pairs
 PRISM was handed   268432635 working-precision words and    21 shell-pairs
 PRISM was handed   268432635 working-precision words and    21 shell-pairs
 PRISM was handed   268432635 working-precision words and    21 shell-pairs
 PRISM was handed   268432635 working-precision words and    21 shell-pairs
 PRISM was handed   268432635 working-precision words and    21 shell-pairs
 PRISM was handed   268432635 working-precision words and    21 shell-pairs
 PRISM was handed   268432635 working-precision words and    21 shell-pairs
 PRISM was handed   268432635 working-precision words and    21 shell-pairs
 PRISM was handed   268432635 working-precision words and    21 shell-pairs
 IPart=  0 NShTot=           6 NBatch=           6 AvBLen=         1.0
 IPart= 12 NShTot=           0 NBatch=           0 AvBLen=         0.0
 IPart= 32 NShTot=           0 NBatch=           0 AvBLen=         0.0
 IPart= 10 NShTot=           0 NBatch=           0 AvBLen=         0.0
 IPart= 24 NShTot=           0 NBatch=           0 AvBLen=         0.0
 IPart= 19 NShTot=           0 NBatch=           0 AvBLen=         0.0
 IPart= 25 NShTot=           0 NBatch=           0 AvBLen=         0.0
 IPart= 17 NShTot=           0 NBatch=           0 AvBLen=         0.0
 IPart=  3 NShTot=           2 NBatch=           2 AvBLen=         1.0
 IPart= 11 NShTot=           0 NBatch=           0 AvBLen=         0.0
 IPart= 27 NShTot=           0 NBatch=           0 AvBLen=         0.0
 IPart= 29 NShTot=           0 NBatch=           0 AvBLen=         0.0
 IPart= 34 NShTot=           0 NBatch=           0 AvBLen=         0.0
 IPart= 31 NShTot=           0 NBatch=           0 AvBLen=         0.0
 IPart= 28 NShTot=           0 NBatch=           0 AvBLen=         0.0
 PrSmSu:  NxtVal=             37.
 *** Overlap *** 
                1             2             3             4             5 
      1  0.100000D+01
      2  0.261859D-01  0.100000D+01
      3  0.171374D+00  0.371775D+00  0.100000D+01
      4  0.000000D+00  0.000000D+00  0.000000D+00  0.100000D+01
      5  0.000000D+00  0.000000D+00  0.000000D+00  0.000000D+00  0.100000D+01
      6 -0.523249D-01  0.000000D+00  0.000000D+00  0.000000D+00  0.000000D+00
      7  0.674244D+00  0.223608D-01  0.300384D+00  0.000000D+00  0.000000D+00
      8  0.000000D+00  0.000000D+00  0.000000D+00  0.313309D+00  0.000000D+00
      9  0.000000D+00  0.000000D+00  0.000000D+00  0.000000D+00  0.313309D+00
     10 -0.421630D+00  0.000000D+00  0.000000D+00  0.000000D+00  0.000000D+00
     11  0.624559D+00 -0.412730D-03  0.136941D-01  0.000000D+00  0.000000D+00
     12  0.000000D+00  0.000000D+00  0.000000D+00  0.250808D-01  0.000000D+00
     13  0.000000D+00  0.000000D+00  0.000000D+00  0.000000D+00  0.250808D-01
     14 -0.453384D+00  0.000000D+00  0.000000D+00  0.000000D+00  0.000000D+00
     15  0.257157D+00  0.000000D+00  0.000000D+00  0.000000D+00  0.000000D+00
     16  0.000000D+00  0.000000D+00  0.000000D+00  0.000000D+00  0.000000D+00
     17  0.000000D+00  0.000000D+00  0.000000D+00  0.000000D+00  0.000000D+00
     18  0.000000D+00  0.000000D+00  0.000000D+00  0.000000D+00  0.000000D+00
     19  0.000000D+00  0.000000D+00  0.000000D+00  0.000000D+00  0.000000D+00
                6             7             8             9            10 
      6  0.100000D+01
      7  0.000000D+00  0.100000D+01
      8  0.000000D+00  0.000000D+00  0.100000D+01
      9  0.000000D+00  0.000000D+00  0.000000D+00  0.100000D+01
     10  0.313309D+00  0.000000D+00  0.000000D+00  0.000000D+00  0.100000D+01
     11  0.000000D+00  0.395149D+00  0.000000D+00  0.000000D+00  0.000000D+00
     12  0.000000D+00  0.000000D+00  0.407435D+00  0.000000D+00  0.000000D+00
     13  0.000000D+00  0.000000D+00  0.000000D+00  0.407435D+00  0.000000D+00
     14  0.250808D-01  0.000000D+00  0.000000D+00  0.000000D+00  0.407435D+00
     15  0.000000D+00  0.000000D+00  0.000000D+00  0.000000D+00  0.000000D+00
     16  0.000000D+00  0.000000D+00  0.000000D+00  0.000000D+00  0.000000D+00
     17  0.000000D+00  0.000000D+00  0.000000D+00  0.000000D+00  0.000000D+00
     18  0.000000D+00  0.000000D+00  0.000000D+00  0.000000D+00  0.000000D+00
     19  0.000000D+00  0.000000D+00  0.000000D+00  0.000000D+00  0.000000D+00
               11            12            13            14            15 
     11  0.100000D+01
     12  0.000000D+00  0.100000D+01
     13  0.000000D+00  0.000000D+00  0.100000D+01
     14  0.000000D+00  0.000000D+00  0.000000D+00  0.100000D+01
     15  0.000000D+00  0.000000D+00  0.000000D+00  0.000000D+00  0.100000D+01
     16  0.000000D+00  0.000000D+00  0.000000D+00  0.000000D+00  0.000000D+00
     17  0.000000D+00  0.000000D+00  0.000000D+00  0.000000D+00  0.000000D+00
     18  0.000000D+00  0.000000D+00  0.000000D+00  0.000000D+00  0.000000D+00
     19  0.000000D+00  0.000000D+00  0.000000D+00  0.000000D+00  0.000000D+00
               16            17            18            19 
     16  0.100000D+01
     17  0.000000D+00  0.100000D+01
     18  0.000000D+00  0.000000D+00  0.100000D+01
     19  0.000000D+00  0.000000D+00  0.000000D+00  0.100000D+01
 *** Kinetic Energy *** 
                1             2             3             4             5 
      1  0.760032D+00
      2  0.892548D-02  0.229340D+03
      3  0.696733D-01  0.137973D+01  0.120824D+02
      4  0.000000D+00  0.000000D+00  0.000000D+00  0.378073D+02
      5  0.000000D+00  0.000000D+00  0.000000D+00  0.000000D+00  0.378073D+02
      6 -0.534891D-01  0.000000D+00  0.000000D+00  0.000000D+00  0.000000D+00
      7  0.394083D+00 -0.798994D+00 -0.840664D+00  0.000000D+00  0.000000D+00
      8  0.000000D+00  0.000000D+00  0.000000D+00  0.187471D+01  0.000000D+00
      9  0.000000D+00  0.000000D+00  0.000000D+00  0.000000D+00  0.187471D+01
     10 -0.616254D+00  0.000000D+00  0.000000D+00  0.000000D+00  0.000000D+00
     11  0.732970D-01 -0.407071D-01 -0.207745D+00  0.000000D+00  0.000000D+00
     12  0.000000D+00  0.000000D+00  0.000000D+00 -0.209473D-01  0.000000D+00
     13  0.000000D+00  0.000000D+00  0.000000D+00  0.000000D+00 -0.209473D-01
     14 -0.228877D+00  0.000000D+00  0.000000D+00  0.000000D+00  0.000000D+00
     15  0.481212D+00  0.000000D+00  0.000000D+00  0.000000D+00  0.000000D+00
     16  0.000000D+00  0.000000D+00  0.000000D+00  0.000000D+00  0.000000D+00
     17  0.000000D+00  0.000000D+00  0.000000D+00  0.000000D+00  0.000000D+00
     18  0.000000D+00  0.000000D+00  0.000000D+00  0.000000D+00  0.000000D+00
     19  0.000000D+00  0.000000D+00  0.000000D+00  0.000000D+00  0.000000D+00
                6             7             8             9            10 
      6  0.378073D+02
      7  0.000000D+00  0.116813D+01
      8  0.000000D+00  0.000000D+00  0.275070D+01
      9  0.000000D+00  0.000000D+00  0.000000D+00  0.275070D+01
     10  0.187471D+01  0.000000D+00  0.000000D+00  0.000000D+00  0.275070D+01
     11  0.000000D+00 -0.927537D-01  0.000000D+00  0.000000D+00  0.000000D+00
     12  0.000000D+00  0.000000D+00  0.199329D+00  0.000000D+00  0.000000D+00
     13  0.000000D+00  0.000000D+00  0.000000D+00  0.199329D+00  0.000000D+00
     14 -0.209473D-01  0.000000D+00  0.000000D+00  0.000000D+00  0.199329D+00
     15  0.000000D+00  0.000000D+00  0.000000D+00  0.000000D+00  0.000000D+00
     16  0.000000D+00  0.000000D+00  0.000000D+00  0.000000D+00  0.000000D+00
     17  0.000000D+00  0.000000D+00  0.000000D+00  0.000000D+00  0.000000D+00
     18  0.000000D+00  0.000000D+00  0.000000D+00  0.000000D+00  0.000000D+00
     19  0.000000D+00  0.000000D+00  0.000000D+00  0.000000D+00  0.000000D+00
               11            12            13            14            15 
     11  0.207443D+00
     12  0.000000D+00  0.409500D+00
     13  0.000000D+00  0.000000D+00  0.409500D+00
     14  0.000000D+00  0.000000D+00  0.000000D+00  0.409500D+00
     15  0.000000D+00  0.000000D+00  0.000000D+00  0.000000D+00  0.180044D+01
     16  0.000000D+00  0.000000D+00  0.000000D+00  0.000000D+00  0.000000D+00
     17  0.000000D+00  0.000000D+00  0.000000D+00  0.000000D+00  0.000000D+00
     18  0.000000D+00  0.000000D+00  0.000000D+00  0.000000D+00  0.000000D+00
     19  0.000000D+00  0.000000D+00  0.000000D+00  0.000000D+00  0.000000D+00
               16            17            18            19 
     16  0.180044D+01
     17  0.000000D+00  0.180044D+01
     18  0.000000D+00  0.000000D+00  0.180044D+01
     19  0.000000D+00  0.000000D+00  0.000000D+00  0.180044D+01
 Entering OneElI...
 Calculate potential energy integrals
    NBasis =  19  MinDer = 0  MaxDer = 0
 Requested accuracy = 0.1000D-12
 Symmetry will be used
 PrmmSu-InSpLW:  IPartL=    0 NPrtUS=   36 NPrtUL=    1 DoSpLW=F IThBeg=    0 IThEnd=   35 NThAct=   36.
 PrSmSu:  IncTry=   512 NBBP=             42 NTPThr=   100 NPartT=   36 Incr=           1 LDynOK=F GPUOK=F.
 PrsmSu:  NPrtUS=  36 ThrOK=T IAlg=1 LenDen=           0 ISkipM=0 DoSpLW=F IThBeg=    0 IThEnd=   35.
 Prism:   IPart=     0 DynPar=F LinDyn=F Incr=           1.
 PRISM was handed   268432827 working-precision words and    21 shell-pairs
 PRISM was handed   268432827 working-precision words and    21 shell-pairs
 PRISM was handed   268432827 working-precision words and    21 shell-pairs
 PRISM was handed   268432827 working-precision words and    21 shell-pairs
 PRISM was handed   268432827 working-precision words and    21 shell-pairs
 PRISM was handed   268432827 working-precision words and    21 shell-pairs
 PRISM was handed   268432827 working-precision words and    21 shell-pairs
 PRISM was handed   268432827 working-precision words and    21 shell-pairs
 PRISM was handed   268432827 working-precision words and    21 shell-pairs
 PRISM was handed   268432827 working-precision words and    21 shell-pairs
 PRISM was handed   268432827 working-precision words and    21 shell-pairs
 PRISM was handed   268432827 working-precision words and    21 shell-pairs
 PRISM was handed   268432827 working-precision words and    21 shell-pairs
 PRISM was handed   268432827 working-precision words and    21 shell-pairs
 PRISM was handed   268432827 working-precision words and    21 shell-pairs
 PRISM was handed   268432827 working-precision words and    21 shell-pairs
 PRISM was handed   268432827 working-precision words and    21 shell-pairs
 PRISM was handed   268432827 working-precision words and    21 shell-pairs
 PRISM was handed   268432827 working-precision words and    21 shell-pairs
 PRISM was handed   268432827 working-precision words and    21 shell-pairs
 PRISM was handed   268432827 working-precision words and    21 shell-pairs
 PRISM was handed   268432827 working-precision words and    21 shell-pairs
 PRISM was handed   268432827 working-precision words and    21 shell-pairs
 PRISM was handed   268432827 working-precision words and    21 shell-pairs
 PRISM was handed   268432827 working-precision words and    21 shell-pairs
 PRISM was handed   268432827 working-precision words and    21 shell-pairs
 PRISM was handed   268432827 working-precision words and    21 shell-pairs
 PRISM was handed   268432827 working-precision words and    21 shell-pairs
 PRISM was handed   268432827 working-precision words and    21 shell-pairs
 PRISM was handed   268432827 working-precision words and    21 shell-pairs
 PRISM was handed   268432827 working-precision words and    21 shell-pairs
 PRISM was handed   268432827 working-precision words and    21 shell-pairs
 PRISM was handed   268432827 working-precision words and    21 shell-pairs
 PRISM was handed   268432827 working-precision words and    21 shell-pairs
 PRISM was handed   268432827 working-precision words and    21 shell-pairs
 PRISM was handed   268432827 working-precision words and    21 shell-pairs
 IPart= 11 NShTot=           0 NBatch=           0 AvBLen=         0.0
 IPart= 17 NShTot=           0 NBatch=           0 AvBLen=         0.0
 IPart= 23 NShTot=           0 NBatch=           0 AvBLen=         0.0
 IPart= 14 NShTot=           0 NBatch=           0 AvBLen=         0.0
 IPart= 30 NShTot=           0 NBatch=           0 AvBLen=         0.0
 IPart= 34 NShTot=           0 NBatch=           0 AvBLen=         0.0
 IPart= 33 NShTot=           0 NBatch=           0 AvBLen=         0.0
 IPart= 21 NShTot=           0 NBatch=           0 AvBLen=         0.0
 IPart= 10 NShTot=           0 NBatch=           0 AvBLen=         0.0
 IPart= 15 NShTot=           0 NBatch=           0 AvBLen=         0.0
 IPart= 19 NShTot=           0 NBatch=           0 AvBLen=         0.0
 IPart= 31 NShTot=           0 NBatch=           0 AvBLen=         0.0
 IPart= 16 NShTot=           0 NBatch=           0 AvBLen=         0.0
 IPart=  9 NShTot=           0 NBatch=           0 AvBLen=         0.0
 IPart= 18 NShTot=           0 NBatch=           0 AvBLen=         0.0
 IPart= 13 NShTot=           0 NBatch=           0 AvBLen=         0.0
 IPart= 24 NShTot=           0 NBatch=           0 AvBLen=         0.0
 IPart= 26 NShTot=           0 NBatch=           0 AvBLen=         0.0
 IPart= 27 NShTot=           0 NBatch=           0 AvBLen=         0.0
 IPart= 20 NShTot=           0 NBatch=           0 AvBLen=         0.0
 IPart= 32 NShTot=           0 NBatch=           0 AvBLen=         0.0
 IPart= 22 NShTot=           0 NBatch=           0 AvBLen=         0.0
 IPart=  7 NShTot=           0 NBatch=           0 AvBLen=         0.0
 IPart= 35 NShTot=           0 NBatch=           0 AvBLen=         0.0
 IPart= 25 NShTot=           0 NBatch=           0 AvBLen=         0.0
 IPart=  8 NShTot=           0 NBatch=           0 AvBLen=         0.0
 IPart= 28 NShTot=           0 NBatch=           0 AvBLen=         0.0
 IPart= 12 NShTot=           0 NBatch=           0 AvBLen=         0.0
 IPart=  1 NShTot=          10 NBatch=           5 AvBLen=         2.0
 IPart= 29 NShTot=           0 NBatch=           0 AvBLen=         0.0
 IPart=  6 NShTot=           0 NBatch=           0 AvBLen=         0.0
 IPart=  4 NShTot=           4 NBatch=           2 AvBLen=         2.0
 IPart=  5 NShTot=           4 NBatch=           2 AvBLen=         2.0
 IPart=  3 NShTot=           4 NBatch=           2 AvBLen=         2.0
 IPart=  2 NShTot=           8 NBatch=           4 AvBLen=         2.0
 IPart=  0 NShTot=          12 NBatch=           6 AvBLen=         2.0
 PrSmSu:  NxtVal=             37.
 ***** Potential Energy ***** 
                1             2             3             4             5 
      1  0.178204D+02
      2  0.636664D+01  0.469646D+03
      3  0.115155D+02  0.904738D+02  0.971340D+02
      4  0.000000D+00  0.000000D+00  0.000000D+00  0.963499D+02
      5  0.000000D+00  0.000000D+00  0.000000D+00  0.000000D+00  0.963499D+02
      6 -0.269200D+01 -0.211918D-01 -0.128985D+00  0.000000D+00  0.000000D+00
      7  0.158577D+02  0.473981D+01  0.172265D+02  0.000000D+00  0.000000D+00
      8  0.000000D+00  0.000000D+00  0.000000D+00  0.176508D+02  0.000000D+00
      9  0.000000D+00  0.000000D+00  0.000000D+00  0.000000D+00  0.176508D+02
     10 -0.915805D+01 -0.147187D-02 -0.645043D-01  0.000000D+00  0.000000D+00
     11  0.788712D+01 -0.134032D+00  0.493479D+00  0.000000D+00  0.000000D+00
     12  0.000000D+00  0.000000D+00  0.000000D+00  0.121921D+01  0.000000D+00
     13  0.000000D+00  0.000000D+00  0.000000D+00  0.000000D+00  0.121921D+01
     14 -0.574113D+01 -0.750713D-04 -0.569858D-02  0.000000D+00  0.000000D+00
     15  0.418881D+01  0.211250D-04  0.769713D-02  0.000000D+00  0.000000D+00
     16  0.000000D+00  0.000000D+00  0.000000D+00 -0.131030D-01  0.000000D+00
     17  0.000000D+00  0.000000D+00  0.000000D+00  0.000000D+00 -0.131030D-01
     18  0.000000D+00  0.000000D+00  0.000000D+00  0.000000D+00  0.000000D+00
     19  0.000000D+00  0.000000D+00  0.000000D+00  0.000000D+00  0.000000D+00
                6             7             8             9            10 
      6  0.963908D+02
      7 -0.673414D-01  0.260587D+02
      8  0.000000D+00  0.000000D+00  0.260069D+02
      9  0.000000D+00  0.000000D+00  0.000000D+00  0.260069D+02
     10  0.176858D+02 -0.352624D+00  0.000000D+00  0.000000D+00  0.262939D+02
     11 -0.452453D-02  0.670971D+01  0.000000D+00  0.000000D+00 -0.117193D+00
     12  0.000000D+00  0.000000D+00  0.700158D+01  0.000000D+00  0.000000D+00
     13  0.000000D+00  0.000000D+00  0.000000D+00  0.700158D+01  0.000000D+00
     14  0.122295D+01 -0.116971D+00  0.000000D+00  0.000000D+00  0.709660D+01
     15 -0.219179D-01  0.149607D+00  0.000000D+00  0.000000D+00 -0.308475D+00
     16  0.000000D+00  0.000000D+00 -0.134977D+00  0.000000D+00  0.000000D+00
     17  0.000000D+00  0.000000D+00  0.000000D+00 -0.134977D+00  0.000000D+00
     18  0.000000D+00  0.000000D+00  0.000000D+00  0.000000D+00  0.000000D+00
     19  0.000000D+00  0.000000D+00  0.000000D+00  0.000000D+00  0.000000D+00
               11            12            13            14            15 
     11  0.977766D+01
     12  0.000000D+00  0.975058D+01
     13  0.000000D+00  0.000000D+00  0.975058D+01
     14 -0.129435D+00  0.000000D+00  0.000000D+00  0.982941D+01
     15  0.823909D-01  0.000000D+00  0.000000D+00 -0.183888D+00  0.146344D+02
     16  0.000000D+00 -0.959926D-01  0.000000D+00  0.000000D+00  0.000000D+00
     17  0.000000D+00  0.000000D+00 -0.959926D-01  0.000000D+00  0.000000D+00
     18  0.000000D+00  0.000000D+00  0.000000D+00  0.000000D+00  0.000000D+00
     19  0.000000D+00  0.000000D+00  0.000000D+00  0.000000D+00  0.000000D+00
               16            17            18            19 
     16  0.144982D+02
     17  0.000000D+00  0.144982D+02
     18  0.000000D+00  0.000000D+00  0.144129D+02
     19  0.000000D+00  0.000000D+00  0.000000D+00  0.144129D+02
 ****** Core Hamiltonian ****** 
                1             2             3             4             5 
      1 -0.170603D+02
      2 -0.635771D+01 -0.240306D+03
      3 -0.114458D+02 -0.890941D+02 -0.850516D+02
      4  0.000000D+00  0.000000D+00  0.000000D+00 -0.585425D+02
      5  0.000000D+00  0.000000D+00  0.000000D+00  0.000000D+00 -0.585425D+02
      6  0.263851D+01  0.211918D-01  0.128985D+00  0.000000D+00  0.000000D+00
      7 -0.154636D+02 -0.553880D+01 -0.180672D+02  0.000000D+00  0.000000D+00
      8  0.000000D+00  0.000000D+00  0.000000D+00 -0.157761D+02  0.000000D+00
      9  0.000000D+00  0.000000D+00  0.000000D+00  0.000000D+00 -0.157761D+02
     10  0.854180D+01  0.147187D-02  0.645043D-01  0.000000D+00  0.000000D+00
     11 -0.781382D+01  0.933249D-01 -0.701224D+00  0.000000D+00  0.000000D+00
     12  0.000000D+00  0.000000D+00  0.000000D+00 -0.124016D+01  0.000000D+00
     13  0.000000D+00  0.000000D+00  0.000000D+00  0.000000D+00 -0.124016D+01
     14  0.551226D+01  0.750713D-04  0.569858D-02  0.000000D+00  0.000000D+00
     15 -0.370760D+01 -0.211250D-04 -0.769713D-02  0.000000D+00  0.000000D+00
     16  0.000000D+00  0.000000D+00  0.000000D+00  0.131030D-01  0.000000D+00
     17  0.000000D+00  0.000000D+00  0.000000D+00  0.000000D+00  0.131030D-01
     18  0.000000D+00  0.000000D+00  0.000000D+00  0.000000D+00  0.000000D+00
     19  0.000000D+00  0.000000D+00  0.000000D+00  0.000000D+00  0.000000D+00
                6             7             8             9            10 
      6 -0.585834D+02
      7  0.673414D-01 -0.248906D+02
      8  0.000000D+00  0.000000D+00 -0.232562D+02
      9  0.000000D+00  0.000000D+00  0.000000D+00 -0.232562D+02
     10 -0.158111D+02  0.352624D+00  0.000000D+00  0.000000D+00 -0.235432D+02
     11  0.452453D-02 -0.680246D+01  0.000000D+00  0.000000D+00  0.117193D+00
     12  0.000000D+00  0.000000D+00 -0.680226D+01  0.000000D+00  0.000000D+00
     13  0.000000D+00  0.000000D+00  0.000000D+00 -0.680226D+01  0.000000D+00
     14 -0.124389D+01  0.116971D+00  0.000000D+00  0.000000D+00 -0.689727D+01
     15  0.219179D-01 -0.149607D+00  0.000000D+00  0.000000D+00  0.308475D+00
     16  0.000000D+00  0.000000D+00  0.134977D+00  0.000000D+00  0.000000D+00
     17  0.000000D+00  0.000000D+00  0.000000D+00  0.134977D+00  0.000000D+00
     18  0.000000D+00  0.000000D+00  0.000000D+00  0.000000D+00  0.000000D+00
     19  0.000000D+00  0.000000D+00  0.000000D+00  0.000000D+00  0.000000D+00
               11            12            13            14            15 
     11 -0.957022D+01
     12  0.000000D+00 -0.934108D+01
     13  0.000000D+00  0.000000D+00 -0.934108D+01
     14  0.129435D+00  0.000000D+00  0.000000D+00 -0.941991D+01
     15 -0.823909D-01  0.000000D+00  0.000000D+00  0.183888D+00 -0.128340D+02
     16  0.000000D+00  0.959926D-01  0.000000D+00  0.000000D+00  0.000000D+00
     17  0.000000D+00  0.000000D+00  0.959926D-01  0.000000D+00  0.000000D+00
     18  0.000000D+00  0.000000D+00  0.000000D+00  0.000000D+00  0.000000D+00
     19  0.000000D+00  0.000000D+00  0.000000D+00  0.000000D+00  0.000000D+00
               16            17            18            19 
     16 -0.126978D+02
     17  0.000000D+00 -0.126978D+02
     18  0.000000D+00  0.000000D+00 -0.126125D+02
     19  0.000000D+00  0.000000D+00  0.000000D+00 -0.126125D+02
 SVDSVc IOpt=   1 NormSV=T IR=1
 SVDSVc V= 2.41D+00 1.55D+00 1.32D+00 1.03D+00 1.00D+00 9.84D-01 7.23D-01 4.99D-01 4.58D-01 3.01D-02
 SVDSVc IOpt=   1 NormSV=T IR=2
 SVDSVc V= 1.00D+00
 SVDSVc IOpt=   1 NormSV=T IR=3
 SVDSVc V= 1.53D+00 1.00D+00 9.76D-01 4.98D-01
 SVDSVc IOpt=   1 NormSV=T IR=4
 SVDSVc V= 1.53D+00 1.00D+00 9.76D-01 4.98D-01
 TstOVc:  Largest diagonal error= 7.11D-15 IB=1 I=   10.
 TstOVc:  Largest same sym error= 1.90D-15 IB=1 I=   10 J=    7.
 TstOVc:  Largest diff sym error= 0.00D+00 IB=0 JB=0 I=    0 J=    0.
 Orthogonalized basis functions: 
                 1             2             3             4             5 
      1   0.403914D+00 -0.213513D-01 -0.104043D+00  0.102450D+00  0.000000D+00
      2   0.453216D-01  0.210659D+00  0.557441D+00  0.105994D+00  0.000000D+00
      3   0.126156D+00  0.294122D+00  0.489968D+00  0.125024D-01  0.000000D+00
      4   0.000000D+00  0.000000D+00  0.000000D+00  0.000000D+00  0.000000D+00
      5   0.000000D+00  0.000000D+00  0.000000D+00  0.000000D+00  0.000000D+00
      6  -0.598843D-01  0.274393D+00 -0.185944D+00  0.400033D+00  0.000000D+00
      7   0.294074D+00  0.277196D+00 -0.976356D-01 -0.178953D+00  0.000000D+00
      8   0.000000D+00  0.000000D+00  0.000000D+00  0.000000D+00  0.000000D+00
      9   0.000000D+00  0.000000D+00  0.000000D+00  0.000000D+00  0.000000D+00
     10  -0.187415D+00  0.445116D+00 -0.196748D+00  0.739040D-01  0.000000D+00
     11   0.262365D+00  0.183580D+00 -0.305101D+00 -0.204899D+00  0.000000D+00
     12   0.000000D+00  0.000000D+00  0.000000D+00  0.000000D+00  0.000000D+00
     13   0.000000D+00  0.000000D+00  0.000000D+00  0.000000D+00  0.000000D+00
     14  -0.184976D+00  0.362832D+00 -0.118336D+00 -0.195756D+00  0.000000D+00
     15   0.736175D-01 -0.100657D-01 -0.840846D-01  0.817981D+00  0.000000D+00
     16   0.000000D+00  0.000000D+00  0.000000D+00  0.000000D+00  0.000000D+00
     17   0.000000D+00  0.000000D+00  0.000000D+00  0.000000D+00  0.000000D+00
     18   0.000000D+00  0.000000D+00  0.000000D+00  0.000000D+00  0.100000D+01
     19   0.000000D+00  0.000000D+00  0.000000D+00  0.000000D+00  0.000000D+00
                 6             7             8             9            10 
      1   0.306503D-01  0.236080D-01 -0.395786D-01 -0.904055D-01  0.437043D+01
      2   0.252329D-01  0.717717D+00 -0.196735D-01 -0.537309D+00 -0.574580D-01
      3  -0.500915D-03 -0.508763D+00  0.296737D-01  0.841241D+00 -0.242479D-01
      4   0.000000D+00  0.000000D+00  0.000000D+00  0.000000D+00  0.000000D+00
      5   0.000000D+00  0.000000D+00  0.000000D+00  0.000000D+00  0.000000D+00
      6   0.706217D+00 -0.915664D-02 -0.585529D+00  0.360877D-01 -0.240535D+00
      7  -0.463425D-01 -0.460630D+00 -0.498210D-02 -0.833970D+00 -0.225764D+01
      8   0.000000D+00  0.000000D+00  0.000000D+00  0.000000D+00  0.000000D+00
      9   0.000000D+00  0.000000D+00  0.000000D+00  0.000000D+00  0.000000D+00
     10   0.104764D-01  0.100796D-01  0.995556D+00 -0.759616D-01  0.135607D+01
     11  -0.514931D-01  0.629210D+00  0.524096D-01  0.689978D+00 -0.189420D+01
     12   0.000000D+00  0.000000D+00  0.000000D+00  0.000000D+00  0.000000D+00
     13   0.000000D+00  0.000000D+00  0.000000D+00  0.000000D+00  0.000000D+00
     14  -0.511754D+00  0.246094D-01 -0.815631D+00 -0.201761D-01  0.147955D+01
     15  -0.498930D+00 -0.218861D-01  0.203027D-01  0.428599D-01 -0.115877D+01
     16   0.000000D+00  0.000000D+00  0.000000D+00  0.000000D+00  0.000000D+00
     17   0.000000D+00  0.000000D+00  0.000000D+00  0.000000D+00  0.000000D+00
     18   0.000000D+00  0.000000D+00  0.000000D+00  0.000000D+00  0.000000D+00
     19   0.000000D+00  0.000000D+00  0.000000D+00  0.000000D+00  0.000000D+00
                11            12            13            14            15 
      1   0.000000D+00  0.000000D+00  0.000000D+00  0.000000D+00  0.000000D+00
      2   0.000000D+00  0.000000D+00  0.000000D+00  0.000000D+00  0.000000D+00
      3   0.000000D+00  0.000000D+00  0.000000D+00  0.000000D+00  0.000000D+00
      4   0.000000D+00  0.358362D+00  0.000000D+00  0.802807D+00 -0.593005D+00
      5   0.000000D+00  0.000000D+00  0.000000D+00  0.000000D+00  0.000000D+00
      6   0.000000D+00  0.000000D+00  0.000000D+00  0.000000D+00  0.000000D+00
      7   0.000000D+00  0.000000D+00  0.000000D+00  0.000000D+00  0.000000D+00
      8   0.000000D+00  0.565532D+00  0.000000D+00 -0.127423D-01  0.101370D+01
      9   0.000000D+00  0.000000D+00  0.000000D+00  0.000000D+00  0.000000D+00
     10   0.000000D+00  0.000000D+00  0.000000D+00  0.000000D+00  0.000000D+00
     11   0.000000D+00  0.000000D+00  0.000000D+00  0.000000D+00  0.000000D+00
     12   0.000000D+00  0.454909D+00  0.000000D+00 -0.616584D+00 -0.793056D+00
     13   0.000000D+00  0.000000D+00  0.000000D+00  0.000000D+00  0.000000D+00
     14   0.000000D+00  0.000000D+00  0.000000D+00  0.000000D+00  0.000000D+00
     15   0.000000D+00  0.000000D+00  0.000000D+00  0.000000D+00  0.000000D+00
     16   0.000000D+00  0.000000D+00  0.100000D+01  0.000000D+00  0.000000D+00
     17   0.000000D+00  0.000000D+00  0.000000D+00  0.000000D+00  0.000000D+00
     18   0.000000D+00  0.000000D+00  0.000000D+00  0.000000D+00  0.000000D+00
     19   0.100000D+01  0.000000D+00  0.000000D+00  0.000000D+00  0.000000D+00
                16            17            18            19 
      1   0.000000D+00  0.000000D+00  0.000000D+00  0.000000D+00
      2   0.000000D+00  0.000000D+00  0.000000D+00  0.000000D+00
      3   0.000000D+00  0.000000D+00  0.000000D+00  0.000000D+00
      4   0.000000D+00  0.000000D+00  0.000000D+00  0.000000D+00
      5   0.358362D+00  0.000000D+00  0.802807D+00 -0.593005D+00
      6   0.000000D+00  0.000000D+00  0.000000D+00  0.000000D+00
      7   0.000000D+00  0.000000D+00  0.000000D+00  0.000000D+00
      8   0.000000D+00  0.000000D+00  0.000000D+00  0.000000D+00
      9   0.565532D+00  0.000000D+00 -0.127423D-01  0.101370D+01
     10   0.000000D+00  0.000000D+00  0.000000D+00  0.000000D+00
     11   0.000000D+00  0.000000D+00  0.000000D+00  0.000000D+00
     12   0.000000D+00  0.000000D+00  0.000000D+00  0.000000D+00
     13   0.454909D+00  0.000000D+00 -0.616584D+00 -0.793056D+00
     14   0.000000D+00  0.000000D+00  0.000000D+00  0.000000D+00
     15   0.000000D+00  0.000000D+00  0.000000D+00  0.000000D+00
     16   0.000000D+00  0.000000D+00  0.000000D+00  0.000000D+00
     17   0.000000D+00  0.100000D+01  0.000000D+00  0.000000D+00
     18   0.000000D+00  0.000000D+00  0.000000D+00  0.000000D+00
     19   0.000000D+00  0.000000D+00  0.000000D+00  0.000000D+00
 NBasis=    19 RedAO= T EigKep=  3.01D-02  NBF=    10     1     4     4
 NBsUse=    19 1.00D-06 EigRej= -1.00D+00 NBFU=    10     1     4     4
 Leave Link  302 at Mon Mar 28 12:45:27 2022, MaxMem=  9663676416 cpu:               4.2 elap:               0.2
 (Enter /nopt/nrel/apps/gaussian/g16C_1/g16/l303.exe)
 DipDrv will not compute anything.
 Fermi contact integrals: 
                 1             2 
      1   0.628247D+00  0.190670D+00
      2   0.000000D+00  0.454848D+02
      3   0.122729D-02  0.245213D+01
      4   0.000000D+00  0.000000D+00
      5   0.000000D+00  0.000000D+00
      6  -0.371576D-02  0.000000D+00
      7   0.232030D+00  0.115357D+00
      8   0.000000D+00  0.000000D+00
      9   0.000000D+00  0.000000D+00
     10  -0.406141D+00  0.000000D+00
     11   0.734417D-01 -0.521539D-02
     12   0.000000D+00  0.000000D+00
     13   0.000000D+00  0.000000D+00
     14  -0.124428D+00  0.000000D+00
     15   0.378619D+00  0.000000D+00
     16   0.000000D+00  0.000000D+00
     17   0.000000D+00  0.000000D+00
     18   0.000000D+00  0.000000D+00
     19   0.000000D+00  0.000000D+00
 Leave Link  303 at Mon Mar 28 12:45:27 2022, MaxMem=  9663676416 cpu:               1.1 elap:               0.1
 (Enter /nopt/nrel/apps/gaussian/g16C_1/g16/l401.exe)
 ExpMin= 1.16D-01 ExpMax= 1.03D+03 ExpMxC= 1.03D+03 IAcc=3 IRadAn=         5 AccDes= 0.00D+00
 Harris functional with IExCor=  205 and IRadAn=       5 diagonalized for initial guess.
 HarFok:  IExCor=  205 AccDes= 0.00D+00 IRadAn=         5 IDoV= 1 UseB2=F ITyADJ=14
 ICtDFT=  3500011 ScaDFX=  1.000000  1.000000  1.000000  1.000000
 FoFCou: FMM=F IPFlag=           0 FMFlag=      100000 FMFlg1=           0
         NFxFlg=           0 DoJE=T BraDBF=F KetDBF=T FulRan=T
         wScrn=  0.000000 ICntrl=       500 IOpCl=  0 I1Cent=   200000004 NGrid=           0
         NMat0=    1 NMatS0=      1 NMatT0=    0 NMatD0=    1 NMtDS0=    0 NMtDT0=    0
 Petite list used in FoFCou.
 Harris En= -837.156390544522    
 JPrj=0 DoOrth=F DoCkMO=F.
 Initial guess orbital symmetries:
 Alpha Orbitals:
       Occupied  (SG) (SG) (SG) (PI) (PI) (SG) (SG) (PI) (PI) (SG)
                 (SG) (PI) (PI) (DLTA)
       Virtual   (DLTA) (SG) (PI) (PI) (SG)
 Beta  Orbitals:
       Occupied  (SG) (SG) (SG) (PI) (PI) (SG) (SG) (PI) (PI)
       Virtual   (SG) (SG) (PI) (PI) (DLTA) (DLTA) (SG) (PI) (PI)
                 (SG)
 Initial guess <Sx>= 0.0000 <Sy>= 0.0000 <Sz>= 2.5000 <S**2>= 8.7500 S= 2.5000
 Leave Link  401 at Mon Mar 28 12:45:27 2022, MaxMem=  9663676416 cpu:               4.9 elap:               0.2
 (Enter /nopt/nrel/apps/gaussian/g16C_1/g16/l502.exe)
 Keep R1 and R2 ints in memory in symmetry-blocked form, NReq=7413390.
 FoFCou: FMM=F IPFlag=           0 FMFlag=           0 FMFlg1=           0
         NFxFlg=           0 DoJE=F BraDBF=F KetDBF=F FulRan=T
         wScrn=  0.000000 ICntrl=       600 IOpCl=  0 I1Cent=           0 NGrid=           0
         NMat0=    1 NMatS0=    190 NMatT0=    0 NMatD0=    1 NMtDS0=    0 NMtDT0=    0
 Petite list used in FoFCou.
 UHF open shell SCF:
 Using DIIS extrapolation, IDIIS=  1040.
 NGot=  9663676416 LenX=  9663662661 LenY=  9663661779
 Requested convergence on RMS density matrix=1.00D-08 within 128 cycles.
 Requested convergence on MAX density matrix=1.00D-06.
 Requested convergence on             energy=1.00D-06.
 No special actions if energy rises.

 Cycle   1  Pass 1  IDiag  1:
 E= -837.909887966180    
 DIIS: error= 6.49D-02 at cycle   1 NSaved=   1.
 NSaved= 1 IEnMin= 1 EnMin= -837.909887966180     IErMin= 1 ErrMin= 6.49D-02
 ErrMax= 6.49D-02  0.00D+00 EMaxC= 1.00D-01 BMatC= 3.64D-01 BMatP= 3.64D-01
 IDIUse=3 WtCom= 3.51D-01 WtEn= 6.49D-01
 Coeff-Com:  0.100D+01
 Coeff-En:   0.100D+01
 Coeff:      0.100D+01
 Gap=     0.393 Goal=   None    Shift=    0.000
 Gap=     2.021 Goal=   None    Shift=    0.000
 GapD=    0.393 DampG=1.000 DampE=0.250 DampFc=0.2500 IDamp=-1.
 Damping current iteration by 2.50D-01
 RMSDP=1.29D-02 MaxDP=8.65D-02              OVMax= 0.00D+00

 Cycle   2  Pass 1  IDiag  1:
 E= -837.916404025059     Delta-E=       -0.006516058880 Rises=F Damp=T
 DIIS: error= 4.89D-02 at cycle   2 NSaved=   2.
 NSaved= 2 IEnMin= 2 EnMin= -837.916404025059     IErMin= 2 ErrMin= 4.89D-02
 ErrMax= 4.89D-02  0.00D+00 EMaxC= 1.00D-01 BMatC= 2.09D-01 BMatP= 3.64D-01
 IDIUse=3 WtCom= 5.11D-01 WtEn= 4.89D-01
 Coeff-Com: -0.308D+01 0.408D+01
 Coeff-En:   0.000D+00 0.100D+01
 Coeff:     -0.158D+01 0.258D+01
 Gap=     0.355 Goal=   None    Shift=    0.000
 Gap=     1.954 Goal=   None    Shift=    0.000
 RMSDP=1.08D-02 MaxDP=7.28D-02 DE=-6.52D-03 OVMax= 0.00D+00

 Cycle   3  Pass 1  IDiag  1:
 E= -837.939015194802     Delta-E=       -0.022611169743 Rises=F Damp=F
 DIIS: error= 2.87D-03 at cycle   3 NSaved=   3.
 NSaved= 3 IEnMin= 3 EnMin= -837.939015194802     IErMin= 3 ErrMin= 2.87D-03
 ErrMax= 2.87D-03  0.00D+00 EMaxC= 1.00D-01 BMatC= 1.00D-03 BMatP= 2.09D-01
 IDIUse=3 WtCom= 9.71D-01 WtEn= 2.87D-02
 Coeff-Com:  0.371D+01-0.495D+01 0.224D+01
 Coeff-En:   0.000D+00 0.000D+00 0.100D+01
 Coeff:      0.360D+01-0.480D+01 0.220D+01
 Gap=     0.351 Goal=   None    Shift=    0.000
 Gap=     1.949 Goal=   None    Shift=    0.000
 RMSDP=3.77D-03 MaxDP=3.17D-02 DE=-2.26D-02 OVMax= 0.00D+00

 Cycle   4  Pass 1  IDiag  1:
 E= -837.940146461632     Delta-E=       -0.001131266830 Rises=F Damp=F
 DIIS: error= 1.67D-03 at cycle   4 NSaved=   4.
 NSaved= 4 IEnMin= 4 EnMin= -837.940146461632     IErMin= 4 ErrMin= 1.67D-03
 ErrMax= 1.67D-03  0.00D+00 EMaxC= 1.00D-01 BMatC= 1.18D-04 BMatP= 1.00D-03
 IDIUse=3 WtCom= 9.83D-01 WtEn= 1.67D-02
 Coeff-Com: -0.354D+01 0.473D+01-0.225D+01 0.206D+01
 Coeff-En:   0.000D+00 0.000D+00 0.000D+00 0.100D+01
 Coeff:     -0.348D+01 0.465D+01-0.221D+01 0.204D+01
 Gap=     0.352 Goal=   None    Shift=    0.000
 Gap=     1.951 Goal=   None    Shift=    0.000
 RMSDP=2.33D-03 MaxDP=2.31D-02 DE=-1.13D-03 OVMax= 0.00D+00

 Cycle   5  Pass 1  IDiag  1:
 E= -837.940508121627     Delta-E=       -0.000361659994 Rises=F Damp=F
 DIIS: error= 1.00D-03 at cycle   5 NSaved=   5.
 NSaved= 5 IEnMin= 5 EnMin= -837.940508121627     IErMin= 5 ErrMin= 1.00D-03
 ErrMax= 1.00D-03  0.00D+00 EMaxC= 1.00D-01 BMatC= 3.76D-05 BMatP= 1.18D-04
 IDIUse=3 WtCom= 9.90D-01 WtEn= 1.00D-02
 Coeff-Com:  0.124D+01-0.165D+01 0.794D+00-0.125D+01 0.187D+01
 Coeff-En:   0.000D+00 0.000D+00 0.000D+00 0.000D+00 0.100D+01
 Coeff:      0.123D+01-0.164D+01 0.786D+00-0.124D+01 0.187D+01
 Gap=     0.352 Goal=   None    Shift=    0.000
 Gap=     1.952 Goal=   None    Shift=    0.000
 RMSDP=1.76D-03 MaxDP=1.81D-02 DE=-3.62D-04 OVMax= 0.00D+00

 Cycle   6  Pass 1  IDiag  1:
 E= -837.940672054367     Delta-E=       -0.000163932740 Rises=F Damp=F
 DIIS: error= 5.17D-04 at cycle   6 NSaved=   6.
 NSaved= 6 IEnMin= 6 EnMin= -837.940672054367     IErMin= 6 ErrMin= 5.17D-04
 ErrMax= 5.17D-04  0.00D+00 EMaxC= 1.00D-01 BMatC= 1.35D-05 BMatP= 3.76D-05
 IDIUse=3 WtCom= 9.95D-01 WtEn= 5.17D-03
 Coeff-Com: -0.440D+00 0.588D+00-0.261D+00 0.977D+00-0.289D+01 0.303D+01
 Coeff-En:   0.000D+00 0.000D+00 0.000D+00 0.000D+00 0.000D+00 0.100D+01
 Coeff:     -0.438D+00 0.585D+00-0.260D+00 0.972D+00-0.288D+01 0.302D+01
 Gap=     0.352 Goal=   None    Shift=    0.000
 Gap=     1.953 Goal=   None    Shift=    0.000
 RMSDP=1.92D-03 MaxDP=1.85D-02 DE=-1.64D-04 OVMax= 0.00D+00

 Cycle   7  Pass 1  IDiag  1:
 E= -837.940749100661     Delta-E=       -0.000077046294 Rises=F Damp=F
 DIIS: error= 5.69D-05 at cycle   7 NSaved=   7.
 NSaved= 7 IEnMin= 7 EnMin= -837.940749100661     IErMin= 7 ErrMin= 5.69D-05
 ErrMax= 5.69D-05  0.00D+00 EMaxC= 1.00D-01 BMatC= 2.25D-07 BMatP= 1.35D-05
 IDIUse=1 WtCom= 1.00D+00 WtEn= 0.00D+00
 Coeff-Com:  0.973D-03-0.132D-02-0.514D-02-0.810D-01 0.314D+00-0.469D+00
 Coeff-Com:  0.124D+01
 Coeff:      0.973D-03-0.132D-02-0.514D-02-0.810D-01 0.314D+00-0.469D+00
 Coeff:      0.124D+01
 Gap=     0.353 Goal=   None    Shift=    0.000
 Gap=     1.954 Goal=   None    Shift=    0.000
 RMSDP=2.58D-04 MaxDP=2.46D-03 DE=-7.70D-05 OVMax= 0.00D+00

 Cycle   8  Pass 1  IDiag  1:
 E= -837.940750187303     Delta-E=       -0.000001086642 Rises=F Damp=F
 DIIS: error= 7.00D-06 at cycle   8 NSaved=   8.
 NSaved= 8 IEnMin= 8 EnMin= -837.940750187303     IErMin= 8 ErrMin= 7.00D-06
 ErrMax= 7.00D-06  0.00D+00 EMaxC= 1.00D-01 BMatC= 3.54D-09 BMatP= 2.25D-07
 IDIUse=1 WtCom= 1.00D+00 WtEn= 0.00D+00
 Coeff-Com:  0.141D-01-0.188D-01 0.991D-02-0.510D-02 0.298D-02 0.223D-01
 Coeff-Com: -0.248D+00 0.122D+01
 Coeff:      0.141D-01-0.188D-01 0.991D-02-0.510D-02 0.298D-02 0.223D-01
 Coeff:     -0.248D+00 0.122D+01
 Gap=     0.353 Goal=   None    Shift=    0.000
 Gap=     1.954 Goal=   None    Shift=    0.000
 RMSDP=9.52D-06 MaxDP=7.17D-05 DE=-1.09D-06 OVMax= 0.00D+00

 Cycle   9  Pass 1  IDiag  1:
 E= -837.940750191275     Delta-E=       -0.000000003972 Rises=F Damp=F
 DIIS: error= 2.89D-06 at cycle   9 NSaved=   9.
 NSaved= 9 IEnMin= 9 EnMin= -837.940750191275     IErMin= 9 ErrMin= 2.89D-06
 ErrMax= 2.89D-06  0.00D+00 EMaxC= 1.00D-01 BMatC= 4.23D-10 BMatP= 3.54D-09
 IDIUse=1 WtCom= 1.00D+00 WtEn= 0.00D+00
 Coeff-Com: -0.782D-03 0.105D-02-0.417D-03 0.407D-02-0.161D-01 0.205D-01
 Coeff-Com: -0.226D-01-0.107D+00 0.112D+01
 Coeff:     -0.782D-03 0.105D-02-0.417D-03 0.407D-02-0.161D-01 0.205D-01
 Coeff:     -0.226D-01-0.107D+00 0.112D+01
 Gap=     0.353 Goal=   None    Shift=    0.000
 Gap=     1.954 Goal=   None    Shift=    0.000
 RMSDP=2.87D-06 MaxDP=3.33D-05 DE=-3.97D-09 OVMax= 0.00D+00

 Cycle  10  Pass 1  IDiag  1:
 E= -837.940750192019     Delta-E=       -0.000000000744 Rises=F Damp=F
 DIIS: error= 1.93D-06 at cycle  10 NSaved=  10.
 NSaved=10 IEnMin=10 EnMin= -837.940750192019     IErMin=10 ErrMin= 1.93D-06
 ErrMax= 1.93D-06  0.00D+00 EMaxC= 1.00D-01 BMatC= 1.46D-10 BMatP= 4.23D-10
 IDIUse=1 WtCom= 1.00D+00 WtEn= 0.00D+00
 Coeff-Com: -0.175D-02 0.233D-02-0.122D-02-0.226D-03 0.471D-02-0.103D-01
 Coeff-Com:  0.392D-01-0.842D-01-0.107D+01 0.212D+01
 Coeff:     -0.175D-02 0.233D-02-0.122D-02-0.226D-03 0.471D-02-0.103D-01
 Coeff:      0.392D-01-0.842D-01-0.107D+01 0.212D+01
 Gap=     0.353 Goal=   None    Shift=    0.000
 Gap=     1.954 Goal=   None    Shift=    0.000
 RMSDP=3.45D-06 MaxDP=3.76D-05 DE=-7.44D-10 OVMax= 0.00D+00

 Cycle  11  Pass 1  IDiag  1:
 E= -837.940750192449     Delta-E=       -0.000000000431 Rises=F Damp=F
 DIIS: error= 4.15D-07 at cycle  11 NSaved=  11.
 NSaved=11 IEnMin=11 EnMin= -837.940750192449     IErMin=11 ErrMin= 4.15D-07
 ErrMax= 4.15D-07  0.00D+00 EMaxC= 1.00D-01 BMatC= 8.17D-12 BMatP= 1.46D-10
 IDIUse=1 WtCom= 1.00D+00 WtEn= 0.00D+00
 Coeff-Com:  0.748D-04-0.984D-04 0.494D-04 0.242D-04-0.752D-04 0.269D-03
 Coeff-Com: -0.135D-02 0.695D-02 0.250D+00-0.719D+00 0.146D+01
 Coeff:      0.748D-04-0.984D-04 0.494D-04 0.242D-04-0.752D-04 0.269D-03
 Coeff:     -0.135D-02 0.695D-02 0.250D+00-0.719D+00 0.146D+01
 Gap=     0.353 Goal=   None    Shift=    0.000
 Gap=     1.954 Goal=   None    Shift=    0.000
 RMSDP=9.28D-07 MaxDP=8.06D-06 DE=-4.31D-10 OVMax= 0.00D+00

 Cycle  12  Pass 1  IDiag  1:
 E= -837.940750192472     Delta-E=       -0.000000000023 Rises=F Damp=F
 DIIS: error= 1.41D-08 at cycle  12 NSaved=  12.
 NSaved=12 IEnMin=12 EnMin= -837.940750192472     IErMin=12 ErrMin= 1.41D-08
 ErrMax= 1.41D-08  0.00D+00 EMaxC= 1.00D-01 BMatC= 2.25D-14 BMatP= 8.17D-12
 IDIUse=1 WtCom= 1.00D+00 WtEn= 0.00D+00
 Coeff-Com: -0.654D-05 0.852D-05-0.348D-05 0.319D-07-0.196D-04 0.341D-04
 Coeff-Com: -0.205D-03 0.107D-02-0.423D-01 0.107D+00-0.228D+00 0.116D+01
 Coeff:     -0.654D-05 0.852D-05-0.348D-05 0.319D-07-0.196D-04 0.341D-04
 Coeff:     -0.205D-03 0.107D-02-0.423D-01 0.107D+00-0.228D+00 0.116D+01
 Gap=     0.353 Goal=   None    Shift=    0.000
 Gap=     1.954 Goal=   None    Shift=    0.000
 RMSDP=4.42D-08 MaxDP=4.51D-07 DE=-2.25D-11 OVMax= 0.00D+00

 Cycle  13  Pass 1  IDiag  1:
 E= -837.940750192472     Delta-E=        0.000000000000 Rises=F Damp=F
 DIIS: error= 1.30D-09 at cycle  13 NSaved=  13.
 NSaved=13 IEnMin=12 EnMin= -837.940750192472     IErMin=13 ErrMin= 1.30D-09
 ErrMax= 1.30D-09  0.00D+00 EMaxC= 1.00D-01 BMatC= 9.94D-17 BMatP= 2.25D-14
 IDIUse=1 WtCom= 1.00D+00 WtEn= 0.00D+00
 Coeff-Com: -0.493D-06 0.679D-06-0.414D-06 0.141D-05-0.243D-05-0.563D-06
 Coeff-Com:  0.383D-04-0.323D-03 0.510D-02-0.111D-01 0.214D-01-0.140D+00
 Coeff-Com:  0.112D+01
 Coeff:     -0.493D-06 0.679D-06-0.414D-06 0.141D-05-0.243D-05-0.563D-06
 Coeff:      0.383D-04-0.323D-03 0.510D-02-0.111D-01 0.214D-01-0.140D+00
 Coeff:      0.112D+01
 Gap=     0.353 Goal=   None    Shift=    0.000
 Gap=     1.954 Goal=   None    Shift=    0.000
 RMSDP=1.36D-09 MaxDP=1.13D-08 DE= 2.27D-13 OVMax= 0.00D+00

 SCF Done:  E(UHF) =  -837.940750192     A.U. after   13 cycles
            NFock= 13  Conv=0.14D-08     -V/T= 2.0010
 <Sx>= 0.0000 <Sy>= 0.0000 <Sz>= 2.5000 <S**2>= 8.7542 S= 2.5007
 <L.S>= 0.000000000000E+00
 KE= 8.370808942176D+02 PE=-2.019351012253D+03 EE= 3.249262034424D+02
 Annihilation of the first spin contaminant:
 S**2 before annihilation     8.7542,   after     8.7500
 Leave Link  502 at Mon Mar 28 12:45:27 2022, MaxMem=  9663676416 cpu:               5.4 elap:               0.2
 (Enter /nopt/nrel/apps/gaussian/g16C_1/g16/l801.exe)
 Windowed orbitals will be sorted by symmetry type.
 ExpMin= 1.16D-01 ExpMax= 1.03D+03 ExpMxC= 1.03D+03 IAcc=3 IRadAn=         5 AccDes= 0.00D+00
 HarFok:  IExCor=  205 AccDes= 0.00D+00 IRadAn=         5 IDoV=-2 UseB2=F ITyADJ=14
 ICtDFT= 12500011 ScaDFX=  1.000000  1.000000  1.000000  1.000000
 Largest valence mixing into a core orbital is  1.63D-02
 Largest core mixing into a valence orbital is  1.50D-02
 Range of M.O.s used for correlation:    10    19
 NBasis=    19 NAE=    14 NBE=     9 NFC=     9 NFV=     0
 NROrb=     10 NOA=     5 NOB=     0 NVA=     5 NVB=    10
 Leave Link  801 at Mon Mar 28 12:45:27 2022, MaxMem=  9663676416 cpu:               2.3 elap:               0.1
 (Enter /nopt/nrel/apps/gaussian/g16C_1/g16/l804.exe)
 Open-shell transformation, MDV=  9663676416 ITran=4 ISComp=2.
 Unit  1 TFree=         25012 TCopy=        222819.
 Semi-Direct transformation.
 ModeAB=           2 MOrb=             5 LenV=    9663501346
 LASXX=          328 LTotXX=         328 LenRXX=         328
 LTotAB=         596 MaxLAS=       10500 LenRXY=       10500
 NonZer=       12150 LenScr=      785920 LnRSAI=           0
 LnScr1=           0 LExtra=      223847 Total=      1020595
 MaxDsk= 34359738368 SrtSym=           F ITran=            4
 DoSDTr:  NPSUse= 36
 JobTyp=1 Pass  1:  I=   1 to   5.
 (rs|ai) integrals will be sorted in core.
 Complete sort for first half transformation.
 First half transformation complete.
 Complete sort for second half transformation.
 Second half transformation complete.
 Spin components of T(2) and E(2):
     alpha-alpha T2 =       0.2031048886D-02 E2=     -0.2241245798D-02
     alpha-beta  T2 =       0.0000000000D+00 E2=      0.0000000000D+00
     beta-beta   T2 =       0.0000000000D+00 E2=      0.0000000000D+00
 ANorm=    0.1001015009D+01
 E2 =    -0.2241245798D-02 EUMP2 =    -0.83794299143827D+03
 Leave Link  804 at Mon Mar 28 12:45:28 2022, MaxMem=  9663676416 cpu:               5.6 elap:               0.2
 (Enter /nopt/nrel/apps/gaussian/g16C_1/g16/l913.exe)
 CIDS:  MDV=  9663676416.
 Frozen-core window:  NFC=   9 NFV=   0.
 IFCWin=0 IBDFC=1 NFBD=     0     0 NFCmp=     0     0 NFFFC=     0     0
 Using original routines for 1st iteration.
 Using DD4UQ or CC4UQ for 2nd and later iterations.
 Keep R2 and R3 ints in memory in symmetry-blocked form, NReq=7415832.
 FoFCou: FMM=F IPFlag=           0 FMFlag=           0 FMFlg1=           0
         NFxFlg=           0 DoJE=F BraDBF=F KetDBF=F FulRan=T
         wScrn=  0.000000 ICntrl=       600 IOpCl=  0 I1Cent=           0 NGrid=           0
         NMat0=    1 NMatS0=    190 NMatT0=    0 NMatD0=    1 NMtDS0=    0 NMtDT0=    0
 Petite list used in FoFCou.
 CIDS: In Core Option IDoMem=           1.
 Coupled Cluster theory with single and double substitutions
 ===========================================================
 Iterations= 300 Convergence= 0.100D-06
 Produce multiple copies of IABC intergrals
 Iteration Nr.   1
 **********************
 DD1Dir will call FoFMem   1 times, MxPair=        10
 NAB=     0 NAA=    10 NBB=     0.
 MP4(R+Q)=  0.44551034D-05
 Maximum subspace dimension=  5
 A-vector RMS=  3.8709146D-03 Max=  1.3575045D-02 conv= 1.00D-05.
 RLE energy=       -0.0055724813
 E3=       -0.13442471D-02        EUMP3=      -0.83794433569D+03
 E4(DQ)=   -0.91434406D-03        UMP4(DQ)=   -0.83794525003D+03
 E4(SDQ)=  -0.91977036D-03        UMP4(SDQ)=  -0.83794525546D+03
 VARIATIONAL ENERGIES WITH THE FIRST-ORDER WAVEFUNCTION:
 DE(Corr)= -0.35810650E-02 E(Corr)=     -837.94433126    
 NORM(A)=   0.10075930D+01
 Iteration Nr.   2
 **********************
 DD1Dir will call FoFMem   1 times, MxPair=        10
 NAB=     0 NAA=    10 NBB=     0.
 A-vector RMS=  2.6112583D-03 Max=  8.6501558D-03 conv= 1.00D-05.
 RLE energy=       -0.0072086484
 DE(Corr)= -0.58459985E-02 E(CORR)=     -837.94659619     Delta=-2.26D-03
 NORM(A)=   0.10154909D+01
 Iteration Nr.   3
 **********************
 DD1Dir will call FoFMem   1 times, MxPair=        10
 NAB=     0 NAA=    10 NBB=     0.
 A-vector RMS=  1.7202958D-03 Max=  4.4728198D-03 conv= 1.00D-05.
 RLE energy=       -0.0077939851
 DE(Corr)= -0.72147382E-02 E(CORR)=     -837.94796493     Delta=-1.37D-03
 NORM(A)=   0.10219103D+01
 Iteration Nr.   4
 **********************
 DD1Dir will call FoFMem   1 times, MxPair=        10
 NAB=     0 NAA=    10 NBB=     0.
 A-vector RMS=  4.3183103D-04 Max=  1.1128816D-03 conv= 1.00D-05.
 RLE energy=       -0.0077479519
 DE(Corr)= -0.77766731E-02 E(CORR)=     -837.94852687     Delta=-5.62D-04
 NORM(A)=   0.10222699D+01
 Iteration Nr.   5
 **********************
 DD1Dir will call FoFMem   1 times, MxPair=        10
 NAB=     0 NAA=    10 NBB=     0.
 A-vector RMS=  2.3865333D-04 Max=  7.4217306D-04 conv= 1.00D-05.
 RLE energy=       -0.0078457345
 DE(Corr)= -0.77601985E-02 E(CORR)=     -837.94851039     Delta= 1.65D-05
 NORM(A)=   0.10229972D+01
 Iteration Nr.   6
 **********************
 DD1Dir will call FoFMem   1 times, MxPair=        10
 NAB=     0 NAA=    10 NBB=     0.
 A-vector RMS=  7.4615033D-05 Max=  4.2317816D-04 conv= 1.00D-05.
 RLE energy=       -0.0077942720
 DE(Corr)= -0.78309037E-02 E(CORR)=     -837.94858110     Delta=-7.07D-05
 NORM(A)=   0.10227276D+01
 Iteration Nr.   7
 **********************
 DD1Dir will call FoFMem   1 times, MxPair=        10
 NAB=     0 NAA=    10 NBB=     0.
 A-vector RMS=  4.9241389D-05 Max=  1.5751924D-04 conv= 1.00D-05.
 RLE energy=       -0.0078043645
 DE(Corr)= -0.77952086E-02 E(CORR)=     -837.94854540     Delta= 3.57D-05
 NORM(A)=   0.10228158D+01
 Iteration Nr.   8
 **********************
 DD1Dir will call FoFMem   1 times, MxPair=        10
 NAB=     0 NAA=    10 NBB=     0.
 A-vector RMS=  2.6317093D-05 Max=  8.7344860D-05 conv= 1.00D-05.
 RLE energy=       -0.0077960391
 DE(Corr)= -0.78031996E-02 E(CORR)=     -837.94855339     Delta=-7.99D-06
 NORM(A)=   0.10227458D+01
 Iteration Nr.   9
 **********************
 DD1Dir will call FoFMem   1 times, MxPair=        10
 NAB=     0 NAA=    10 NBB=     0.
 A-vector RMS=  1.5327455D-05 Max=  6.1819897D-05 conv= 1.00D-05.
 RLE energy=       -0.0077996593
 DE(Corr)= -0.77966857E-02 E(CORR)=     -837.94854688     Delta= 6.51D-06
 NORM(A)=   0.10227546D+01
 Iteration Nr.  10
 **********************
 DD1Dir will call FoFMem   1 times, MxPair=        10
 NAB=     0 NAA=    10 NBB=     0.
 A-vector RMS=  1.1770462D-05 Max=  4.1910583D-05 conv= 1.00D-05.
 RLE energy=       -0.0077965625
 DE(Corr)= -0.77989037E-02 E(CORR)=     -837.94854910     Delta=-2.22D-06
 NORM(A)=   0.10227398D+01
 Iteration Nr.  11
 **********************
 DD1Dir will call FoFMem   1 times, MxPair=        10
 NAB=     0 NAA=    10 NBB=     0.
 A-vector RMS=  8.3423200D-06 Max=  1.9020114D-05 conv= 1.00D-05.
 RLE energy=       -0.0077999731
 DE(Corr)= -0.77968918E-02 E(CORR)=     -837.94854708     Delta= 2.01D-06
 NORM(A)=   0.10227751D+01
 Iteration Nr.  12
 **********************
 DD1Dir will call FoFMem   1 times, MxPair=        10
 NAB=     0 NAA=    10 NBB=     0.
 A-vector RMS=  4.6337888D-06 Max=  1.2793844D-05 conv= 1.00D-05.
 RLE energy=       -0.0077993122
 DE(Corr)= -0.77997806E-02 E(CORR)=     -837.94854997     Delta=-2.89D-06
 NORM(A)=   0.10227759D+01
 Iteration Nr.  13
 **********************
 DD1Dir will call FoFMem   1 times, MxPair=        10
 NAB=     0 NAA=    10 NBB=     0.
 A-vector RMS=  1.8119772D-06 Max=  5.1887924D-06 conv= 1.00D-05.
 RLE energy=       -0.0077997539
 DE(Corr)= -0.77994221E-02 E(CORR)=     -837.94854961     Delta= 3.58D-07
 NORM(A)=   0.10227794D+01
 Iteration Nr.  14
 **********************
 DD1Dir will call FoFMem   1 times, MxPair=        10
 NAB=     0 NAA=    10 NBB=     0.
 A-vector RMS=  5.1515691D-07 Max=  1.2435715D-06 conv= 1.00D-05.
 RLE energy=       -0.0077996664
 DE(Corr)= -0.77997473E-02 E(CORR)=     -837.94854994     Delta=-3.25D-07
 NORM(A)=   0.10227785D+01
 Iteration Nr.  15
 **********************
 DD1Dir will call FoFMem   1 times, MxPair=        10
 NAB=     0 NAA=    10 NBB=     0.
 A-vector RMS=  3.0287924D-07 Max=  5.7912871D-07 conv= 1.00D-05.
 RLE energy=       -0.0077996850
 DE(Corr)= -0.77996732E-02 E(CORR)=     -837.94854987     Delta= 7.41D-08
 NORM(A)=   0.10227784D+01
 CI/CC converged in   15 iterations to DelEn= 7.41D-08 Conv= 1.00D-07 ErrA1= 3.03D-07 Conv= 1.00D-05
 Wavefunction amplitudes converged. E(Corr)=     -837.94854987    
 Dominant configurations:
 ***********************
 Spin Case        I    J    A    B          Value
   AAAA          14   12   15   16       0.117615D+00
   AAAA          14   13   15   17       0.117615D+00
 Largest amplitude= 1.18D-01
 Discarding MO integrals.
 Leave Link  913 at Mon Mar 28 12:45:28 2022, MaxMem=  9663676416 cpu:               9.8 elap:               0.3
 (Enter /nopt/nrel/apps/gaussian/g16C_1/g16/l601.exe)
 Copying SCF densities to generalized density rwf, IOpCl= 1 IROHF=0.

 **********************************************************************

            Population analysis using the SCF Density.

 **********************************************************************

 Orbital symmetries:
 Alpha Orbitals:
       Occupied  (SG) (SG) (SG) (PI) (PI) (SG) (SG) (PI) (PI) (SG)
                 (SG) (PI) (PI) (DLTA)
       Virtual   (SG) (PI) (PI) (DLTA) (SG)
 Beta  Orbitals:
       Occupied  (SG) (SG) (SG) (PI) (PI) (SG) (SG) (PI) (PI)
       Virtual   (SG) (SG) (SG) (PI) (PI) (PI) (PI) (DLTA) (DLTA)
                 (SG)
 Unable to determine electronic state:  partially filled degenerate orbitals.
 Alpha  occ. eigenvalues -- -181.66650 -21.40540 -18.00427 -17.97254 -17.97254
 Alpha  occ. eigenvalues --   -3.13843  -2.18238  -1.92418  -1.92418  -0.28833
 Alpha  occ. eigenvalues --   -0.20837  -0.14251  -0.14251  -0.09997
 Alpha virt. eigenvalues --    0.25260   0.28783   0.28783   0.38496   1.98963
  Beta  occ. eigenvalues -- -181.66263 -21.39272 -17.99497 -17.96632 -17.96632
  Beta  occ. eigenvalues --   -2.96881  -1.92741  -1.73320  -1.73320
  Beta virt. eigenvalues --    0.22033   0.34545   0.42169   0.42649   0.42649
  Beta virt. eigenvalues --    0.48147   0.48147   0.49322   0.52001   2.15667
          Condensed to atoms (all electrons):
               1          2
     1  H    0.521845  -0.221240
     2  Ti  -0.221240  22.920636
          Atomic-Atomic Spin Densities.
               1          2
     1  H    0.388237  -0.248374
     2  Ti  -0.248374   5.108512
 Mulliken charges and spin densities:
               1          2
     1  H    0.699395   0.139862
     2  Ti  -0.699395   4.860138
 Sum of Mulliken charges =  -0.00000   5.00000
 Mulliken charges and spin densities with hydrogens summed into heavy atoms:
               1          2
     2  Ti  -0.000000   5.000000
 N-N= 1.940316440040D+01 E-N=-2.019351012275D+03  KE= 8.370808942176D+02
 Symmetry A1   KE= 6.583274315376D+02
 Symmetry A2   KE= 1.800435099804D+00
 Symmetry B1   KE= 8.847651379011D+01
 Symmetry B2   KE= 8.847651379011D+01
 Symmetry A1   SP= 2.000000000000D+00
 Symmetry A2   SP= 1.000000000000D+00
 Symmetry B1   SP= 1.000000000000D+00
 Symmetry B2   SP= 1.000000000000D+00

 Atomic contributions to Alpha molecular orbitals:
 Alpha occ 1 OE=-181.666 is Ti2-s=0.9999
 Alpha occ 2 OE=-21.405 is Ti2-s=1.0120
 Alpha occ 3 OE=-18.004 is Ti2-p=1.0010
 Alpha occ 4 OE=-17.973 is Ti2-p=1.0000
 Alpha occ 5 OE=-17.973 is Ti2-p=1.0000
 Alpha occ 6 OE=-3.138 is Ti2-s=0.8731
 Alpha occ 7 OE=-2.182 is Ti2-p=0.7763 Ti2-s=0.1338
 Alpha occ 8 OE=-1.924 is Ti2-p=0.9985
 Alpha occ 9 OE=-1.924 is Ti2-p=0.9985
 Alpha occ 10 OE=-0.288 is Ti2-d=0.7013 H1-s=0.1891
 Alpha occ 11 OE=-0.208 is Ti2-s=0.8389 Ti2-p=0.1485 Ti2-d=0.1105
 Alpha occ 12 OE=-0.143 is Ti2-d=0.9750
 Alpha occ 13 OE=-0.143 is Ti2-d=0.9750
 Alpha occ 14 OE=-0.100 is Ti2-d=1.0000
 Alpha vir 15 OE=0.253 is Ti2-p=0.9060 Ti2-s=0.1052
 Alpha vir 16 OE=0.288 is Ti2-p=0.9765
 Alpha vir 17 OE=0.288 is Ti2-p=0.9765
 Alpha vir 18 OE=0.385 is Ti2-d=1.0000
 Alpha vir 19 OE=1.990 is H1-s=0.7951 Ti2-d=0.1771

 Atomic contributions to Beta  molecular orbitals:
 Beta  occ 1 OE=-181.663 is Ti2-s=0.9999
 Beta  occ 2 OE=-21.393 is Ti2-s=1.0120
 Beta  occ 3 OE=-17.995 is Ti2-p=1.0011
 Beta  occ 4 OE=-17.966 is Ti2-p=1.0000
 Beta  occ 5 OE=-17.966 is Ti2-p=1.0000
 Beta  occ 6 OE=-2.969 is Ti2-s=0.8975
 Beta  occ 7 OE=-1.927 is Ti2-p=0.8020 Ti2-s=0.1237
 Beta  occ 8 OE=-1.733 is Ti2-p=0.9982
 Beta  occ 9 OE=-1.733 is Ti2-p=0.9982
 Beta  vir 10 OE=0.220 is Ti2-s=1.0513
 Beta  vir 11 OE=0.345 is Ti2-d=0.6965 Ti2-p=0.2445
 Beta  vir 12 OE=0.422 is Ti2-p=0.8717 Ti2-d=0.1418
 Beta  vir 13 OE=0.426 is Ti2-p=0.8441 Ti2-d=0.1559
 Beta  vir 14 OE=0.426 is Ti2-p=0.8441 Ti2-d=0.1559
 Beta  vir 15 OE=0.481 is Ti2-d=0.8423 Ti2-p=0.1577
 Beta  vir 16 OE=0.481 is Ti2-d=0.8423 Ti2-p=0.1577
 Beta  vir 17 OE=0.493 is Ti2-d=1.0000
 Beta  vir 18 OE=0.520 is Ti2-d=1.0000
 Beta  vir 19 OE=2.157 is H1-s=0.9357 Ti2-d=0.1509
 
 Leave Link  601 at Mon Mar 28 12:45:28 2022, MaxMem=  9663676416 cpu:               2.3 elap:               0.1
 (Enter /nopt/nrel/apps/gaussian/g16C_1/g16/l9999.exe)

 Test job not archived.
 1\1\GINC-R3I7N35\SP\UCCSD-FC\Gen\H1Ti1(6)\USER\28-Mar-2022\0\\#P C
 CSD(MaxCyc=300,SaveAmplitudes,ReadAmplitudes)/GEN sp pop=AllOrbitals i
 op(3/33=1,3/36=-1)\\test\\0,6\H,0,0.,0.,0.\Ti,0,0.,0.,0.6\\Version=ES6
 4L-G16RevC.01\HF=-837.9407502\MP2=-837.9429914\MP3=-837.9443357\MP4D=-
 837.9452545\MP4DQ=-837.94525\MP4SDQ=-837.9452555\CCSD=-837.9485499\S2=
 8.75421\S2-1=0.\S2A=8.750004\RMSD=1.364e-09\PG=C*V [C*(H1Ti1)]\\@


 SI MONUMENTUM REQUIRIS, CIRCUMSPICE
     -- FROM SIR CHRISTOPHER WREN'S TOMBSTONE
 Job cpu time:       0 days  0 hours  0 minutes 45.0 seconds.
 Elapsed time:       0 days  0 hours  0 minutes  1.6 seconds.
 File lengths (MBytes):  RWF=     13 Int=      0 D2E=      0 Chk=      1 Scr=      1
 Normal termination of Gaussian 16 at Mon Mar 28 12:45:28 2022.
