 Entering Gaussian System, Link 0=g16
 Initial command:
 /nopt/nrel/apps/gaussian/g16C_1/g16/l1.exe "/lustre/eaglefs/scratch/user/qc/tih-dissc/tih-6-ccsd-2.6-sto3g/Gau-45179.inp" -scrdir="/lustre/eaglefs/scratch/user/qc/tih-dissc/tih-6-ccsd-2.6-sto3g/"
 Default is to use a total of  36 processors:
                               36 via shared-memory
                                1 via Linda
 Entering Link 1 = /nopt/nrel/apps/gaussian/g16C_1/g16/l1.exe PID=     45180.
  
 Copyright (c) 1988-2019, Gaussian, Inc.  All Rights Reserved.
  
 This is part of the Gaussian(R) 16 program.  It is based on
 the Gaussian(R) 09 system (copyright 2009, Gaussian, Inc.),
 the Gaussian(R) 03 system (copyright 2003, Gaussian, Inc.),
 the Gaussian(R) 98 system (copyright 1998, Gaussian, Inc.),
 the Gaussian(R) 94 system (copyright 1995, Gaussian, Inc.),
 the Gaussian 92(TM) system (copyright 1992, Gaussian, Inc.),
 the Gaussian 90(TM) system (copyright 1990, Gaussian, Inc.),
 the Gaussian 88(TM) system (copyright 1988, Gaussian, Inc.),
 the Gaussian 86(TM) system (copyright 1986, Carnegie Mellon
 University), and the Gaussian 82(TM) system (copyright 1983,
 Carnegie Mellon University). Gaussian is a federally registered
 trademark of Gaussian, Inc.
  
 This software contains proprietary and confidential information,
 including trade secrets, belonging to Gaussian, Inc.
  
 This software is provided under written license and may be
 used, copied, transmitted, or stored only in accord with that
 written license.
  
 The following legend is applicable only to US Government
 contracts under FAR:
  
                    RESTRICTED RIGHTS LEGEND
  
 Use, reproduction and disclosure by the US Government is
 subject to restrictions as set forth in subparagraphs (a)
 and (c) of the Commercial Computer Software - Restricted
 Rights clause in FAR 52.227-19.
  
 Gaussian, Inc.
 340 Quinnipiac St., Bldg. 40, Wallingford CT 06492
  
  
 ---------------------------------------------------------------
 Warning -- This program may not be used in any manner that
 competes with the business of Gaussian, Inc. or will provide
 assistance to any competitor of Gaussian, Inc.  The licensee
 of this program is prohibited from giving any competitor of
 Gaussian, Inc. access to this program.  By using this program,
 the user acknowledges that Gaussian, Inc. is engaged in the
 business of creating and licensing software in the field of
 computational chemistry and represents and warrants to the
 licensee that it is not a competitor of Gaussian, Inc. and that
 it will not use this program in any manner prohibited above.
 ---------------------------------------------------------------
  

 Cite this work as:
 Gaussian 16, Revision C.01,
 M. J. Frisch, G. W. Trucks, H. B. Schlegel, G. E. Scuseria, 
 M. A. Robb, J. R. Cheeseman, G. Scalmani, V. Barone, 
 G. A. Petersson, H. Nakatsuji, X. Li, M. Caricato, A. V. Marenich, 
 J. Bloino, B. G. Janesko, R. Gomperts, B. Mennucci, H. P. Hratchian, 
 J. V. Ortiz, A. F. Izmaylov, J. L. Sonnenberg, D. Williams-Young, 
 F. Ding, F. Lipparini, F. Egidi, J. Goings, B. Peng, A. Petrone, 
 T. Henderson, D. Ranasinghe, V. G. Zakrzewski, J. Gao, N. Rega, 
 G. Zheng, W. Liang, M. Hada, M. Ehara, K. Toyota, R. Fukuda, 
 J. Hasegawa, M. Ishida, T. Nakajima, Y. Honda, O. Kitao, H. Nakai, 
 T. Vreven, K. Throssell, J. A. Montgomery, Jr., J. E. Peralta, 
 F. Ogliaro, M. J. Bearpark, J. J. Heyd, E. N. Brothers, K. N. Kudin, 
 V. N. Staroverov, T. A. Keith, R. Kobayashi, J. Normand, 
 K. Raghavachari, A. P. Rendell, J. C. Burant, S. S. Iyengar, 
 J. Tomasi, M. Cossi, J. M. Millam, M. Klene, C. Adamo, R. Cammi, 
 J. W. Ochterski, R. L. Martin, K. Morokuma, O. Farkas, 
 J. B. Foresman, and D. J. Fox, Gaussian, Inc., Wallingford CT, 2019.
 
 ******************************************
 Gaussian 16:  ES64L-G16RevC.01  3-Jul-2019
                12-Apr-2022 
 ******************************************
 %chk=molecule
 Default route: CacheSize=180224 MaxDisk=256GB
 ----------------------------------------------------------------------
 #P CCSD(MaxCyc=200,SaveAmplitudes,ReadAmplitudes)/GEN sp pop=AllOrbita
 ls iop(3/33=1,3/36=-1)
 ----------------------------------------------------------------------
 1/4=180224,38=1,172=1/1;
 2/4=180224,12=2,17=6,18=5,40=1/2;
 3/4=180224,5=7,11=9,25=1,30=1,33=1,36=-1/1,2,3;
 4/4=180224/1;
 5/4=180224,5=2,38=5/2;
 8/4=180224,6=4,9=120000,10=1,24=1/1,4;
 9/4=180224,5=7,6=200,77=1/13;
 6/4=180224,7=2,8=2,9=2,10=2,96=-1/1;
 99/4=180224,5=1,9=1/99;
 Leave Link    1 at Tue Apr 12 06:13:20 2022, MaxMem=           0 cpu:               3.3 elap:               0.1
 (Enter /nopt/nrel/apps/gaussian/g16C_1/g16/l101.exe)
 ----
 test
 ----
 Symbolic Z-matrix:
 Charge =  0 Multiplicity = 6
 H                     0.        0.        0. 
 Ti                    0.        0.        2.605 
 
 ITRead=  0  0
 MicOpt= -1 -1
 NAtoms=      2 NQM=        2 NQMF=       0 NMMI=      0 NMMIF=      0
                NMic=       0 NMicF=      0.
                    Isotopes and Nuclear Properties:
 (Nuclear quadrupole moments (NQMom) in fm**2, nuclear magnetic moments (NMagM)
  in nuclear magnetons)

  Atom         1           2
 IAtWgt=           1          48
 AtmWgt=   1.0078250  47.9479467
 NucSpn=           1           0
 AtZEff=  -0.0000000  -0.0000000
 NQMom=    0.0000000   0.0000000
 NMagM=    2.7928460   0.0000000
 AtZNuc=   1.0000000  22.0000000
 Leave Link  101 at Tue Apr 12 06:13:20 2022, MaxMem=  9663676416 cpu:               3.1 elap:               0.1
 (Enter /nopt/nrel/apps/gaussian/g16C_1/g16/l202.exe)
                          Input orientation:                          
 ---------------------------------------------------------------------
 Center     Atomic      Atomic             Coordinates (Angstroms)
 Number     Number       Type             X           Y           Z
 ---------------------------------------------------------------------
      1          1           0        0.000000    0.000000    0.000000
      2         22           0        0.000000    0.000000    2.605000
 ---------------------------------------------------------------------
 Stoichiometry    HTi(6)
 Framework group  C*V[C*(HTi)]
 Deg. of freedom     1
 Full point group                 C*V     NOp   4
 Largest Abelian subgroup         C2V     NOp   4
 Largest concise Abelian subgroup C1      NOp   1
                         Standard orientation:                         
 ---------------------------------------------------------------------
 Center     Atomic      Atomic             Coordinates (Angstroms)
 Number     Number       Type             X           Y           Z
 ---------------------------------------------------------------------
      1          1           0        0.000000    0.000000   -2.491739
      2         22           0        0.000000    0.000000    0.113261
 ---------------------------------------------------------------------
 Rotational constants (GHZ):           0.0000000          75.4484789          75.4484789
 Leave Link  202 at Tue Apr 12 06:13:20 2022, MaxMem=  9663676416 cpu:               1.1 elap:               0.1
 (Enter /nopt/nrel/apps/gaussian/g16C_1/g16/l301.exe)
 General basis read from cards:  (5D, 7F)
                         Coordinates in L301:                         
 ---------------------------------------------------------------------
 Center     Atomic      Atomic             Coordinates (Angstroms)
 Number     Number       Type             X           Y           Z
 ---------------------------------------------------------------------
      1          1           0        0.000000    0.000000   -2.491739
      2         22           0        0.000000    0.000000    0.113261
 ---------------------------------------------------------------------
 Centers:       1
 STO-3G
 ****
 Centers:       2
 STO-3G
 ****
 FixB: optimizing general contractions.
 Ernie: Thresh=  0.10000D-02 Tol=  0.10000D-05 Strict=F.
 IA=     1 ShT= 0 ShC= 0 NL=   1 NS=   0.
 IA=     1 L=0 SC=0 ISt=    0 NBk=    0 NP=    0 IndPr=    0.
 IA=     2 ShT= 0 ShC= 0 NL=   1 NS=   0.
 IA=     2 L=0 SC=0 ISt=    0 NBk=    0 NP=    0 IndPr=    0.
 IA=     2 ShT= 1 ShC= 0 NL=   3 NS=   0.
 IA=     2 L=1 SC=0 ISt=    1 NBk=    3 NP=    9 IndPr=    0.
 DoElim1:  L=1 select primitive    1 from    2 using    1 C=-1.00D-01
 DoElim1:  L=1 select primitive    1 from    3 using    1 C=-1.00D-01
 DoElim1:  L=1 select primitive    4 from    3 using    2 C=-2.28D-01
 DoElim2:  L=1 select primitive    9 from    2 using    3 C= 1.13D+00
 DoElim2:  L=1 select primitive    9 from    1 using    3 C= 1.13D+00
 DoElim2:  L=1 select primitive    7 from    1 using    2 C= 9.17D-01
 DoElim1:  L=1 select primitive    1 from    2 using    1 C= 1.56D-01
 DoElim1:  L=1 select primitive    1 from    3 using    1 C= 1.56D-01
 DoElim1:  L=1 select primitive    4 from    3 using    2 C= 4.95D-03
 DoElim2:  L=1 select primitive    8 from    2 using    3 C= 5.72D-01
 DoElim2:  L=1 select primitive    8 from    1 using    3 C= 5.72D-01
 DoElim2:  L=1 select primitive    5 from    1 using    2 C= 5.78D-01
 Delete L=1 primitive    7 from    3 C=  0.00D+00.
 Delete L=1 primitive    5 from    3 C=  0.00D+00.
 Delete L=1 primitive    4 from    3 C=  0.00D+00.
 Delete L=1 primitive    3 from    3 C=  0.00D+00.
 Delete L=1 primitive    2 from    3 C=  0.00D+00.
 Delete L=1 primitive    1 from    3 C=  0.00D+00.
 Delete L=1 primitive    9 from    2 C=  0.00D+00.
 Delete L=1 primitive    8 from    2 C=  0.00D+00.
 Delete L=1 primitive    6 from    2 C=  0.00D+00.
 Delete L=1 primitive    3 from    2 C=  0.00D+00.
 Delete L=1 primitive    2 from    2 C=  0.00D+00.
 Delete L=1 primitive    1 from    2 C=  0.00D+00.
 Delete L=1 primitive    9 from    1 C=  0.00D+00.
 Delete L=1 primitive    8 from    1 C=  0.00D+00.
 Delete L=1 primitive    7 from    1 C=  0.00D+00.
 Delete L=1 primitive    6 from    1 C=  0.00D+00.
 Delete L=1 primitive    5 from    1 C=  0.00D+00.
 Delete L=1 primitive    4 from    1 C=  0.00D+00.
 IA=     2 L=1 SC=0 ISt=    0 NBk=    0 NP=    0 IndPr=    9.
 IA=     2 ShT= 2 ShC= 2 NL=   1 NS=   0.
 IA=     2 L=2 SC=2 ISt=    0 NBk=    0 NP=    0 IndPr=    0.
 LdAtmC:  AtmChg=     1.000000    22.000000
 AtZEff=     -1.0000000    -23.9800000
 NEqShl: 
              1            2            3            4
     1            1            1            1            1
     2            2            2            2            2
     3            3            3            3            3
     4            4            4            4            4
     5            5            5            5            5
     6            6            6            6            6
 NEqBas: 
              1            2            3            4
     1            1            1            1            1
     2            2            2            2            2
     3            3            3            3            3
     4            4           -4           -4            4
     5            5           -5            5           -5
     6            6            6            6            6
     7            7            7            7            7
     8            8           -8           -8            8
     9            9           -9            9           -9
    10           10           10           10           10
    11           11           11           11           11
    12           12          -12          -12           12
    13           13          -13           13          -13
    14           14           14           14           14
    15           15           15           15           15
    16           16           16           16           16
    17           17           17           17           17
    18           18           18          -18          -18
    19           19          -19          -19           19
    20           20          -20           20          -20
 There are    11 symmetry adapted cartesian basis functions of A1  symmetry.
   1         1   1   1   1
   2         2   2   2   2
   3         3   3   3   3
   4         6   6   6   6
   5         7   7   7   7
   6        10  10  10  10
   7        11  11  11  11
   8        14  14  14  14
   9        15  15  15  15
  10        16  16  16  16
  11        17  17  17  17
 There are     1 symmetry adapted cartesian basis functions of A2  symmetry.
  12        18  18  18  18
 There are     4 symmetry adapted cartesian basis functions of B1  symmetry.
  13         4   4   4   4
  14         8   8   8   8
  15        12  12  12  12
  16        19  19  19  19
 There are     4 symmetry adapted cartesian basis functions of B2  symmetry.
  17         5   5   5   5
  18         9   9   9   9
  19        13  13  13  13
  20        20  20  20  20
 Order= 1 2 4 3
 Reordered character table:
              1            2            3            4            5
     1            1            1            1            1            1
     2            2            1            1           -1           -1
     3            4            1           -1           -1            1
     4            3            1           -1            1           -1
 NEqShl: 
              1            2            3            4
     1            1            1            1            1
     2            2            2            2            2
     3            3            3            3            3
     4            4            4            4            4
     5            5            5            5            5
     6            6            6            6            6
 NEqBas: 
              1            2            3            4
     1            1            1            1            1
     2            2            2            2            2
     3            3            3            3            3
     4            4           -4           -4            4
     5            5           -5            5           -5
     6            6            6            6            6
     7            7            7            7            7
     8            8           -8           -8            8
     9            9           -9            9           -9
    10           10           10           10           10
    11           11           11           11           11
    12           12          -12          -12           12
    13           13          -13           13          -13
    14           14           14           14           14
    15           15           15           15           15
    16           16          -16          -16           16
    17           17          -17           17          -17
    18           18           18           18           18
    19           19           19          -19          -19
 There are    10 symmetry adapted basis functions of A1  symmetry.
   1         1   1   1   1
   2         2   2   2   2
   3         3   3   3   3
   4         6   6   6   6
   5         7   7   7   7
   6        10  10  10  10
   7        11  11  11  11
   8        14  14  14  14
   9        15  15  15  15
  10        18  18  18  18
 There are     1 symmetry adapted basis functions of A2  symmetry.
  11        19  19  19  19
 There are     4 symmetry adapted basis functions of B1  symmetry.
  12         4   4   4   4
  13         8   8   8   8
  14        12  12  12  12
  15        16  16  16  16
 There are     4 symmetry adapted basis functions of B2  symmetry.
  16         5   5   5   5
  17         9   9   9   9
  18        13  13  13  13
  19        17  17  17  17
 Order= 1 2 4 3
 Reordered character table:
              1            2            3            4            5
     1            1            1            1            1            1
     2            2            1            1           -1           -1
     3            4            1           -1           -1            1
     4            3            1           -1            1           -1
    19 basis functions,    60 primitive gaussians,    20 cartesian basis functions
    14 alpha electrons        9 beta electrons
       nuclear repulsion energy         4.4690589790 Hartrees.
 IS=     1 IAt=     1 ISR=     1 T=0 IP=      1 IndIP=      1 IndIPD=      0 C=  2.769344D-01  0.000000D+00                             NZ=T
 IS=     1 IAt=     1 ISR=     1 T=0 IP=      2 IndIP=      2 IndIPD=      1 C=  2.678389D-01  0.000000D+00                             NZ=T
 IS=     1 IAt=     1 ISR=     1 T=0 IP=      3 IndIP=      3 IndIPD=      2 C=  8.347367D-02  0.000000D+00                             NZ=T
 IS=     2 IAt=     2 ISR=     1 T=0 IP=      1 IndIP=      4 IndIPD=      0 C=  2.004993D+01  0.000000D+00                             NZ=T
 IS=     2 IAt=     2 ISR=     1 T=0 IP=      2 IndIP=      5 IndIPD=      1 C=  1.939142D+01  0.000000D+00                             NZ=T
 IS=     2 IAt=     2 ISR=     1 T=0 IP=      3 IndIP=      6 IndIPD=      2 C=  6.043458D+00  0.000000D+00                             NZ=T
 IS=     3 IAt=     2 ISR=     2 T=1 IP=      1 IndIP=      7 IndIPD=      0 C= -1.820341D+00  4.925761D+01                             NZ=T
 IS=     3 IAt=     2 ISR=     2 T=1 IP=      2 IndIP=      8 IndIPD=      1 C=  2.434854D+00  3.097451D+01                             NZ=T
 IS=     3 IAt=     2 ISR=     2 T=1 IP=      3 IndIP=      9 IndIPD=      2 C=  1.837620D+00  4.906883D+00                             NZ=T
 IS=     4 IAt=     2 ISR=     3 T=1 IP=      1 IndIP=     10 IndIPD=      0 C= -5.746721D-01  5.803915D-02                             NZ=T
 IS=     4 IAt=     2 ISR=     3 T=1 IP=      2 IndIP=     11 IndIPD=      1 C=  2.252897D-01  1.535208D+00                             NZ=T
 IS=     4 IAt=     2 ISR=     3 T=1 IP=      3 IndIP=     12 IndIPD=      2 C=  4.647390D-01  3.915940D-01                             NZ=T
 IS=     5 IAt=     2 ISR=     4 T=1 IP=      1 IndIP=     13 IndIPD=      0 C= -1.706594D-01 -1.133666D-01                             NZ=T
 IS=     5 IAt=     2 ISR=     4 T=1 IP=      2 IndIP=     14 IndIPD=      1 C=  5.129963D-03  1.533382D-01                             NZ=T
 IS=     5 IAt=     2 ISR=     4 T=1 IP=      3 IndIP=     15 IndIPD=      2 C=  1.603140D-01  5.311239D-02                             NZ=T
 IS=     6 IAt=     2 ISR=     5 T=2 IP=      1 IndIP=     16 IndIPD=      1 C=  0.000000D+00  0.000000D+00  8.652016D-01  0.000000D+00 NZ=T
 IS=     6 IAt=     2 ISR=     5 T=2 IP=      2 IndIP=     17 IndIPD=      2 C=  0.000000D+00  0.000000D+00  3.231180D-01  0.000000D+00 NZ=T
 IS=     6 IAt=     2 ISR=     5 T=2 IP=      3 IndIP=     18 IndIPD=      3 C=  0.000000D+00  0.000000D+00  2.668013D-02  0.000000D+00 NZ=T
 IExCor=    0 DFT=F Ex=HF Corr=None ExCW=0 ScaHFX=  1.000000
 ScaDFX=  1.000000  1.000000  1.000000  1.000000 ScalE2=  1.000000  1.000000
 IRadAn=      5 IRanWt=     -1 IRanGd=            0 ICorTp=0 IEmpDi=  4
 NAtoms=    2 NActive=    2 NUniq=    2 SFac= 1.00D+00 NAtFMM=   60 NAOKFM=F Big=F
 Integral buffers will be    131072 words long.
 Raffenetti 2 integral format.
 Two-electron integral symmetry is turned on.
 Leave Link  301 at Tue Apr 12 06:13:20 2022, MaxMem=  9663676416 cpu:               2.0 elap:               0.1
 (Enter /nopt/nrel/apps/gaussian/g16C_1/g16/l302.exe)
 NPDir=0 NMtPBC=     1 NCelOv=     1 NCel=       1 NClECP=     1 NCelD=      1
         NCelK=      1 NCelE2=     1 NClLst=     1 CellRange=     0.0.
 One-electron integrals computed using PRISM.
 One-electron integral symmetry used in STVInt
 Entering OneElI...
 Calculate overlap and kinetic energy integrals
    NBasis =  19  MinDer = 0  MaxDer = 0
 Requested accuracy = 0.1000D-12
 Symmetry will be used
 PrmmSu-InSpLW:  IPartL=    0 NPrtUS=   36 NPrtUL=    1 DoSpLW=F IThBeg=    0 IThEnd=   35 NThAct=   36.
 PrSmSu:  IncTry=   512 NBBP=             21 NTPThr=   100 NPartT=   36 Incr=           1 LDynOK=F GPUOK=F.
 PrsmSu:  NPrtUS=  36 ThrOK=T IAlg=1 LenDen=           0 ISkipM=0 DoSpLW=F IThBeg=    0 IThEnd=   35.
 Prism:   IPart=     0 DynPar=F LinDyn=F Incr=           1.
 PRISM was handed   268432677 working-precision words and    21 shell-pairs
 PRISM was handed   268432677 working-precision words and    21 shell-pairs
 PRISM was handed   268432677 working-precision words and    21 shell-pairs
 PRISM was handed   268432677 working-precision words and    21 shell-pairs
 PRISM was handed   268432677 working-precision words and    21 shell-pairs
 PRISM was handed   268432677 working-precision words and    21 shell-pairs
 PRISM was handed   268432677 working-precision words and    21 shell-pairs
 PRISM was handed   268432677 working-precision words and    21 shell-pairs
 IPart= 26 NShTot=           0 NBatch=           0 AvBLen=         0.0
 IPart= 16 NShTot=           0 NBatch=           0 AvBLen=         0.0
 IPart= 30 NShTot=           0 NBatch=           0 AvBLen=         0.0
 IPart= 24 NShTot=           0 NBatch=           0 AvBLen=         0.0
 IPart= 11 NShTot=           0 NBatch=           0 AvBLen=         0.0
 PRISM was handed   268432677 working-precision words and    21 shell-pairs
 PRISM was handed   268432677 working-precision words and    21 shell-pairs
 PRISM was handed   268432677 working-precision words and    21 shell-pairs
 IPart=  9 NShTot=           0 NBatch=           0 AvBLen=         0.0
 PRISM was handed   268432677 working-precision words and    21 shell-pairs
 IPart= 28 NShTot=           0 NBatch=           0 AvBLen=         0.0
 IPart= 32 NShTot=           0 NBatch=           0 AvBLen=         0.0
 IPart= 14 NShTot=           0 NBatch=           0 AvBLen=         0.0
 IPart= 13 NShTot=           0 NBatch=           0 AvBLen=         0.0
 IPart=  4 NShTot=           2 NBatch=           2 AvBLen=         1.0
 PRISM was handed   268432677 working-precision words and    21 shell-pairs
 PRISM was handed   268432677 working-precision words and    21 shell-pairs
 PRISM was handed   268432677 working-precision words and    21 shell-pairs
 IPart=  7 NShTot=           0 NBatch=           0 AvBLen=         0.0
 PRISM was handed   268432677 working-precision words and    21 shell-pairs
 IPart= 21 NShTot=           0 NBatch=           0 AvBLen=         0.0
 PRISM was handed   268432677 working-precision words and    21 shell-pairs
 PRISM was handed   268432677 working-precision words and    21 shell-pairs
 IPart= 23 NShTot=           0 NBatch=           0 AvBLen=         0.0
 IPart= 33 NShTot=           0 NBatch=           0 AvBLen=         0.0
 PRISM was handed   268432677 working-precision words and    21 shell-pairs
 PRISM was handed   268432677 working-precision words and    21 shell-pairs
 PRISM was handed   268432677 working-precision words and    21 shell-pairs
 PRISM was handed   268432677 working-precision words and    21 shell-pairs
 PRISM was handed   268432677 working-precision words and    21 shell-pairs
 PRISM was handed   268432677 working-precision words and    21 shell-pairs
 IPart=  1 NShTot=           5 NBatch=           5 AvBLen=         1.0
 IPart= 12 NShTot=           0 NBatch=           0 AvBLen=         0.0
 PRISM was handed   268432677 working-precision words and    21 shell-pairs
 PRISM was handed   268432677 working-precision words and    21 shell-pairs
 PRISM was handed   268432677 working-precision words and    21 shell-pairs
 PRISM was handed   268432677 working-precision words and    21 shell-pairs
 PRISM was handed   268432677 working-precision words and    21 shell-pairs
 PRISM was handed   268432677 working-precision words and    21 shell-pairs
 PRISM was handed   268432677 working-precision words and    21 shell-pairs
 PRISM was handed   268432677 working-precision words and    21 shell-pairs
 PRISM was handed   268432677 working-precision words and    21 shell-pairs
 PRISM was handed   268432677 working-precision words and    21 shell-pairs
 PRISM was handed   268432677 working-precision words and    21 shell-pairs
 PRISM was handed   268432677 working-precision words and    21 shell-pairs
 IPart=  0 NShTot=           8 NBatch=           8 AvBLen=         1.0
 IPart= 27 NShTot=           0 NBatch=           0 AvBLen=         0.0
 IPart= 19 NShTot=           0 NBatch=           0 AvBLen=         0.0
 IPart=  5 NShTot=           1 NBatch=           1 AvBLen=         1.0
 IPart=  3 NShTot=           2 NBatch=           2 AvBLen=         1.0
 IPart= 31 NShTot=           0 NBatch=           0 AvBLen=         0.0
 IPart= 15 NShTot=           0 NBatch=           0 AvBLen=         0.0
 IPart= 17 NShTot=           0 NBatch=           0 AvBLen=         0.0
 IPart= 22 NShTot=           0 NBatch=           0 AvBLen=         0.0
 IPart= 29 NShTot=           0 NBatch=           0 AvBLen=         0.0
 IPart= 10 NShTot=           0 NBatch=           0 AvBLen=         0.0
 IPart= 18 NShTot=           0 NBatch=           0 AvBLen=         0.0
 IPart=  2 NShTot=           3 NBatch=           3 AvBLen=         1.0
 IPart= 34 NShTot=           0 NBatch=           0 AvBLen=         0.0
 IPart= 20 NShTot=           0 NBatch=           0 AvBLen=         0.0
 IPart=  8 NShTot=           0 NBatch=           0 AvBLen=         0.0
 IPart=  6 NShTot=           0 NBatch=           0 AvBLen=         0.0
 IPart= 35 NShTot=           0 NBatch=           0 AvBLen=         0.0
 IPart= 25 NShTot=           0 NBatch=           0 AvBLen=         0.0
 PrSmSu:  NxtVal=             37.
 *** Overlap *** 
                1             2             3             4             5 
      1  0.100000D+01
      2  0.193273D-03  0.100000D+01
      3  0.137656D-02  0.371775D+00  0.100000D+01
      4  0.000000D+00  0.000000D+00  0.000000D+00  0.100000D+01
      5  0.000000D+00  0.000000D+00  0.000000D+00  0.000000D+00  0.100000D+01
      6 -0.595013D-03  0.000000D+00  0.000000D+00  0.000000D+00  0.000000D+00
      7  0.127311D-01  0.223608D-01  0.300384D+00  0.000000D+00  0.000000D+00
      8  0.000000D+00  0.000000D+00  0.000000D+00  0.313309D+00  0.000000D+00
      9  0.000000D+00  0.000000D+00  0.000000D+00  0.000000D+00  0.313309D+00
     10 -0.140885D-01  0.000000D+00  0.000000D+00  0.000000D+00  0.000000D+00
     11  0.127222D+00 -0.412730D-03  0.136941D-01  0.000000D+00  0.000000D+00
     12  0.000000D+00  0.000000D+00  0.000000D+00  0.250808D-01  0.000000D+00
     13  0.000000D+00  0.000000D+00  0.000000D+00  0.000000D+00  0.250808D-01
     14 -0.190345D+00  0.000000D+00  0.000000D+00  0.000000D+00  0.000000D+00
     15  0.802424D-01  0.000000D+00  0.000000D+00  0.000000D+00  0.000000D+00
     16  0.000000D+00  0.000000D+00  0.000000D+00  0.000000D+00  0.000000D+00
     17  0.000000D+00  0.000000D+00  0.000000D+00  0.000000D+00  0.000000D+00
     18  0.000000D+00  0.000000D+00  0.000000D+00  0.000000D+00  0.000000D+00
     19  0.000000D+00  0.000000D+00  0.000000D+00  0.000000D+00  0.000000D+00
                6             7             8             9            10 
      6  0.100000D+01
      7  0.000000D+00  0.100000D+01
      8  0.000000D+00  0.000000D+00  0.100000D+01
      9  0.000000D+00  0.000000D+00  0.000000D+00  0.100000D+01
     10  0.313309D+00  0.000000D+00  0.000000D+00  0.000000D+00  0.100000D+01
     11  0.000000D+00  0.395149D+00  0.000000D+00  0.000000D+00  0.000000D+00
     12  0.000000D+00  0.000000D+00  0.407435D+00  0.000000D+00  0.000000D+00
     13  0.000000D+00  0.000000D+00  0.000000D+00  0.407435D+00  0.000000D+00
     14  0.250808D-01  0.000000D+00  0.000000D+00  0.000000D+00  0.407435D+00
     15  0.000000D+00  0.000000D+00  0.000000D+00  0.000000D+00  0.000000D+00
     16  0.000000D+00  0.000000D+00  0.000000D+00  0.000000D+00  0.000000D+00
     17  0.000000D+00  0.000000D+00  0.000000D+00  0.000000D+00  0.000000D+00
     18  0.000000D+00  0.000000D+00  0.000000D+00  0.000000D+00  0.000000D+00
     19  0.000000D+00  0.000000D+00  0.000000D+00  0.000000D+00  0.000000D+00
               11            12            13            14            15 
     11  0.100000D+01
     12  0.000000D+00  0.100000D+01
     13  0.000000D+00  0.000000D+00  0.100000D+01
     14  0.000000D+00  0.000000D+00  0.000000D+00  0.100000D+01
     15  0.000000D+00  0.000000D+00  0.000000D+00  0.000000D+00  0.100000D+01
     16  0.000000D+00  0.000000D+00  0.000000D+00  0.000000D+00  0.000000D+00
     17  0.000000D+00  0.000000D+00  0.000000D+00  0.000000D+00  0.000000D+00
     18  0.000000D+00  0.000000D+00  0.000000D+00  0.000000D+00  0.000000D+00
     19  0.000000D+00  0.000000D+00  0.000000D+00  0.000000D+00  0.000000D+00
               16            17            18            19 
     16  0.100000D+01
     17  0.000000D+00  0.100000D+01
     18  0.000000D+00  0.000000D+00  0.100000D+01
     19  0.000000D+00  0.000000D+00  0.000000D+00  0.100000D+01
 *** Kinetic Energy *** 
                1             2             3             4             5 
      1  0.760032D+00
      2 -0.168268D-03  0.229340D+03
      3 -0.112988D-02  0.137973D+01  0.120824D+02
      4  0.000000D+00  0.000000D+00  0.000000D+00  0.378073D+02
      5  0.000000D+00  0.000000D+00  0.000000D+00  0.000000D+00  0.378073D+02
      6  0.297615D-03  0.000000D+00  0.000000D+00  0.000000D+00  0.000000D+00
      7 -0.680280D-02 -0.798994D+00 -0.840664D+00  0.000000D+00  0.000000D+00
      8  0.000000D+00  0.000000D+00  0.000000D+00  0.187471D+01  0.000000D+00
      9  0.000000D+00  0.000000D+00  0.000000D+00  0.000000D+00  0.187471D+01
     10  0.494368D-02  0.000000D+00  0.000000D+00  0.000000D+00  0.000000D+00
     11 -0.707952D-02 -0.407071D-01 -0.207745D+00  0.000000D+00  0.000000D+00
     12  0.000000D+00  0.000000D+00  0.000000D+00 -0.209473D-01  0.000000D+00
     13  0.000000D+00  0.000000D+00  0.000000D+00  0.000000D+00 -0.209473D-01
     14 -0.356016D-02  0.000000D+00  0.000000D+00  0.000000D+00  0.000000D+00
     15  0.237472D-02  0.000000D+00  0.000000D+00  0.000000D+00  0.000000D+00
     16  0.000000D+00  0.000000D+00  0.000000D+00  0.000000D+00  0.000000D+00
     17  0.000000D+00  0.000000D+00  0.000000D+00  0.000000D+00  0.000000D+00
     18  0.000000D+00  0.000000D+00  0.000000D+00  0.000000D+00  0.000000D+00
     19  0.000000D+00  0.000000D+00  0.000000D+00  0.000000D+00  0.000000D+00
                6             7             8             9            10 
      6  0.378073D+02
      7  0.000000D+00  0.116813D+01
      8  0.000000D+00  0.000000D+00  0.275070D+01
      9  0.000000D+00  0.000000D+00  0.000000D+00  0.275070D+01
     10  0.187471D+01  0.000000D+00  0.000000D+00  0.000000D+00  0.275070D+01
     11  0.000000D+00 -0.927537D-01  0.000000D+00  0.000000D+00  0.000000D+00
     12  0.000000D+00  0.000000D+00  0.199329D+00  0.000000D+00  0.000000D+00
     13  0.000000D+00  0.000000D+00  0.000000D+00  0.199329D+00  0.000000D+00
     14 -0.209473D-01  0.000000D+00  0.000000D+00  0.000000D+00  0.199329D+00
     15  0.000000D+00  0.000000D+00  0.000000D+00  0.000000D+00  0.000000D+00
     16  0.000000D+00  0.000000D+00  0.000000D+00  0.000000D+00  0.000000D+00
     17  0.000000D+00  0.000000D+00  0.000000D+00  0.000000D+00  0.000000D+00
     18  0.000000D+00  0.000000D+00  0.000000D+00  0.000000D+00  0.000000D+00
     19  0.000000D+00  0.000000D+00  0.000000D+00  0.000000D+00  0.000000D+00
               11            12            13            14            15 
     11  0.207443D+00
     12  0.000000D+00  0.409500D+00
     13  0.000000D+00  0.000000D+00  0.409500D+00
     14  0.000000D+00  0.000000D+00  0.000000D+00  0.409500D+00
     15  0.000000D+00  0.000000D+00  0.000000D+00  0.000000D+00  0.180044D+01
     16  0.000000D+00  0.000000D+00  0.000000D+00  0.000000D+00  0.000000D+00
     17  0.000000D+00  0.000000D+00  0.000000D+00  0.000000D+00  0.000000D+00
     18  0.000000D+00  0.000000D+00  0.000000D+00  0.000000D+00  0.000000D+00
     19  0.000000D+00  0.000000D+00  0.000000D+00  0.000000D+00  0.000000D+00
               16            17            18            19 
     16  0.180044D+01
     17  0.000000D+00  0.180044D+01
     18  0.000000D+00  0.000000D+00  0.180044D+01
     19  0.000000D+00  0.000000D+00  0.000000D+00  0.180044D+01
 Entering OneElI...
 Calculate potential energy integrals
    NBasis =  19  MinDer = 0  MaxDer = 0
 Requested accuracy = 0.1000D-12
 Symmetry will be used
 PrmmSu-InSpLW:  IPartL=    0 NPrtUS=   36 NPrtUL=    1 DoSpLW=F IThBeg=    0 IThEnd=   35 NThAct=   36.
 PrSmSu:  IncTry=   512 NBBP=             42 NTPThr=   100 NPartT=   36 Incr=           1 LDynOK=F GPUOK=F.
 PrsmSu:  NPrtUS=  36 ThrOK=T IAlg=1 LenDen=           0 ISkipM=0 DoSpLW=F IThBeg=    0 IThEnd=   35.
 Prism:   IPart=     0 DynPar=F LinDyn=F Incr=           1.
 PRISM was handed   268432888 working-precision words and    21 shell-pairs
 PRISM was handed   268432888 working-precision words and    21 shell-pairs
 PRISM was handed   268432888 working-precision words and    21 shell-pairs
 PRISM was handed   268432888 working-precision words and    21 shell-pairs
 PRISM was handed   268432888 working-precision words and    21 shell-pairs
 PRISM was handed   268432888 working-precision words and    21 shell-pairs
 PRISM was handed   268432888 working-precision words and    21 shell-pairs
 PRISM was handed   268432888 working-precision words and    21 shell-pairs
 PRISM was handed   268432888 working-precision words and    21 shell-pairs
 PRISM was handed   268432888 working-precision words and    21 shell-pairs
 PRISM was handed   268432888 working-precision words and    21 shell-pairs
 PRISM was handed   268432888 working-precision words and    21 shell-pairs
 PRISM was handed   268432888 working-precision words and    21 shell-pairs
 PRISM was handed   268432888 working-precision words and    21 shell-pairs
 PRISM was handed   268432888 working-precision words and    21 shell-pairs
 PRISM was handed   268432888 working-precision words and    21 shell-pairs
 PRISM was handed   268432888 working-precision words and    21 shell-pairs
 PRISM was handed   268432888 working-precision words and    21 shell-pairs
 PRISM was handed   268432888 working-precision words and    21 shell-pairs
 PRISM was handed   268432888 working-precision words and    21 shell-pairs
 PRISM was handed   268432888 working-precision words and    21 shell-pairs
 PRISM was handed   268432888 working-precision words and    21 shell-pairs
 PRISM was handed   268432888 working-precision words and    21 shell-pairs
 PRISM was handed   268432888 working-precision words and    21 shell-pairs
 PRISM was handed   268432888 working-precision words and    21 shell-pairs
 PRISM was handed   268432888 working-precision words and    21 shell-pairs
 PRISM was handed   268432888 working-precision words and    21 shell-pairs
 PRISM was handed   268432888 working-precision words and    21 shell-pairs
 PRISM was handed   268432888 working-precision words and    21 shell-pairs
 PRISM was handed   268432888 working-precision words and    21 shell-pairs
 PRISM was handed   268432888 working-precision words and    21 shell-pairs
 PRISM was handed   268432888 working-precision words and    21 shell-pairs
 PRISM was handed   268432888 working-precision words and    21 shell-pairs
 PRISM was handed   268432888 working-precision words and    21 shell-pairs
 PRISM was handed   268432888 working-precision words and    21 shell-pairs
 PRISM was handed   268432888 working-precision words and    21 shell-pairs
 IPart= 16 NShTot=           0 NBatch=           0 AvBLen=         0.0
 IPart= 32 NShTot=           0 NBatch=           0 AvBLen=         0.0
 IPart=  8 NShTot=           0 NBatch=           0 AvBLen=         0.0
 IPart=  6 NShTot=           0 NBatch=           0 AvBLen=         0.0
 IPart= 22 NShTot=           0 NBatch=           0 AvBLen=         0.0
 IPart= 11 NShTot=           0 NBatch=           0 AvBLen=         0.0
 IPart= 13 NShTot=           0 NBatch=           0 AvBLen=         0.0
 IPart= 15 NShTot=           0 NBatch=           0 AvBLen=         0.0
 IPart=  7 NShTot=           0 NBatch=           0 AvBLen=         0.0
 IPart=  9 NShTot=           0 NBatch=           0 AvBLen=         0.0
 IPart= 24 NShTot=           0 NBatch=           0 AvBLen=         0.0
 IPart= 23 NShTot=           0 NBatch=           0 AvBLen=         0.0
 IPart= 34 NShTot=           0 NBatch=           0 AvBLen=         0.0
 IPart= 27 NShTot=           0 NBatch=           0 AvBLen=         0.0
 IPart= 35 NShTot=           0 NBatch=           0 AvBLen=         0.0
 IPart= 18 NShTot=           0 NBatch=           0 AvBLen=         0.0
 IPart= 17 NShTot=           0 NBatch=           0 AvBLen=         0.0
 IPart= 21 NShTot=           0 NBatch=           0 AvBLen=         0.0
 IPart= 31 NShTot=           0 NBatch=           0 AvBLen=         0.0
 IPart= 20 NShTot=           0 NBatch=           0 AvBLen=         0.0
 IPart= 12 NShTot=           0 NBatch=           0 AvBLen=         0.0
 IPart= 14 NShTot=           0 NBatch=           0 AvBLen=         0.0
 IPart= 29 NShTot=           0 NBatch=           0 AvBLen=         0.0
 IPart= 30 NShTot=           0 NBatch=           0 AvBLen=         0.0
 IPart= 10 NShTot=           0 NBatch=           0 AvBLen=         0.0
 IPart= 33 NShTot=           0 NBatch=           0 AvBLen=         0.0
 IPart=  4 NShTot=           2 NBatch=           1 AvBLen=         2.0
 IPart= 19 NShTot=           0 NBatch=           0 AvBLen=         0.0
 IPart=  1 NShTot=          10 NBatch=           5 AvBLen=         2.0
 IPart=  5 NShTot=           2 NBatch=           1 AvBLen=         2.0
 IPart=  2 NShTot=           6 NBatch=           3 AvBLen=         2.0
 IPart= 28 NShTot=           0 NBatch=           0 AvBLen=         0.0
 IPart=  3 NShTot=           4 NBatch=           2 AvBLen=         2.0
 IPart= 26 NShTot=           0 NBatch=           0 AvBLen=         0.0
 IPart=  0 NShTot=          18 NBatch=           9 AvBLen=         2.0
 IPart= 25 NShTot=           0 NBatch=           0 AvBLen=         0.0
 PrSmSu:  NxtVal=             37.
 ***** Potential Energy ***** 
                1             2             3             4             5 
      1  0.569563D+01
      2  0.466651D-01  0.468967D+03
      3  0.883882D-01  0.902214D+02  0.964552D+02
      4  0.000000D+00  0.000000D+00  0.000000D+00  0.956845D+02
      5  0.000000D+00  0.000000D+00  0.000000D+00  0.000000D+00  0.956845D+02
      6 -0.288395D-01 -0.112423D-02 -0.684266D-02  0.000000D+00  0.000000D+00
      7  0.218752D+00  0.472463D+01  0.170226D+02  0.000000D+00  0.000000D+00
      8  0.000000D+00  0.000000D+00  0.000000D+00  0.174497D+02  0.000000D+00
      9  0.000000D+00  0.000000D+00  0.000000D+00  0.000000D+00  0.174497D+02
     10 -0.207242D+00 -0.780828D-04 -0.342344D-02  0.000000D+00  0.000000D+00
     11  0.892379D+00 -0.133752D+00  0.484190D+00  0.000000D+00  0.000000D+00
     12  0.000000D+00  0.000000D+00  0.000000D+00  0.120343D+01  0.000000D+00
     13  0.000000D+00  0.000000D+00  0.000000D+00  0.000000D+00  0.120343D+01
     14 -0.129412D+01 -0.398255D-05 -0.302952D-03  0.000000D+00  0.000000D+00
     15  0.608910D+00  0.000000D+00  0.944411D-04  0.000000D+00  0.000000D+00
     16  0.000000D+00  0.000000D+00  0.000000D+00 -0.815105D-03  0.000000D+00
     17  0.000000D+00  0.000000D+00  0.000000D+00  0.000000D+00 -0.815105D-03
     18  0.000000D+00  0.000000D+00  0.000000D+00  0.000000D+00  0.000000D+00
     19  0.000000D+00  0.000000D+00  0.000000D+00  0.000000D+00  0.000000D+00
                6             7             8             9            10 
      6  0.956850D+02
      7 -0.357535D-02  0.254371D+02
      8  0.000000D+00  0.000000D+00  0.254789D+02
      9  0.000000D+00  0.000000D+00  0.000000D+00  0.254789D+02
     10  0.174501D+02 -0.242243D-01  0.000000D+00  0.000000D+00  0.254849D+02
     11 -0.241330D-03  0.652202D+01  0.000000D+00  0.000000D+00 -0.149300D-01
     12  0.000000D+00  0.000000D+00  0.683950D+01  0.000000D+00  0.000000D+00
     13  0.000000D+00  0.000000D+00  0.000000D+00  0.683950D+01  0.000000D+00
     14  0.120348D+01 -0.143227D-01  0.000000D+00  0.000000D+00  0.684495D+01
     15 -0.960617D-03  0.524910D-02  0.000000D+00  0.000000D+00 -0.219816D-01
     16  0.000000D+00  0.000000D+00 -0.170598D-01  0.000000D+00  0.000000D+00
     17  0.000000D+00  0.000000D+00  0.000000D+00 -0.170598D-01  0.000000D+00
     18  0.000000D+00  0.000000D+00  0.000000D+00  0.000000D+00  0.000000D+00
     19  0.000000D+00  0.000000D+00  0.000000D+00  0.000000D+00  0.000000D+00
               11            12            13            14            15 
     11  0.955823D+01
     12  0.000000D+00  0.954555D+01
     13  0.000000D+00  0.000000D+00  0.954555D+01
     14 -0.626444D-01  0.000000D+00  0.000000D+00  0.958394D+01
     15  0.181657D-01  0.000000D+00  0.000000D+00 -0.489259D-01  0.141124D+02
     16  0.000000D+00 -0.314528D-01  0.000000D+00  0.000000D+00  0.000000D+00
     17  0.000000D+00  0.000000D+00 -0.314528D-01  0.000000D+00  0.000000D+00
     18  0.000000D+00  0.000000D+00  0.000000D+00  0.000000D+00  0.000000D+00
     19  0.000000D+00  0.000000D+00  0.000000D+00  0.000000D+00  0.000000D+00
               16            17            18            19 
     16  0.141038D+02
     17  0.000000D+00  0.141038D+02
     18  0.000000D+00  0.000000D+00  0.140918D+02
     19  0.000000D+00  0.000000D+00  0.000000D+00  0.140918D+02
 ****** Core Hamiltonian ****** 
                1             2             3             4             5 
      1 -0.493559D+01
      2 -0.468334D-01 -0.239627D+03
      3 -0.895181D-01 -0.888417D+02 -0.843728D+02
      4  0.000000D+00  0.000000D+00  0.000000D+00 -0.578772D+02
      5  0.000000D+00  0.000000D+00  0.000000D+00  0.000000D+00 -0.578772D+02
      6  0.291371D-01  0.112423D-02  0.684266D-02  0.000000D+00  0.000000D+00
      7 -0.225555D+00 -0.552363D+01 -0.178633D+02  0.000000D+00  0.000000D+00
      8  0.000000D+00  0.000000D+00  0.000000D+00 -0.155750D+02  0.000000D+00
      9  0.000000D+00  0.000000D+00  0.000000D+00  0.000000D+00 -0.155750D+02
     10  0.212186D+00  0.780828D-04  0.342344D-02  0.000000D+00  0.000000D+00
     11 -0.899459D+00  0.930447D-01 -0.691936D+00  0.000000D+00  0.000000D+00
     12  0.000000D+00  0.000000D+00  0.000000D+00 -0.122438D+01  0.000000D+00
     13  0.000000D+00  0.000000D+00  0.000000D+00  0.000000D+00 -0.122438D+01
     14  0.129056D+01  0.398255D-05  0.302952D-03  0.000000D+00  0.000000D+00
     15 -0.606535D+00  0.000000D+00 -0.944411D-04  0.000000D+00  0.000000D+00
     16  0.000000D+00  0.000000D+00  0.000000D+00  0.815105D-03  0.000000D+00
     17  0.000000D+00  0.000000D+00  0.000000D+00  0.000000D+00  0.815105D-03
     18  0.000000D+00  0.000000D+00  0.000000D+00  0.000000D+00  0.000000D+00
     19  0.000000D+00  0.000000D+00  0.000000D+00  0.000000D+00  0.000000D+00
                6             7             8             9            10 
      6 -0.578777D+02
      7  0.357535D-02 -0.242689D+02
      8  0.000000D+00  0.000000D+00 -0.227282D+02
      9  0.000000D+00  0.000000D+00  0.000000D+00 -0.227282D+02
     10 -0.155754D+02  0.242243D-01  0.000000D+00  0.000000D+00 -0.227342D+02
     11  0.241330D-03 -0.661478D+01  0.000000D+00  0.000000D+00  0.149300D-01
     12  0.000000D+00  0.000000D+00 -0.664017D+01  0.000000D+00  0.000000D+00
     13  0.000000D+00  0.000000D+00  0.000000D+00 -0.664017D+01  0.000000D+00
     14 -0.122442D+01  0.143227D-01  0.000000D+00  0.000000D+00 -0.664562D+01
     15  0.960617D-03 -0.524910D-02  0.000000D+00  0.000000D+00  0.219816D-01
     16  0.000000D+00  0.000000D+00  0.170598D-01  0.000000D+00  0.000000D+00
     17  0.000000D+00  0.000000D+00  0.000000D+00  0.170598D-01  0.000000D+00
     18  0.000000D+00  0.000000D+00  0.000000D+00  0.000000D+00  0.000000D+00
     19  0.000000D+00  0.000000D+00  0.000000D+00  0.000000D+00  0.000000D+00
               11            12            13            14            15 
     11 -0.935079D+01
     12  0.000000D+00 -0.913605D+01
     13  0.000000D+00  0.000000D+00 -0.913605D+01
     14  0.626444D-01  0.000000D+00  0.000000D+00 -0.917444D+01
     15 -0.181657D-01  0.000000D+00  0.000000D+00  0.489259D-01 -0.123120D+02
     16  0.000000D+00  0.314528D-01  0.000000D+00  0.000000D+00  0.000000D+00
     17  0.000000D+00  0.000000D+00  0.314528D-01  0.000000D+00  0.000000D+00
     18  0.000000D+00  0.000000D+00  0.000000D+00  0.000000D+00  0.000000D+00
     19  0.000000D+00  0.000000D+00  0.000000D+00  0.000000D+00  0.000000D+00
               16            17            18            19 
     16 -0.123034D+02
     17  0.000000D+00 -0.123034D+02
     18  0.000000D+00  0.000000D+00 -0.122914D+02
     19  0.000000D+00  0.000000D+00  0.000000D+00 -0.122914D+02
 SVDSVc IOpt=   1 NormSV=T IR=1
 SVDSVc V= 1.59D+00 1.55D+00 1.27D+00 1.11D+00 1.00D+00 9.92D-01 8.60D-01 7.04D-01 4.80D-01 4.47D-01
 SVDSVc IOpt=   1 NormSV=T IR=2
 SVDSVc V= 1.00D+00
 SVDSVc IOpt=   1 NormSV=T IR=3
 SVDSVc V= 1.53D+00 1.00D+00 9.76D-01 4.98D-01
 SVDSVc IOpt=   1 NormSV=T IR=4
 SVDSVc V= 1.53D+00 1.00D+00 9.76D-01 4.98D-01
 TstOVc:  Largest diagonal error= 1.33D-15 IB=1 I=    4.
 TstOVc:  Largest same sym error= 6.11D-16 IB=1 I=    7 J=    6.
 TstOVc:  Largest diff sym error= 0.00D+00 IB=0 JB=0 I=    0 J=    0.
 Orthogonalized basis functions: 
                 1             2             3             4             5 
      1   0.144005D+00 -0.142001D+00 -0.263645D+00  0.567042D+00  0.000000D+00
      2   0.268589D+00  0.129618D+00  0.498116D+00  0.205296D+00  0.000000D+00
      3   0.400885D+00  0.181479D+00  0.376377D+00  0.721838D-01  0.000000D+00
      4   0.000000D+00  0.000000D+00  0.000000D+00  0.000000D+00  0.000000D+00
      5   0.000000D+00  0.000000D+00  0.000000D+00  0.000000D+00  0.000000D+00
      6  -0.988960D-01  0.307381D+00 -0.121692D+00  0.428345D+00  0.000000D+00
      7   0.440618D+00  0.167672D+00 -0.255418D+00 -0.224310D+00  0.000000D+00
      8   0.000000D+00  0.000000D+00  0.000000D+00  0.000000D+00  0.000000D+00
      9   0.000000D+00  0.000000D+00  0.000000D+00  0.000000D+00  0.000000D+00
     10  -0.172750D+00  0.503319D+00 -0.106394D+00  0.168766D+00  0.000000D+00
     11   0.334608D+00  0.922160D-01 -0.480165D+00 -0.145563D+00  0.000000D+00
     12   0.000000D+00  0.000000D+00  0.000000D+00  0.000000D+00  0.000000D+00
     13   0.000000D+00  0.000000D+00  0.000000D+00  0.000000D+00  0.000000D+00
     14  -0.169623D+00  0.436852D+00  0.140237D-01 -0.265413D+00  0.000000D+00
     15   0.195466D-01 -0.207570D-01 -0.784283D-01  0.424790D+00  0.000000D+00
     16   0.000000D+00  0.000000D+00  0.000000D+00  0.000000D+00  0.000000D+00
     17   0.000000D+00  0.000000D+00  0.000000D+00  0.000000D+00  0.000000D+00
     18   0.000000D+00  0.000000D+00  0.000000D+00  0.000000D+00  0.100000D+01
     19   0.000000D+00  0.000000D+00  0.000000D+00  0.000000D+00  0.000000D+00
                 6             7             8             9            10 
      1  -0.809562D-01  0.655140D+00 -0.300870D+00 -0.248608D+00  0.224888D+00
      2  -0.208334D-01  0.217726D+00  0.686060D+00  0.193971D+00  0.488647D+00
      3  -0.107228D-02 -0.675993D-01 -0.522733D+00 -0.287165D+00 -0.779773D+00
      4   0.000000D+00  0.000000D+00  0.000000D+00  0.000000D+00  0.000000D+00
      5   0.000000D+00  0.000000D+00  0.000000D+00  0.000000D+00  0.000000D+00
      6  -0.456723D+00 -0.540051D+00  0.141674D+00 -0.529030D+00  0.149376D+00
      7   0.259981D-01 -0.245700D+00 -0.362556D+00  0.264127D+00  0.859930D+00
      8   0.000000D+00  0.000000D+00  0.000000D+00  0.000000D+00  0.000000D+00
      9   0.000000D+00  0.000000D+00  0.000000D+00  0.000000D+00  0.000000D+00
     10  -0.164998D-01  0.213882D+00 -0.132348D+00  0.941736D+00 -0.285864D+00
     11   0.408012D-02  0.105184D+00  0.639417D+00 -0.132193D+00 -0.646197D+00
     12   0.000000D+00  0.000000D+00  0.000000D+00  0.000000D+00  0.000000D+00
     13   0.000000D+00  0.000000D+00  0.000000D+00  0.000000D+00  0.000000D+00
     14   0.348733D+00  0.364302D+00 -0.233421D-01 -0.803498D+00  0.281104D+00
     15   0.818435D+00 -0.374751D+00  0.816855D-01  0.383698D-01 -0.326153D-01
     16   0.000000D+00  0.000000D+00  0.000000D+00  0.000000D+00  0.000000D+00
     17   0.000000D+00  0.000000D+00  0.000000D+00  0.000000D+00  0.000000D+00
     18   0.000000D+00  0.000000D+00  0.000000D+00  0.000000D+00  0.000000D+00
     19   0.000000D+00  0.000000D+00  0.000000D+00  0.000000D+00  0.000000D+00
                11            12            13            14            15 
      1   0.000000D+00  0.000000D+00  0.000000D+00  0.000000D+00  0.000000D+00
      2   0.000000D+00  0.000000D+00  0.000000D+00  0.000000D+00  0.000000D+00
      3   0.000000D+00  0.000000D+00  0.000000D+00  0.000000D+00  0.000000D+00
      4   0.000000D+00  0.358362D+00  0.000000D+00  0.802807D+00 -0.593005D+00
      5   0.000000D+00  0.000000D+00  0.000000D+00  0.000000D+00  0.000000D+00
      6   0.000000D+00  0.000000D+00  0.000000D+00  0.000000D+00  0.000000D+00
      7   0.000000D+00  0.000000D+00  0.000000D+00  0.000000D+00  0.000000D+00
      8   0.000000D+00  0.565532D+00  0.000000D+00 -0.127423D-01  0.101370D+01
      9   0.000000D+00  0.000000D+00  0.000000D+00  0.000000D+00  0.000000D+00
     10   0.000000D+00  0.000000D+00  0.000000D+00  0.000000D+00  0.000000D+00
     11   0.000000D+00  0.000000D+00  0.000000D+00  0.000000D+00  0.000000D+00
     12   0.000000D+00  0.454909D+00  0.000000D+00 -0.616584D+00 -0.793056D+00
     13   0.000000D+00  0.000000D+00  0.000000D+00  0.000000D+00  0.000000D+00
     14   0.000000D+00  0.000000D+00  0.000000D+00  0.000000D+00  0.000000D+00
     15   0.000000D+00  0.000000D+00  0.000000D+00  0.000000D+00  0.000000D+00
     16   0.000000D+00  0.000000D+00  0.100000D+01  0.000000D+00  0.000000D+00
     17   0.000000D+00  0.000000D+00  0.000000D+00  0.000000D+00  0.000000D+00
     18   0.000000D+00  0.000000D+00  0.000000D+00  0.000000D+00  0.000000D+00
     19   0.100000D+01  0.000000D+00  0.000000D+00  0.000000D+00  0.000000D+00
                16            17            18            19 
      1   0.000000D+00  0.000000D+00  0.000000D+00  0.000000D+00
      2   0.000000D+00  0.000000D+00  0.000000D+00  0.000000D+00
      3   0.000000D+00  0.000000D+00  0.000000D+00  0.000000D+00
      4   0.000000D+00  0.000000D+00  0.000000D+00  0.000000D+00
      5   0.358362D+00  0.000000D+00  0.802807D+00 -0.593005D+00
      6   0.000000D+00  0.000000D+00  0.000000D+00  0.000000D+00
      7   0.000000D+00  0.000000D+00  0.000000D+00  0.000000D+00
      8   0.000000D+00  0.000000D+00  0.000000D+00  0.000000D+00
      9   0.565532D+00  0.000000D+00 -0.127423D-01  0.101370D+01
     10   0.000000D+00  0.000000D+00  0.000000D+00  0.000000D+00
     11   0.000000D+00  0.000000D+00  0.000000D+00  0.000000D+00
     12   0.000000D+00  0.000000D+00  0.000000D+00  0.000000D+00
     13   0.454909D+00  0.000000D+00 -0.616584D+00 -0.793056D+00
     14   0.000000D+00  0.000000D+00  0.000000D+00  0.000000D+00
     15   0.000000D+00  0.000000D+00  0.000000D+00  0.000000D+00
     16   0.000000D+00  0.000000D+00  0.000000D+00  0.000000D+00
     17   0.000000D+00  0.100000D+01  0.000000D+00  0.000000D+00
     18   0.000000D+00  0.000000D+00  0.000000D+00  0.000000D+00
     19   0.000000D+00  0.000000D+00  0.000000D+00  0.000000D+00
 NBasis=    19 RedAO= T EigKep=  4.47D-01  NBF=    10     1     4     4
 NBsUse=    19 1.00D-06 EigRej= -1.00D+00 NBFU=    10     1     4     4
 Leave Link  302 at Tue Apr 12 06:13:20 2022, MaxMem=  9663676416 cpu:               4.6 elap:               0.2
 (Enter /nopt/nrel/apps/gaussian/g16C_1/g16/l303.exe)
 DipDrv will not compute anything.
 Fermi contact integrals: 
                 1             2 
      1   0.628247D+00  0.139466D-02
      2   0.000000D+00  0.454848D+02
      3   0.000000D+00  0.245213D+01
      4   0.000000D+00  0.000000D+00
      5   0.000000D+00  0.000000D+00
      6   0.000000D+00  0.000000D+00
      7   0.000000D+00  0.115357D+00
      8   0.000000D+00  0.000000D+00
      9   0.000000D+00  0.000000D+00
     10   0.000000D+00  0.000000D+00
     11   0.963006D-02 -0.521539D-02
     12   0.000000D+00  0.000000D+00
     13   0.000000D+00  0.000000D+00
     14  -0.169836D-01  0.000000D+00
     15   0.595425D-02  0.000000D+00
     16   0.000000D+00  0.000000D+00
     17   0.000000D+00  0.000000D+00
     18   0.000000D+00  0.000000D+00
     19   0.000000D+00  0.000000D+00
 Leave Link  303 at Tue Apr 12 06:13:20 2022, MaxMem=  9663676416 cpu:               1.1 elap:               0.1
 (Enter /nopt/nrel/apps/gaussian/g16C_1/g16/l401.exe)
 ExpMin= 1.16D-01 ExpMax= 1.03D+03 ExpMxC= 1.03D+03 IAcc=3 IRadAn=         5 AccDes= 0.00D+00
 Harris functional with IExCor=  205 and IRadAn=       5 diagonalized for initial guess.
 HarFok:  IExCor=  205 AccDes= 0.00D+00 IRadAn=         5 IDoV= 1 UseB2=F ITyADJ=14
 ICtDFT=  3500011 ScaDFX=  1.000000  1.000000  1.000000  1.000000
 FoFCou: FMM=F IPFlag=           0 FMFlag=      100000 FMFlg1=           0
         NFxFlg=           0 DoJE=T BraDBF=F KetDBF=T FulRan=T
         wScrn=  0.000000 ICntrl=       500 IOpCl=  0 I1Cent=   200000004 NGrid=           0
         NMat0=    1 NMatS0=      1 NMatT0=    0 NMatD0=    1 NMtDS0=    0 NMtDT0=    0
 Petite list used in FoFCou.
 Harris En= -839.033787166331    
 JPrj=0 DoOrth=F DoCkMO=F.
 Initial guess orbital symmetries:
 Alpha Orbitals:
       Occupied  (SG) (SG) (SG) (PI) (PI) (SG) (SG) (PI) (PI) (SG)
                 (SG) (PI) (PI) (DLTA)
       Virtual   (DLTA) (SG) (PI) (PI) (SG)
 Beta  Orbitals:
       Occupied  (SG) (SG) (SG) (PI) (PI) (SG) (SG) (PI) (PI)
       Virtual   (SG) (SG) (PI) (PI) (DLTA) (DLTA) (SG) (PI) (PI)
                 (SG)
 Initial guess <Sx>= 0.0000 <Sy>= 0.0000 <Sz>= 2.5000 <S**2>= 8.7500 S= 2.5000
 Leave Link  401 at Tue Apr 12 06:13:21 2022, MaxMem=  9663676416 cpu:               8.9 elap:               0.3
 (Enter /nopt/nrel/apps/gaussian/g16C_1/g16/l502.exe)
 Keep R1 and R2 ints in memory in symmetry-blocked form, NReq=7412976.
 FoFCou: FMM=F IPFlag=           0 FMFlag=           0 FMFlg1=           0
         NFxFlg=           0 DoJE=F BraDBF=F KetDBF=F FulRan=T
         wScrn=  0.000000 ICntrl=       600 IOpCl=  0 I1Cent=           0 NGrid=           0
         NMat0=    1 NMatS0=    190 NMatT0=    0 NMatD0=    1 NMtDS0=    0 NMtDT0=    0
 Petite list used in FoFCou.
 UHF open shell SCF:
 Using DIIS extrapolation, IDIIS=  1040.
 NGot=  9663676416 LenX=  9663662661 LenY=  9663661779
 Requested convergence on RMS density matrix=1.00D-08 within 128 cycles.
 Requested convergence on MAX density matrix=1.00D-06.
 Requested convergence on             energy=1.00D-06.
 No special actions if energy rises.

 Cycle   1  Pass 1  IDiag  1:
 E= -839.880273519053    
 DIIS: error= 6.61D-02 at cycle   1 NSaved=   1.
 NSaved= 1 IEnMin= 1 EnMin= -839.880273519053     IErMin= 1 ErrMin= 6.61D-02
 ErrMax= 6.61D-02  0.00D+00 EMaxC= 1.00D-01 BMatC= 2.19D-01 BMatP= 2.19D-01
 IDIUse=3 WtCom= 3.39D-01 WtEn= 6.61D-01
 Coeff-Com:  0.100D+01
 Coeff-En:   0.100D+01
 Coeff:      0.100D+01
 Gap=     0.353 Goal=   None    Shift=    0.000
 Gap=     1.795 Goal=   None    Shift=    0.000
 GapD=    0.353 DampG=1.000 DampE=0.250 DampFc=0.2500 IDamp=-1.
 Damping current iteration by 2.50D-01
 RMSDP=9.81D-03 MaxDP=8.51D-02              OVMax= 0.00D+00

 Cycle   2  Pass 1  IDiag  1:
 E= -839.887908956699     Delta-E=       -0.007635437646 Rises=F Damp=T
 DIIS: error= 5.00D-02 at cycle   2 NSaved=   2.
 NSaved= 2 IEnMin= 2 EnMin= -839.887908956699     IErMin= 2 ErrMin= 5.00D-02
 ErrMax= 5.00D-02  0.00D+00 EMaxC= 1.00D-01 BMatC= 1.28D-01 BMatP= 2.19D-01
 IDIUse=3 WtCom= 5.00D-01 WtEn= 5.00D-01
 Coeff-Com: -0.316D+01 0.416D+01
 Coeff-En:   0.000D+00 0.100D+01
 Coeff:     -0.158D+01 0.258D+01
 Gap=     0.349 Goal=   None    Shift=    0.000
 Gap=     1.793 Goal=   None    Shift=    0.000
 RMSDP=8.77D-03 MaxDP=8.32D-02 DE=-7.64D-03 OVMax= 0.00D+00

 Cycle   3  Pass 1  IDiag  1:
 E= -839.915798881052     Delta-E=       -0.027889924353 Rises=F Damp=F
 DIIS: error= 4.39D-03 at cycle   3 NSaved=   3.
 NSaved= 3 IEnMin= 3 EnMin= -839.915798881052     IErMin= 3 ErrMin= 4.39D-03
 ErrMax= 4.39D-03  0.00D+00 EMaxC= 1.00D-01 BMatC= 8.56D-04 BMatP= 1.28D-01
 IDIUse=3 WtCom= 9.56D-01 WtEn= 4.39D-02
 Coeff-Com:  0.328D+01-0.437D+01 0.210D+01
 Coeff-En:   0.000D+00 0.000D+00 0.100D+01
 Coeff:      0.313D+01-0.418D+01 0.205D+01
 Gap=     0.347 Goal=   None    Shift=    0.000
 Gap=     1.799 Goal=   None    Shift=    0.000
 RMSDP=1.95D-03 MaxDP=2.30D-02 DE=-2.79D-02 OVMax= 0.00D+00

 Cycle   4  Pass 1  IDiag  1:
 E= -839.916379028569     Delta-E=       -0.000580147517 Rises=F Damp=F
 DIIS: error= 4.74D-04 at cycle   4 NSaved=   4.
 NSaved= 4 IEnMin= 4 EnMin= -839.916379028569     IErMin= 4 ErrMin= 4.74D-04
 ErrMax= 4.74D-04  0.00D+00 EMaxC= 1.00D-01 BMatC= 8.92D-06 BMatP= 8.56D-04
 IDIUse=3 WtCom= 9.95D-01 WtEn= 4.74D-03
 Coeff-Com: -0.434D+00 0.580D+00-0.305D+00 0.116D+01
 Coeff-En:   0.000D+00 0.000D+00 0.000D+00 0.100D+01
 Coeff:     -0.432D+00 0.577D+00-0.304D+00 0.116D+01
 Gap=     0.347 Goal=   None    Shift=    0.000
 Gap=     1.799 Goal=   None    Shift=    0.000
 RMSDP=4.09D-04 MaxDP=4.46D-03 DE=-5.80D-04 OVMax= 0.00D+00

 Cycle   5  Pass 1  IDiag  1:
 E= -839.916402558973     Delta-E=       -0.000023530404 Rises=F Damp=F
 DIIS: error= 4.71D-04 at cycle   5 NSaved=   5.
 NSaved= 5 IEnMin= 5 EnMin= -839.916402558973     IErMin= 5 ErrMin= 4.71D-04
 ErrMax= 4.71D-04  0.00D+00 EMaxC= 1.00D-01 BMatC= 6.96D-06 BMatP= 8.92D-06
 IDIUse=3 WtCom= 9.95D-01 WtEn= 4.71D-03
 Coeff-Com:  0.197D+00-0.263D+00 0.147D+00-0.916D+00 0.184D+01
 Coeff-En:   0.000D+00 0.000D+00 0.000D+00 0.000D+00 0.100D+01
 Coeff:      0.196D+00-0.262D+00 0.147D+00-0.912D+00 0.183D+01
 Gap=     0.347 Goal=   None    Shift=    0.000
 Gap=     1.800 Goal=   None    Shift=    0.000
 RMSDP=6.24D-04 MaxDP=7.10D-03 DE=-2.35D-05 OVMax= 0.00D+00

 Cycle   6  Pass 1  IDiag  1:
 E= -839.916435652580     Delta-E=       -0.000033093607 Rises=F Damp=F
 DIIS: error= 4.65D-04 at cycle   6 NSaved=   6.
 NSaved= 6 IEnMin= 6 EnMin= -839.916435652580     IErMin= 6 ErrMin= 4.65D-04
 ErrMax= 4.65D-04  0.00D+00 EMaxC= 1.00D-01 BMatC= 6.26D-06 BMatP= 6.96D-06
 IDIUse=3 WtCom= 9.95D-01 WtEn= 4.65D-03
 Coeff-Com: -0.728D-01 0.974D-01-0.676D-01 0.940D+00-0.245D+01 0.255D+01
 Coeff-En:   0.000D+00 0.000D+00 0.000D+00 0.000D+00 0.000D+00 0.100D+01
 Coeff:     -0.725D-01 0.970D-01-0.673D-01 0.936D+00-0.244D+01 0.254D+01
 Gap=     0.347 Goal=   None    Shift=    0.000
 Gap=     1.801 Goal=   None    Shift=    0.000
 RMSDP=9.45D-04 MaxDP=1.09D-02 DE=-3.31D-05 OVMax= 0.00D+00

 Cycle   7  Pass 1  IDiag  1:
 E= -839.916484109205     Delta-E=       -0.000048456625 Rises=F Damp=F
 DIIS: error= 4.56D-04 at cycle   7 NSaved=   7.
 NSaved= 7 IEnMin= 7 EnMin= -839.916484109205     IErMin= 7 ErrMin= 4.56D-04
 ErrMax= 4.56D-04  0.00D+00 EMaxC= 1.00D-01 BMatC= 6.00D-06 BMatP= 6.26D-06
 IDIUse=3 WtCom= 9.95D-01 WtEn= 4.56D-03
 Large coefficients: NSaved=  7 BigCof=   12.07 CofMax=   10.00 Det=-2.92D-09
 Inversion failed.  Reducing to  6 matrices.
 Large coefficients: NSaved=  6 BigCof=   11.10 CofMax=   10.00 Det=-3.23D-09
 Inversion failed.  Reducing to  5 matrices.
 Coeff-Com: -0.128D-02-0.112D+00 0.322D+01-0.991D+01 0.781D+01
 Coeff-En:   0.000D+00 0.000D+00 0.000D+00 0.000D+00 0.100D+01
 Coeff:     -0.127D-02-0.112D+00 0.321D+01-0.987D+01 0.777D+01
 Gap=     0.347 Goal=   None    Shift=    0.000
 Gap=     1.806 Goal=   None    Shift=    0.000
 RMSDP=4.81D-03 MaxDP=5.47D-02 DE=-4.85D-05 OVMax= 0.00D+00

 Cycle   8  Pass 1  IDiag  1:
 E= -839.916713779847     Delta-E=       -0.000229670642 Rises=F Damp=F
 DIIS: error= 4.14D-04 at cycle   8 NSaved=   6.
 NSaved= 6 IEnMin= 6 EnMin= -839.916713779847     IErMin= 6 ErrMin= 4.14D-04
 ErrMax= 4.14D-04  0.00D+00 EMaxC= 1.00D-01 BMatC= 5.25D-06 BMatP= 6.00D-06
 IDIUse=3 WtCom= 9.96D-01 WtEn= 4.14D-03
 Large coefficients: NSaved=  6 BigCof=   16.48 CofMax=   10.00 Det=-1.03D-09
 Inversion failed.  Reducing to  5 matrices.
 Coeff-Com:  0.343D+00 0.335D+00-0.283D+01 0.210D+01 0.105D+01
 Coeff-En:   0.000D+00 0.000D+00 0.000D+00 0.000D+00 0.100D+01
 Coeff:      0.342D+00 0.333D+00-0.282D+01 0.210D+01 0.105D+01
 Gap=     0.349 Goal=   None    Shift=    0.000
 Gap=     1.809 Goal=   None    Shift=    0.000
 RMSDP=1.98D-03 MaxDP=2.20D-02 DE=-2.30D-04 OVMax= 0.00D+00

 Cycle   9  Pass 1  IDiag  1:
 E= -839.916799478468     Delta-E=       -0.000085698621 Rises=F Damp=F
 DIIS: error= 3.90D-04 at cycle   9 NSaved=   6.
 NSaved= 6 IEnMin= 6 EnMin= -839.916799478468     IErMin= 6 ErrMin= 3.90D-04
 ErrMax= 3.90D-04  0.00D+00 EMaxC= 1.00D-01 BMatC= 4.62D-06 BMatP= 5.25D-06
 IDIUse=3 WtCom= 9.96D-01 WtEn= 3.90D-03
 Large coefficients: NSaved=  6 BigCof=   13.90 CofMax=   10.00 Det=-2.80D-09
 Inversion failed.  Reducing to  5 matrices.
 Large coefficients: NSaved=  5 BigCof=   12.39 CofMax=   10.00 Det=-4.39D-09
 Inversion failed.  Reducing to  4 matrices.
 Large coefficients: NSaved=  4 BigCof=   12.41 CofMax=   10.00 Det=-2.54D-08
 Inversion failed.  Reducing to  3 matrices.
 Large coefficients: NSaved=  3 BigCof=   12.37 CofMax=   10.00 Det=-2.57D-08
 Inversion failed.  Reducing to  2 matrices.
 Large coefficients: NSaved=  2 BigCof=   12.36 CofMax=   10.00 Det=-2.66D-08
 Coeff-Com: -0.114D+02 0.124D+02
 Coeff-En:   0.000D+00 0.100D+01
 Coeff:     -0.113D+02 0.123D+02
 Gap=     0.351 Goal=   None    Shift=    0.000
 Gap=     1.837 Goal=   None    Shift=    0.000
 RMSDP=2.07D-02 MaxDP=2.06D-01 DE=-8.57D-05 OVMax= 0.00D+00

 Cycle  10  Pass 1  IDiag  1:
 E= -839.917237496174     Delta-E=       -0.000438017706 Rises=F Damp=F
 DIIS: error= 1.55D-03 at cycle  10 NSaved=   3.
 NSaved= 3 IEnMin= 3 EnMin= -839.917237496174     IErMin= 2 ErrMin= 3.90D-04
 ErrMax= 1.55D-03  0.00D+00 EMaxC= 1.00D-01 BMatC= 2.18D-04 BMatP= 4.62D-06
 IDIUse=3 WtCom= 9.96D-01 WtEn= 3.90D-03
 Large coefficients: NSaved=  3 BigCof=   12.43 CofMax=   10.00 Det=-2.64D-08
 Inversion failed.  Reducing to  2 matrices.
 Coeff-Com:  0.100D+01-0.263D-02
 Coeff-En:   0.000D+00 0.100D+01
 Coeff:      0.999D+00 0.127D-02
 Gap=     0.316 Goal=   None    Shift=    0.000
 Gap=     1.815 Goal=   None    Shift=    0.000
 RMSDP=2.05D-02 MaxDP=2.03D-01 DE=-4.38D-04 OVMax= 0.00D+00

 Cycle  11  Pass 1  IDiag  1:
 E= -839.916811714659     Delta-E=        0.000425781515 Rises=F Damp=F
 DIIS: error= 3.77D-04 at cycle  11 NSaved=   3.
 NSaved= 3 IEnMin= 2 EnMin= -839.917237496174     IErMin= 3 ErrMin= 3.77D-04
 ErrMax= 3.77D-04  0.00D+00 EMaxC= 1.00D-01 BMatC= 4.14D-06 BMatP= 4.62D-06
 IDIUse=3 WtCom= 9.96D-01 WtEn= 3.77D-03
 Rare condition: small coef for last iteration:  0.000D+00
 Coeff-Com: -0.416D+01 0.162D+00 0.500D+01
 Coeff-En:   0.000D+00 0.000D+00 0.100D+01
 Coeff:     -0.416D+01 0.162D+00 0.500D+01
 Gap=     0.343 Goal=   None    Shift=    0.000
 Gap=     1.817 Goal=   None    Shift=    0.000
 RMSDP=4.71D-03 MaxDP=5.10D-02 DE= 4.26D-04 OVMax= 0.00D+00

 Cycle  12  Pass 1  IDiag  1:
 E= -839.916989915223     Delta-E=       -0.000178200564 Rises=F Damp=F
 DIIS: error= 2.84D-04 at cycle  12 NSaved=   4.
 NSaved= 4 IEnMin= 2 EnMin= -839.917237496174     IErMin= 4 ErrMin= 2.84D-04
 ErrMax= 2.84D-04  0.00D+00 EMaxC= 1.00D-01 BMatC= 4.53D-06 BMatP= 4.14D-06
 IDIUse=3 WtCom= 9.97D-01 WtEn= 2.84D-03
 Large coefficients: NSaved=  4 BigCof=   11.70 CofMax=   10.00 Det=-7.74D-09
 Inversion failed.  Reducing to  3 matrices.
 Coeff-Com:  0.199D+00-0.142D+01 0.222D+01
 Coeff-En:   0.000D+00 0.000D+00 0.100D+01
 Coeff:      0.199D+00-0.142D+01 0.222D+01
 Gap=     0.346 Goal=   None    Shift=    0.000
 Gap=     1.830 Goal=   None    Shift=    0.000
 RMSDP=9.79D-03 MaxDP=9.81D-02 DE=-1.78D-04 OVMax= 0.00D+00

 Cycle  13  Pass 1  IDiag  1:
 E= -839.917239351392     Delta-E=       -0.000249436169 Rises=F Damp=F
 DIIS: error= 2.46D-04 at cycle  13 NSaved=   4.
 NSaved= 4 IEnMin= 4 EnMin= -839.917239351392     IErMin= 4 ErrMin= 2.46D-04
 ErrMax= 2.46D-04  0.00D+00 EMaxC= 1.00D-01 BMatC= 5.40D-06 BMatP= 4.14D-06
 IDIUse=3 WtCom= 9.97D-01 WtEn= 2.84D-03
 Coeff-Com: -0.180D+00-0.115D+01 0.714D+00 0.162D+01
 Coeff-En:   0.000D+00 0.000D+00 0.000D+00 0.100D+01
 Coeff:     -0.180D+00-0.115D+01 0.712D+00 0.162D+01
 Gap=     0.362 Goal=   None    Shift=    0.000
 Gap=     1.841 Goal=   None    Shift=    0.000
 RMSDP=8.09D-03 MaxDP=7.03D-02 DE=-2.49D-04 OVMax= 0.00D+00

 Cycle  14  Pass 1  IDiag  1:
 E= -839.917293527413     Delta-E=       -0.000054176021 Rises=F Damp=F
 DIIS: error= 7.25D-04 at cycle  14 NSaved=   5.
 NSaved= 5 IEnMin= 5 EnMin= -839.917293527413     IErMin= 4 ErrMin= 2.46D-04
 ErrMax= 7.25D-04  0.00D+00 EMaxC= 1.00D-01 BMatC= 4.97D-05 BMatP= 4.14D-06
 IDIUse=3 WtCom= 9.97D-01 WtEn= 2.84D-03
 Coeff-Com: -0.493D+00-0.386D+00 0.174D-01 0.120D+01 0.664D+00
 Coeff-En:   0.000D+00 0.000D+00 0.000D+00 0.000D+00 0.100D+01
 Coeff:     -0.491D+00-0.385D+00 0.173D-01 0.119D+01 0.665D+00
 Gap=     0.357 Goal=   None    Shift=    0.000
 Gap=     1.841 Goal=   None    Shift=    0.000
 RMSDP=5.10D-04 MaxDP=4.44D-03 DE=-5.42D-05 OVMax= 0.00D+00

 Cycle  15  Pass 1  IDiag  1:
 E= -839.917304588618     Delta-E=       -0.000011061205 Rises=F Damp=F
 DIIS: error= 3.35D-04 at cycle  15 NSaved=   6.
 NSaved= 6 IEnMin= 6 EnMin= -839.917304588618     IErMin= 4 ErrMin= 2.46D-04
 ErrMax= 3.35D-04  0.00D+00 EMaxC= 1.00D-01 BMatC= 1.05D-05 BMatP= 4.14D-06
 IDIUse=3 WtCom= 9.97D-01 WtEn= 2.84D-03
 Coeff-Com:  0.783D+00-0.465D+00 0.674D+00-0.647D+00-0.300D+01 0.366D+01
 Coeff-En:   0.000D+00 0.000D+00 0.000D+00 0.000D+00 0.000D+00 0.100D+01
 Coeff:      0.781D+00-0.463D+00 0.673D+00-0.646D+00-0.300D+01 0.365D+01
 Gap=     0.352 Goal=   None    Shift=    0.000
 Gap=     1.843 Goal=   None    Shift=    0.000
 RMSDP=7.11D-04 MaxDP=6.22D-03 DE=-1.11D-05 OVMax= 0.00D+00

 Cycle  16  Pass 1  IDiag  1:
 E= -839.917306979755     Delta-E=       -0.000002391137 Rises=F Damp=F
 DIIS: error= 1.70D-04 at cycle  16 NSaved=   7.
 NSaved= 7 IEnMin= 7 EnMin= -839.917306979755     IErMin= 7 ErrMin= 1.70D-04
 ErrMax= 1.70D-04  0.00D+00 EMaxC= 1.00D-01 BMatC= 2.71D-06 BMatP= 4.14D-06
 IDIUse=3 WtCom= 9.98D-01 WtEn= 1.70D-03
 Coeff-Com: -0.297D+00 0.928D-01-0.188D+00 0.353D+00 0.692D+00-0.130D+01
 Coeff-Com:  0.164D+01
 Coeff-En:   0.000D+00 0.000D+00 0.000D+00 0.000D+00 0.000D+00 0.000D+00
 Coeff-En:   0.100D+01
 Coeff:     -0.296D+00 0.927D-01-0.188D+00 0.352D+00 0.691D+00-0.130D+01
 Coeff:      0.164D+01
 Gap=     0.347 Goal=   None    Shift=    0.000
 Gap=     1.844 Goal=   None    Shift=    0.000
 RMSDP=2.18D-04 MaxDP=1.93D-03 DE=-2.39D-06 OVMax= 0.00D+00

 Cycle  17  Pass 1  IDiag  1:
 E= -839.917307742803     Delta-E=       -0.000000763048 Rises=F Damp=F
 DIIS: error= 2.40D-05 at cycle  17 NSaved=   8.
 NSaved= 8 IEnMin= 8 EnMin= -839.917307742803     IErMin= 8 ErrMin= 2.40D-05
 ErrMax= 2.40D-05  0.00D+00 EMaxC= 1.00D-01 BMatC= 5.70D-08 BMatP= 2.71D-06
 IDIUse=1 WtCom= 1.00D+00 WtEn= 0.00D+00
 Coeff-Com:  0.180D-01 0.262D-01-0.186D-01-0.507D-01 0.102D+00 0.262D-01
 Coeff-Com: -0.409D+00 0.131D+01
 Coeff:      0.180D-01 0.262D-01-0.186D-01-0.507D-01 0.102D+00 0.262D-01
 Coeff:     -0.409D+00 0.131D+01
 Gap=     0.348 Goal=   None    Shift=    0.000
 Gap=     1.844 Goal=   None    Shift=    0.000
 RMSDP=2.67D-05 MaxDP=2.36D-04 DE=-7.63D-07 OVMax= 0.00D+00

 Cycle  18  Pass 1  IDiag  1:
 E= -839.917307759179     Delta-E=       -0.000000016376 Rises=F Damp=F
 DIIS: error= 1.18D-05 at cycle  18 NSaved=   9.
 NSaved= 9 IEnMin= 9 EnMin= -839.917307759179     IErMin= 9 ErrMin= 1.18D-05
 ErrMax= 1.18D-05  0.00D+00 EMaxC= 1.00D-01 BMatC= 1.35D-08 BMatP= 5.70D-08
 IDIUse=1 WtCom= 1.00D+00 WtEn= 0.00D+00
 Coeff-Com: -0.183D-01 0.477D-02-0.940D-02 0.209D-01 0.787D-02-0.570D-01
 Coeff-Com:  0.206D+00-0.831D+00 0.168D+01
 Coeff:     -0.183D-01 0.477D-02-0.940D-02 0.209D-01 0.787D-02-0.570D-01
 Coeff:      0.206D+00-0.831D+00 0.168D+01
 Gap=     0.348 Goal=   None    Shift=    0.000
 Gap=     1.844 Goal=   None    Shift=    0.000
 RMSDP=1.75D-05 MaxDP=1.56D-04 DE=-1.64D-08 OVMax= 0.00D+00

 Cycle  19  Pass 1  IDiag  1:
 E= -839.917307763683     Delta-E=       -0.000000004504 Rises=F Damp=F
 DIIS: error= 2.01D-06 at cycle  19 NSaved=  10.
 NSaved=10 IEnMin=10 EnMin= -839.917307763683     IErMin=10 ErrMin= 2.01D-06
 ErrMax= 2.01D-06  0.00D+00 EMaxC= 1.00D-01 BMatC= 3.93D-10 BMatP= 1.35D-08
 IDIUse=1 WtCom= 1.00D+00 WtEn= 0.00D+00
 Coeff-Com:  0.267D-03 0.514D-03-0.348D-03-0.919D-03 0.629D-02-0.326D-02
 Coeff-Com: -0.217D-01 0.133D+00-0.506D+00 0.139D+01
 Coeff:      0.267D-03 0.514D-03-0.348D-03-0.919D-03 0.629D-02-0.326D-02
 Coeff:     -0.217D-01 0.133D+00-0.506D+00 0.139D+01
 Gap=     0.348 Goal=   None    Shift=    0.000
 Gap=     1.844 Goal=   None    Shift=    0.000
 RMSDP=2.67D-06 MaxDP=2.34D-05 DE=-4.50D-09 OVMax= 0.00D+00

 Cycle  20  Pass 1  IDiag  1:
 E= -839.917307763815     Delta-E=       -0.000000000133 Rises=F Damp=F
 DIIS: error= 2.57D-07 at cycle  20 NSaved=  11.
 NSaved=11 IEnMin=11 EnMin= -839.917307763815     IErMin=11 ErrMin= 2.57D-07
 ErrMax= 2.57D-07  0.00D+00 EMaxC= 1.00D-01 BMatC= 6.28D-12 BMatP= 3.93D-10
 IDIUse=1 WtCom= 1.00D+00 WtEn= 0.00D+00
 Coeff-Com: -0.136D-03 0.562D-04-0.110D-03 0.149D-03-0.504D-04-0.255D-03
 Coeff-Com:  0.316D-02-0.158D-01 0.691D-01-0.239D+00 0.118D+01
 Coeff:     -0.136D-03 0.562D-04-0.110D-03 0.149D-03-0.504D-04-0.255D-03
 Coeff:      0.316D-02-0.158D-01 0.691D-01-0.239D+00 0.118D+01
 Gap=     0.348 Goal=   None    Shift=    0.000
 Gap=     1.844 Goal=   None    Shift=    0.000
 RMSDP=4.16D-07 MaxDP=3.72D-06 DE=-1.33D-10 OVMax= 0.00D+00

 Cycle  21  Pass 1  IDiag  1:
 E= -839.917307763818     Delta-E=       -0.000000000002 Rises=F Damp=F
 DIIS: error= 7.17D-09 at cycle  21 NSaved=  12.
 NSaved=12 IEnMin=12 EnMin= -839.917307763818     IErMin=12 ErrMin= 7.17D-09
 ErrMax= 7.17D-09  0.00D+00 EMaxC= 1.00D-01 BMatC= 4.75D-15 BMatP= 6.28D-12
 IDIUse=1 WtCom= 1.00D+00 WtEn= 0.00D+00
 Coeff-Com: -0.518D-05 0.523D-05-0.574D-05 0.293D-05 0.268D-04-0.302D-04
 Coeff-Com: -0.106D-03 0.621D-03-0.326D-02 0.133D-01-0.101D+00 0.109D+01
 Coeff:     -0.518D-05 0.523D-05-0.574D-05 0.293D-05 0.268D-04-0.302D-04
 Coeff:     -0.106D-03 0.621D-03-0.326D-02 0.133D-01-0.101D+00 0.109D+01
 Gap=     0.348 Goal=   None    Shift=    0.000
 Gap=     1.844 Goal=   None    Shift=    0.000
 RMSDP=9.65D-09 MaxDP=8.71D-08 DE=-2.16D-12 OVMax= 0.00D+00

 SCF Done:  E(UHF) =  -839.917307764     A.U. after   21 cycles
            NFock= 21  Conv=0.97D-08     -V/T= 2.0041
 <Sx>= 0.0000 <Sy>= 0.0000 <Sz>= 2.5000 <S**2>= 8.7530 S= 2.5005
 <L.S>= 0.000000000000E+00
 KE= 8.364513416623D+02 PE=-1.996818190329D+03 EE= 3.159804819242D+02
 Annihilation of the first spin contaminant:
 S**2 before annihilation     8.7530,   after     8.7500
 Leave Link  502 at Tue Apr 12 06:13:21 2022, MaxMem=  9663676416 cpu:               6.1 elap:               0.2
 (Enter /nopt/nrel/apps/gaussian/g16C_1/g16/l801.exe)
 Windowed orbitals will be sorted by symmetry type.
 ExpMin= 1.16D-01 ExpMax= 1.03D+03 ExpMxC= 1.03D+03 IAcc=3 IRadAn=         5 AccDes= 0.00D+00
 HarFok:  IExCor=  205 AccDes= 0.00D+00 IRadAn=         5 IDoV=-2 UseB2=F ITyADJ=14
 ICtDFT= 12500011 ScaDFX=  1.000000  1.000000  1.000000  1.000000
 Largest valence mixing into a core orbital is  4.45D-04
 Largest core mixing into a valence orbital is  2.94D-04
 Range of M.O.s used for correlation:    10    19
 NBasis=    19 NAE=    14 NBE=     9 NFC=     9 NFV=     0
 NROrb=     10 NOA=     5 NOB=     0 NVA=     5 NVB=    10
 Leave Link  801 at Tue Apr 12 06:13:21 2022, MaxMem=  9663676416 cpu:               1.5 elap:               0.1
 (Enter /nopt/nrel/apps/gaussian/g16C_1/g16/l804.exe)
 Open-shell transformation, MDV=  9663676416 ITran=4 ISComp=2.
 Unit  1 TFree=         25012 TCopy=        222819.
 Semi-Direct transformation.
 ModeAB=           2 MOrb=             5 LenV=    9663501448
 LASXX=          328 LTotXX=         328 LenRXX=         328
 LTotAB=         622 MaxLAS=       10500 LenRXY=       10500
 NonZer=       12150 LenScr=      785920 LnRSAI=           0
 LnScr1=           0 LExtra=      223847 Total=      1020595
 MaxDsk= 34359738368 SrtSym=           F ITran=            4
 DoSDTr:  NPSUse= 36
 JobTyp=1 Pass  1:  I=   1 to   5.
 (rs|ai) integrals will be sorted in core.
 Complete sort for first half transformation.
 First half transformation complete.
 Complete sort for second half transformation.
 Second half transformation complete.
 Spin components of T(2) and E(2):
     alpha-alpha T2 =       0.1277858860D-02 E2=     -0.9586684027D-03
     alpha-beta  T2 =       0.0000000000D+00 E2=      0.0000000000D+00
     beta-beta   T2 =       0.0000000000D+00 E2=      0.0000000000D+00
 ANorm=    0.1000638725D+01
 E2 =    -0.9586684027D-03 EUMP2 =    -0.83991826643222D+03
 Leave Link  804 at Tue Apr 12 06:13:21 2022, MaxMem=  9663676416 cpu:               4.2 elap:               0.1
 (Enter /nopt/nrel/apps/gaussian/g16C_1/g16/l913.exe)
 CIDS:  MDV=  9663676416.
 Frozen-core window:  NFC=   9 NFV=   0.
 IFCWin=0 IBDFC=1 NFBD=     0     0 NFCmp=     0     0 NFFFC=     0     0
 Using original routines for 1st iteration.
 Using DD4UQ or CC4UQ for 2nd and later iterations.
 Keep R2 and R3 ints in memory in symmetry-blocked form, NReq=7415418.
 FoFCou: FMM=F IPFlag=           0 FMFlag=           0 FMFlg1=           0
         NFxFlg=           0 DoJE=F BraDBF=F KetDBF=F FulRan=T
         wScrn=  0.000000 ICntrl=       600 IOpCl=  0 I1Cent=           0 NGrid=           0
         NMat0=    1 NMatS0=    190 NMatT0=    0 NMatD0=    1 NMtDS0=    0 NMtDT0=    0
 Petite list used in FoFCou.
 CIDS: In Core Option IDoMem=           1.
 Coupled Cluster theory with single and double substitutions
 ===========================================================
 Iterations= 200 Convergence= 0.100D-06
 Produce multiple copies of IABC intergrals
 Iteration Nr.   1
 **********************
 DD1Dir will call FoFMem   1 times, MxPair=        10
 NAB=     0 NAA=    10 NBB=     0.
 MP4(R+Q)=  0.12178243D-05
 Maximum subspace dimension=  5
 A-vector RMS=  3.5160896D-03 Max=  2.0612660D-02 conv= 1.00D-05.
 RLE energy=       -0.0120323869
 E3=       -0.88350634D-03        EUMP3=      -0.83991914994D+03
 E4(DQ)=   -0.82921781D-03        UMP4(DQ)=   -0.83991997916D+03
 E4(SDQ)=  -0.82954441D-03        UMP4(SDQ)=  -0.83991997948D+03
 VARIATIONAL ENERGIES WITH THE FIRST-ORDER WAVEFUNCTION:
 DE(Corr)= -0.18409559E-02 E(Corr)=     -839.91914872    
 NORM(A)=   0.10997034D+01
 Iteration Nr.   2
 **********************
 DD1Dir will call FoFMem   1 times, MxPair=        10
 NAB=     0 NAA=    10 NBB=     0.
 A-vector RMS=  4.3034029D-03 Max=  1.5942463D-02 conv= 1.00D-05.
 RLE energy=       -0.0130497682
 DE(Corr)= -0.12057788E-01 E(CORR)=     -839.92936555     Delta=-1.02D-02
 NORM(A)=   0.11333989D+01
 Iteration Nr.   3
 **********************
 DD1Dir will call FoFMem   1 times, MxPair=        10
 NAB=     0 NAA=    10 NBB=     0.
 A-vector RMS=  3.5070139D-03 Max=  1.1471106D-02 conv= 1.00D-05.
 RLE energy=        0.0675454531
 DE(Corr)= -0.13402138E-01 E(CORR)=     -839.93070990     Delta=-1.34D-03
 NORM(A)=   0.30652342D+01
 Iteration Nr.   4
 **********************
 DD1Dir will call FoFMem   1 times, MxPair=        10
 NAB=     0 NAA=    10 NBB=     0.
 A-vector RMS=  3.1362877D-02 Max=  1.5507752D-01 conv= 1.00D-05.
 RLE energy=       -0.0037469788
 DE(Corr)=  0.72021896E-01 E(CORR)=     -839.84528587     Delta= 8.54D-02
 NORM(A)=   0.10100297D+01
 Iteration Nr.   5
 **********************
 DD1Dir will call FoFMem   1 times, MxPair=        10
 NAB=     0 NAA=    10 NBB=     0.
 A-vector RMS=  3.1703300D-03 Max=  2.0420367D-02 conv= 1.00D-05.
 RLE energy=       -0.0053213056
 DE(Corr)= -0.44170793E-02 E(CORR)=     -839.92172484     Delta=-7.64D-02
 NORM(A)=   0.10213924D+01
 Iteration Nr.   6
 **********************
 DD1Dir will call FoFMem   1 times, MxPair=        10
 NAB=     0 NAA=    10 NBB=     0.
 A-vector RMS=  2.9472385D-03 Max=  1.9214955D-02 conv= 1.00D-05.
 RLE energy=        0.0048696287
 DE(Corr)= -0.59914743E-02 E(CORR)=     -839.92329924     Delta=-1.57D-03
 NORM(A)=   0.10436328D+01
 Iteration Nr.   7
 **********************
 DD1Dir will call FoFMem   1 times, MxPair=        10
 NAB=     0 NAA=    10 NBB=     0.
 A-vector RMS=  3.6456754D-03 Max=  2.0634253D-02 conv= 1.00D-05.
 RLE energy=       -0.0034089460
 DE(Corr)=  0.40863594E-02 E(CORR)=     -839.91322140     Delta= 1.01D-02
 NORM(A)=   0.10156925D+01
 Iteration Nr.   8
 **********************
 DD1Dir will call FoFMem   1 times, MxPair=        10
 NAB=     0 NAA=    10 NBB=     0.
 A-vector RMS=  3.3541259D-03 Max=  1.9617422D-02 conv= 1.00D-05.
 RLE energy=       -0.0007890718
 DE(Corr)= -0.40420102E-02 E(CORR)=     -839.92134977     Delta=-8.13D-03
 NORM(A)=   0.10120810D+01
 Iteration Nr.   9
 **********************
 DD1Dir will call FoFMem   1 times, MxPair=        10
 NAB=     0 NAA=    10 NBB=     0.
 A-vector RMS=  3.1576312D-03 Max=  2.0677787D-02 conv= 1.00D-05.
 RLE energy=        0.0493019669
 DE(Corr)= -0.14612171E-02 E(CORR)=     -839.91876898     Delta= 2.58D-03
 NORM(A)=   0.50153588D+01
 Iteration Nr.  10
 **********************
 DD1Dir will call FoFMem   1 times, MxPair=        10
 NAB=     0 NAA=    10 NBB=     0.
 A-vector RMS=  5.6509418D-02 Max=  1.8042700D-01 conv= 1.00D-05.
 RLE energy=       -0.0370575989
 DE(Corr)=  0.53760407E-01 E(CORR)=     -839.86354736     Delta= 5.52D-02
 NORM(A)=   0.19017329D+01
 Iteration Nr.  11
 **********************
 DD1Dir will call FoFMem   1 times, MxPair=        10
 NAB=     0 NAA=    10 NBB=     0.
 A-vector RMS=  7.5976124D-03 Max=  5.0575701D-02 conv= 1.00D-05.
 RLE energy=       -0.0070526557
 DE(Corr)= -0.35535317E-01 E(CORR)=     -839.95284308     Delta=-8.93D-02
 NORM(A)=   0.10450209D+01
 Iteration Nr.  12
 **********************
 DD1Dir will call FoFMem   1 times, MxPair=        10
 NAB=     0 NAA=    10 NBB=     0.
 A-vector RMS=  3.4412548D-03 Max=  1.6363956D-02 conv= 1.00D-05.
 RLE energy=       -0.0072609982
 DE(Corr)= -0.75846227E-02 E(CORR)=     -839.92489239     Delta= 2.80D-02
 NORM(A)=   0.10415584D+01
 Iteration Nr.  13
 **********************
 DD1Dir will call FoFMem   1 times, MxPair=        10
 NAB=     0 NAA=    10 NBB=     0.
 A-vector RMS=  3.0782856D-03 Max=  1.8390800D-02 conv= 1.00D-05.
 RLE energy=       -0.0146521596
 DE(Corr)= -0.78595634E-02 E(CORR)=     -839.92516733     Delta=-2.75D-04
 NORM(A)=   0.11839514D+01
 Iteration Nr.  14
 **********************
 DD1Dir will call FoFMem   1 times, MxPair=        10
 NAB=     0 NAA=    10 NBB=     0.
 A-vector RMS=  2.3171099D-03 Max=  1.0941645D-02 conv= 1.00D-05.
 RLE energy=       -0.0066934983
 DE(Corr)= -0.15010476E-01 E(CORR)=     -839.93231824     Delta=-7.15D-03
 NORM(A)=   0.10602014D+01
 Iteration Nr.  15
 **********************
 DD1Dir will call FoFMem   1 times, MxPair=        10
 NAB=     0 NAA=    10 NBB=     0.
 A-vector RMS=  3.6467835D-03 Max=  1.4919936D-02 conv= 1.00D-05.
 RLE energy=       -0.0327460692
 DE(Corr)= -0.71723763E-02 E(CORR)=     -839.92448014     Delta= 7.84D-03
 NORM(A)=   0.24755763D+01
 Iteration Nr.  16
 **********************
 DD1Dir will call FoFMem   1 times, MxPair=        10
 NAB=     0 NAA=    10 NBB=     0.
 A-vector RMS=  1.5842932D-02 Max=  7.4999241D-02 conv= 1.00D-05.
 RLE energy=       -0.0620878789
 DE(Corr)= -0.31651146E-01 E(CORR)=     -839.94895891     Delta=-2.45D-02
 NORM(A)=   0.44788154D+01
 Iteration Nr.  17
 **********************
 DD1Dir will call FoFMem   1 times, MxPair=        10
 NAB=     0 NAA=    10 NBB=     0.
 A-vector RMS=  4.7305137D-02 Max=  1.0573381D-01 conv= 1.00D-05.
 RLE energy=       -0.0146230327
 DE(Corr)= -0.58696799E-01 E(CORR)=     -839.97600456     Delta=-2.70D-02
 NORM(A)=   0.11812382D+01
 Iteration Nr.  18
 **********************
 DD1Dir will call FoFMem   1 times, MxPair=        10
 NAB=     0 NAA=    10 NBB=     0.
 A-vector RMS=  2.7404466D-03 Max=  6.2884294D-03 conv= 1.00D-05.
 RLE energy=       -0.0167120482
 DE(Corr)= -0.14874781E-01 E(CORR)=     -839.93218255     Delta= 4.38D-02
[...]
 DE(Corr)= -0.25229192E-01 E(CORR)=     -839.94253696     Delta=-2.66D-02
 NORM(A)=   0.12240454D+01
 Iteration Nr.  22
 **********************
 DD1Dir will call FoFMem   1 times, MxPair=        10
 NAB=     0 NAA=    10 NBB=     0.
 A-vector RMS=  2.1547493D-03 Max=  6.2502885D-03 conv= 1.00D-05.
 RLE energy=       -0.0170404695
 DE(Corr)= -0.16545908E-01 E(CORR)=     -839.93385367     Delta= 8.68D-03
 NORM(A)=   0.12327127D+01
 Iteration Nr.  23
 **********************
 DD1Dir will call FoFMem   1 times, MxPair=        10
 NAB=     0 NAA=    10 NBB=     0.
 A-vector RMS=  2.1956666D-03 Max=  7.1504538D-03 conv= 1.00D-05.
 RLE energy=       -0.0169227909
 DE(Corr)= -0.17233519E-01 E(CORR)=     -839.93454128     Delta=-6.88D-04
 NORM(A)=   0.12349215D+01
 Iteration Nr.  24
 **********************
 DD1Dir will call FoFMem   1 times, MxPair=        10
 NAB=     0 NAA=    10 NBB=     0.
 A-vector RMS=  1.7327515D-03 Max=  5.9922855D-03 conv= 1.00D-05.
 RLE energy=       -0.0210044773
 DE(Corr)= -0.17148272E-01 E(CORR)=     -839.93445604     Delta= 8.52D-05
 NORM(A)=   0.13850100D+01
 Iteration Nr.  25
 **********************
 DD1Dir will call FoFMem   1 times, MxPair=        10
 NAB=     0 NAA=    10 NBB=     0.
 A-vector RMS=  1.3731027D-03 Max=  6.0653709D-03 conv= 1.00D-05.
 RLE energy=        0.0169089318
 DE(Corr)= -0.21043505E-01 E(CORR)=     -839.93835127     Delta=-3.90D-03
 NORM(A)=   0.28087751D+01
 Iteration Nr.  26
 **********************
 DD1Dir will call FoFMem   1 times, MxPair=        10
 NAB=     0 NAA=    10 NBB=     0.
 A-vector RMS=  5.6004820D-02 Max=  1.5888020D-01 conv= 1.00D-05.
 RLE energy=       -0.0293231249
 DE(Corr)=  0.19915712E-01 E(CORR)=     -839.89739205     Delta= 4.10D-02
 NORM(A)=   0.21318688D+01
 Iteration Nr.  27
 **********************
 DD1Dir will call FoFMem   1 times, MxPair=        10
 NAB=     0 NAA=    10 NBB=     0.
 A-vector RMS=  1.7138817D-03 Max=  8.2258975D-03 conv= 1.00D-05.
 RLE energy=       -0.0248862768
 DE(Corr)= -0.29091637E-01 E(CORR)=     -839.94639940     Delta=-4.90D-02
 NORM(A)=   0.16314330D+01
 Iteration Nr.  28
 **********************
 DD1Dir will call FoFMem   1 times, MxPair=        10
 NAB=     0 NAA=    10 NBB=     0.
 A-vector RMS=  1.9995754D-03 Max=  4.4995329D-03 conv= 1.00D-05.
 RLE energy=       -0.0241615799
 DE(Corr)= -0.24804914E-01 E(CORR)=     -839.94211268     Delta= 4.29D-03
 NORM(A)=   0.16271953D+01
 Iteration Nr.  29
 **********************
 DD1Dir will call FoFMem   1 times, MxPair=        10
 NAB=     0 NAA=    10 NBB=     0.
 A-vector RMS=  2.1084945D-03 Max=  5.0564504D-03 conv= 1.00D-05.
 RLE energy=       -0.0138481056
 DE(Corr)= -0.24173413E-01 E(CORR)=     -839.94148118     Delta= 6.32D-04
 NORM(A)=   0.12281389D+01
 Iteration Nr.  30
 **********************
 DD1Dir will call FoFMem   1 times, MxPair=        10
 NAB=     0 NAA=    10 NBB=     0.
 A-vector RMS=  3.0718680D-03 Max=  1.4625057D-02 conv= 1.00D-05.
 RLE energy=       -0.0183885093
 DE(Corr)= -0.14343291E-01 E(CORR)=     -839.93165106     Delta= 9.83D-03
 NORM(A)=   0.13145284D+01
 Iteration Nr.  31
 **********************
 DD1Dir will call FoFMem   1 times, MxPair=        10
 NAB=     0 NAA=    10 NBB=     0.
 A-vector RMS=  2.3415846D-03 Max=  5.8995812D-03 conv= 1.00D-05.
 RLE energy=       -0.0582067036
 DE(Corr)= -0.18662200E-01 E(CORR)=     -839.93596996     Delta=-4.32D-03
 NORM(A)=   0.35618071D+01
 Iteration Nr.  32
 **********************
 DD1Dir will call FoFMem   1 times, MxPair=        10
 NAB=     0 NAA=    10 NBB=     0.
 A-vector RMS=  6.0284186D-02 Max=  2.0454226D-01 conv= 1.00D-05.
 RLE energy=        0.2122254604
 DE(Corr)= -0.55428489E-01 E(CORR)=     -839.97273625     Delta=-3.68D-02
 NORM(A)=   0.95555386D+01
 Iteration Nr.  33
 **********************
 DD1Dir will call FoFMem   1 times, MxPair=        10
 NAB=     0 NAA=    10 NBB=     0.
 A-vector RMS=  8.2812662D-01 Max=  1.9221150D+00 conv= 1.00D-05.
 RLE energy=       -0.0261713597
 DE(Corr)=  0.40083161     E(CORR)=     -839.51647616     Delta= 4.56D-01
 NORM(A)=   0.17446319D+01
 Iteration Nr.  34
 **********************
 DD1Dir will call FoFMem   1 times, MxPair=        10
 NAB=     0 NAA=    10 NBB=     0.
 A-vector RMS=  2.0201345D-03 Max=  6.2812953D-03 conv= 1.00D-05.
 RLE energy=       -0.0253822065
 DE(Corr)= -0.26052990E-01 E(CORR)=     -839.94336075     Delta=-4.27D-01
 NORM(A)=   0.17534149D+01
 Iteration Nr.  35
 **********************
 DD1Dir will call FoFMem   1 times, MxPair=        10
 NAB=     0 NAA=    10 NBB=     0.
 A-vector RMS=  1.5427801D-03 Max=  3.8174327D-03 conv= 1.00D-05.
 RLE energy=       -0.0255090989
 DE(Corr)= -0.25334129E-01 E(CORR)=     -839.94264189     Delta= 7.19D-04
 NORM(A)=   0.17907389D+01
 Iteration Nr.  36
 **********************
 DD1Dir will call FoFMem   1 times, MxPair=        10
 NAB=     0 NAA=    10 NBB=     0.
 A-vector RMS=  1.3174989D-03 Max=  3.2973723D-03 conv= 1.00D-05.
 RLE energy=       -0.0247044637
 DE(Corr)= -0.25461952E-01 E(CORR)=     -839.94276972     Delta=-1.28D-04
 NORM(A)=   0.20001356D+01
 Iteration Nr.  37
 **********************
 DD1Dir will call FoFMem   1 times, MxPair=        10
 NAB=     0 NAA=    10 NBB=     0.
 A-vector RMS=  9.6679107D-04 Max=  4.7214855D-03 conv= 1.00D-05.
 RLE energy=       -0.0234049800
 DE(Corr)= -0.24793978E-01 E(CORR)=     -839.94210174     Delta= 6.68D-04
 NORM(A)=   0.15861630D+01
 Iteration Nr.  38
 **********************
 DD1Dir will call FoFMem   1 times, MxPair=        10
 NAB=     0 NAA=    10 NBB=     0.
 A-vector RMS=  1.9851491D-03 Max=  4.4269394D-03 conv= 1.00D-05.
 RLE energy=       -0.0075042248
 DE(Corr)= -0.23450806E-01 E(CORR)=     -839.94075857     Delta= 1.34D-03
 NORM(A)=   0.11192392D+01
 Iteration Nr.  39
 **********************
 DD1Dir will call FoFMem   1 times, MxPair=        10
 NAB=     0 NAA=    10 NBB=     0.
 A-vector RMS=  5.8882468D-03 Max=  2.0334558D-02 conv= 1.00D-05.
 RLE energy=       -0.0221832457
 DE(Corr)= -0.80070202E-02 E(CORR)=     -839.92531478     Delta= 1.54D-02
 NORM(A)=   0.24345004D+01
 Iteration Nr.  40
 **********************
 DD1Dir will call FoFMem   1 times, MxPair=        10
 NAB=     0 NAA=    10 NBB=     0.
 A-vector RMS=  3.1933270D-03 Max=  2.2758105D-02 conv= 1.00D-05.
 RLE energy=       -0.0254238491
 DE(Corr)= -0.22558202E-01 E(CORR)=     -839.93986597     Delta=-1.46D-02
 NORM(A)=   0.20004544D+01
 Iteration Nr.  41
 **********************
 DD1Dir will call FoFMem   1 times, MxPair=        10
 NAB=     0 NAA=    10 NBB=     0.
 A-vector RMS=  6.7411262D-04 Max=  2.7520824D-03 conv= 1.00D-05.
 RLE energy=       -0.0226055182
 DE(Corr)= -0.25453986E-01 E(CORR)=     -839.94276175     Delta=-2.90D-03
 NORM(A)=   0.16194030D+01
 Iteration Nr.  42
 **********************
 DD1Dir will call FoFMem   1 times, MxPair=        10
 NAB=     0 NAA=    10 NBB=     0.
 A-vector RMS=  2.0332206D-03 Max=  4.1700766D-03 conv= 1.00D-05.
 RLE energy=       -0.0247840800
 DE(Corr)= -0.22736509E-01 E(CORR)=     -839.94004427     Delta= 2.72D-03
 NORM(A)=   0.18997209D+01
 Iteration Nr.  43
 **********************
 DD1Dir will call FoFMem   1 times, MxPair=        10
 NAB=     0 NAA=    10 NBB=     0.
 A-vector RMS=  1.1493540D-03 Max=  4.1637284D-03 conv= 1.00D-05.
 RLE energy=       -0.0212697067
 DE(Corr)= -0.24838180E-01 E(CORR)=     -839.94214594     Delta=-2.10D-03
 NORM(A)=   0.15383446D+01
 Iteration Nr.  44
 **********************
 DD1Dir will call FoFMem   1 times, MxPair=        10
 NAB=     0 NAA=    10 NBB=     0.
 A-vector RMS=  2.5654256D-03 Max=  8.6267914D-03 conv= 1.00D-05.
 RLE energy=       -0.0125242772
 DE(Corr)= -0.21483462E-01 E(CORR)=     -839.93879123     Delta= 3.35D-03
 NORM(A)=   0.12742847D+01
 Iteration Nr.  45
 **********************
 DD1Dir will call FoFMem   1 times, MxPair=        10
 NAB=     0 NAA=    10 NBB=     0.
 A-vector RMS=  3.8036884D-03 Max=  2.5249951D-02 conv= 1.00D-05.
 RLE energy=       -0.0262332247
 DE(Corr)= -0.13071298E-01 E(CORR)=     -839.93037906     Delta= 8.41D-03
 NORM(A)=   0.19237124D+01
 Iteration Nr.  46
 **********************
 DD1Dir will call FoFMem   1 times, MxPair=        10
 NAB=     0 NAA=    10 NBB=     0.
 A-vector RMS=  9.0036249D-04 Max=  2.4002125D-03 conv= 1.00D-05.
 RLE energy=       -0.0240848179
 DE(Corr)= -0.26165016E-01 E(CORR)=     -839.94347278     Delta=-1.31D-02
 NORM(A)=   0.16087564D+01
 Iteration Nr.  47
 **********************
 DD1Dir will call FoFMem   1 times, MxPair=        10
 NAB=     0 NAA=    10 NBB=     0.
 A-vector RMS=  2.4635361D-03 Max=  6.7000303D-03 conv= 1.00D-05.
 RLE energy=       -0.0251953932
 DE(Corr)= -0.24104186E-01 E(CORR)=     -839.94141195     Delta= 2.06D-03
 NORM(A)=   0.19343740D+01
 Iteration Nr.  48
 **********************
 DD1Dir will call FoFMem   1 times, MxPair=        10
 NAB=     0 NAA=    10 NBB=     0.
 A-vector RMS=  7.0548303D-04 Max=  1.6803455D-03 conv= 1.00D-05.
 RLE energy=       -0.0216825378
 DE(Corr)= -0.25216433E-01 E(CORR)=     -839.94252420     Delta=-1.11D-03
 NORM(A)=   0.15606787D+01
 Iteration Nr.  49
 **********************
 DD1Dir will call FoFMem   1 times, MxPair=        10
 NAB=     0 NAA=    10 NBB=     0.
 A-vector RMS=  2.6674397D-03 Max=  8.6993757D-03 conv= 1.00D-05.
 RLE energy=       -0.0261040739
 DE(Corr)= -0.21882470E-01 E(CORR)=     -839.93919023     Delta= 3.33D-03
 NORM(A)=   0.19536790D+01
 Iteration Nr.  50
 **********************
 DD1Dir will call FoFMem   1 times, MxPair=        10
 NAB=     0 NAA=    10 NBB=     0.
 A-vector RMS=  6.8283370D-04 Max=  2.7716484D-03 conv= 1.00D-05.
 RLE energy=       -0.0235934092
 DE(Corr)= -0.26048242E-01 E(CORR)=     -839.94335601     Delta=-4.17D-03
 NORM(A)=   0.17536861D+01
 Iteration Nr.  51
 **********************
 DD1Dir will call FoFMem   1 times, MxPair=        10
 NAB=     0 NAA=    10 NBB=     0.
 A-vector RMS=  1.8786716D-03 Max=  6.0835733D-03 conv= 1.00D-05.
 RLE energy=       -0.0251671785
 DE(Corr)= -0.23705268E-01 E(CORR)=     -839.94101303     Delta= 2.34D-03
 NORM(A)=   0.20489225D+01
 Iteration Nr.  52
 **********************
 DD1Dir will call FoFMem   1 times, MxPair=        10
 NAB=     0 NAA=    10 NBB=     0.
 A-vector RMS=  5.1114180D-04 Max=  3.6561191D-03 conv= 1.00D-05.
 RLE energy=       -0.0255956384
 DE(Corr)= -0.25222597E-01 E(CORR)=     -839.94253036     Delta=-1.52D-03
 NORM(A)=   0.20128686D+01
 Iteration Nr.  53
 **********************
 DD1Dir will call FoFMem   1 times, MxPair=        10
 NAB=     0 NAA=    10 NBB=     0.
 A-vector RMS=  2.1564715D-04 Max=  4.5852555D-04 conv= 1.00D-05.
 RLE energy=       -0.0257900014
 DE(Corr)= -0.25597024E-01 E(CORR)=     -839.94290479     Delta=-3.74D-04
 NORM(A)=   0.20903411D+01
 Iteration Nr.  54
 **********************
 DD1Dir will call FoFMem   1 times, MxPair=        10
 NAB=     0 NAA=    10 NBB=     0.
 A-vector RMS=  1.8675622D-04 Max=  4.3252449D-04 conv= 1.00D-05.
 RLE energy=       -0.0257382582
 DE(Corr)= -0.25796374E-01 E(CORR)=     -839.94310414     Delta=-1.99D-04
 NORM(A)=   0.20208782D+01
 Iteration Nr.  55
 **********************
 DD1Dir will call FoFMem   1 times, MxPair=        10
 NAB=     0 NAA=    10 NBB=     0.
 A-vector RMS=  2.1008615D-04 Max=  5.3673587D-04 conv= 1.00D-05.
 RLE energy=       -0.0257283270
 DE(Corr)= -0.25728253E-01 E(CORR)=     -839.94303602     Delta= 6.81D-05
 NORM(A)=   0.20575695D+01
 Iteration Nr.  56
 **********************
 DD1Dir will call FoFMem   1 times, MxPair=        10
 NAB=     0 NAA=    10 NBB=     0.
 A-vector RMS=  1.0693539D-05 Max=  4.6357271D-05 conv= 1.00D-05.
 RLE energy=       -0.0257741528
 DE(Corr)= -0.25730139E-01 E(CORR)=     -839.94303790     Delta=-1.89D-06
 NORM(A)=   0.20619838D+01
 Iteration Nr.  57
 **********************
 DD1Dir will call FoFMem   1 times, MxPair=        10
 NAB=     0 NAA=    10 NBB=     0.
 A-vector RMS=  2.9117724D-05 Max=  6.2672637D-05 conv= 1.00D-05.
 RLE energy=       -0.0257482444
 DE(Corr)= -0.25772967E-01 E(CORR)=     -839.94308073     Delta=-4.28D-05
 NORM(A)=   0.20581625D+01
 Iteration Nr.  58
 **********************
 DD1Dir will call FoFMem   1 times, MxPair=        10
 NAB=     0 NAA=    10 NBB=     0.
 A-vector RMS=  7.5733882D-06 Max=  1.4868289D-05 conv= 1.00D-05.
 RLE energy=       -0.0257100554
 DE(Corr)= -0.25748099E-01 E(CORR)=     -839.94305586     Delta= 2.49D-05
 NORM(A)=   0.20518017D+01
 Iteration Nr.  59
 **********************
 DD1Dir will call FoFMem   1 times, MxPair=        10
 NAB=     0 NAA=    10 NBB=     0.
 A-vector RMS=  3.1766726D-05 Max=  6.7196548D-05 conv= 1.00D-05.
 RLE energy=       -0.0257480201
 DE(Corr)= -0.25711203E-01 E(CORR)=     -839.94301897     Delta= 3.69D-05
 NORM(A)=   0.20578401D+01
 Iteration Nr.  60
 **********************
 DD1Dir will call FoFMem   1 times, MxPair=        10
 NAB=     0 NAA=    10 NBB=     0.
 A-vector RMS=  5.0341727D-06 Max=  1.0453899D-05 conv= 1.00D-05.
 RLE energy=       -0.0257448556
 DE(Corr)= -0.25747732E-01 E(CORR)=     -839.94305550     Delta=-3.65D-05
 NORM(A)=   0.20574319D+01
 Iteration Nr.  61
 **********************
 DD1Dir will call FoFMem   1 times, MxPair=        10
 NAB=     0 NAA=    10 NBB=     0.
 A-vector RMS=  2.9060710D-06 Max=  6.0511225D-06 conv= 1.00D-05.
 RLE energy=       -0.0257448338
 DE(Corr)= -0.25744734E-01 E(CORR)=     -839.94305250     Delta= 3.00D-06
 NORM(A)=   0.20574435D+01
 Iteration Nr.  62
 **********************
 DD1Dir will call FoFMem   1 times, MxPair=        10
 NAB=     0 NAA=    10 NBB=     0.
 A-vector RMS=  2.8075067D-06 Max=  7.1077358D-06 conv= 1.00D-05.
 RLE energy=       -0.0257435638
 DE(Corr)= -0.25744793E-01 E(CORR)=     -839.94305256     Delta=-5.96D-08
 NORM(A)=   0.20572540D+01
 CI/CC converged in   62 iterations to DelEn=-5.96D-08 Conv= 1.00D-07 ErrA1= 2.81D-06 Conv= 1.00D-05
 Wavefunction amplitudes converged. E(Corr)=     -839.94305256    
 Dominant configurations:
 ***********************
 Spin Case        I    J    A    B          Value
    AA           13        15           -0.395918D+00
    AA           14        16           -0.395918D+00
   AAAA          13   14   15   16      -0.737517D+00
   AAAA          12   13   17   15       0.491359D+00
   AAAA          12   13   19   15       0.698030D+00
   AAAA          12   13   18   16       0.672055D+00
   AAAA          12   14   17   16      -0.491359D+00
   AAAA          12   14   19   16      -0.698030D+00
   AAAA          12   14   18   15      -0.672055D+00
 Largest amplitude= 7.38D-01
 Discarding MO integrals.
 Leave Link  913 at Tue Apr 12 06:13:21 2022, MaxMem=  9663676416 cpu:               8.8 elap:               0.3
 (Enter /nopt/nrel/apps/gaussian/g16C_1/g16/l601.exe)
 Copying SCF densities to generalized density rwf, IOpCl= 1 IROHF=0.

 **********************************************************************

            Population analysis using the SCF Density.

 **********************************************************************

 Orbital symmetries:
 Alpha Orbitals:
       Occupied  (SG) (SG) (SG) (PI) (PI) (SG) (PI) (PI) (SG) (SG)
                 (SG) (DLTA) (PI) (PI)
       Virtual   (PI) (PI) (SG) (DLTA) (SG)
 Beta  Orbitals:
       Occupied  (SG) (SG) (SG) (PI) (PI) (SG) (SG) (PI) (PI)
       Virtual   (SG) (SG) (PI) (PI) (SG) (DLTA) (PI) (PI) (DLTA)
                 (SG)
 Unable to determine electronic state:  partially filled degenerate orbitals.
 Alpha  occ. eigenvalues -- -181.43791 -21.18992 -17.77247 -17.77229 -17.77229
 Alpha  occ. eigenvalues --   -2.83250  -1.78473  -1.78473  -1.78196  -0.46644
 Alpha  occ. eigenvalues --   -0.16117  -0.05309  -0.03723  -0.03723
 Alpha virt. eigenvalues --    0.31067   0.31067   0.32245   0.43184   0.44322
  Beta  occ. eigenvalues -- -181.43285 -21.17731 -17.76716 -17.76522 -17.76522
  Beta  occ. eigenvalues --   -2.70674  -1.64303  -1.63220  -1.63220
  Beta virt. eigenvalues --    0.21162   0.29281   0.44434   0.44434   0.47710
  Beta virt. eigenvalues --    0.52035   0.54363   0.54363   0.54714   0.57510
          Condensed to atoms (all electrons):
               1          2
     1  H    0.969512   0.004832
     2  Ti   0.004832  22.020823
          Atomic-Atomic Spin Densities.
               1          2
     1  H    0.969464   0.004931
     2  Ti   0.004931   4.020674
 Mulliken charges and spin densities:
               1          2
     1  H    0.025656   0.974395
     2  Ti  -0.025656   4.025605
 Sum of Mulliken charges =   0.00000   5.00000
 Mulliken charges and spin densities with hydrogens summed into heavy atoms:
               1          2
     2  Ti   0.000000   5.000000
 N-N= 4.469058978979D+00 E-N=-1.996818189787D+03  KE= 8.364513416623D+02
 Symmetry A1   KE= 6.599267826183D+02
 Symmetry A2   KE= 5.400440307956D-32
 Symmetry B1   KE= 8.826227952198D+01
 Symmetry B2   KE= 8.826227952198D+01
 Symmetry A1   SP= 3.000000000000D+00
 Symmetry A2   SP= 2.999519565324D-32
 Symmetry B1   SP= 1.000000000000D+00
 Symmetry B2   SP= 1.000000000000D+00

 Atomic contributions to Alpha molecular orbitals:
 Alpha occ 1 OE=-181.438 is Ti2-s=1.0000
 Alpha occ 2 OE=-21.190 is Ti2-s=1.0000
 Alpha occ 3 OE=-17.772 is Ti2-p=1.0000
 Alpha occ 4 OE=-17.772 is Ti2-p=1.0000
 Alpha occ 5 OE=-17.772 is Ti2-p=1.0000
 Alpha occ 6 OE=-2.833 is Ti2-s=0.9995
 Alpha occ 7 OE=-1.785 is Ti2-p=0.9998
 Alpha occ 8 OE=-1.785 is Ti2-p=0.9998
 Alpha occ 9 OE=-1.782 is Ti2-p=0.9994
 Alpha occ 10 OE=-0.466 is H1-s=0.9482
 Alpha occ 11 OE=-0.161 is Ti2-s=0.9566
 Alpha occ 12 OE=-0.053 is Ti2-d=1.0000
 Alpha occ 13 OE=-0.037 is Ti2-d=0.8493 Ti2-p=0.1507
 Alpha occ 14 OE=-0.037 is Ti2-d=0.8493 Ti2-p=0.1507
 Alpha vir 15 OE=0.311 is Ti2-p=0.8494 Ti2-d=0.1506
 Alpha vir 16 OE=0.311 is Ti2-p=0.8494 Ti2-d=0.1506
 Alpha vir 17 OE=0.322 is Ti2-p=0.8777 Ti2-d=0.1002
 Alpha vir 18 OE=0.432 is Ti2-d=1.0000
 Alpha vir 19 OE=0.443 is Ti2-d=0.8951

 Atomic contributions to Beta  molecular orbitals:
 Beta  occ 1 OE=-181.433 is Ti2-s=1.0000
 Beta  occ 2 OE=-21.177 is Ti2-s=1.0000
 Beta  occ 3 OE=-17.767 is Ti2-p=1.0000
 Beta  occ 4 OE=-17.765 is Ti2-p=1.0000
 Beta  occ 5 OE=-17.765 is Ti2-p=1.0000
 Beta  occ 6 OE=-2.707 is Ti2-s=0.9999
 Beta  occ 7 OE=-1.643 is Ti2-p=1.0000
 Beta  occ 8 OE=-1.632 is Ti2-p=0.9999
 Beta  occ 9 OE=-1.632 is Ti2-p=0.9999
 Beta  vir 10 OE=0.212 is Ti2-s=0.7758 H1-s=0.2192
 Beta  vir 11 OE=0.293 is H1-s=0.5460 Ti2-p=0.2813 Ti2-s=0.1636
 Beta  vir 12 OE=0.444 is Ti2-p=0.9136
 Beta  vir 13 OE=0.444 is Ti2-p=0.9136
 Beta  vir 14 OE=0.477 is Ti2-d=0.5719 Ti2-p=0.3457
 Beta  vir 15 OE=0.520 is Ti2-d=1.0000
 Beta  vir 16 OE=0.544 is Ti2-d=0.9135
 Beta  vir 17 OE=0.544 is Ti2-d=0.9135
 Beta  vir 18 OE=0.547 is Ti2-d=1.0000
 Beta  vir 19 OE=0.575 is Ti2-d=0.4125 Ti2-p=0.3745 H1-s=0.1855
 
 Leave Link  601 at Tue Apr 12 06:13:22 2022, MaxMem=  9663676416 cpu:               2.0 elap:               0.1
 (Enter /nopt/nrel/apps/gaussian/g16C_1/g16/l9999.exe)

 Test job not archived.
 1\1\GINC-R5I1N8\SP\UCCSD-FC\Gen\H1Ti1(6)\USER\12-Apr-2022\0\\#P CC
 SD(MaxCyc=200,SaveAmplitudes,ReadAmplitudes)/GEN sp pop=AllOrbitals io
 p(3/33=1,3/36=-1)\\test\\0,6\H,0,0.,0.,0.\Ti,0,0.,0.,2.605\\Version=ES
 64L-G16RevC.01\HF=-839.9173078\MP2=-839.9182664\MP3=-839.9191499\MP4D=
 -839.9199804\MP4DQ=-839.9199792\MP4SDQ=-839.9199795\CCSD=-839.9430526\
 S2=8.753048\S2-1=0.\S2A=8.750002\RMSD=9.654e-09\PG=C*V [C*(H1Ti1)]\\@


      TO SUSPECT YOUR OWN MORTALITY IS TO KNOW THE BEGINNING OF TERROR.
      TO LEARN IRREFUTABLY THAT YOU ARE MORTAL IS TO KNOW THE END
      OF TERROR.

                                                  -- JESSICA
                                                     CHILDREN OF DUNE
                                                     BY FRANK HERBERT
 Job cpu time:       0 days  0 hours  0 minutes 47.9 seconds.
 Elapsed time:       0 days  0 hours  0 minutes  1.7 seconds.
 File lengths (MBytes):  RWF=     13 Int=      0 D2E=      0 Chk=      1 Scr=      1
 Normal termination of Gaussian 16 at Tue Apr 12 06:13:22 2022.
