 Entering Gaussian System, Link 0=g16
 Initial command:
 /nopt/nrel/apps/gaussian/g16C_1/g16/l1.exe "/lustre/eaglefs/scratch/user/qc/lih-dissc/lih-1-ccsd-0.8-321g/Gau-27056.inp" -scrdir="/lustre/eaglefs/scratch/user/qc/lih-dissc/lih-1-ccsd-0.8-321g/"
 Default is to use a total of  36 processors:
                               36 via shared-memory
                                1 via Linda
 Entering Link 1 = /nopt/nrel/apps/gaussian/g16C_1/g16/l1.exe PID=     27057.
  
 Copyright (c) 1988-2019, Gaussian, Inc.  All Rights Reserved.
  
 This is part of the Gaussian(R) 16 program.  It is based on
 the Gaussian(R) 09 system (copyright 2009, Gaussian, Inc.),
 the Gaussian(R) 03 system (copyright 2003, Gaussian, Inc.),
 the Gaussian(R) 98 system (copyright 1998, Gaussian, Inc.),
 the Gaussian(R) 94 system (copyright 1995, Gaussian, Inc.),
 the Gaussian 92(TM) system (copyright 1992, Gaussian, Inc.),
 the Gaussian 90(TM) system (copyright 1990, Gaussian, Inc.),
 the Gaussian 88(TM) system (copyright 1988, Gaussian, Inc.),
 the Gaussian 86(TM) system (copyright 1986, Carnegie Mellon
 University), and the Gaussian 82(TM) system (copyright 1983,
 Carnegie Mellon University). Gaussian is a federally registered
 trademark of Gaussian, Inc.
  
 This software contains proprietary and confidential information,
 including trade secrets, belonging to Gaussian, Inc.
  
 This software is provided under written license and may be
 used, copied, transmitted, or stored only in accord with that
 written license.
  
 The following legend is applicable only to US Government
 contracts under FAR:
  
                    RESTRICTED RIGHTS LEGEND
  
 Use, reproduction and disclosure by the US Government is
 subject to restrictions as set forth in subparagraphs (a)
 and (c) of the Commercial Computer Software - Restricted
 Rights clause in FAR 52.227-19.
  
 Gaussian, Inc.
 340 Quinnipiac St., Bldg. 40, Wallingford CT 06492
  
  
 ---------------------------------------------------------------
 Warning -- This program may not be used in any manner that
 competes with the business of Gaussian, Inc. or will provide
 assistance to any competitor of Gaussian, Inc.  The licensee
 of this program is prohibited from giving any competitor of
 Gaussian, Inc. access to this program.  By using this program,
 the user acknowledges that Gaussian, Inc. is engaged in the
 business of creating and licensing software in the field of
 computational chemistry and represents and warrants to the
 licensee that it is not a competitor of Gaussian, Inc. and that
 it will not use this program in any manner prohibited above.
 ---------------------------------------------------------------
  

 Cite this work as:
 Gaussian 16, Revision C.01,
 M. J. Frisch, G. W. Trucks, H. B. Schlegel, G. E. Scuseria, 
 M. A. Robb, J. R. Cheeseman, G. Scalmani, V. Barone, 
 G. A. Petersson, H. Nakatsuji, X. Li, M. Caricato, A. V. Marenich, 
 J. Bloino, B. G. Janesko, R. Gomperts, B. Mennucci, H. P. Hratchian, 
 J. V. Ortiz, A. F. Izmaylov, J. L. Sonnenberg, D. Williams-Young, 
 F. Ding, F. Lipparini, F. Egidi, J. Goings, B. Peng, A. Petrone, 
 T. Henderson, D. Ranasinghe, V. G. Zakrzewski, J. Gao, N. Rega, 
 G. Zheng, W. Liang, M. Hada, M. Ehara, K. Toyota, R. Fukuda, 
 J. Hasegawa, M. Ishida, T. Nakajima, Y. Honda, O. Kitao, H. Nakai, 
 T. Vreven, K. Throssell, J. A. Montgomery, Jr., J. E. Peralta, 
 F. Ogliaro, M. J. Bearpark, J. J. Heyd, E. N. Brothers, K. N. Kudin, 
 V. N. Staroverov, T. A. Keith, R. Kobayashi, J. Normand, 
 K. Raghavachari, A. P. Rendell, J. C. Burant, S. S. Iyengar, 
 J. Tomasi, M. Cossi, J. M. Millam, M. Klene, C. Adamo, R. Cammi, 
 J. W. Ochterski, R. L. Martin, K. Morokuma, O. Farkas, 
 J. B. Foresman, and D. J. Fox, Gaussian, Inc., Wallingford CT, 2019.
 
 ******************************************
 Gaussian 16:  ES64L-G16RevC.01  3-Jul-2019
                28-Mar-2022 
 ******************************************
 %chk=molecule
 Default route: CacheSize=180224 MaxDisk=256GB
 ----------------------------------------------------------------------
 #P CCSD(MaxCyc=200,SaveAmplitudes,ReadAmplitudes)/GEN sp pop=AllOrbita
 ls iop(3/33=1,3/36=-1)
 ----------------------------------------------------------------------
 1/4=180224,38=1,172=1/1;
 2/4=180224,12=2,17=6,18=5,40=1/2;
 3/4=180224,5=7,11=9,25=1,30=1,33=1,36=-1/1,2,3;
 4/4=180224/1;
 5/4=180224,5=2,38=5/2;
 8/4=180224,6=4,9=120000,10=1,24=1/1,4;
 9/4=180224,5=7,6=200,77=1/13;
 6/4=180224,7=2,8=2,9=2,10=2,96=-1/1;
 99/4=180224,5=1,9=1/99;
 Leave Link    1 at Mon Mar 28 13:59:50 2022, MaxMem=           0 cpu:               2.2 elap:               0.1
 (Enter /nopt/nrel/apps/gaussian/g16C_1/g16/l101.exe)
 ----
 test
 ----
 Symbolic Z-matrix:
 Charge =  0 Multiplicity = 1
 H                     0.        0.        0. 
 Li                    0.        0.        0.8 
 
 ITRead=  0  0
 MicOpt= -1 -1
 NAtoms=      2 NQM=        2 NQMF=       0 NMMI=      0 NMMIF=      0
                NMic=       0 NMicF=      0.
                    Isotopes and Nuclear Properties:
 (Nuclear quadrupole moments (NQMom) in fm**2, nuclear magnetic moments (NMagM)
  in nuclear magnetons)

  Atom         1           2
 IAtWgt=           1           7
 AtmWgt=   1.0078250   7.0160045
 NucSpn=           1           3
 AtZEff=  -0.0000000  -0.0000000
 NQMom=    0.0000000  -4.0100000
 NMagM=    2.7928460   3.2564240
 AtZNuc=   1.0000000   3.0000000
 Leave Link  101 at Mon Mar 28 13:59:50 2022, MaxMem=  9663676416 cpu:               3.2 elap:               0.1
 (Enter /nopt/nrel/apps/gaussian/g16C_1/g16/l202.exe)
                          Input orientation:                          
 ---------------------------------------------------------------------
 Center     Atomic      Atomic             Coordinates (Angstroms)
 Number     Number       Type             X           Y           Z
 ---------------------------------------------------------------------
      1          1           0        0.000000    0.000000    0.000000
      2          3           0        0.000000    0.000000    0.800000
 ---------------------------------------------------------------------
 Stoichiometry    HLi
 Framework group  C*V[C*(HLi)]
 Deg. of freedom     1
 Full point group                 C*V     NOp   4
 Largest Abelian subgroup         C2V     NOp   4
 Largest concise Abelian subgroup C1      NOp   1
                         Standard orientation:                         
 ---------------------------------------------------------------------
 Center     Atomic      Atomic             Coordinates (Angstroms)
 Number     Number       Type             X           Y           Z
 ---------------------------------------------------------------------
      1          1           0        0.000000    0.000000   -0.600000
      2          3           0        0.000000    0.000000    0.200000
 ---------------------------------------------------------------------
 Rotational constants (GHZ):           0.0000000         896.0740847         896.0740847
 Leave Link  202 at Mon Mar 28 13:59:50 2022, MaxMem=  9663676416 cpu:               1.0 elap:               0.0
 (Enter /nopt/nrel/apps/gaussian/g16C_1/g16/l301.exe)
 General basis read from cards:  (5D, 7F)
                         Coordinates in L301:                         
 ---------------------------------------------------------------------
 Center     Atomic      Atomic             Coordinates (Angstroms)
 Number     Number       Type             X           Y           Z
 ---------------------------------------------------------------------
      1          1           0        0.000000    0.000000   -0.600000
      2          3           0        0.000000    0.000000    0.200000
 ---------------------------------------------------------------------
 Centers:       1
 STO-3G
 ****
 Centers:       2
 3-21G
 ****
 FixB: optimizing general contractions.
 Ernie: Thresh=  0.10000D-02 Tol=  0.10000D-05 Strict=F.
 IA=     1 ShT= 0 ShC= 0 NL=   1 NS=   0.
 IA=     1 L=0 SC=0 ISt=    0 NBk=    0 NP=    0 IndPr=    0.
 IA=     2 ShT= 0 ShC= 0 NL=   1 NS=   0.
 IA=     2 L=0 SC=0 ISt=    0 NBk=    0 NP=    0 IndPr=    0.
 IA=     2 ShT= 1 ShC= 0 NL=   2 NS=   1.
 IA=     2 L=1 SC=0 ISt=    0 NBk=    0 NP=    0 IndPr=    0.
 LdAtmC:  AtmChg=     1.000000     3.000000
 AtZEff=     -1.0000000     -1.3500000
 NEqShl: 
              1            2            3            4
     1            1            1            1            1
     2            2            2            2            2
     3            3            3            3            3
     4            4            4            4            4
 NEqBas: 
              1            2            3            4
     1            1            1            1            1
     2            2            2            2            2
     3            3            3            3            3
     4            4           -4           -4            4
     5            5           -5            5           -5
     6            6            6            6            6
     7            7            7            7            7
     8            8           -8           -8            8
     9            9           -9            9           -9
    10           10           10           10           10
 There are     6 symmetry adapted cartesian basis functions of A1  symmetry.
   1         1   1   1   1
   2         2   2   2   2
   3         3   3   3   3
   4         6   6   6   6
   5         7   7   7   7
   6        10  10  10  10
 There are     0 symmetry adapted cartesian basis functions of A2  symmetry.
 There are     2 symmetry adapted cartesian basis functions of B1  symmetry.
   7         4   4   4   4
   8         8   8   8   8
 There are     2 symmetry adapted cartesian basis functions of B2  symmetry.
   9         5   5   5   5
  10         9   9   9   9
 Order= 1 2 4 3
 Reordered character table:
              1            2            3            4            5
     1            1            1            1            1            1
     2            2            1            1           -1           -1
     3            4            1           -1           -1            1
     4            3            1           -1            1           -1
 NEqShl: 
              1            2            3            4
     1            1            1            1            1
     2            2            2            2            2
     3            3            3            3            3
     4            4            4            4            4
 NEqBas: 
              1            2            3            4
     1            1            1            1            1
     2            2            2            2            2
     3            3            3            3            3
     4            4           -4           -4            4
     5            5           -5            5           -5
     6            6            6            6            6
     7            7            7            7            7
     8            8           -8           -8            8
     9            9           -9            9           -9
    10           10           10           10           10
 There are     6 symmetry adapted basis functions of A1  symmetry.
   1         1   1   1   1
   2         2   2   2   2
   3         3   3   3   3
   4         6   6   6   6
   5         7   7   7   7
   6        10  10  10  10
 There are     0 symmetry adapted basis functions of A2  symmetry.
 There are     2 symmetry adapted basis functions of B1  symmetry.
   7         4   4   4   4
   8         8   8   8   8
 There are     2 symmetry adapted basis functions of B2  symmetry.
   9         5   5   5   5
  10         9   9   9   9
 Order= 1 2 4 3
 Reordered character table:
              1            2            3            4            5
     1            1            1            1            1            1
     2            2            1            1           -1           -1
     3            4            1           -1           -1            1
     4            3            1           -1            1           -1
    10 basis functions,    18 primitive gaussians,    10 cartesian basis functions
     2 alpha electrons        2 beta electrons
       nuclear repulsion energy         1.9844145409 Hartrees.
 IS=     1 IAt=     1 ISR=     1 T=0 IP=      1 IndIP=      1 IndIPD=      0 C=  2.769344D-01  0.000000D+00                             NZ=T
 IS=     1 IAt=     1 ISR=     1 T=0 IP=      2 IndIP=      2 IndIPD=      1 C=  2.678389D-01  0.000000D+00                             NZ=T
 IS=     1 IAt=     1 ISR=     1 T=0 IP=      3 IndIP=      3 IndIPD=      2 C=  8.347367D-02  0.000000D+00                             NZ=T
 IS=     2 IAt=     2 ISR=     1 T=0 IP=      1 IndIP=      4 IndIPD=      0 C=  7.424571D-01  0.000000D+00                             NZ=T
 IS=     2 IAt=     2 ISR=     1 T=0 IP=      2 IndIP=      5 IndIPD=      1 C=  9.736824D-01  0.000000D+00                             NZ=T
 IS=     2 IAt=     2 ISR=     1 T=0 IP=      3 IndIP=      6 IndIPD=      2 C=  5.265692D-01  0.000000D+00                             NZ=T
 IS=     3 IAt=     2 ISR=     2 T=1 IP=      1 IndIP=      7 IndIPD=      0 C= -1.181663D-01  1.066435D-01                             NZ=T
 IS=     3 IAt=     2 ISR=     2 T=1 IP=      2 IndIP=      8 IndIPD=      1 C=  1.473557D-01  7.547122D-02                             NZ=T
 IS=     4 IAt=     2 ISR=     3 T=1 IP=      1 IndIP=      9 IndIPD=      0 C=  4.951993D-02  1.673876D-02                             NZ=T
 IExCor=    0 DFT=F Ex=HF Corr=None ExCW=0 ScaHFX=  1.000000
 ScaDFX=  1.000000  1.000000  1.000000  1.000000 ScalE2=  1.000000  1.000000
 IRadAn=      5 IRanWt=     -1 IRanGd=            0 ICorTp=0 IEmpDi=  4
 NAtoms=    2 NActive=    2 NUniq=    2 SFac= 1.00D+00 NAtFMM=   60 NAOKFM=F Big=F
 Integral buffers will be    131072 words long.
 Raffenetti 1 integral format.
 Two-electron integral symmetry is turned on.
 Leave Link  301 at Mon Mar 28 13:59:50 2022, MaxMem=  9663676416 cpu:               2.1 elap:               0.1
 (Enter /nopt/nrel/apps/gaussian/g16C_1/g16/l302.exe)
 NPDir=0 NMtPBC=     1 NCelOv=     1 NCel=       1 NClECP=     1 NCelD=      1
         NCelK=      1 NCelE2=     1 NClLst=     1 CellRange=     0.0.
 One-electron integrals computed using PRISM.
 One-electron integral symmetry used in STVInt
 Entering OneElI...
 Calculate overlap and kinetic energy integrals
    NBasis =  10  MinDer = 0  MaxDer = 0
 Requested accuracy = 0.1000D-12
 Symmetry will be used
 PrmmSu-InSpLW:  IPartL=    0 NPrtUS=   36 NPrtUL=    1 DoSpLW=F IThBeg=    0 IThEnd=   35 NThAct=   36.
 PrSmSu:  IncTry=   512 NBBP=             10 NTPThr=   100 NPartT=   36 Incr=           1 LDynOK=F GPUOK=F.
 PrsmSu:  NPrtUS=  36 ThrOK=T IAlg=1 LenDen=           0 ISkipM=0 DoSpLW=F IThBeg=    0 IThEnd=   35.
 Prism:   IPart=     0 DynPar=F LinDyn=F Incr=           1.
 PRISM was handed   268434300 working-precision words and    10 shell-pairs
 PRISM was handed   268434300 working-precision words and    10 shell-pairs
 PRISM was handed   268434300 working-precision words and    10 shell-pairs
 PRISM was handed   268434300 working-precision words and    10 shell-pairs
 PRISM was handed   268434300 working-precision words and    10 shell-pairs
 PRISM was handed   268434300 working-precision words and    10 shell-pairs
 PRISM was handed   268434300 working-precision words and    10 shell-pairs
 PRISM was handed   268434300 working-precision words and    10 shell-pairs
 PRISM was handed   268434300 working-precision words and    10 shell-pairs
 PRISM was handed   268434300 working-precision words and    10 shell-pairs
 PRISM was handed   268434300 working-precision words and    10 shell-pairs
 IPart= 17 NShTot=           0 NBatch=           0 AvBLen=         0.0
 IPart= 27 NShTot=           0 NBatch=           0 AvBLen=         0.0
 IPart= 15 NShTot=           0 NBatch=           0 AvBLen=         0.0
 IPart= 14 NShTot=           0 NBatch=           0 AvBLen=         0.0
 IPart= 18 NShTot=           0 NBatch=           0 AvBLen=         0.0
 IPart= 24 NShTot=           0 NBatch=           0 AvBLen=         0.0
 IPart=  2 NShTot=           1 NBatch=           1 AvBLen=         1.0
 IPart= 23 NShTot=           0 NBatch=           0 AvBLen=         0.0
 IPart= 10 NShTot=           0 NBatch=           0 AvBLen=         0.0
 IPart=  0 NShTot=           6 NBatch=           6 AvBLen=         1.0
 IPart= 16 NShTot=           0 NBatch=           0 AvBLen=         0.0
 PRISM was handed   268434300 working-precision words and    10 shell-pairs
 PRISM was handed   268434300 working-precision words and    10 shell-pairs
 PRISM was handed   268434300 working-precision words and    10 shell-pairs
 IPart= 11 NShTot=           0 NBatch=           0 AvBLen=         0.0
 PRISM was handed   268434300 working-precision words and    10 shell-pairs
 PRISM was handed   268434300 working-precision words and    10 shell-pairs
 IPart= 29 NShTot=           0 NBatch=           0 AvBLen=         0.0
 IPart=  5 NShTot=           0 NBatch=           0 AvBLen=         0.0
 PRISM was handed   268434300 working-precision words and    10 shell-pairs
 PRISM was handed   268434300 working-precision words and    10 shell-pairs
 PRISM was handed   268434300 working-precision words and    10 shell-pairs
 PRISM was handed   268434300 working-precision words and    10 shell-pairs
 PRISM was handed   268434300 working-precision words and    10 shell-pairs
 PRISM was handed   268434300 working-precision words and    10 shell-pairs
 IPart= 28 NShTot=           0 NBatch=           0 AvBLen=         0.0
 IPart= 35 NShTot=           0 NBatch=           0 AvBLen=         0.0
 PRISM was handed   268434300 working-precision words and    10 shell-pairs
 IPart= 21 NShTot=           0 NBatch=           0 AvBLen=         0.0
 PRISM was handed   268434300 working-precision words and    10 shell-pairs
 PRISM was handed   268434300 working-precision words and    10 shell-pairs
 PRISM was handed   268434300 working-precision words and    10 shell-pairs
 PRISM was handed   268434300 working-precision words and    10 shell-pairs
 IPart= 12 NShTot=           0 NBatch=           0 AvBLen=         0.0
 IPart= 32 NShTot=           0 NBatch=           0 AvBLen=         0.0
 IPart=  3 NShTot=           0 NBatch=           0 AvBLen=         0.0
 IPart=  1 NShTot=           3 NBatch=           3 AvBLen=         1.0
 IPart= 26 NShTot=           0 NBatch=           0 AvBLen=         0.0
 IPart= 34 NShTot=           0 NBatch=           0 AvBLen=         0.0
 PRISM was handed   268434300 working-precision words and    10 shell-pairs
 PRISM was handed   268434300 working-precision words and    10 shell-pairs
 PRISM was handed   268434300 working-precision words and    10 shell-pairs
 PRISM was handed   268434300 working-precision words and    10 shell-pairs
 PRISM was handed   268434300 working-precision words and    10 shell-pairs
 PRISM was handed   268434300 working-precision words and    10 shell-pairs
 IPart= 22 NShTot=           0 NBatch=           0 AvBLen=         0.0
 IPart= 33 NShTot=           0 NBatch=           0 AvBLen=         0.0
 IPart= 30 NShTot=           0 NBatch=           0 AvBLen=         0.0
 IPart=  6 NShTot=           0 NBatch=           0 AvBLen=         0.0
 PRISM was handed   268434300 working-precision words and    10 shell-pairs
 PRISM was handed   268434300 working-precision words and    10 shell-pairs
 PRISM was handed   268434300 working-precision words and    10 shell-pairs
 IPart=  9 NShTot=           0 NBatch=           0 AvBLen=         0.0
 IPart= 20 NShTot=           0 NBatch=           0 AvBLen=         0.0
 IPart= 13 NShTot=           0 NBatch=           0 AvBLen=         0.0
 IPart=  4 NShTot=           0 NBatch=           0 AvBLen=         0.0
 IPart= 31 NShTot=           0 NBatch=           0 AvBLen=         0.0
 IPart=  8 NShTot=           0 NBatch=           0 AvBLen=         0.0
 IPart=  7 NShTot=           0 NBatch=           0 AvBLen=         0.0
 IPart= 19 NShTot=           0 NBatch=           0 AvBLen=         0.0
 IPart= 25 NShTot=           0 NBatch=           0 AvBLen=         0.0
 PrSmSu:  NxtVal=             37.
 *** Overlap *** 
                1             2             3             4             5 
      1  0.100000D+01
      2  0.323056D+00  0.100000D+01
      3  0.588453D+00  0.177215D+00  0.100000D+01
      4  0.000000D+00  0.000000D+00  0.000000D+00  0.100000D+01
      5  0.000000D+00  0.000000D+00  0.000000D+00  0.000000D+00  0.100000D+01
      6 -0.500703D+00  0.000000D+00  0.000000D+00  0.000000D+00  0.000000D+00
      7  0.390952D+00  0.140674D+00  0.782781D+00  0.000000D+00  0.000000D+00
      8  0.000000D+00  0.000000D+00  0.000000D+00  0.588593D+00  0.000000D+00
      9  0.000000D+00  0.000000D+00  0.000000D+00  0.000000D+00  0.588593D+00
     10 -0.178442D+00  0.000000D+00  0.000000D+00  0.000000D+00  0.000000D+00
                6             7             8             9            10 
      6  0.100000D+01
      7  0.000000D+00  0.100000D+01
      8  0.000000D+00  0.000000D+00  0.100000D+01
      9  0.000000D+00  0.000000D+00  0.000000D+00  0.100000D+01
     10  0.588593D+00  0.000000D+00  0.000000D+00  0.000000D+00  0.100000D+01
 *** Kinetic Energy *** 
                1             2             3             4             5 
      1  0.760032D+00
      2  0.106127D+00  0.365490D+01
      3  0.859765D-01 -0.135538D+00  0.159492D+00
      4  0.000000D+00  0.000000D+00  0.000000D+00  0.307817D+00
      5  0.000000D+00  0.000000D+00  0.000000D+00  0.000000D+00  0.307817D+00
      6 -0.229549D+00  0.000000D+00  0.000000D+00  0.000000D+00  0.000000D+00
      7  0.287566D-01  0.117904D-01  0.513380D-01  0.000000D+00  0.000000D+00
      8  0.000000D+00  0.000000D+00  0.000000D+00  0.661980D-01  0.000000D+00
      9  0.000000D+00  0.000000D+00  0.000000D+00  0.000000D+00  0.661980D-01
     10 -0.222992D-01  0.000000D+00  0.000000D+00  0.000000D+00  0.000000D+00
                6             7             8             9            10 
      6  0.307817D+00
      7  0.000000D+00  0.428467D-01
      8  0.000000D+00  0.000000D+00  0.714113D-01
      9  0.000000D+00  0.000000D+00  0.000000D+00  0.714113D-01
     10  0.661980D-01  0.000000D+00  0.000000D+00  0.000000D+00  0.714113D-01
 Entering OneElI...
 Calculate potential energy integrals
    NBasis =  10  MinDer = 0  MaxDer = 0
 Requested accuracy = 0.1000D-12
 Symmetry will be used
 PrmmSu-InSpLW:  IPartL=    0 NPrtUS=   36 NPrtUL=    1 DoSpLW=F IThBeg=    0 IThEnd=   35 NThAct=   36.
 PrSmSu:  IncTry=   512 NBBP=             20 NTPThr=   100 NPartT=   36 Incr=           1 LDynOK=F GPUOK=F.
 PrsmSu:  NPrtUS=  36 ThrOK=T IAlg=1 LenDen=           0 ISkipM=0 DoSpLW=F IThBeg=    0 IThEnd=   35.
 Prism:   IPart=     0 DynPar=F LinDyn=F Incr=           1.
 PRISM was handed   268434341 working-precision words and    10 shell-pairs
 PRISM was handed   268434341 working-precision words and    10 shell-pairs
 PRISM was handed   268434341 working-precision words and    10 shell-pairs
 PRISM was handed   268434341 working-precision words and    10 shell-pairs
 PRISM was handed   268434341 working-precision words and    10 shell-pairs
 PRISM was handed   268434341 working-precision words and    10 shell-pairs
 PRISM was handed   268434341 working-precision words and    10 shell-pairs
 PRISM was handed   268434341 working-precision words and    10 shell-pairs
 PRISM was handed   268434341 working-precision words and    10 shell-pairs
 PRISM was handed   268434341 working-precision words and    10 shell-pairs
 PRISM was handed   268434341 working-precision words and    10 shell-pairs
 PRISM was handed   268434341 working-precision words and    10 shell-pairs
 PRISM was handed   268434341 working-precision words and    10 shell-pairs
 PRISM was handed   268434341 working-precision words and    10 shell-pairs
 PRISM was handed   268434341 working-precision words and    10 shell-pairs
 PRISM was handed   268434341 working-precision words and    10 shell-pairs
 PRISM was handed   268434341 working-precision words and    10 shell-pairs
 PRISM was handed   268434341 working-precision words and    10 shell-pairs
 PRISM was handed   268434341 working-precision words and    10 shell-pairs
 PRISM was handed   268434341 working-precision words and    10 shell-pairs
 PRISM was handed   268434341 working-precision words and    10 shell-pairs
 PRISM was handed   268434341 working-precision words and    10 shell-pairs
 PRISM was handed   268434341 working-precision words and    10 shell-pairs
 PRISM was handed   268434341 working-precision words and    10 shell-pairs
 PRISM was handed   268434341 working-precision words and    10 shell-pairs
 PRISM was handed   268434341 working-precision words and    10 shell-pairs
 PRISM was handed   268434341 working-precision words and    10 shell-pairs
 PRISM was handed   268434341 working-precision words and    10 shell-pairs
 PRISM was handed   268434341 working-precision words and    10 shell-pairs
 PRISM was handed   268434341 working-precision words and    10 shell-pairs
 PRISM was handed   268434341 working-precision words and    10 shell-pairs
 PRISM was handed   268434341 working-precision words and    10 shell-pairs
 PRISM was handed   268434341 working-precision words and    10 shell-pairs
 PRISM was handed   268434341 working-precision words and    10 shell-pairs
 PRISM was handed   268434341 working-precision words and    10 shell-pairs
 PRISM was handed   268434341 working-precision words and    10 shell-pairs
 IPart=  3 NShTot=           0 NBatch=           0 AvBLen=         0.0
 IPart=  2 NShTot=           2 NBatch=           1 AvBLen=         2.0
 IPart= 32 NShTot=           0 NBatch=           0 AvBLen=         0.0
 IPart= 24 NShTot=           0 NBatch=           0 AvBLen=         0.0
 IPart= 18 NShTot=           0 NBatch=           0 AvBLen=         0.0
 IPart= 33 NShTot=           0 NBatch=           0 AvBLen=         0.0
 IPart= 27 NShTot=           0 NBatch=           0 AvBLen=         0.0
 IPart=  8 NShTot=           0 NBatch=           0 AvBLen=         0.0
 IPart= 25 NShTot=           0 NBatch=           0 AvBLen=         0.0
 IPart= 10 NShTot=           0 NBatch=           0 AvBLen=         0.0
 IPart=  6 NShTot=           0 NBatch=           0 AvBLen=         0.0
 IPart=  5 NShTot=           0 NBatch=           0 AvBLen=         0.0
 IPart= 16 NShTot=           0 NBatch=           0 AvBLen=         0.0
 IPart= 29 NShTot=           0 NBatch=           0 AvBLen=         0.0
 IPart= 13 NShTot=           0 NBatch=           0 AvBLen=         0.0
 IPart= 21 NShTot=           0 NBatch=           0 AvBLen=         0.0
 IPart= 23 NShTot=           0 NBatch=           0 AvBLen=         0.0
 IPart= 34 NShTot=           0 NBatch=           0 AvBLen=         0.0
 IPart= 15 NShTot=           0 NBatch=           0 AvBLen=         0.0
 IPart= 22 NShTot=           0 NBatch=           0 AvBLen=         0.0
 IPart= 30 NShTot=           0 NBatch=           0 AvBLen=         0.0
 IPart= 31 NShTot=           0 NBatch=           0 AvBLen=         0.0
 IPart= 14 NShTot=           0 NBatch=           0 AvBLen=         0.0
 IPart= 19 NShTot=           0 NBatch=           0 AvBLen=         0.0
 IPart= 26 NShTot=           0 NBatch=           0 AvBLen=         0.0
 IPart= 11 NShTot=           0 NBatch=           0 AvBLen=         0.0
 IPart=  9 NShTot=           0 NBatch=           0 AvBLen=         0.0
 IPart= 20 NShTot=           0 NBatch=           0 AvBLen=         0.0
 IPart= 17 NShTot=           0 NBatch=           0 AvBLen=         0.0
 IPart= 35 NShTot=           0 NBatch=           0 AvBLen=         0.0
 IPart=  1 NShTot=           6 NBatch=           3 AvBLen=         2.0
 IPart=  4 NShTot=           0 NBatch=           0 AvBLen=         0.0
 IPart= 12 NShTot=           0 NBatch=           0 AvBLen=         0.0
 IPart= 28 NShTot=           0 NBatch=           0 AvBLen=         0.0
 IPart=  7 NShTot=           0 NBatch=           0 AvBLen=         0.0
 IPart=  0 NShTot=          12 NBatch=           6 AvBLen=         2.0
 PrSmSu:  NxtVal=             37.
 ***** Potential Energy ***** 
                1             2             3             4             5 
      1  0.307754D+01
      2  0.173991D+01  0.874260D+01
      3  0.134771D+01  0.743632D+00  0.161654D+01
      4  0.000000D+00  0.000000D+00  0.000000D+00  0.150047D+01
      5  0.000000D+00  0.000000D+00  0.000000D+00  0.000000D+00  0.150047D+01
      6 -0.123303D+01 -0.467212D-01 -0.135620D+00  0.000000D+00  0.000000D+00
      7  0.871786D+00  0.705492D+00  0.113108D+01  0.000000D+00  0.000000D+00
      8  0.000000D+00  0.000000D+00  0.000000D+00  0.653623D+00  0.000000D+00
      9  0.000000D+00  0.000000D+00  0.000000D+00  0.000000D+00  0.653623D+00
     10 -0.333946D+00 -0.678185D-02 -0.446917D-01  0.000000D+00  0.000000D+00
                6             7             8             9            10 
      6  0.159067D+01
      7 -0.901396D-01  0.106751D+01
      8  0.000000D+00  0.000000D+00  0.714637D+00
      9  0.000000D+00  0.000000D+00  0.000000D+00  0.714637D+00
     10  0.679780D+00 -0.425037D-01  0.000000D+00  0.000000D+00  0.727473D+00
 ****** Core Hamiltonian ****** 
                1             2             3             4             5 
      1 -0.231751D+01
      2 -0.163379D+01 -0.508770D+01
      3 -0.126173D+01 -0.879170D+00 -0.145704D+01
      4  0.000000D+00  0.000000D+00  0.000000D+00 -0.119266D+01
      5  0.000000D+00  0.000000D+00  0.000000D+00  0.000000D+00 -0.119266D+01
      6  0.100348D+01  0.467212D-01  0.135620D+00  0.000000D+00  0.000000D+00
      7 -0.843030D+00 -0.693701D+00 -0.107974D+01  0.000000D+00  0.000000D+00
      8  0.000000D+00  0.000000D+00  0.000000D+00 -0.587425D+00  0.000000D+00
      9  0.000000D+00  0.000000D+00  0.000000D+00  0.000000D+00 -0.587425D+00
     10  0.311646D+00  0.678185D-02  0.446917D-01  0.000000D+00  0.000000D+00
                6             7             8             9            10 
      6 -0.128285D+01
      7  0.901396D-01 -0.102467D+01
      8  0.000000D+00  0.000000D+00 -0.643226D+00
      9  0.000000D+00  0.000000D+00  0.000000D+00 -0.643226D+00
     10 -0.613582D+00  0.425037D-01  0.000000D+00  0.000000D+00 -0.656062D+00
 SVDSVc IOpt=   1 NormSV=T IR=1
 SVDSVc V= 2.38D+00 1.65D+00 9.63D-01 5.93D-01 2.84D-01 1.23D-01
 SVDSVc IOpt=   1 NormSV=T IR=3
 SVDSVc V= 1.59D+00 4.11D-01
 SVDSVc IOpt=   1 NormSV=T IR=4
 SVDSVc V= 1.59D+00 4.11D-01
 TstOVc:  Largest diagonal error= 6.66D-16 IB=1 I=    2.
 TstOVc:  Largest same sym error= 6.65D-16 IB=1 I=    6 J=    3.
 TstOVc:  Largest diff sym error= 0.00D+00 IB=0 JB=0 I=    0 J=    0.
 Orthogonalized basis functions: 
                 1             2             3             4             5 
      1   0.355233D+00 -0.916691D-01  0.158826D+00  0.698734D+00 -0.646419D+00
      2   0.159442D+00  0.770405D-01  0.917219D+00 -0.384703D+00  0.255315D+00
      3   0.348842D+00  0.246772D+00 -0.229267D+00 -0.710830D-01 -0.708499D+00
      4   0.000000D+00  0.000000D+00  0.000000D+00  0.000000D+00  0.000000D+00
      5   0.000000D+00  0.000000D+00  0.000000D+00  0.000000D+00  0.000000D+00
      6  -0.180604D+00  0.493077D+00  0.398462D-01 -0.382839D+00 -0.982585D+00
      7   0.313780D+00  0.257418D+00 -0.316252D+00 -0.401190D+00  0.107664D+01
      8   0.000000D+00  0.000000D+00  0.000000D+00  0.000000D+00  0.000000D+00
      9   0.000000D+00  0.000000D+00  0.000000D+00  0.000000D+00  0.000000D+00
     10  -0.122579D+00  0.469289D+00  0.132615D+00  0.859330D+00  0.646199D+00
                 6             7             8             9            10 
      1  -0.143419D+01  0.000000D+00  0.000000D+00  0.000000D+00  0.000000D+00
      2   0.326239D+00  0.000000D+00  0.000000D+00  0.000000D+00  0.000000D+00
      3   0.183257D+01  0.000000D+00  0.000000D+00  0.000000D+00  0.000000D+00
      4   0.000000D+00  0.561020D+00  0.110243D+01  0.000000D+00  0.000000D+00
      5   0.000000D+00  0.000000D+00  0.000000D+00  0.561020D+00  0.110243D+01
      6  -0.113372D+01  0.000000D+00  0.000000D+00  0.000000D+00  0.000000D+00
      7  -0.104874D+01  0.000000D+00  0.000000D+00  0.000000D+00  0.000000D+00
      8   0.000000D+00  0.561020D+00 -0.110243D+01  0.000000D+00  0.000000D+00
      9   0.000000D+00  0.000000D+00  0.000000D+00  0.561020D+00 -0.110243D+01
     10   0.469101D+00  0.000000D+00  0.000000D+00  0.000000D+00  0.000000D+00
 NBasis=    10 RedAO= T EigKep=  1.23D-01  NBF=     6     0     2     2
 NBsUse=    10 1.00D-06 EigRej= -1.00D+00 NBFU=     6     0     2     2
 Leave Link  302 at Mon Mar 28 13:59:50 2022, MaxMem=  9663676416 cpu:               3.8 elap:               0.2
 (Enter /nopt/nrel/apps/gaussian/g16C_1/g16/l303.exe)
 DipDrv will not compute anything.
 Fermi contact integrals: 
                 1             2 
      1   0.628247D+00  0.121215D+00
      2   0.413516D-01  0.224271D+01
      3   0.822668D-01  0.291894D-01
      4   0.000000D+00  0.000000D+00
      5   0.000000D+00  0.000000D+00
      6  -0.137224D+00  0.000000D+00
      7   0.463904D-01  0.495199D-01
      8   0.000000D+00  0.000000D+00
      9   0.000000D+00  0.000000D+00
     10  -0.237061D-01  0.000000D+00
 Leave Link  303 at Mon Mar 28 13:59:50 2022, MaxMem=  9663676416 cpu:               1.1 elap:               0.1
 (Enter /nopt/nrel/apps/gaussian/g16C_1/g16/l401.exe)
 ExpMin= 2.86D-02 ExpMax= 3.68D+01 ExpMxC= 3.68D+01 IAcc=3 IRadAn=         5 AccDes= 0.00D+00
 Harris functional with IExCor=  205 and IRadAn=       5 diagonalized for initial guess.
 HarFok:  IExCor=  205 AccDes= 0.00D+00 IRadAn=         5 IDoV= 1 UseB2=F ITyADJ=14
 ICtDFT=  3500011 ScaDFX=  1.000000  1.000000  1.000000  1.000000
 FoFCou: FMM=F IPFlag=           0 FMFlag=      100000 FMFlg1=           0
         NFxFlg=           0 DoJE=T BraDBF=F KetDBF=T FulRan=T
         wScrn=  0.000000 ICntrl=       500 IOpCl=  0 I1Cent=   200000004 NGrid=           0
         NMat0=    1 NMatS0=      1 NMatT0=    0 NMatD0=    1 NMtDS0=    0 NMtDT0=    0
 Petite list used in FoFCou.
 Harris En= -7.75010618028778    
 JPrj=0 DoOrth=F DoCkMO=F.
 Initial guess orbital symmetries:
       Occupied  (SG) (SG)
       Virtual   (SG) (PI) (PI) (SG) (PI) (PI) (SG) (SG)
 The electronic state of the initial guess is 1-SG.
 Leave Link  401 at Mon Mar 28 13:59:51 2022, MaxMem=  9663676416 cpu:               4.6 elap:               0.2
 (Enter /nopt/nrel/apps/gaussian/g16C_1/g16/l502.exe)
 Keep R1 ints in memory in symmetry-blocked form, NReq=7206306.
 FoFCou: FMM=F IPFlag=           0 FMFlag=           0 FMFlg1=           0
         NFxFlg=           0 DoJE=F BraDBF=F KetDBF=F FulRan=T
         wScrn=  0.000000 ICntrl=       600 IOpCl=  0 I1Cent=           0 NGrid=           0
         NMat0=    1 NMatS0=     55 NMatT0=    0 NMatD0=    1 NMtDS0=    0 NMtDT0=    0
 Petite list used in FoFCou.
 Closed shell SCF:
 Using DIIS extrapolation, IDIIS=  1040.
 NGot=  9663676416 LenX=  9663673310 LenY=  9663672428
 Requested convergence on RMS density matrix=1.00D-08 within 128 cycles.
 Requested convergence on MAX density matrix=1.00D-06.
 Requested convergence on             energy=1.00D-06.
 No special actions if energy rises.

 Cycle   1  Pass 1  IDiag  1:
 E= -7.64188394708870    
 DIIS: error= 3.85D-02 at cycle   1 NSaved=   1.
 NSaved= 1 IEnMin= 1 EnMin= -7.64188394708870     IErMin= 1 ErrMin= 3.85D-02
 ErrMax= 3.85D-02  0.00D+00 EMaxC= 1.00D-01 BMatC= 1.26D-02 BMatP= 1.26D-02
 IDIUse=3 WtCom= 6.15D-01 WtEn= 3.85D-01
 Coeff-Com:  0.100D+01
 Coeff-En:   0.100D+01
 Coeff:      0.100D+01
 Gap=     0.295 Goal=   None    Shift=    0.000
 GapD=    0.295 DampG=1.000 DampE=0.500 DampFc=0.5000 IDamp=-1.
 Damping current iteration by 5.00D-01
 RMSDP=2.52D-02 MaxDP=2.07D-01              OVMax= 9.13D-02

 Cycle   2  Pass 1  IDiag  1:
 E= -7.65421399857303     Delta-E=       -0.012330051484 Rises=F Damp=T
 DIIS: error= 2.05D-02 at cycle   2 NSaved=   2.
 NSaved= 2 IEnMin= 2 EnMin= -7.65421399857303     IErMin= 2 ErrMin= 2.05D-02
 ErrMax= 2.05D-02  0.00D+00 EMaxC= 1.00D-01 BMatC= 3.82D-03 BMatP= 1.26D-02
 IDIUse=3 WtCom= 7.95D-01 WtEn= 2.05D-01
 Coeff-Com: -0.119D+01 0.219D+01
 Coeff-En:   0.000D+00 0.100D+01
 Coeff:     -0.944D+00 0.194D+01
 Gap=     0.311 Goal=   None    Shift=    0.000
 RMSDP=1.51D-02 MaxDP=1.21D-01 DE=-1.23D-02 OVMax= 2.37D-02

 Cycle   3  Pass 1  IDiag  1:
 E= -7.66896927791809     Delta-E=       -0.014755279345 Rises=F Damp=F
 DIIS: error= 1.53D-03 at cycle   3 NSaved=   3.
 NSaved= 3 IEnMin= 3 EnMin= -7.66896927791809     IErMin= 3 ErrMin= 1.53D-03
 ErrMax= 1.53D-03  0.00D+00 EMaxC= 1.00D-01 BMatC= 3.35D-05 BMatP= 3.82D-03
 IDIUse=3 WtCom= 9.85D-01 WtEn= 1.53D-02
 Coeff-Com:  0.711D+00-0.133D+01 0.162D+01
 Coeff-En:   0.000D+00 0.000D+00 0.100D+01
 Coeff:      0.701D+00-0.131D+01 0.161D+01
 Gap=     0.318 Goal=   None    Shift=    0.000
 RMSDP=2.35D-03 MaxDP=1.10D-02 DE=-1.48D-02 OVMax= 1.89D-02

 Cycle   4  Pass 1  IDiag  1:
 E= -7.66927144636051     Delta-E=       -0.000302168442 Rises=F Damp=F
 DIIS: error= 7.60D-04 at cycle   4 NSaved=   4.
 NSaved= 4 IEnMin= 4 EnMin= -7.66927144636051     IErMin= 4 ErrMin= 7.60D-04
 ErrMax= 7.60D-04  0.00D+00 EMaxC= 1.00D-01 BMatC= 4.03D-06 BMatP= 3.35D-05
 IDIUse=3 WtCom= 9.92D-01 WtEn= 7.60D-03
 Coeff-Com: -0.468D+00 0.891D+00-0.150D+01 0.208D+01
 Coeff-En:   0.000D+00 0.000D+00 0.000D+00 0.100D+01
 Coeff:     -0.465D+00 0.884D+00-0.149D+01 0.207D+01
 Gap=     0.320 Goal=   None    Shift=    0.000
 RMSDP=1.36D-03 MaxDP=6.90D-03 DE=-3.02D-04 OVMax= 1.17D-02

 Cycle   5  Pass 1  IDiag  1:
 E= -7.66932291540713     Delta-E=       -0.000051469047 Rises=F Damp=F
 DIIS: error= 8.43D-05 at cycle   5 NSaved=   5.
 NSaved= 5 IEnMin= 5 EnMin= -7.66932291540713     IErMin= 5 ErrMin= 8.43D-05
 ErrMax= 8.43D-05  0.00D+00 EMaxC= 1.00D-01 BMatC= 5.51D-08 BMatP= 4.03D-06
 IDIUse=1 WtCom= 1.00D+00 WtEn= 0.00D+00
 Coeff-Com: -0.249D-02 0.326D-02 0.511D-01-0.967D-01 0.104D+01
 Coeff:     -0.249D-02 0.326D-02 0.511D-01-0.967D-01 0.104D+01
 Gap=     0.320 Goal=   None    Shift=    0.000
 RMSDP=1.17D-04 MaxDP=4.33D-04 DE=-5.15D-05 OVMax= 6.83D-04

 Cycle   6  Pass 1  IDiag  1:
 E= -7.66932326550163     Delta-E=       -0.000000350094 Rises=F Damp=F
 DIIS: error= 1.61D-05 at cycle   6 NSaved=   6.
 NSaved= 6 IEnMin= 6 EnMin= -7.66932326550163     IErMin= 6 ErrMin= 1.61D-05
 ErrMax= 1.61D-05  0.00D+00 EMaxC= 1.00D-01 BMatC= 3.44D-09 BMatP= 5.51D-08
 IDIUse=1 WtCom= 1.00D+00 WtEn= 0.00D+00
 Coeff-Com: -0.636D-02 0.121D-01-0.300D-01 0.315D-01-0.418D+00 0.141D+01
 Coeff:     -0.636D-02 0.121D-01-0.300D-01 0.315D-01-0.418D+00 0.141D+01
 Gap=     0.320 Goal=   None    Shift=    0.000
 RMSDP=3.45D-05 MaxDP=1.24D-04 DE=-3.50D-07 OVMax= 2.09D-04

 Cycle   7  Pass 1  IDiag  1:
 E= -7.66932328977375     Delta-E=       -0.000000024272 Rises=F Damp=F
 DIIS: error= 1.56D-06 at cycle   7 NSaved=   7.
 NSaved= 7 IEnMin= 7 EnMin= -7.66932328977375     IErMin= 7 ErrMin= 1.56D-06
 ErrMax= 1.56D-06  0.00D+00 EMaxC= 1.00D-01 BMatC= 1.53D-11 BMatP= 3.44D-09
 IDIUse=1 WtCom= 1.00D+00 WtEn= 0.00D+00
 Coeff-Com:  0.113D-03-0.165D-03 0.652D-03 0.149D-02 0.261D-01-0.147D+00
 Coeff-Com:  0.112D+01
 Coeff:      0.113D-03-0.165D-03 0.652D-03 0.149D-02 0.261D-01-0.147D+00
 Coeff:      0.112D+01
 Gap=     0.320 Goal=   None    Shift=    0.000
 RMSDP=2.39D-06 MaxDP=1.08D-05 DE=-2.43D-08 OVMax= 1.58D-05

 Cycle   8  Pass 1  IDiag  1:
 E= -7.66932328988527     Delta-E=       -0.000000000112 Rises=F Damp=F
 DIIS: error= 7.35D-08 at cycle   8 NSaved=   8.
 NSaved= 8 IEnMin= 8 EnMin= -7.66932328988527     IErMin= 8 ErrMin= 7.35D-08
 ErrMax= 7.35D-08  0.00D+00 EMaxC= 1.00D-01 BMatC= 5.08D-14 BMatP= 1.53D-11
 IDIUse=1 WtCom= 1.00D+00 WtEn= 0.00D+00
 Coeff-Com:  0.122D-03-0.243D-03 0.455D-03-0.105D-02-0.340D-03 0.138D-01
 Coeff-Com: -0.197D+00 0.118D+01
 Coeff:      0.122D-03-0.243D-03 0.455D-03-0.105D-02-0.340D-03 0.138D-01
 Coeff:     -0.197D+00 0.118D+01
 Gap=     0.320 Goal=   None    Shift=    0.000
 RMSDP=1.16D-07 MaxDP=4.35D-07 DE=-1.12D-10 OVMax= 1.11D-06

 Cycle   9  Pass 1  IDiag  1:
 E= -7.66932328988580     Delta-E=       -0.000000000001 Rises=F Damp=F
 DIIS: error= 1.71D-08 at cycle   9 NSaved=   9.
 NSaved= 9 IEnMin= 9 EnMin= -7.66932328988580     IErMin= 9 ErrMin= 1.71D-08
 ErrMax= 1.71D-08  0.00D+00 EMaxC= 1.00D-01 BMatC= 3.19D-15 BMatP= 5.08D-14
 IDIUse=1 WtCom= 1.00D+00 WtEn= 0.00D+00
 Coeff-Com: -0.173D-04 0.347D-04-0.895D-04 0.155D-03-0.637D-03 0.151D-02
 Coeff-Com:  0.152D-01-0.404D+00 0.139D+01
 Coeff:     -0.173D-04 0.347D-04-0.895D-04 0.155D-03-0.637D-03 0.151D-02
 Coeff:      0.152D-01-0.404D+00 0.139D+01
 Gap=     0.320 Goal=   None    Shift=    0.000
 RMSDP=4.51D-08 MaxDP=1.72D-07 DE=-5.36D-13 OVMax= 2.92D-07

 Cycle  10  Pass 1  IDiag  1:
 E= -7.66932328988582     Delta-E=       -0.000000000000 Rises=F Damp=F
 DIIS: error= 2.97D-09 at cycle  10 NSaved=  10.
 NSaved=10 IEnMin=10 EnMin= -7.66932328988582     IErMin=10 ErrMin= 2.97D-09
 ErrMax= 2.97D-09  0.00D+00 EMaxC= 1.00D-01 BMatC= 7.41D-17 BMatP= 3.19D-15
 IDIUse=1 WtCom= 1.00D+00 WtEn= 0.00D+00
 Coeff-Com: -0.108D-06 0.217D-06 0.695D-06 0.161D-05 0.247D-04-0.198D-03
 Coeff-Com:  0.673D-03 0.256D-01-0.217D-01 0.996D+00
 Coeff:     -0.108D-06 0.217D-06 0.695D-06 0.161D-05 0.247D-04-0.198D-03
 Coeff:      0.673D-03 0.256D-01-0.217D-01 0.996D+00
 Gap=     0.320 Goal=   None    Shift=    0.000
 RMSDP=6.05D-09 MaxDP=2.41D-08 DE=-2.13D-14 OVMax= 4.52D-08

 SCF Done:  E(RHF) =  -7.66932328989     A.U. after   10 cycles
            NFock= 10  Conv=0.60D-08     -V/T= 1.9080
 KE= 8.446338780021D+00 PE=-2.216958023755D+01 EE= 4.069503626691D+00
 Leave Link  502 at Mon Mar 28 13:59:51 2022, MaxMem=  9663676416 cpu:               4.0 elap:               0.2
 (Enter /nopt/nrel/apps/gaussian/g16C_1/g16/l801.exe)
 Windowed orbitals will be sorted by symmetry type.
 ExpMin= 2.86D-02 ExpMax= 3.68D+01 ExpMxC= 3.68D+01 IAcc=3 IRadAn=         5 AccDes= 0.00D+00
 HarFok:  IExCor=  205 AccDes= 0.00D+00 IRadAn=         5 IDoV=-2 UseB2=F ITyADJ=14
 ICtDFT= 12500011 ScaDFX=  1.000000  1.000000  1.000000  1.000000
 Largest valence mixing into a core orbital is  1.74D-03
 Largest core mixing into a valence orbital is  1.01D-04
 Range of M.O.s used for correlation:     2    10
 NBasis=    10 NAE=     2 NBE=     2 NFC=     1 NFV=     0
 NROrb=      9 NOA=     1 NOB=     1 NVA=     8 NVB=     8
 Leave Link  801 at Mon Mar 28 13:59:51 2022, MaxMem=  9663676416 cpu:               2.2 elap:               0.1
 (Enter /nopt/nrel/apps/gaussian/g16C_1/g16/l804.exe)
 Closed-shell transformation, MDV=  9663676416 ITran=4 ISComp=2.
 Unit  1 TFree=          4817 TCopy=        115370.
 Semi-Direct transformation.
 ModeAB=           2 MOrb=             1 LenV=    9663556713
 LASXX=           88 LTotXX=          88 LenRXX=          88
 LTotAB=         141 MaxLAS=         495 LenRXY=         495
 NonZer=         603 LenScr=      785920 LnRSAI=           0
 LnScr1=           0 LExtra=      218791 Total=      1005294
 MaxDsk= 34359738368 SrtSym=           F ITran=            4
 DoSDTr:  NPSUse= 36
 JobTyp=0 Pass  1:  I=   1 to   1.
 (rs|ai) integrals will be sorted in core.
 Complete sort for first half transformation.
 First half transformation complete.
 Complete sort for second half transformation.
 Second half transformation complete.
 Spin components of T(2) and E(2):
     alpha-alpha T2 =       0.0000000000D+00 E2=      0.0000000000D+00
     alpha-beta  T2 =       0.8133604049D-02 E2=     -0.1215114494D-01
     beta-beta   T2 =       0.0000000000D+00 E2=      0.0000000000D+00
 ANorm=    0.1004058566D+01
 E2 =    -0.1215114494D-01 EUMP2 =    -0.76814744348246D+01
 Leave Link  804 at Mon Mar 28 13:59:51 2022, MaxMem=  9663676416 cpu:               1.7 elap:               0.1
 (Enter /nopt/nrel/apps/gaussian/g16C_1/g16/l913.exe)
 CIDS:  MDV=  9663676416.
 Frozen-core window:  NFC=   1 NFV=   0.
 IFCWin=0 IBDFC=1 NFBD=     0     0 NFCmp=     0     0 NFFFC=     0     0
 Using DD3R+UMP44R for 1st iteration.
 Using DD4RQ for 2nd and later iterations.
 Keep R2 and R3 ints in memory in symmetry-blocked form, NReq=7208688.
 FoFCou: FMM=F IPFlag=           0 FMFlag=           0 FMFlg1=           0
         NFxFlg=           0 DoJE=F BraDBF=F KetDBF=F FulRan=T
         wScrn=  0.000000 ICntrl=       600 IOpCl=  0 I1Cent=           0 NGrid=           0
         NMat0=    1 NMatS0=     55 NMatT0=    0 NMatD0=    1 NMtDS0=    0 NMtDT0=    0
 Petite list used in FoFCou.
 CIDS: In Core Option IDoMem=           1.
 Coupled Cluster theory with single and double substitutions
 ===========================================================
 Iterations= 200 Convergence= 0.100D-06
 Produce multiple copies of IABC intergrals
 Iteration Nr.   1
 **********************
 DD1Dir will call FoFMem   1 times, MxPair=         2
 NAB=     1 NAA=     0 NBB=     0.
 MP4(R+Q)=  0.98832602D-04
 Maximum subspace dimension=  5
 A-vector RMS=  1.1149764D-02 Max=  1.5486889D-02 conv= 1.00D-05.
 RLE energy=       -0.0181665392
 E3=       -0.41236393D-02        EUMP3=      -0.76855980741D+01
 E4(DQ)=   -0.13842599D-02        UMP4(DQ)=   -0.76869823340D+01
 E4(SDQ)=  -0.14661346D-02        UMP4(SDQ)=  -0.76870642088D+01
 VARIATIONAL ENERGIES WITH THE FIRST-ORDER WAVEFUNCTION:
 DE(Corr)= -0.16174692E-01 E(Corr)=     -7.6854979822    
 NORM(A)=   0.10092979D+01
 Iteration Nr.   2
 **********************
 DD1Dir will call FoFMem   1 times, MxPair=         2
 NAB=     1 NAA=     0 NBB=     0.
 A-vector RMS=  6.6072224D-03 Max=  6.1637251D-03 conv= 1.00D-05.
 RLE energy=       -0.0186121518
 DE(Corr)= -0.18342205E-01 E(CORR)=     -7.6876654946     Delta=-2.17D-03
 NORM(A)=   0.10107466D+01
 Iteration Nr.   3
 **********************
 DD1Dir will call FoFMem   1 times, MxPair=         2
 NAB=     1 NAA=     0 NBB=     0.
 A-vector RMS=  3.1572178D-03 Max=  3.4286427D-03 conv= 1.00D-05.
 RLE energy=       -0.0188285825
 DE(Corr)= -0.18654115E-01 E(CORR)=     -7.6879774046     Delta=-3.12D-04
 NORM(A)=   0.10119534D+01
 Iteration Nr.   4
 **********************
 DD1Dir will call FoFMem   1 times, MxPair=         2
 NAB=     1 NAA=     0 NBB=     0.
 A-vector RMS=  1.0975033D-03 Max=  1.0675041D-03 conv= 1.00D-05.
 RLE energy=       -0.0188631516
 DE(Corr)= -0.18832282E-01 E(CORR)=     -7.6881555723     Delta=-1.78D-04
 NORM(A)=   0.10122538D+01
 Iteration Nr.   5
 **********************
 DD1Dir will call FoFMem   1 times, MxPair=         2
 NAB=     1 NAA=     0 NBB=     0.
 A-vector RMS=  5.6538747D-04 Max=  5.3860937D-04 conv= 1.00D-05.
 RLE energy=       -0.0188523521
 DE(Corr)= -0.18855795E-01 E(CORR)=     -7.6881790854     Delta=-2.35D-05
 NORM(A)=   0.10123479D+01
 Iteration Nr.   6
 **********************
 DD1Dir will call FoFMem   1 times, MxPair=         2
 NAB=     1 NAA=     0 NBB=     0.
 A-vector RMS=  8.9763714D-05 Max=  8.2426730D-05 conv= 1.00D-05.
 RLE energy=       -0.0188582863
 DE(Corr)= -0.18855900E-01 E(CORR)=     -7.6881791899     Delta=-1.05D-07
 NORM(A)=   0.10123653D+01
 Iteration Nr.   7
 **********************
 DD1Dir will call FoFMem   1 times, MxPair=         2
 NAB=     1 NAA=     0 NBB=     0.
 A-vector RMS=  1.3527142D-05 Max=  1.2975985D-05 conv= 1.00D-05.
 RLE energy=       -0.0188583384
 DE(Corr)= -0.18858346E-01 E(CORR)=     -7.6881816358     Delta=-2.45D-06
 NORM(A)=   0.10123638D+01
 Iteration Nr.   8
 **********************
 DD1Dir will call FoFMem   1 times, MxPair=         2
 NAB=     1 NAA=     0 NBB=     0.
 A-vector RMS=  2.7750381D-06 Max=  2.7143164D-06 conv= 1.00D-05.
 RLE energy=       -0.0188582364
 DE(Corr)= -0.18858283E-01 E(CORR)=     -7.6881815726     Delta= 6.32D-08
 NORM(A)=   0.10123632D+01
 CI/CC converged in    8 iterations to DelEn= 6.32D-08 Conv= 1.00D-07 ErrA1= 2.78D-06 Conv= 1.00D-05
 Wavefunction amplitudes converged. E(Corr)=     -7.6881815726    
 Largest amplitude= 7.16D-02
 Discarding MO integrals.
 Leave Link  913 at Mon Mar 28 13:59:51 2022, MaxMem=  9663676416 cpu:               3.2 elap:               0.1
 (Enter /nopt/nrel/apps/gaussian/g16C_1/g16/l601.exe)
 Copying SCF densities to generalized density rwf, IOpCl= 0 IROHF=0.

 **********************************************************************

            Population analysis using the SCF Density.

 **********************************************************************

 Orbital symmetries:
       Occupied  (SG) (SG)
       Virtual   (SG) (PI) (PI) (SG) (SG) (PI) (PI) (SG)
 The electronic state is 1-SG.
 Alpha  occ. eigenvalues --   -2.48335  -0.30877
 Alpha virt. eigenvalues --    0.01100   0.05415   0.05415   0.11231   0.19366
 Alpha virt. eigenvalues --    0.21844   0.21844   0.81733
          Condensed to atoms (all electrons):
               1          2
     1  H    0.633316   0.382440
     2  Li   0.382440   2.601805
 Mulliken charges:
               1
     1  H   -0.015755
     2  Li   0.015755
 Sum of Mulliken charges =   0.00000
 Mulliken charges with hydrogens summed into heavy atoms:
               1
     2  Li   0.000000
 N-N= 1.984414540950D+00 E-N=-2.216958026462D+01  KE= 8.446338780021D+00
 Symmetry A1   KE= 8.446338780021D+00
 Symmetry A2   KE= 0.000000000000D+00
 Symmetry B1   KE= 0.000000000000D+00
 Symmetry B2   KE= 0.000000000000D+00

 Atomic contributions to Alpha molecular orbitals:
 Alpha occ 1 OE=-2.483 is Li2-s=0.9759
 Alpha occ 2 OE=-0.309 is H1-s=0.4835 Li2-s=0.2729 Li2-p=0.2436
 Alpha vir 3 OE=0.011 is Li2-s=0.5517 Li2-p=0.4407
 Alpha vir 4 OE=0.054 is Li2-p=1.0000
 Alpha vir 5 OE=0.054 is Li2-p=1.0000
 Alpha vir 6 OE=0.112 is Li2-p=0.7303 Li2-s=0.2427
 Alpha vir 7 OE=0.194 is Li2-s=0.7144 Li2-p=0.2825
 Alpha vir 8 OE=0.218 is Li2-p=1.0000
 Alpha vir 9 OE=0.218 is Li2-p=1.0000
 Alpha vir 10 OE=0.817 is H1-s=0.4544 Li2-p=0.3032 Li2-s=0.2423
 
 Leave Link  601 at Mon Mar 28 13:59:51 2022, MaxMem=  9663676416 cpu:               1.4 elap:               0.1
 (Enter /nopt/nrel/apps/gaussian/g16C_1/g16/l9999.exe)

 Test job not archived.
 1\1\GINC-R102U34\SP\RCCSD-FC\Gen\H1Li1\USER\28-Mar-2022\0\\#P CCSD
 (MaxCyc=200,SaveAmplitudes,ReadAmplitudes)/GEN sp pop=AllOrbitals iop(
 3/33=1,3/36=-1)\\test\\0,1\H,0,0.,0.,0.\Li,0,0.,0.,0.8\\Version=ES64L-
 G16RevC.01\State=1-SG\HF=-7.6693233\MP2=-7.6814744\MP3=-7.6855981\MP4D
 =-7.6870812\MP4DQ=-7.6869823\MP4SDQ=-7.6870642\CCSD=-7.6881816\RMSD=6.
 047e-09\PG=C*V [C*(H1Li1)]\\@


 IT IS BY EATING THE LIGHT OF A STAR THAT WE EXIST, 
 IN THE FINAL ANALYSIS, 
 JUST AS IT IS BY PERCEIVING THE LIGHT OF STARS
 THAT WE DEFINE THE WORLD AROUND US.

                                    -- GILBERT GROSVENOR
 Job cpu time:       0 days  0 hours  0 minutes 31.7 seconds.
 Elapsed time:       0 days  0 hours  0 minutes  1.3 seconds.
 File lengths (MBytes):  RWF=     13 Int=      0 D2E=      0 Chk=      1 Scr=      1
 Normal termination of Gaussian 16 at Mon Mar 28 13:59:51 2022.
