 Entering Gaussian System, Link 0=g16
 Initial command:
 /nopt/nrel/apps/gaussian/g16C_1/g16/l1.exe "/lustre/eaglefs/scratch/user/qc/lih-dissc/lih-1-ccsd-2.6-ccd/Gau-29121.inp" -scrdir="/lustre/eaglefs/scratch/user/qc/lih-dissc/lih-1-ccsd-2.6-ccd/"
 Default is to use a total of  36 processors:
                               36 via shared-memory
                                1 via Linda
 Entering Link 1 = /nopt/nrel/apps/gaussian/g16C_1/g16/l1.exe PID=     29122.
  
 Copyright (c) 1988-2019, Gaussian, Inc.  All Rights Reserved.
  
 This is part of the Gaussian(R) 16 program.  It is based on
 the Gaussian(R) 09 system (copyright 2009, Gaussian, Inc.),
 the Gaussian(R) 03 system (copyright 2003, Gaussian, Inc.),
 the Gaussian(R) 98 system (copyright 1998, Gaussian, Inc.),
 the Gaussian(R) 94 system (copyright 1995, Gaussian, Inc.),
 the Gaussian 92(TM) system (copyright 1992, Gaussian, Inc.),
 the Gaussian 90(TM) system (copyright 1990, Gaussian, Inc.),
 the Gaussian 88(TM) system (copyright 1988, Gaussian, Inc.),
 the Gaussian 86(TM) system (copyright 1986, Carnegie Mellon
 University), and the Gaussian 82(TM) system (copyright 1983,
 Carnegie Mellon University). Gaussian is a federally registered
 trademark of Gaussian, Inc.
  
 This software contains proprietary and confidential information,
 including trade secrets, belonging to Gaussian, Inc.
  
 This software is provided under written license and may be
 used, copied, transmitted, or stored only in accord with that
 written license.
  
 The following legend is applicable only to US Government
 contracts under FAR:
  
                    RESTRICTED RIGHTS LEGEND
  
 Use, reproduction and disclosure by the US Government is
 subject to restrictions as set forth in subparagraphs (a)
 and (c) of the Commercial Computer Software - Restricted
 Rights clause in FAR 52.227-19.
  
 Gaussian, Inc.
 340 Quinnipiac St., Bldg. 40, Wallingford CT 06492
  
  
 ---------------------------------------------------------------
 Warning -- This program may not be used in any manner that
 competes with the business of Gaussian, Inc. or will provide
 assistance to any competitor of Gaussian, Inc.  The licensee
 of this program is prohibited from giving any competitor of
 Gaussian, Inc. access to this program.  By using this program,
 the user acknowledges that Gaussian, Inc. is engaged in the
 business of creating and licensing software in the field of
 computational chemistry and represents and warrants to the
 licensee that it is not a competitor of Gaussian, Inc. and that
 it will not use this program in any manner prohibited above.
 ---------------------------------------------------------------
  

 Cite this work as:
 Gaussian 16, Revision C.01,
 M. J. Frisch, G. W. Trucks, H. B. Schlegel, G. E. Scuseria, 
 M. A. Robb, J. R. Cheeseman, G. Scalmani, V. Barone, 
 G. A. Petersson, H. Nakatsuji, X. Li, M. Caricato, A. V. Marenich, 
 J. Bloino, B. G. Janesko, R. Gomperts, B. Mennucci, H. P. Hratchian, 
 J. V. Ortiz, A. F. Izmaylov, J. L. Sonnenberg, D. Williams-Young, 
 F. Ding, F. Lipparini, F. Egidi, J. Goings, B. Peng, A. Petrone, 
 T. Henderson, D. Ranasinghe, V. G. Zakrzewski, J. Gao, N. Rega, 
 G. Zheng, W. Liang, M. Hada, M. Ehara, K. Toyota, R. Fukuda, 
 J. Hasegawa, M. Ishida, T. Nakajima, Y. Honda, O. Kitao, H. Nakai, 
 T. Vreven, K. Throssell, J. A. Montgomery, Jr., J. E. Peralta, 
 F. Ogliaro, M. J. Bearpark, J. J. Heyd, E. N. Brothers, K. N. Kudin, 
 V. N. Staroverov, T. A. Keith, R. Kobayashi, J. Normand, 
 K. Raghavachari, A. P. Rendell, J. C. Burant, S. S. Iyengar, 
 J. Tomasi, M. Cossi, J. M. Millam, M. Klene, C. Adamo, R. Cammi, 
 J. W. Ochterski, R. L. Martin, K. Morokuma, O. Farkas, 
 J. B. Foresman, and D. J. Fox, Gaussian, Inc., Wallingford CT, 2019.
 
 ******************************************
 Gaussian 16:  ES64L-G16RevC.01  3-Jul-2019
                28-Mar-2022 
 ******************************************
 %chk=molecule
 Default route: CacheSize=180224 MaxDisk=256GB
 ----------------------------------------------------------------------
 #P CCSD(MaxCyc=200,SaveAmplitudes,ReadAmplitudes)/GEN sp pop=AllOrbita
 ls iop(3/33=1,3/36=-1)
 ----------------------------------------------------------------------
 1/4=180224,38=1,172=1/1;
 2/4=180224,12=2,17=6,18=5,40=1/2;
 3/4=180224,5=7,11=9,25=1,30=1,33=1,36=-1/1,2,3;
 4/4=180224/1;
 5/4=180224,5=2,38=5/2;
 8/4=180224,6=4,9=120000,10=1,24=1/1,4;
 9/4=180224,5=7,6=200,77=1/13;
 6/4=180224,7=2,8=2,9=2,10=2,96=-1/1;
 99/4=180224,5=1,9=1/99;
 Leave Link    1 at Mon Mar 28 14:01:52 2022, MaxMem=           0 cpu:               2.3 elap:               0.1
 (Enter /nopt/nrel/apps/gaussian/g16C_1/g16/l101.exe)
 ----
 test
 ----
 Symbolic Z-matrix:
 Charge =  0 Multiplicity = 1
 H                     0.        0.        0. 
 Li                    0.        0.        2.6 
 
 ITRead=  0  0
 MicOpt= -1 -1
 NAtoms=      2 NQM=        2 NQMF=       0 NMMI=      0 NMMIF=      0
                NMic=       0 NMicF=      0.
                    Isotopes and Nuclear Properties:
 (Nuclear quadrupole moments (NQMom) in fm**2, nuclear magnetic moments (NMagM)
  in nuclear magnetons)

  Atom         1           2
 IAtWgt=           1           7
 AtmWgt=   1.0078250   7.0160045
 NucSpn=           1           3
 AtZEff=  -0.0000000  -0.0000000
 NQMom=    0.0000000  -4.0100000
 NMagM=    2.7928460   3.2564240
 AtZNuc=   1.0000000   3.0000000
 Leave Link  101 at Mon Mar 28 14:01:52 2022, MaxMem=  9663676416 cpu:               3.1 elap:               0.1
 (Enter /nopt/nrel/apps/gaussian/g16C_1/g16/l202.exe)
                          Input orientation:                          
 ---------------------------------------------------------------------
 Center     Atomic      Atomic             Coordinates (Angstroms)
 Number     Number       Type             X           Y           Z
 ---------------------------------------------------------------------
      1          1           0        0.000000    0.000000    0.000000
      2          3           0        0.000000    0.000000    2.600000
 ---------------------------------------------------------------------
 Stoichiometry    HLi
 Framework group  C*V[C*(HLi)]
 Deg. of freedom     1
 Full point group                 C*V     NOp   4
 Largest Abelian subgroup         C2V     NOp   4
 Largest concise Abelian subgroup C1      NOp   1
                         Standard orientation:                         
 ---------------------------------------------------------------------
 Center     Atomic      Atomic             Coordinates (Angstroms)
 Number     Number       Type             X           Y           Z
 ---------------------------------------------------------------------
      1          1           0        0.000000    0.000000   -1.950000
      2          3           0        0.000000    0.000000    0.650000
 ---------------------------------------------------------------------
 Rotational constants (GHZ):           0.0000000          84.8354163          84.8354163
 Leave Link  202 at Mon Mar 28 14:01:53 2022, MaxMem=  9663676416 cpu:               1.0 elap:               0.0
 (Enter /nopt/nrel/apps/gaussian/g16C_1/g16/l301.exe)
 General basis read from cards:  (5D, 7F)
                         Coordinates in L301:                         
 ---------------------------------------------------------------------
 Center     Atomic      Atomic             Coordinates (Angstroms)
 Number     Number       Type             X           Y           Z
 ---------------------------------------------------------------------
      1          1           0        0.000000    0.000000   -1.950000
      2          3           0        0.000000    0.000000    0.650000
 ---------------------------------------------------------------------
 Centers:       1
 STO-3G
 ****
 Centers:       2
 cc-pVDZ
 ****
 FixB: optimizing general contractions.
 Ernie: Thresh=  0.10000D-02 Tol=  0.10000D-05 Strict=F.
 IA=     1 ShT= 0 ShC= 0 NL=   1 NS=   0.
 IA=     1 L=0 SC=0 ISt=    0 NBk=    0 NP=    0 IndPr=    0.
 IA=     2 ShT= 0 ShC= 0 NL=   3 NS=   1.
 IA=     2 L=0 SC=0 ISt=    1 NBk=    2 NP=    8 IndPr=    0.
 DoElim1:  L=0 select primitive    2 from    2 using    1 C= 5.89D-03
 DoElim2:  L=0 select primitive    8 from    1 using    2 C= 5.77D-01
 Delete L=0 primitive    2 from    2 C=  2.10D-22.
 Delete L=0 primitive    1 from    2 C=  3.73D-09.
 Delete L=0 primitive    8 from    1 C=  8.70D-19.
 IA=     2 L=0 SC=0 ISt=    0 NBk=    0 NP=    0 IndPr=   13.
 IA=     2 ShT= 1 ShC= 1 NL=   2 NS=   1.
 IA=     2 L=1 SC=1 ISt=    0 NBk=    0 NP=    0 IndPr=    0.
 IA=     2 ShT= 2 ShC= 2 NL=   1 NS=   1.
 IA=     2 L=2 SC=2 ISt=    0 NBk=    0 NP=    0 IndPr=    0.
 Ernie:  3 primitive shells out of 25 were deleted.
 LdAtmC:  AtmChg=     1.000000     3.000000
 AtZEff=     -1.0000000     -1.3500000
 NEqShl: 
              1            2            3            4
     1            1            1            1            1
     2            2            2            2            2
     3            3            3            3            3
     4            4            4            4            4
     5            5            5            5            5
     6            6            6            6            6
     7            7            7            7            7
 NEqBas: 
              1            2            3            4
     1            1            1            1            1
     2            2            2            2            2
     3            3            3            3            3
     4            4            4            4            4
     5            5           -5           -5            5
     6            6           -6            6           -6
     7            7            7            7            7
     8            8           -8           -8            8
     9            9           -9            9           -9
    10           10           10           10           10
    11           11           11           11           11
    12           12           12           12           12
    13           13           13           13           13
    14           14           14          -14          -14
    15           15          -15          -15           15
    16           16          -16           16          -16
 There are     9 symmetry adapted cartesian basis functions of A1  symmetry.
   1         1   1   1   1
   2         2   2   2   2
   3         3   3   3   3
   4         4   4   4   4
   5         7   7   7   7
   6        10  10  10  10
   7        11  11  11  11
   8        12  12  12  12
   9        13  13  13  13
 There are     1 symmetry adapted cartesian basis functions of A2  symmetry.
  10        14  14  14  14
 There are     3 symmetry adapted cartesian basis functions of B1  symmetry.
  11         5   5   5   5
  12         8   8   8   8
  13        15  15  15  15
 There are     3 symmetry adapted cartesian basis functions of B2  symmetry.
  14         6   6   6   6
  15         9   9   9   9
  16        16  16  16  16
 Order= 1 2 4 3
 Reordered character table:
              1            2            3            4            5
     1            1            1            1            1            1
     2            2            1            1           -1           -1
     3            4            1           -1           -1            1
     4            3            1           -1            1           -1
 NEqShl: 
              1            2            3            4
     1            1            1            1            1
     2            2            2            2            2
     3            3            3            3            3
     4            4            4            4            4
     5            5            5            5            5
     6            6            6            6            6
     7            7            7            7            7
 NEqBas: 
              1            2            3            4
     1            1            1            1            1
     2            2            2            2            2
     3            3            3            3            3
     4            4            4            4            4
     5            5           -5           -5            5
     6            6           -6            6           -6
     7            7            7            7            7
     8            8           -8           -8            8
     9            9           -9            9           -9
    10           10           10           10           10
    11           11           11           11           11
    12           12          -12          -12           12
    13           13          -13           13          -13
    14           14           14           14           14
    15           15           15          -15          -15
 There are     8 symmetry adapted basis functions of A1  symmetry.
   1         1   1   1   1
   2         2   2   2   2
   3         3   3   3   3
   4         4   4   4   4
   5         7   7   7   7
   6        10  10  10  10
   7        11  11  11  11
   8        14  14  14  14
 There are     1 symmetry adapted basis functions of A2  symmetry.
   9        15  15  15  15
 There are     3 symmetry adapted basis functions of B1  symmetry.
  10         5   5   5   5
  11         8   8   8   8
  12        12  12  12  12
 There are     3 symmetry adapted basis functions of B2  symmetry.
  13         6   6   6   6
  14         9   9   9   9
  15        13  13  13  13
 Order= 1 2 4 3
 Reordered character table:
              1            2            3            4            5
     1            1            1            1            1            1
     2            2            1            1           -1           -1
     3            4            1           -1           -1            1
     4            3            1           -1            1           -1
    15 basis functions,    35 primitive gaussians,    16 cartesian basis functions
     2 alpha electrons        2 beta electrons
       nuclear repulsion energy         0.6105890895 Hartrees.
 IS=     1 IAt=     1 ISR=     1 T=0 IP=      1 IndIP=      1 IndIPD=      0 C=  2.769344D-01  0.000000D+00                             NZ=T
 IS=     1 IAt=     1 ISR=     1 T=0 IP=      2 IndIP=      2 IndIPD=      1 C=  2.678389D-01  0.000000D+00                             NZ=T
 IS=     1 IAt=     1 ISR=     1 T=0 IP=      3 IndIP=      3 IndIPD=      2 C=  8.347367D-02  0.000000D+00                             NZ=T
 IS=     2 IAt=     2 ISR=     1 T=0 IP=      1 IndIP=      4 IndIPD=      0 C=  1.296301D-01  0.000000D+00                             NZ=T
 IS=     2 IAt=     2 ISR=     1 T=0 IP=      2 IndIP=      5 IndIPD=      1 C=  2.404528D-01  0.000000D+00                             NZ=T
 IS=     2 IAt=     2 ISR=     1 T=0 IP=      3 IndIP=      6 IndIPD=      2 C=  3.994569D-01  0.000000D+00                             NZ=T
 IS=     2 IAt=     2 ISR=     1 T=0 IP=      4 IndIP=      7 IndIPD=      3 C=  5.708542D-01  0.000000D+00                             NZ=T
 IS=     2 IAt=     2 ISR=     1 T=0 IP=      5 IndIP=      8 IndIPD=      4 C=  6.317030D-01  0.000000D+00                             NZ=T
 IS=     2 IAt=     2 ISR=     1 T=0 IP=      6 IndIP=      9 IndIPD=      5 C=  4.558532D-01  0.000000D+00                             NZ=T
 IS=     2 IAt=     2 ISR=     1 T=0 IP=      7 IndIP=     10 IndIPD=      6 C=  1.282724D-01  0.000000D+00                             NZ=T
 IS=     3 IAt=     2 ISR=     2 T=0 IP=      1 IndIP=     11 IndIPD=      0 C= -1.035279D-03  0.000000D+00                             NZ=T
 IS=     3 IAt=     2 ISR=     2 T=0 IP=      2 IndIP=     12 IndIPD=      1 C= -5.681325D-03  0.000000D+00                             NZ=T
 IS=     3 IAt=     2 ISR=     2 T=0 IP=      3 IndIP=     13 IndIPD=      2 C= -1.930258D-02  0.000000D+00                             NZ=T
 IS=     3 IAt=     2 ISR=     2 T=0 IP=      4 IndIP=     14 IndIPD=      3 C= -4.723991D-02  0.000000D+00                             NZ=T
 IS=     3 IAt=     2 ISR=     2 T=0 IP=      5 IndIP=     15 IndIPD=      4 C= -8.136441D-02  0.000000D+00                             NZ=T
 IS=     3 IAt=     2 ISR=     2 T=0 IP=      6 IndIP=     16 IndIPD=      5 C=  1.089727D-01  0.000000D+00                             NZ=T
 IS=     4 IAt=     2 ISR=     3 T=0 IP=      1 IndIP=     17 IndIPD=      0 C=  4.884946D-02  0.000000D+00                             NZ=T
 IS=     5 IAt=     2 ISR=     4 T=1 IP=      1 IndIP=     18 IndIPD=      0 C=  0.000000D+00  9.248065D-02                             NZ=T
 IS=     5 IAt=     2 ISR=     4 T=1 IP=      2 IndIP=     19 IndIPD=      1 C=  0.000000D+00  6.583497D-02                             NZ=T
 IS=     5 IAt=     2 ISR=     4 T=1 IP=      3 IndIP=     20 IndIPD=      2 C=  0.000000D+00  4.562255D-02                             NZ=T
 IS=     6 IAt=     2 ISR=     5 T=1 IP=      1 IndIP=     21 IndIPD=      0 C=  0.000000D+00  1.348597D-02                             NZ=T
 IS=     7 IAt=     2 ISR=     6 T=2 IP=      1 IndIP=     22 IndIPD=      1 C=  0.000000D+00  0.000000D+00  4.258771D-02  0.000000D+00 NZ=T
 IExCor=    0 DFT=F Ex=HF Corr=None ExCW=0 ScaHFX=  1.000000
 ScaDFX=  1.000000  1.000000  1.000000  1.000000 ScalE2=  1.000000  1.000000
 IRadAn=      5 IRanWt=     -1 IRanGd=            0 ICorTp=0 IEmpDi=  4
 NAtoms=    2 NActive=    2 NUniq=    2 SFac= 1.00D+00 NAtFMM=   60 NAOKFM=F Big=F
 Integral buffers will be    131072 words long.
 Raffenetti 1 integral format.
 Two-electron integral symmetry is turned on.
 Leave Link  301 at Mon Mar 28 14:01:53 2022, MaxMem=  9663676416 cpu:               1.9 elap:               0.1
 (Enter /nopt/nrel/apps/gaussian/g16C_1/g16/l302.exe)
 NPDir=0 NMtPBC=     1 NCelOv=     1 NCel=       1 NClECP=     1 NCelD=      1
         NCelK=      1 NCelE2=     1 NClLst=     1 CellRange=     0.0.
 One-electron integrals computed using PRISM.
 One-electron integral symmetry used in STVInt
 Entering OneElI...
 Calculate overlap and kinetic energy integrals
    NBasis =  15  MinDer = 0  MaxDer = 0
 Requested accuracy = 0.1000D-12
 Symmetry will be used
 PrmmSu-InSpLW:  IPartL=    0 NPrtUS=   36 NPrtUL=    1 DoSpLW=F IThBeg=    0 IThEnd=   35 NThAct=   36.
 PrSmSu:  IncTry=   512 NBBP=             28 NTPThr=   100 NPartT=   36 Incr=           1 LDynOK=F GPUOK=F.
 PrsmSu:  NPrtUS=  36 ThrOK=T IAlg=1 LenDen=           0 ISkipM=0 DoSpLW=F IThBeg=    0 IThEnd=   35.
 Prism:   IPart=     0 DynPar=F LinDyn=F Incr=           1.
 PRISM was handed   268432144 working-precision words and    28 shell-pairs
 PRISM was handed   268432144 working-precision words and    28 shell-pairs
 PRISM was handed   268432144 working-precision words and    28 shell-pairs
 PRISM was handed   268432144 working-precision words and    28 shell-pairs
 PRISM was handed   268432144 working-precision words and    28 shell-pairs
 PRISM was handed   268432144 working-precision words and    28 shell-pairs
 PRISM was handed   268432144 working-precision words and    28 shell-pairs
 PRISM was handed   268432144 working-precision words and    28 shell-pairs
 PRISM was handed   268432144 working-precision words and    28 shell-pairs
 PRISM was handed   268432144 working-precision words and    28 shell-pairs
 PRISM was handed   268432144 working-precision words and    28 shell-pairs
 PRISM was handed   268432144 working-precision words and    28 shell-pairs
 IPart= 32 NShTot=           0 NBatch=           0 AvBLen=         0.0
 IPart=  5 NShTot=           0 NBatch=           0 AvBLen=         0.0
 IPart= 13 NShTot=           0 NBatch=           0 AvBLen=         0.0
 IPart=  3 NShTot=           0 NBatch=           0 AvBLen=         0.0
 IPart= 35 NShTot=           0 NBatch=           0 AvBLen=         0.0
 IPart=  4 NShTot=           0 NBatch=           0 AvBLen=         0.0
 IPart= 19 NShTot=           0 NBatch=           0 AvBLen=         0.0
 IPart= 21 NShTot=           0 NBatch=           0 AvBLen=         0.0
 IPart=  2 NShTot=           0 NBatch=           0 AvBLen=         0.0
 IPart=  9 NShTot=           0 NBatch=           0 AvBLen=         0.0
 PRISM was handed   268432144 working-precision words and    28 shell-pairs
 PRISM was handed   268432144 working-precision words and    28 shell-pairs
 PRISM was handed   268432144 working-precision words and    28 shell-pairs
 PRISM was handed   268432144 working-precision words and    28 shell-pairs
 PRISM was handed   268432144 working-precision words and    28 shell-pairs
 IPart=  8 NShTot=           0 NBatch=           0 AvBLen=         0.0
 PRISM was handed   268432144 working-precision words and    28 shell-pairs
 PRISM was handed   268432144 working-precision words and    28 shell-pairs
 PRISM was handed   268432144 working-precision words and    28 shell-pairs
 IPart= 22 NShTot=           0 NBatch=           0 AvBLen=         0.0
 IPart= 14 NShTot=           0 NBatch=           0 AvBLen=         0.0
 PRISM was handed   268432144 working-precision words and    28 shell-pairs
 PRISM was handed   268432144 working-precision words and    28 shell-pairs
 IPart= 20 NShTot=           0 NBatch=           0 AvBLen=         0.0
 PRISM was handed   268432144 working-precision words and    28 shell-pairs
 PRISM was handed   268432144 working-precision words and    28 shell-pairs
 PRISM was handed   268432144 working-precision words and    28 shell-pairs
 IPart= 34 NShTot=           0 NBatch=           0 AvBLen=         0.0
 IPart=  6 NShTot=           0 NBatch=           0 AvBLen=         0.0
 IPart= 12 NShTot=           0 NBatch=           0 AvBLen=         0.0
 IPart= 24 NShTot=           0 NBatch=           0 AvBLen=         0.0
 IPart= 29 NShTot=           0 NBatch=           0 AvBLen=         0.0
 IPart= 23 NShTot=           0 NBatch=           0 AvBLen=         0.0
 IPart= 26 NShTot=           0 NBatch=           0 AvBLen=         0.0
 PRISM was handed   268432144 working-precision words and    28 shell-pairs
 PRISM was handed   268432144 working-precision words and    28 shell-pairs
 PRISM was handed   268432144 working-precision words and    28 shell-pairs
 IPart= 11 NShTot=           0 NBatch=           0 AvBLen=         0.0
 PRISM was handed   268432144 working-precision words and    28 shell-pairs
 PRISM was handed   268432144 working-precision words and    28 shell-pairs
 PRISM was handed   268432144 working-precision words and    28 shell-pairs
 IPart= 31 NShTot=           0 NBatch=           0 AvBLen=         0.0
 IPart= 10 NShTot=           0 NBatch=           0 AvBLen=         0.0
 IPart= 28 NShTot=           0 NBatch=           0 AvBLen=         0.0
 IPart= 33 NShTot=           0 NBatch=           0 AvBLen=         0.0
 PRISM was handed   268432144 working-precision words and    28 shell-pairs
 PRISM was handed   268432144 working-precision words and    28 shell-pairs
 PRISM was handed   268432144 working-precision words and    28 shell-pairs
 PRISM was handed   268432144 working-precision words and    28 shell-pairs
 PRISM was handed   268432144 working-precision words and    28 shell-pairs
 IPart= 15 NShTot=           0 NBatch=           0 AvBLen=         0.0
 IPart= 30 NShTot=           0 NBatch=           0 AvBLen=         0.0
 IPart= 27 NShTot=           0 NBatch=           0 AvBLen=         0.0
 IPart=  1 NShTot=           1 NBatch=           1 AvBLen=         1.0
 IPart=  0 NShTot=          27 NBatch=          27 AvBLen=         1.0
 IPart= 16 NShTot=           0 NBatch=           0 AvBLen=         0.0
 IPart= 17 NShTot=           0 NBatch=           0 AvBLen=         0.0
 IPart=  7 NShTot=           0 NBatch=           0 AvBLen=         0.0
 IPart= 25 NShTot=           0 NBatch=           0 AvBLen=         0.0
 IPart= 18 NShTot=           0 NBatch=           0 AvBLen=         0.0
 PrSmSu:  NxtVal=             37.
 *** Overlap *** 
                1             2             3             4             5 
      1  0.100000D+01
      2  0.720297D-02  0.100000D+01
      3  0.182127D+00  0.130369D+00  0.100000D+01
      4  0.223790D+00  0.157971D+00  0.861205D+00  0.100000D+01
      5  0.000000D+00  0.000000D+00  0.000000D+00  0.000000D+00  0.100000D+01
      6  0.000000D+00  0.000000D+00  0.000000D+00  0.000000D+00  0.000000D+00
      7 -0.309854D+00  0.000000D+00  0.000000D+00  0.000000D+00  0.000000D+00
      8  0.000000D+00  0.000000D+00  0.000000D+00  0.000000D+00  0.626620D+00
      9  0.000000D+00  0.000000D+00  0.000000D+00  0.000000D+00  0.000000D+00
     10 -0.304802D+00  0.000000D+00  0.000000D+00  0.000000D+00  0.000000D+00
     11  0.327202D+00  0.000000D+00  0.000000D+00  0.000000D+00  0.000000D+00
     12  0.000000D+00  0.000000D+00  0.000000D+00  0.000000D+00  0.000000D+00
     13  0.000000D+00  0.000000D+00  0.000000D+00  0.000000D+00  0.000000D+00
     14  0.000000D+00  0.000000D+00  0.000000D+00  0.000000D+00  0.000000D+00
     15  0.000000D+00  0.000000D+00  0.000000D+00  0.000000D+00  0.000000D+00
                6             7             8             9            10 
      6  0.100000D+01
      7  0.000000D+00  0.100000D+01
      8  0.000000D+00  0.000000D+00  0.100000D+01
      9  0.626620D+00  0.000000D+00  0.000000D+00  0.100000D+01
     10  0.000000D+00  0.626620D+00  0.000000D+00  0.000000D+00  0.100000D+01
     11  0.000000D+00  0.000000D+00  0.000000D+00  0.000000D+00  0.000000D+00
     12  0.000000D+00  0.000000D+00  0.000000D+00  0.000000D+00  0.000000D+00
     13  0.000000D+00  0.000000D+00  0.000000D+00  0.000000D+00  0.000000D+00
     14  0.000000D+00  0.000000D+00  0.000000D+00  0.000000D+00  0.000000D+00
     15  0.000000D+00  0.000000D+00  0.000000D+00  0.000000D+00  0.000000D+00
               11            12            13            14            15 
     11  0.100000D+01
     12  0.000000D+00  0.100000D+01
     13  0.000000D+00  0.000000D+00  0.100000D+01
     14  0.000000D+00  0.000000D+00  0.000000D+00  0.100000D+01
     15  0.000000D+00  0.000000D+00  0.000000D+00  0.000000D+00  0.100000D+01
 *** Kinetic Energy *** 
                1             2             3             4             5 
      1  0.760032D+00
      2 -0.423898D-02  0.362154D+01
      3  0.407636D-02 -0.261904D+00  0.139297D+00
      4  0.100183D-01  0.128893D-01  0.513567D-01  0.420750D-01
      5  0.000000D+00  0.000000D+00  0.000000D+00  0.000000D+00  0.249967D+00
      6  0.000000D+00  0.000000D+00  0.000000D+00  0.000000D+00  0.000000D+00
      7 -0.327743D-01  0.000000D+00  0.000000D+00  0.000000D+00  0.000000D+00
      8  0.000000D+00  0.000000D+00  0.000000D+00  0.000000D+00  0.578002D-01
      9  0.000000D+00  0.000000D+00  0.000000D+00  0.000000D+00  0.000000D+00
     10 -0.262477D-01  0.000000D+00  0.000000D+00  0.000000D+00  0.000000D+00
     11  0.754262D-01  0.000000D+00  0.000000D+00  0.000000D+00  0.000000D+00
     12  0.000000D+00  0.000000D+00  0.000000D+00  0.000000D+00  0.000000D+00
     13  0.000000D+00  0.000000D+00  0.000000D+00  0.000000D+00  0.000000D+00
     14  0.000000D+00  0.000000D+00  0.000000D+00  0.000000D+00  0.000000D+00
     15  0.000000D+00  0.000000D+00  0.000000D+00  0.000000D+00  0.000000D+00
                6             7             8             9            10 
      6  0.249967D+00
      7  0.000000D+00  0.249967D+00
      8  0.000000D+00  0.000000D+00  0.600750D-01
      9  0.578002D-01  0.000000D+00  0.000000D+00  0.600750D-01
     10  0.000000D+00  0.578002D-01  0.000000D+00  0.000000D+00  0.600750D-01
     11  0.000000D+00  0.000000D+00  0.000000D+00  0.000000D+00  0.000000D+00
     12  0.000000D+00  0.000000D+00  0.000000D+00  0.000000D+00  0.000000D+00
     13  0.000000D+00  0.000000D+00  0.000000D+00  0.000000D+00  0.000000D+00
     14  0.000000D+00  0.000000D+00  0.000000D+00  0.000000D+00  0.000000D+00
     15  0.000000D+00  0.000000D+00  0.000000D+00  0.000000D+00  0.000000D+00
               11            12            13            14            15 
     11  0.433650D+00
     12  0.000000D+00  0.433650D+00
     13  0.000000D+00  0.000000D+00  0.433650D+00
     14  0.000000D+00  0.000000D+00  0.000000D+00  0.433650D+00
     15  0.000000D+00  0.000000D+00  0.000000D+00  0.000000D+00  0.433650D+00
 Entering OneElI...
 Calculate potential energy integrals
    NBasis =  15  MinDer = 0  MaxDer = 0
 Requested accuracy = 0.1000D-12
 Symmetry will be used
 PrmmSu-InSpLW:  IPartL=    0 NPrtUS=   36 NPrtUL=    1 DoSpLW=F IThBeg=    0 IThEnd=   35 NThAct=   36.
 PrSmSu:  IncTry=   512 NBBP=             56 NTPThr=   100 NPartT=   36 Incr=           1 LDynOK=F GPUOK=F.
 PrsmSu:  NPrtUS=  36 ThrOK=T IAlg=1 LenDen=           0 ISkipM=0 DoSpLW=F IThBeg=    0 IThEnd=   35.
 Prism:   IPart=     0 DynPar=F LinDyn=F Incr=           1.
 PRISM was handed   268432264 working-precision words and    28 shell-pairs
 PRISM was handed   268432264 working-precision words and    28 shell-pairs
 PRISM was handed   268432264 working-precision words and    28 shell-pairs
 PRISM was handed   268432264 working-precision words and    28 shell-pairs
 PRISM was handed   268432264 working-precision words and    28 shell-pairs
 PRISM was handed   268432264 working-precision words and    28 shell-pairs
 PRISM was handed   268432264 working-precision words and    28 shell-pairs
 PRISM was handed   268432264 working-precision words and    28 shell-pairs
 PRISM was handed   268432264 working-precision words and    28 shell-pairs
 PRISM was handed   268432264 working-precision words and    28 shell-pairs
 PRISM was handed   268432264 working-precision words and    28 shell-pairs
 PRISM was handed   268432264 working-precision words and    28 shell-pairs
 PRISM was handed   268432264 working-precision words and    28 shell-pairs
 PRISM was handed   268432264 working-precision words and    28 shell-pairs
 PRISM was handed   268432264 working-precision words and    28 shell-pairs
 PRISM was handed   268432264 working-precision words and    28 shell-pairs
 PRISM was handed   268432264 working-precision words and    28 shell-pairs
 PRISM was handed   268432264 working-precision words and    28 shell-pairs
 PRISM was handed   268432264 working-precision words and    28 shell-pairs
 PRISM was handed   268432264 working-precision words and    28 shell-pairs
 PRISM was handed   268432264 working-precision words and    28 shell-pairs
 PRISM was handed   268432264 working-precision words and    28 shell-pairs
 PRISM was handed   268432264 working-precision words and    28 shell-pairs
 PRISM was handed   268432264 working-precision words and    28 shell-pairs
 PRISM was handed   268432264 working-precision words and    28 shell-pairs
 PRISM was handed   268432264 working-precision words and    28 shell-pairs
 PRISM was handed   268432264 working-precision words and    28 shell-pairs
 PRISM was handed   268432264 working-precision words and    28 shell-pairs
 PRISM was handed   268432264 working-precision words and    28 shell-pairs
 PRISM was handed   268432264 working-precision words and    28 shell-pairs
 PRISM was handed   268432264 working-precision words and    28 shell-pairs
 PRISM was handed   268432264 working-precision words and    28 shell-pairs
 PRISM was handed   268432264 working-precision words and    28 shell-pairs
 PRISM was handed   268432264 working-precision words and    28 shell-pairs
 PRISM was handed   268432264 working-precision words and    28 shell-pairs
 PRISM was handed   268432264 working-precision words and    28 shell-pairs
 IPart= 25 NShTot=           0 NBatch=           0 AvBLen=         0.0
 IPart= 22 NShTot=           0 NBatch=           0 AvBLen=         0.0
 IPart=  7 NShTot=           0 NBatch=           0 AvBLen=         0.0
 IPart= 26 NShTot=           0 NBatch=           0 AvBLen=         0.0
 IPart= 28 NShTot=           0 NBatch=           0 AvBLen=         0.0
 IPart= 16 NShTot=           0 NBatch=           0 AvBLen=         0.0
 IPart=  8 NShTot=           0 NBatch=           0 AvBLen=         0.0
 IPart= 30 NShTot=           0 NBatch=           0 AvBLen=         0.0
 IPart= 17 NShTot=           0 NBatch=           0 AvBLen=         0.0
 IPart=  2 NShTot=           0 NBatch=           0 AvBLen=         0.0
 IPart= 15 NShTot=           0 NBatch=           0 AvBLen=         0.0
 IPart= 12 NShTot=           0 NBatch=           0 AvBLen=         0.0
 IPart= 18 NShTot=           0 NBatch=           0 AvBLen=         0.0
 IPart= 24 NShTot=           0 NBatch=           0 AvBLen=         0.0
 IPart= 21 NShTot=           0 NBatch=           0 AvBLen=         0.0
 IPart= 33 NShTot=           0 NBatch=           0 AvBLen=         0.0
 IPart= 34 NShTot=           0 NBatch=           0 AvBLen=         0.0
 IPart= 31 NShTot=           0 NBatch=           0 AvBLen=         0.0
 IPart= 19 NShTot=           0 NBatch=           0 AvBLen=         0.0
 IPart= 20 NShTot=           0 NBatch=           0 AvBLen=         0.0
 IPart= 10 NShTot=           0 NBatch=           0 AvBLen=         0.0
 IPart= 29 NShTot=           0 NBatch=           0 AvBLen=         0.0
 IPart= 32 NShTot=           0 NBatch=           0 AvBLen=         0.0
 IPart=  4 NShTot=           0 NBatch=           0 AvBLen=         0.0
 IPart=  3 NShTot=           0 NBatch=           0 AvBLen=         0.0
 IPart= 27 NShTot=           0 NBatch=           0 AvBLen=         0.0
 IPart= 11 NShTot=           0 NBatch=           0 AvBLen=         0.0
 IPart= 14 NShTot=           0 NBatch=           0 AvBLen=         0.0
 IPart=  9 NShTot=           0 NBatch=           0 AvBLen=         0.0
 IPart=  6 NShTot=           0 NBatch=           0 AvBLen=         0.0
 IPart=  5 NShTot=           0 NBatch=           0 AvBLen=         0.0
 IPart= 13 NShTot=           0 NBatch=           0 AvBLen=         0.0
 IPart= 23 NShTot=           0 NBatch=           0 AvBLen=         0.0
 IPart= 35 NShTot=           0 NBatch=           0 AvBLen=         0.0
 IPart=  1 NShTot=           2 NBatch=           1 AvBLen=         2.0
 IPart=  0 NShTot=          54 NBatch=          27 AvBLen=         2.0
 PrSmSu:  NxtVal=             37.
 ***** Potential Energy ***** 
                1             2             3             4             5 
      1  0.183720D+01
      2  0.253739D-01  0.826986D+01
      3  0.258515D+00  0.224307D+00  0.127649D+01
      4  0.300963D+00  0.664116D+00  0.100102D+01  0.985000D+00
      5  0.000000D+00  0.000000D+00  0.000000D+00  0.000000D+00  0.123426D+01
      6  0.000000D+00  0.000000D+00  0.000000D+00  0.000000D+00  0.000000D+00
      7 -0.442261D+00 -0.576175D-02 -0.736737D-01 -0.715533D-01  0.000000D+00
      8  0.000000D+00  0.000000D+00  0.000000D+00  0.000000D+00  0.574384D+00
      9  0.000000D+00  0.000000D+00  0.000000D+00  0.000000D+00  0.000000D+00
     10 -0.395456D+00 -0.992795D-03 -0.455116D-01 -0.647272D-01  0.000000D+00
     11  0.493993D+00  0.822566D-03  0.430979D-01  0.430209D-01  0.000000D+00
     12  0.000000D+00  0.000000D+00  0.000000D+00  0.000000D+00 -0.451002D-01
     13  0.000000D+00  0.000000D+00  0.000000D+00  0.000000D+00  0.000000D+00
     14  0.000000D+00  0.000000D+00  0.000000D+00  0.000000D+00  0.000000D+00
     15  0.000000D+00  0.000000D+00  0.000000D+00  0.000000D+00  0.000000D+00
                6             7             8             9            10 
      6  0.123426D+01
      7  0.000000D+00  0.129115D+01
      8  0.000000D+00  0.000000D+00  0.629181D+00
      9  0.574384D+00  0.000000D+00  0.000000D+00  0.629181D+00
     10  0.000000D+00  0.617329D+00  0.000000D+00  0.000000D+00  0.680949D+00
     11  0.000000D+00 -0.955282D-01  0.000000D+00  0.000000D+00 -0.646873D-01
     12  0.000000D+00  0.000000D+00 -0.276802D-01  0.000000D+00  0.000000D+00
     13 -0.451002D-01  0.000000D+00  0.000000D+00 -0.276802D-01  0.000000D+00
     14  0.000000D+00  0.000000D+00  0.000000D+00  0.000000D+00  0.000000D+00
     15  0.000000D+00  0.000000D+00  0.000000D+00  0.000000D+00  0.000000D+00
               11            12            13            14            15 
     11  0.115164D+01
     12  0.000000D+00  0.110257D+01
     13  0.000000D+00  0.000000D+00  0.110257D+01
     14  0.000000D+00  0.000000D+00  0.000000D+00  0.107249D+01
     15  0.000000D+00  0.000000D+00  0.000000D+00  0.000000D+00  0.107249D+01
 ****** Core Hamiltonian ****** 
                1             2             3             4             5 
      1 -0.107716D+01
      2 -0.296129D-01 -0.464831D+01
      3 -0.254439D+00 -0.486211D+00 -0.113719D+01
      4 -0.290944D+00 -0.651227D+00 -0.949662D+00 -0.942925D+00
      5  0.000000D+00  0.000000D+00  0.000000D+00  0.000000D+00 -0.984295D+00
      6  0.000000D+00  0.000000D+00  0.000000D+00  0.000000D+00  0.000000D+00
      7  0.409487D+00  0.576175D-02  0.736737D-01  0.715533D-01  0.000000D+00
      8  0.000000D+00  0.000000D+00  0.000000D+00  0.000000D+00 -0.516584D+00
      9  0.000000D+00  0.000000D+00  0.000000D+00  0.000000D+00  0.000000D+00
     10  0.369209D+00  0.992795D-03  0.455116D-01  0.647272D-01  0.000000D+00
     11 -0.418566D+00 -0.822566D-03 -0.430979D-01 -0.430209D-01  0.000000D+00
     12  0.000000D+00  0.000000D+00  0.000000D+00  0.000000D+00  0.451002D-01
     13  0.000000D+00  0.000000D+00  0.000000D+00  0.000000D+00  0.000000D+00
     14  0.000000D+00  0.000000D+00  0.000000D+00  0.000000D+00  0.000000D+00
     15  0.000000D+00  0.000000D+00  0.000000D+00  0.000000D+00  0.000000D+00
                6             7             8             9            10 
      6 -0.984295D+00
      7  0.000000D+00 -0.104118D+01
      8  0.000000D+00  0.000000D+00 -0.569106D+00
      9 -0.516584D+00  0.000000D+00  0.000000D+00 -0.569106D+00
     10  0.000000D+00 -0.559529D+00  0.000000D+00  0.000000D+00 -0.620874D+00
     11  0.000000D+00  0.955282D-01  0.000000D+00  0.000000D+00  0.646873D-01
     12  0.000000D+00  0.000000D+00  0.276802D-01  0.000000D+00  0.000000D+00
     13  0.451002D-01  0.000000D+00  0.000000D+00  0.276802D-01  0.000000D+00
     14  0.000000D+00  0.000000D+00  0.000000D+00  0.000000D+00  0.000000D+00
     15  0.000000D+00  0.000000D+00  0.000000D+00  0.000000D+00  0.000000D+00
               11            12            13            14            15 
     11 -0.717991D+00
     12  0.000000D+00 -0.668915D+00
     13  0.000000D+00  0.000000D+00 -0.668915D+00
     14  0.000000D+00  0.000000D+00  0.000000D+00 -0.638839D+00
     15  0.000000D+00  0.000000D+00  0.000000D+00  0.000000D+00 -0.638839D+00
 SVDSVc IOpt=   1 NormSV=T IR=1
 SVDSVc V= 2.06D+00 1.78D+00 1.16D+00 1.00D+00 9.56D-01 5.34D-01 3.73D-01 1.37D-01
 SVDSVc IOpt=   1 NormSV=T IR=2
 SVDSVc V= 1.00D+00
 SVDSVc IOpt=   1 NormSV=T IR=3
 SVDSVc V= 1.63D+00 1.00D+00 3.73D-01
 SVDSVc IOpt=   1 NormSV=T IR=4
 SVDSVc V= 1.63D+00 1.00D+00 3.73D-01
 TstOVc:  Largest diagonal error= 4.44D-15 IB=1 I=    8.
 TstOVc:  Largest same sym error= 5.84D-15 IB=1 I=    7 J=    4.
 TstOVc:  Largest diff sym error= 0.00D+00 IB=0 JB=0 I=    0 J=    0.
 Orthogonalized basis functions: 
                 1             2             3             4             5 
      1   0.296956D+00 -0.199046D+00  0.373779D+00  0.000000D+00 -0.204092D-01
      2   0.105536D+00  0.108260D+00 -0.128279D+00  0.000000D+00  0.987834D+00
      3   0.376122D+00  0.298769D+00 -0.879521D-01  0.000000D+00 -0.168876D+00
      4   0.384078D+00  0.295533D+00 -0.761957D-01  0.000000D+00 -0.136541D+00
      5   0.000000D+00  0.000000D+00  0.000000D+00  0.000000D+00  0.000000D+00
      6   0.000000D+00  0.000000D+00  0.000000D+00  0.000000D+00  0.000000D+00
      7  -0.211127D+00  0.405046D+00  0.246166D+00  0.000000D+00 -0.926069D-02
      8   0.000000D+00  0.000000D+00  0.000000D+00  0.000000D+00  0.000000D+00
      9   0.000000D+00  0.000000D+00  0.000000D+00  0.000000D+00  0.000000D+00
     10  -0.210238D+00  0.404330D+00  0.248560D+00  0.000000D+00 -0.943774D-02
     11   0.916822D-01 -0.837360D-01  0.753875D+00  0.000000D+00  0.150841D+00
     12   0.000000D+00  0.000000D+00  0.000000D+00  0.000000D+00  0.000000D+00
     13   0.000000D+00  0.000000D+00  0.000000D+00  0.000000D+00  0.000000D+00
     14   0.000000D+00  0.000000D+00  0.000000D+00  0.100000D+01  0.000000D+00
     15   0.000000D+00  0.000000D+00  0.000000D+00  0.000000D+00  0.000000D+00
                 6             7             8             9            10 
      1   0.104369D+01  0.231998D-01 -0.143990D+00  0.000000D+00  0.000000D+00
      2   0.850102D-01  0.114684D-02 -0.673519D-01  0.000000D+00  0.000000D+00
      3  -0.226811D+00 -0.540387D-02 -0.188560D+01  0.000000D+00  0.000000D+00
      4  -0.110965D+00 -0.114767D-02  0.193076D+01  0.000000D+00  0.000000D+00
      5   0.000000D+00  0.000000D+00  0.000000D+00  0.000000D+00  0.554424D+00
      6   0.000000D+00  0.000000D+00  0.000000D+00  0.000000D+00  0.000000D+00
      7   0.277300D+00  0.116280D+01 -0.312386D-01  0.000000D+00  0.000000D+00
      8   0.000000D+00  0.000000D+00  0.000000D+00  0.000000D+00  0.554424D+00
      9   0.000000D+00  0.000000D+00  0.000000D+00  0.000000D+00  0.000000D+00
     10   0.310046D+00 -0.115142D+01 -0.281647D-01  0.000000D+00  0.000000D+00
     11  -0.733457D+00 -0.121133D-01  0.545761D-01  0.000000D+00  0.000000D+00
     12   0.000000D+00  0.000000D+00  0.000000D+00  0.000000D+00  0.000000D+00
     13   0.000000D+00  0.000000D+00  0.000000D+00  0.000000D+00  0.000000D+00
     14   0.000000D+00  0.000000D+00  0.000000D+00  0.000000D+00  0.000000D+00
     15   0.000000D+00  0.000000D+00  0.000000D+00  0.100000D+01  0.000000D+00
                11            12            13            14            15 
      1   0.000000D+00  0.000000D+00  0.000000D+00  0.000000D+00  0.000000D+00
      2   0.000000D+00  0.000000D+00  0.000000D+00  0.000000D+00  0.000000D+00
      3   0.000000D+00  0.000000D+00  0.000000D+00  0.000000D+00  0.000000D+00
      4   0.000000D+00  0.000000D+00  0.000000D+00  0.000000D+00  0.000000D+00
      5   0.000000D+00  0.115720D+01  0.000000D+00  0.000000D+00  0.000000D+00
      6   0.000000D+00  0.000000D+00  0.554424D+00  0.000000D+00  0.115720D+01
      7   0.000000D+00  0.000000D+00  0.000000D+00  0.000000D+00  0.000000D+00
      8   0.000000D+00 -0.115720D+01  0.000000D+00  0.000000D+00  0.000000D+00
      9   0.000000D+00  0.000000D+00  0.554424D+00  0.000000D+00 -0.115720D+01
     10   0.000000D+00  0.000000D+00  0.000000D+00  0.000000D+00  0.000000D+00
     11   0.000000D+00  0.000000D+00  0.000000D+00  0.000000D+00  0.000000D+00
     12   0.100000D+01  0.000000D+00  0.000000D+00  0.000000D+00  0.000000D+00
     13   0.000000D+00  0.000000D+00  0.000000D+00  0.100000D+01  0.000000D+00
     14   0.000000D+00  0.000000D+00  0.000000D+00  0.000000D+00  0.000000D+00
     15   0.000000D+00  0.000000D+00  0.000000D+00  0.000000D+00  0.000000D+00
 NBasis=    15 RedAO= T EigKep=  1.37D-01  NBF=     8     1     3     3
 NBsUse=    15 1.00D-06 EigRej= -1.00D+00 NBFU=     8     1     3     3
 Leave Link  302 at Mon Mar 28 14:01:53 2022, MaxMem=  9663676416 cpu:               3.5 elap:               0.1
 (Enter /nopt/nrel/apps/gaussian/g16C_1/g16/l303.exe)
 DipDrv will not compute anything.
 Fermi contact integrals: 
                 1             2 
      1   0.628247D+00  0.141673D-02
      2   0.000000D+00  0.255622D+01
      3   0.185039D-01 -0.456508D-01
      4   0.248189D-01  0.488495D-01
      5   0.000000D+00  0.000000D+00
      6   0.000000D+00  0.000000D+00
      7  -0.383311D-01  0.000000D+00
      8   0.000000D+00  0.000000D+00
      9   0.000000D+00  0.000000D+00
     10  -0.370957D-01  0.000000D+00
     11   0.516483D-01  0.000000D+00
     12   0.000000D+00  0.000000D+00
     13   0.000000D+00  0.000000D+00
     14   0.000000D+00  0.000000D+00
     15   0.000000D+00  0.000000D+00
 Leave Link  303 at Mon Mar 28 14:01:53 2022, MaxMem=  9663676416 cpu:               0.9 elap:               0.0
 (Enter /nopt/nrel/apps/gaussian/g16C_1/g16/l401.exe)
 ExpMin= 2.40D-02 ExpMax= 1.47D+03 ExpMxC= 5.03D+01 IAcc=3 IRadAn=         5 AccDes= 0.00D+00
 Harris functional with IExCor=  205 and IRadAn=       5 diagonalized for initial guess.
 HarFok:  IExCor=  205 AccDes= 0.00D+00 IRadAn=         5 IDoV= 1 UseB2=F ITyADJ=14
 ICtDFT=  3500011 ScaDFX=  1.000000  1.000000  1.000000  1.000000
 FoFCou: FMM=F IPFlag=           0 FMFlag=      100000 FMFlg1=           0
         NFxFlg=           0 DoJE=T BraDBF=F KetDBF=T FulRan=T
         wScrn=  0.000000 ICntrl=       500 IOpCl=  0 I1Cent=   200000004 NGrid=           0
         NMat0=    1 NMatS0=      1 NMatT0=    0 NMatD0=    1 NMtDS0=    0 NMtDT0=    0
 Petite list used in FoFCou.
 Harris En= -7.96234668874470    
 JPrj=0 DoOrth=F DoCkMO=F.
 Initial guess orbital symmetries:
       Occupied  (SG) (SG)
       Virtual   (SG) (PI) (PI) (SG) (SG) (PI) (PI) (SG) (PI) (PI)
                 (DLTA) (DLTA) (SG)
 The electronic state of the initial guess is 1-SG.
 Leave Link  401 at Mon Mar 28 14:01:53 2022, MaxMem=  9663676416 cpu:               4.9 elap:               0.2
 (Enter /nopt/nrel/apps/gaussian/g16C_1/g16/l502.exe)
 Keep R1 ints in memory in symmetry-blocked form, NReq=7407854.
 FoFCou: FMM=F IPFlag=           0 FMFlag=           0 FMFlg1=           0
         NFxFlg=           0 DoJE=F BraDBF=F KetDBF=F FulRan=T
         wScrn=  0.000000 ICntrl=       600 IOpCl=  0 I1Cent=           0 NGrid=           0
         NMat0=    1 NMatS0=    120 NMatT0=    0 NMatD0=    1 NMtDS0=    0 NMtDT0=    0
 Petite list used in FoFCou.
 Closed shell SCF:
 Using DIIS extrapolation, IDIIS=  1040.
 NGot=  9663676416 LenX=  9663671353 LenY=  9663670471
 Requested convergence on RMS density matrix=1.00D-08 within 128 cycles.
 Requested convergence on MAX density matrix=1.00D-06.
 Requested convergence on             energy=1.00D-06.
 No special actions if energy rises.

 Cycle   1  Pass 1  IDiag  1:
 E= -7.87058912862877    
 DIIS: error= 3.69D-02 at cycle   1 NSaved=   1.
 NSaved= 1 IEnMin= 1 EnMin= -7.87058912862877     IErMin= 1 ErrMin= 3.69D-02
 ErrMax= 3.69D-02  0.00D+00 EMaxC= 1.00D-01 BMatC= 1.13D-02 BMatP= 1.13D-02
 IDIUse=3 WtCom= 6.31D-01 WtEn= 3.69D-01
 Coeff-Com:  0.100D+01
 Coeff-En:   0.100D+01
 Coeff:      0.100D+01
 Gap=     0.159 Goal=   None    Shift=    0.000
 GapD=    0.159 DampG=1.000 DampE=0.500 DampFc=0.5000 IDamp=-1.
 Damping current iteration by 5.00D-01
 RMSDP=1.84D-02 MaxDP=2.19D-01              OVMax= 2.09D-01

 Cycle   2  Pass 1  IDiag  1:
 E= -7.89049017257840     Delta-E=       -0.019901043950 Rises=F Damp=T
 DIIS: error= 1.69D-02 at cycle   2 NSaved=   2.
 NSaved= 2 IEnMin= 2 EnMin= -7.89049017257840     IErMin= 2 ErrMin= 1.69D-02
 ErrMax= 1.69D-02  0.00D+00 EMaxC= 1.00D-01 BMatC= 2.68D-03 BMatP= 1.13D-02
 IDIUse=3 WtCom= 8.31D-01 WtEn= 1.69D-01
 Coeff-Com: -0.929D+00 0.193D+01
 Coeff-En:   0.000D+00 0.100D+01
 Coeff:     -0.772D+00 0.177D+01
 Gap=     0.223 Goal=   None    Shift=    0.000
 RMSDP=8.61D-03 MaxDP=1.01D-01 DE=-1.99D-02 OVMax= 8.13D-03

 Cycle   3  Pass 1  IDiag  1:
 E= -7.91019660710259     Delta-E=       -0.019706434524 Rises=F Damp=F
 DIIS: error= 5.53D-04 at cycle   3 NSaved=   3.
 NSaved= 3 IEnMin= 3 EnMin= -7.91019660710259     IErMin= 3 ErrMin= 5.53D-04
 ErrMax= 5.53D-04  0.00D+00 EMaxC= 1.00D-01 BMatC= 4.00D-06 BMatP= 2.68D-03
 IDIUse=3 WtCom= 9.94D-01 WtEn= 5.53D-03
 Coeff-Com:  0.245D+00-0.497D+00 0.125D+01
 Coeff-En:   0.000D+00 0.000D+00 0.100D+01
 Coeff:      0.244D+00-0.494D+00 0.125D+01
 Gap=     0.229 Goal=   None    Shift=    0.000
 RMSDP=4.11D-04 MaxDP=1.93D-03 DE=-1.97D-02 OVMax= 6.55D-03

 Cycle   4  Pass 1  IDiag  1:
 E= -7.91022711078211     Delta-E=       -0.000030503680 Rises=F Damp=F
 DIIS: error= 2.70D-04 at cycle   4 NSaved=   4.
 NSaved= 4 IEnMin= 4 EnMin= -7.91022711078211     IErMin= 4 ErrMin= 2.70D-04
 ErrMax= 2.70D-04  0.00D+00 EMaxC= 1.00D-01 BMatC= 4.65D-07 BMatP= 4.00D-06
 IDIUse=3 WtCom= 9.97D-01 WtEn= 2.70D-03
 Coeff-Com: -0.188D-02 0.640D-02-0.320D+00 0.132D+01
 Coeff-En:   0.000D+00 0.000D+00 0.000D+00 0.100D+01
 Coeff:     -0.188D-02 0.638D-02-0.319D+00 0.131D+01
 Gap=     0.230 Goal=   None    Shift=    0.000
 RMSDP=2.11D-04 MaxDP=1.00D-03 DE=-3.05D-05 OVMax= 3.62D-03

 Cycle   5  Pass 1  IDiag  1:
 E= -7.91023336541432     Delta-E=       -0.000006254632 Rises=F Damp=F
 DIIS: error= 9.06D-05 at cycle   5 NSaved=   5.
 NSaved= 5 IEnMin= 5 EnMin= -7.91023336541432     IErMin= 5 ErrMin= 9.06D-05
 ErrMax= 9.06D-05  0.00D+00 EMaxC= 1.00D-01 BMatC= 5.10D-08 BMatP= 4.65D-07
 IDIUse=1 WtCom= 1.00D+00 WtEn= 0.00D+00
 Coeff-Com: -0.140D-01 0.288D-01-0.271D-01-0.570D+00 0.158D+01
 Coeff:     -0.140D-01 0.288D-01-0.271D-01-0.570D+00 0.158D+01
 Gap=     0.230 Goal=   None    Shift=    0.000
 RMSDP=1.14D-04 MaxDP=5.52D-04 DE=-6.25D-06 OVMax= 1.96D-03

 Cycle   6  Pass 1  IDiag  1:
 E= -7.91023414697873     Delta-E=       -0.000000781564 Rises=F Damp=F
 DIIS: error= 6.75D-06 at cycle   6 NSaved=   6.
 NSaved= 6 IEnMin= 6 EnMin= -7.91023414697873     IErMin= 6 ErrMin= 6.75D-06
 ErrMax= 6.75D-06  0.00D+00 EMaxC= 1.00D-01 BMatC= 5.87D-10 BMatP= 5.10D-08
 IDIUse=1 WtCom= 1.00D+00 WtEn= 0.00D+00
 Coeff-Com: -0.124D-03 0.874D-04-0.151D-01 0.263D+00-0.588D+00 0.134D+01
 Coeff:     -0.124D-03 0.874D-04-0.151D-01 0.263D+00-0.588D+00 0.134D+01
 Gap=     0.230 Goal=   None    Shift=    0.000
 RMSDP=8.41D-06 MaxDP=4.48D-05 DE=-7.82D-07 OVMax= 1.32D-04

 Cycle   7  Pass 1  IDiag  1:
 E= -7.91023415226754     Delta-E=       -0.000000005289 Rises=F Damp=F
 DIIS: error= 2.50D-07 at cycle   7 NSaved=   7.
 NSaved= 7 IEnMin= 7 EnMin= -7.91023415226754     IErMin= 7 ErrMin= 2.50D-07
 ErrMax= 2.50D-07  0.00D+00 EMaxC= 1.00D-01 BMatC= 4.71D-13 BMatP= 5.87D-10
 IDIUse=1 WtCom= 1.00D+00 WtEn= 0.00D+00
 Coeff-Com:  0.671D-04-0.131D-03 0.214D-02-0.295D-01 0.631D-01-0.158D+00
 Coeff-Com:  0.112D+01
 Coeff:      0.671D-04-0.131D-03 0.214D-02-0.295D-01 0.631D-01-0.158D+00
 Coeff:      0.112D+01
 Gap=     0.230 Goal=   None    Shift=    0.000
 RMSDP=1.76D-07 MaxDP=1.32D-06 DE=-5.29D-09 OVMax= 1.62D-06

 Cycle   8  Pass 1  IDiag  1:
 E= -7.91023415226976     Delta-E=       -0.000000000002 Rises=F Damp=F
 DIIS: error= 5.84D-08 at cycle   8 NSaved=   8.
 NSaved= 8 IEnMin= 8 EnMin= -7.91023415226976     IErMin= 8 ErrMin= 5.84D-08
 ErrMax= 5.84D-08  0.00D+00 EMaxC= 1.00D-01 BMatC= 2.18D-14 BMatP= 4.71D-13
 IDIUse=1 WtCom= 1.00D+00 WtEn= 0.00D+00
 Coeff-Com: -0.747D-05 0.174D-04-0.543D-03 0.717D-02-0.152D-01 0.404D-01
 Coeff-Com: -0.401D+00 0.137D+01
 Coeff:     -0.747D-05 0.174D-04-0.543D-03 0.717D-02-0.152D-01 0.404D-01
 Coeff:     -0.401D+00 0.137D+01
 Gap=     0.230 Goal=   None    Shift=    0.000
 RMSDP=4.73D-08 MaxDP=2.50D-07 DE=-2.22D-12 OVMax= 6.41D-07

 Cycle   9  Pass 1  IDiag  1:
 E= -7.91023415226992     Delta-E=       -0.000000000000 Rises=F Damp=F
 DIIS: error= 7.26D-09 at cycle   9 NSaved=   9.
 NSaved= 9 IEnMin= 9 EnMin= -7.91023415226992     IErMin= 9 ErrMin= 7.26D-09
 ErrMax= 7.26D-09  0.00D+00 EMaxC= 1.00D-01 BMatC= 3.20D-16 BMatP= 2.18D-14
 IDIUse=1 WtCom= 1.00D+00 WtEn= 0.00D+00
 Coeff-Com:  0.142D-05-0.331D-05 0.691D-05 0.101D-03-0.293D-03 0.146D-03
 Coeff-Com: -0.103D-03-0.267D-01 0.103D+01
 Coeff:      0.142D-05-0.331D-05 0.691D-05 0.101D-03-0.293D-03 0.146D-03
 Coeff:     -0.103D-03-0.267D-01 0.103D+01
 Gap=     0.230 Goal=   None    Shift=    0.000
 RMSDP=3.33D-09 MaxDP=3.27D-08 DE=-1.60D-13 OVMax= 2.29D-08

 SCF Done:  E(RHF) =  -7.91023415227     A.U. after    9 cycles
            NFock=  9  Conv=0.33D-08     -V/T= 2.0058
 KE= 7.864832242811D+00 PE=-1.938903541064D+01 EE= 3.003379926035D+00
 Leave Link  502 at Mon Mar 28 14:01:53 2022, MaxMem=  9663676416 cpu:               4.4 elap:               0.2
 (Enter /nopt/nrel/apps/gaussian/g16C_1/g16/l801.exe)
 Windowed orbitals will be sorted by symmetry type.
 ExpMin= 2.40D-02 ExpMax= 1.47D+03 ExpMxC= 5.03D+01 IAcc=3 IRadAn=         5 AccDes= 0.00D+00
 HarFok:  IExCor=  205 AccDes= 0.00D+00 IRadAn=         5 IDoV=-2 UseB2=F ITyADJ=14
 ICtDFT= 12500011 ScaDFX=  1.000000  1.000000  1.000000  1.000000
 Largest valence mixing into a core orbital is  3.39D-04
 Largest core mixing into a valence orbital is  7.53D-05
 Range of M.O.s used for correlation:     2    15
 NBasis=    15 NAE=     2 NBE=     2 NFC=     1 NFV=     0
 NROrb=     14 NOA=     1 NOB=     1 NVA=    13 NVB=    13
 Leave Link  801 at Mon Mar 28 14:01:53 2022, MaxMem=  9663676416 cpu:               3.0 elap:               0.1
 (Enter /nopt/nrel/apps/gaussian/g16C_1/g16/l804.exe)
 Closed-shell transformation, MDV=  9663676416 ITran=4 ISComp=2.
 Unit  1 TFree=          9011 TCopy=        117616.
 Semi-Direct transformation.
 ModeAB=           2 MOrb=             1 LenV=    9663497568
 LASXX=          322 LTotXX=         322 LenRXX=         322
 LTotAB=         441 MaxLAS=        1904 LenRXY=        1904
 NonZer=        2198 LenScr=      785920 LnRSAI=           0
 LnScr1=           0 LExtra=      220923 Total=      1009069
 MaxDsk= 34359738368 SrtSym=           F ITran=            4
 DoSDTr:  NPSUse= 36
 JobTyp=0 Pass  1:  I=   1 to   1.
 (rs|ai) integrals will be sorted in core.
 Complete sort for first half transformation.
 First half transformation complete.
 Complete sort for second half transformation.
 Second half transformation complete.
 Spin components of T(2) and E(2):
     alpha-alpha T2 =       0.0000000000D+00 E2=      0.0000000000D+00
     alpha-beta  T2 =       0.2407784845D-01 E2=     -0.2256947573D-01
     beta-beta   T2 =       0.0000000000D+00 E2=      0.0000000000D+00
 ANorm=    0.1011967316D+01
 E2 =    -0.2256947573D-01 EUMP2 =    -0.79328036279976D+01
 Leave Link  804 at Mon Mar 28 14:01:53 2022, MaxMem=  9663676416 cpu:               2.0 elap:               0.1
 (Enter /nopt/nrel/apps/gaussian/g16C_1/g16/l913.exe)
 CIDS:  MDV=  9663676416.
 Frozen-core window:  NFC=   1 NFV=   0.
 IFCWin=0 IBDFC=1 NFBD=     0     0 NFCmp=     0     0 NFFFC=     0     0
 Using DD3R+UMP44R for 1st iteration.
 Using DD4RQ for 2nd and later iterations.
 Keep R2 and R3 ints in memory in symmetry-blocked form, NReq=7410268.
 FoFCou: FMM=F IPFlag=           0 FMFlag=           0 FMFlg1=           0
         NFxFlg=           0 DoJE=F BraDBF=F KetDBF=F FulRan=T
         wScrn=  0.000000 ICntrl=       600 IOpCl=  0 I1Cent=           0 NGrid=           0
         NMat0=    1 NMatS0=    120 NMatT0=    0 NMatD0=    1 NMtDS0=    0 NMtDT0=    0
 Petite list used in FoFCou.
 CIDS: In Core Option IDoMem=           1.
 Coupled Cluster theory with single and double substitutions
 ===========================================================
 Iterations= 200 Convergence= 0.100D-06
 Produce multiple copies of IABC intergrals
 Iteration Nr.   1
 **********************
 DD1Dir will call FoFMem   1 times, MxPair=         2
 NAB=     1 NAA=     0 NBB=     0.
 MP4(R+Q)=  0.54342442D-03
 Maximum subspace dimension=  5
 A-vector RMS=  1.7237378D-02 Max=  2.6381407D-02 conv= 1.00D-05.
 RLE energy=       -0.0364448776
 E3=       -0.91427749D-02        EUMP3=      -0.79419464029D+01
 E4(DQ)=   -0.38072446D-02        UMP4(DQ)=   -0.79457536475D+01
 E4(SDQ)=  -0.41418269D-02        UMP4(SDQ)=  -0.79460882298D+01
 VARIATIONAL ENERGIES WITH THE FIRST-ORDER WAVEFUNCTION:
 DE(Corr)= -0.31162197E-01 E(Corr)=     -7.9413963489    
 NORM(A)=   0.10330151D+01
 Iteration Nr.   2
 **********************
 DD1Dir will call FoFMem   1 times, MxPair=         2
 NAB=     1 NAA=     0 NBB=     0.
 A-vector RMS=  9.5908018D-03 Max=  1.4019583D-02 conv= 1.00D-05.
 RLE energy=       -0.0387397156
 DE(Corr)= -0.37504576E-01 E(CORR)=     -7.9477387278     Delta=-6.34D-03
 NORM(A)=   0.10408620D+01
 Iteration Nr.   3
 **********************
 DD1Dir will call FoFMem   1 times, MxPair=         2
 NAB=     1 NAA=     0 NBB=     0.
 A-vector RMS=  8.8764820D-03 Max=  1.3626650D-02 conv= 1.00D-05.
 RLE energy=       -0.0396053180
 DE(Corr)= -0.38786027E-01 E(CORR)=     -7.9490201796     Delta=-1.28D-03
 NORM(A)=   0.10488904D+01
 Iteration Nr.   4
 **********************
 DD1Dir will call FoFMem   1 times, MxPair=         2
 NAB=     1 NAA=     0 NBB=     0.
 A-vector RMS=  3.7780582D-03 Max=  8.5968068D-03 conv= 1.00D-05.
 RLE energy=       -0.0403568286
 DE(Corr)= -0.39758413E-01 E(CORR)=     -7.9499925649     Delta=-9.72D-04
 NORM(A)=   0.10563574D+01
 Iteration Nr.   5
 **********************
 DD1Dir will call FoFMem   1 times, MxPair=         2
 NAB=     1 NAA=     0 NBB=     0.
 A-vector RMS=  1.8552905D-03 Max=  2.4561413D-03 conv= 1.00D-05.
 RLE energy=       -0.0402990418
 DE(Corr)= -0.40254611E-01 E(CORR)=     -7.9504887633     Delta=-4.96D-04
 NORM(A)=   0.10585221D+01
 Iteration Nr.   6
 **********************
 DD1Dir will call FoFMem   1 times, MxPair=         2
 NAB=     1 NAA=     0 NBB=     0.
 A-vector RMS=  5.7225155D-04 Max=  6.3637724D-04 conv= 1.00D-05.
 RLE energy=       -0.0402610766
 DE(Corr)= -0.40275117E-01 E(CORR)=     -7.9505092696     Delta=-2.05D-05
 NORM(A)=   0.10588583D+01
 Iteration Nr.   7
 **********************
 DD1Dir will call FoFMem   1 times, MxPair=         2
 NAB=     1 NAA=     0 NBB=     0.
 A-vector RMS=  2.5760985D-04 Max=  3.5206782D-04 conv= 1.00D-05.
 RLE energy=       -0.0402938748
 DE(Corr)= -0.40273882E-01 E(CORR)=     -7.9505080342     Delta= 1.24D-06
 NORM(A)=   0.10591185D+01
 Iteration Nr.   8
 **********************
 DD1Dir will call FoFMem   1 times, MxPair=         2
 NAB=     1 NAA=     0 NBB=     0.
 A-vector RMS=  6.0273710D-05 Max=  6.4941073D-05 conv= 1.00D-05.
 RLE energy=       -0.0402835609
 DE(Corr)= -0.40287985E-01 E(CORR)=     -7.9505221372     Delta=-1.41D-05
 NORM(A)=   0.10590650D+01
 Iteration Nr.   9
 **********************
 DD1Dir will call FoFMem   1 times, MxPair=         2
 NAB=     1 NAA=     0 NBB=     0.
 A-vector RMS=  2.0727132D-05 Max=  2.6433557D-05 conv= 1.00D-05.
 RLE energy=       -0.0402867335
 DE(Corr)= -0.40284875E-01 E(CORR)=     -7.9505190271     Delta= 3.11D-06
 NORM(A)=   0.10590839D+01
 Iteration Nr.  10
 **********************
 DD1Dir will call FoFMem   1 times, MxPair=         2
 NAB=     1 NAA=     0 NBB=     0.
 A-vector RMS=  1.1831743D-05 Max=  1.3622333D-05 conv= 1.00D-05.
 RLE energy=       -0.0402860091
 DE(Corr)= -0.40286105E-01 E(CORR)=     -7.9505202573     Delta=-1.23D-06
 NORM(A)=   0.10590821D+01
 Iteration Nr.  11
 **********************
 DD1Dir will call FoFMem   1 times, MxPair=         2
 NAB=     1 NAA=     0 NBB=     0.
 A-vector RMS=  3.9639523D-06 Max=  1.3902689D-05 conv= 1.00D-05.
 RLE energy=       -0.0402863522
 DE(Corr)= -0.40286160E-01 E(CORR)=     -7.9505203119     Delta=-5.45D-08
 NORM(A)=   0.10590893D+01
 Iteration Nr.  12
 **********************
 DD1Dir will call FoFMem   1 times, MxPair=         2
 NAB=     1 NAA=     0 NBB=     0.
 A-vector RMS=  1.6946231D-06 Max=  2.3231085D-06 conv= 1.00D-05.
 RLE energy=       -0.0402866960
 DE(Corr)= -0.40286439E-01 E(CORR)=     -7.9505205916     Delta=-2.80D-07
 NORM(A)=   0.10590934D+01
 Iteration Nr.  13
 **********************
 DD1Dir will call FoFMem   1 times, MxPair=         2
 NAB=     1 NAA=     0 NBB=     0.
 A-vector RMS=  6.4444385D-07 Max=  1.6254335D-06 conv= 1.00D-05.
 RLE energy=       -0.0402867040
 DE(Corr)= -0.40286678E-01 E(CORR)=     -7.9505208299     Delta=-2.38D-07
 NORM(A)=   0.10590944D+01
 Iteration Nr.  14
 **********************
 DD1Dir will call FoFMem   1 times, MxPair=         2
 NAB=     1 NAA=     0 NBB=     0.
 A-vector RMS=  2.5835147D-07 Max=  4.7030940D-07 conv= 1.00D-05.
 RLE energy=       -0.0402867619
 DE(Corr)= -0.40286720E-01 E(CORR)=     -7.9505208721     Delta=-4.22D-08
 NORM(A)=   0.10590950D+01
 CI/CC converged in   14 iterations to DelEn=-4.22D-08 Conv= 1.00D-07 ErrA1= 2.58D-07 Conv= 1.00D-05
 Wavefunction amplitudes converged. E(Corr)=     -7.9505208721    
 Dominant configurations:
 ***********************
 Spin Case        I    J    A    B          Value
    AA            2         3            0.104458D+00
   ABAB           2    2   10   10      -0.119876D+00
 Largest amplitude= 1.20D-01
 Discarding MO integrals.
 Leave Link  913 at Mon Mar 28 14:01:54 2022, MaxMem=  9663676416 cpu:               5.1 elap:               0.2
 (Enter /nopt/nrel/apps/gaussian/g16C_1/g16/l601.exe)
 Copying SCF densities to generalized density rwf, IOpCl= 0 IROHF=0.

 **********************************************************************

            Population analysis using the SCF Density.

 **********************************************************************

 Orbital symmetries:
       Occupied  (SG) (SG)
       Virtual   (SG) (PI) (PI) (SG) (PI) (PI) (SG) (SG) (DLTA)
                 (DLTA) (PI) (PI) (SG)
 The electronic state is 1-SG.
 Alpha  occ. eigenvalues --   -2.51320  -0.24552
 Alpha virt. eigenvalues --   -0.01550   0.03255   0.03255   0.11969   0.15747
 Alpha virt. eigenvalues --    0.15747   0.16640   0.19768   0.34298   0.34298
 Alpha virt. eigenvalues --    0.35032   0.35032   0.50717
          Condensed to atoms (all electrons):
               1          2
     1  H    0.583723   0.295649
     2  Li   0.295649   2.824979
 Mulliken charges:
               1
     1  H    0.120628
     2  Li  -0.120628
 Sum of Mulliken charges =  -0.00000
 Mulliken charges with hydrogens summed into heavy atoms:
               1
     2  Li  -0.000000
 N-N= 6.105890895231D-01 E-N=-1.938903540956D+01  KE= 7.864832242811D+00
 Symmetry A1   KE= 7.864832242811D+00
 Symmetry A2   KE= 1.612988021655D-52
 Symmetry B1   KE= 0.000000000000D+00
 Symmetry B2   KE= 0.000000000000D+00

 Atomic contributions to Alpha molecular orbitals:
 Alpha occ 1 OE=-2.513 is Li2-s=1.0000
 Alpha occ 2 OE=-0.246 is H1-s=0.4397 Li2-s=0.3179 Li2-p=0.2146
 Alpha vir 3 OE=-0.016 is Li2-s=0.5285 Li2-p=0.4485
 Alpha vir 4 OE=0.033 is Li2-p=0.9970
 Alpha vir 5 OE=0.033 is Li2-p=0.9970
 Alpha vir 6 OE=0.120 is Li2-p=0.6287 Li2-s=0.3083
 Alpha vir 7 OE=0.157 is Li2-p=0.9849
 Alpha vir 8 OE=0.157 is Li2-p=0.9849
 Alpha vir 9 OE=0.166 is Li2-s=0.6988 Li2-p=0.1872
 Alpha vir 10 OE=0.198 is Li2-p=0.4297 Li2-d=0.2840 H1-s=0.1596 Li2-s=0.1267
 Alpha vir 11 OE=0.343 is Li2-d=1.0000
 Alpha vir 12 OE=0.343 is Li2-d=1.0000
 Alpha vir 13 OE=0.350 is Li2-d=0.9819
 Alpha vir 14 OE=0.350 is Li2-d=0.9819
 Alpha vir 15 OE=0.507 is Li2-d=0.6213 H1-s=0.2677
 
 Leave Link  601 at Mon Mar 28 14:01:54 2022, MaxMem=  9663676416 cpu:               0.8 elap:               0.0
 (Enter /nopt/nrel/apps/gaussian/g16C_1/g16/l9999.exe)

 Test job not archived.
 1\1\GINC-R102U34\SP\RCCSD-FC\Gen\H1Li1\USER\28-Mar-2022\0\\#P CCSD
 (MaxCyc=200,SaveAmplitudes,ReadAmplitudes)/GEN sp pop=AllOrbitals iop(
 3/33=1,3/36=-1)\\test\\0,1\H,0,0.,0.,0.\Li,0,0.,0.,2.6\\Version=ES64L-
 G16RevC.01\State=1-SG\HF=-7.9102342\MP2=-7.9328036\MP3=-7.9419464\MP4D
 =-7.9462971\MP4DQ=-7.9457536\MP4SDQ=-7.9460882\CCSD=-7.9505209\RMSD=3.
 331e-09\PG=C*V [C*(H1Li1)]\\@


 CURIOUSER AND CURIOUSER

                  -- ALICE, IN WONDERLAND
 Job cpu time:       0 days  0 hours  0 minutes 34.3 seconds.
 Elapsed time:       0 days  0 hours  0 minutes  1.3 seconds.
 File lengths (MBytes):  RWF=     13 Int=      0 D2E=      0 Chk=      1 Scr=      1
 Normal termination of Gaussian 16 at Mon Mar 28 14:01:54 2022.
