 Entering Gaussian System, Link 0=g16
 Initial command:
 /nopt/nrel/apps/gaussian/g16C_1/g16/l1.exe "/lustre/eaglefs/scratch/user/qc/tih-dissc-sto3g/tih-6-ccsd-0.5-631g/Gau-2213.inp" -scrdir="/lustre/eaglefs/scratch/user/qc/tih-dissc-sto3g/tih-6-ccsd-0.5-631g/"
 Default is to use a total of  36 processors:
                               36 via shared-memory
                                1 via Linda
 Entering Link 1 = /nopt/nrel/apps/gaussian/g16C_1/g16/l1.exe PID=      2214.
  
 Copyright (c) 1988-2019, Gaussian, Inc.  All Rights Reserved.
  
 This is part of the Gaussian(R) 16 program.  It is based on
 the Gaussian(R) 09 system (copyright 2009, Gaussian, Inc.),
 the Gaussian(R) 03 system (copyright 2003, Gaussian, Inc.),
 the Gaussian(R) 98 system (copyright 1998, Gaussian, Inc.),
 the Gaussian(R) 94 system (copyright 1995, Gaussian, Inc.),
 the Gaussian 92(TM) system (copyright 1992, Gaussian, Inc.),
 the Gaussian 90(TM) system (copyright 1990, Gaussian, Inc.),
 the Gaussian 88(TM) system (copyright 1988, Gaussian, Inc.),
 the Gaussian 86(TM) system (copyright 1986, Carnegie Mellon
 University), and the Gaussian 82(TM) system (copyright 1983,
 Carnegie Mellon University). Gaussian is a federally registered
 trademark of Gaussian, Inc.
  
 This software contains proprietary and confidential information,
 including trade secrets, belonging to Gaussian, Inc.
  
 This software is provided under written license and may be
 used, copied, transmitted, or stored only in accord with that
 written license.
  
 The following legend is applicable only to US Government
 contracts under FAR:
  
                    RESTRICTED RIGHTS LEGEND
  
 Use, reproduction and disclosure by the US Government is
 subject to restrictions as set forth in subparagraphs (a)
 and (c) of the Commercial Computer Software - Restricted
 Rights clause in FAR 52.227-19.
  
 Gaussian, Inc.
 340 Quinnipiac St., Bldg. 40, Wallingford CT 06492
  
  
 ---------------------------------------------------------------
 Warning -- This program may not be used in any manner that
 competes with the business of Gaussian, Inc. or will provide
 assistance to any competitor of Gaussian, Inc.  The licensee
 of this program is prohibited from giving any competitor of
 Gaussian, Inc. access to this program.  By using this program,
 the user acknowledges that Gaussian, Inc. is engaged in the
 business of creating and licensing software in the field of
 computational chemistry and represents and warrants to the
 licensee that it is not a competitor of Gaussian, Inc. and that
 it will not use this program in any manner prohibited above.
 ---------------------------------------------------------------
  

 Cite this work as:
 Gaussian 16, Revision C.01,
 M. J. Frisch, G. W. Trucks, H. B. Schlegel, G. E. Scuseria, 
 M. A. Robb, J. R. Cheeseman, G. Scalmani, V. Barone, 
 G. A. Petersson, H. Nakatsuji, X. Li, M. Caricato, A. V. Marenich, 
 J. Bloino, B. G. Janesko, R. Gomperts, B. Mennucci, H. P. Hratchian, 
 J. V. Ortiz, A. F. Izmaylov, J. L. Sonnenberg, D. Williams-Young, 
 F. Ding, F. Lipparini, F. Egidi, J. Goings, B. Peng, A. Petrone, 
 T. Henderson, D. Ranasinghe, V. G. Zakrzewski, J. Gao, N. Rega, 
 G. Zheng, W. Liang, M. Hada, M. Ehara, K. Toyota, R. Fukuda, 
 J. Hasegawa, M. Ishida, T. Nakajima, Y. Honda, O. Kitao, H. Nakai, 
 T. Vreven, K. Throssell, J. A. Montgomery, Jr., J. E. Peralta, 
 F. Ogliaro, M. J. Bearpark, J. J. Heyd, E. N. Brothers, K. N. Kudin, 
 V. N. Staroverov, T. A. Keith, R. Kobayashi, J. Normand, 
 K. Raghavachari, A. P. Rendell, J. C. Burant, S. S. Iyengar, 
 J. Tomasi, M. Cossi, J. M. Millam, M. Klene, C. Adamo, R. Cammi, 
 J. W. Ochterski, R. L. Martin, K. Morokuma, O. Farkas, 
 J. B. Foresman, and D. J. Fox, Gaussian, Inc., Wallingford CT, 2019.
 
 ******************************************
 Gaussian 16:  ES64L-G16RevC.01  3-Jul-2019
                28-Mar-2022 
 ******************************************
 %chk=molecule
 Default route: CacheSize=180224 MaxDisk=256GB
 ----------------------------------------------------------------------
 #P CCSD(MaxCyc=300,SaveAmplitudes,ReadAmplitudes)/GEN sp pop=AllOrbita
 ls iop(3/33=1,3/36=-1)
 ----------------------------------------------------------------------
 1/4=180224,38=1,172=1/1;
 2/4=180224,12=2,17=6,18=5,40=1/2;
 3/4=180224,5=7,11=9,25=1,30=1,33=1,36=-1/1,2,3;
 4/4=180224/1;
 5/4=180224,5=2,38=5/2;
 8/4=180224,6=4,9=120000,10=1,24=1/1,4;
 9/4=180224,5=7,6=300,77=1/13;
 6/4=180224,7=2,8=2,9=2,10=2,96=-1/1;
 99/4=180224,5=1,9=1/99;
 Leave Link    1 at Mon Mar 28 12:47:21 2022, MaxMem=           0 cpu:               3.1 elap:               0.1
 (Enter /nopt/nrel/apps/gaussian/g16C_1/g16/l101.exe)
 ----
 test
 ----
 Symbolic Z-matrix:
 Charge =  0 Multiplicity = 6
 H                     0.        0.        0. 
 Ti                    0.        0.        0.5 
 
 ITRead=  0  0
 MicOpt= -1 -1
 NAtoms=      2 NQM=        2 NQMF=       0 NMMI=      0 NMMIF=      0
                NMic=       0 NMicF=      0.
                    Isotopes and Nuclear Properties:
 (Nuclear quadrupole moments (NQMom) in fm**2, nuclear magnetic moments (NMagM)
  in nuclear magnetons)

  Atom         1           2
 IAtWgt=           1          48
 AtmWgt=   1.0078250  47.9479467
 NucSpn=           1           0
 AtZEff=  -0.0000000  -0.0000000
 NQMom=    0.0000000   0.0000000
 NMagM=    2.7928460   0.0000000
 AtZNuc=   1.0000000  22.0000000
 Leave Link  101 at Mon Mar 28 12:47:21 2022, MaxMem=  9663676416 cpu:               3.1 elap:               0.1
 (Enter /nopt/nrel/apps/gaussian/g16C_1/g16/l202.exe)
                          Input orientation:                          
 ---------------------------------------------------------------------
 Center     Atomic      Atomic             Coordinates (Angstroms)
 Number     Number       Type             X           Y           Z
 ---------------------------------------------------------------------
      1          1           0        0.000000    0.000000    0.000000
      2         22           0        0.000000    0.000000    0.500000
 ---------------------------------------------------------------------
 Stoichiometry    HTi(6)
 Framework group  C*V[C*(HTi)]
 Deg. of freedom     1
 Full point group                 C*V     NOp   4
 Largest Abelian subgroup         C2V     NOp   4
 Largest concise Abelian subgroup C1      NOp   1
                         Standard orientation:                         
 ---------------------------------------------------------------------
 Center     Atomic      Atomic             Coordinates (Angstroms)
 Number     Number       Type             X           Y           Z
 ---------------------------------------------------------------------
      1          1           0        0.000000    0.000000   -0.478261
      2         22           0        0.000000    0.000000    0.021739
 ---------------------------------------------------------------------
 Rotational constants (GHZ):           0.0000000        2047.9810562        2047.9810562
 Leave Link  202 at Mon Mar 28 12:47:21 2022, MaxMem=  9663676416 cpu:               0.6 elap:               0.0
 (Enter /nopt/nrel/apps/gaussian/g16C_1/g16/l301.exe)
 General basis read from cards:  (5D, 7F)
                         Coordinates in L301:                         
 ---------------------------------------------------------------------
 Center     Atomic      Atomic             Coordinates (Angstroms)
 Number     Number       Type             X           Y           Z
 ---------------------------------------------------------------------
      1          1           0        0.000000    0.000000   -0.478261
      2         22           0        0.000000    0.000000    0.021739
 ---------------------------------------------------------------------
 Centers:       1
 STO-3G
 ****
 Centers:       2
 6-31G
 ****
 FixB: optimizing general contractions.
 Ernie: Thresh=  0.10000D-02 Tol=  0.10000D-05 Strict=F.
 IA=     1 ShT= 0 ShC= 0 NL=   1 NS=   0.
 IA=     1 L=0 SC=0 ISt=    0 NBk=    0 NP=    0 IndPr=    0.
 IA=     2 ShT= 0 ShC= 0 NL=   1 NS=   0.
 IA=     2 L=0 SC=0 ISt=    0 NBk=    0 NP=    0 IndPr=    0.
 IA=     2 ShT= 1 ShC= 0 NL=   4 NS=   1.
 IA=     2 L=1 SC=0 ISt=    1 NBk=    3 NP=   15 IndPr=    0.
 DoElim1:  L=1 select primitive    1 from    2 using    1 C= 2.43D-03
 DoElim1:  L=1 select primitive    1 from    3 using    1 C= 2.43D-03
 DoElim1:  L=1 select primitive    4 from    3 using    2 C=-2.94D-03
 DoElim2:  L=1 select primitive   15 from    2 using    3 C=-1.16D+00
 DoElim2:  L=1 select primitive   15 from    1 using    3 C=-1.16D+00
 DoElim2:  L=1 select primitive   12 from    1 using    2 C=-7.43D-01
 DoElim1:  L=1 select primitive    1 from    2 using    1 C= 4.02D-03
 DoElim1:  L=1 select primitive    1 from    3 using    1 C= 4.02D-03
 DoElim1:  L=1 select primitive    4 from    3 using    2 C=-6.31D-03
 DoElim2:  L=1 select primitive   15 from    2 using    3 C= 9.90D-01
 DoElim2:  L=1 select primitive   15 from    1 using    3 C= 9.90D-01
 DoElim2:  L=1 select primitive   12 from    1 using    2 C= 5.13D-01
 Delete L=1 primitive   14 from    3 C=  0.00D+00.
 Delete L=1 primitive   12 from    3 C=  0.00D+00.
 Delete L=1 primitive   10 from    3 C=  0.00D+00.
 Delete L=1 primitive    9 from    3 C=  0.00D+00.
 Delete L=1 primitive    8 from    3 C=  0.00D+00.
 Delete L=1 primitive    7 from    3 C=  0.00D+00.
 Delete L=1 primitive    6 from    3 C=  0.00D+00.
 Delete L=1 primitive    5 from    3 C=  0.00D+00.
 Delete L=1 primitive    4 from    3 C=  0.00D+00.
 Delete L=1 primitive    3 from    3 C=  0.00D+00.
 Delete L=1 primitive    2 from    3 C=  0.00D+00.
 Delete L=1 primitive    1 from    3 C=  0.00D+00.
 Delete L=1 primitive   15 from    2 C=  0.00D+00.
 Delete L=1 primitive   13 from    2 C=  0.00D+00.
 Delete L=1 primitive   11 from    2 C=  0.00D+00.
 Delete L=1 primitive    9 from    2 C=  0.00D+00.
 Delete L=1 primitive    7 from    2 C=  0.00D+00.
 Delete L=1 primitive    5 from    2 C=  0.00D+00.
 Delete L=1 primitive    3 from    2 C=  0.00D+00.
 Delete L=1 primitive    2 from    2 C=  0.00D+00.
 Delete L=1 primitive    1 from    2 C=  0.00D+00.
 Delete L=1 primitive   15 from    1 C=  0.00D+00.
 Delete L=1 primitive   14 from    1 C=  0.00D+00.
 Delete L=1 primitive   13 from    1 C=  0.00D+00.
 Delete L=1 primitive   12 from    1 C=  0.00D+00.
 Delete L=1 primitive   11 from    1 C=  0.00D+00.
 Delete L=1 primitive   10 from    1 C=  0.00D+00.
 Delete L=1 primitive    8 from    1 C=  0.00D+00.
 Delete L=1 primitive    6 from    1 C=  0.00D+00.
 Delete L=1 primitive    4 from    1 C=  0.00D+00.
 IA=     2 L=1 SC=0 ISt=    0 NBk=    0 NP=    0 IndPr=   15.
 IA=     2 ShT= 2 ShC= 2 NL=   2 NS=   1.
 IA=     2 L=2 SC=2 ISt=    0 NBk=    0 NP=    0 IndPr=    0.
 LdAtmC:  AtmChg=     1.000000    22.000000
 AtZEff=     -1.0000000    -23.9800000
 NEqShl: 
              1            2            3            4
     1            1            1            1            1
     2            2            2            2            2
     3            3            3            3            3
     4            4            4            4            4
     5            5            5            5            5
     6            6            6            6            6
     7            7            7            7            7
     8            8            8            8            8
 NEqBas: 
              1            2            3            4
     1            1            1            1            1
     2            2            2            2            2
     3            3            3            3            3
     4            4           -4           -4            4
     5            5           -5            5           -5
     6            6            6            6            6
     7            7            7            7            7
     8            8           -8           -8            8
     9            9           -9            9           -9
    10           10           10           10           10
    11           11           11           11           11
    12           12          -12          -12           12
    13           13          -13           13          -13
    14           14           14           14           14
    15           15           15           15           15
    16           16          -16          -16           16
    17           17          -17           17          -17
    18           18           18           18           18
    19           19           19           19           19
    20           20           20           20           20
    21           21           21           21           21
    22           22           22          -22          -22
    23           23          -23          -23           23
    24           24          -24           24          -24
    25           25           25           25           25
    26           26           26           26           26
    27           27           27           27           27
    28           28           28          -28          -28
    29           29          -29          -29           29
    30           30          -30           30          -30
 There are    16 symmetry adapted cartesian basis functions of A1  symmetry.
   1         1   1   1   1
   2         2   2   2   2
   3         3   3   3   3
   4         6   6   6   6
   5         7   7   7   7
   6        10  10  10  10
   7        11  11  11  11
   8        14  14  14  14
   9        15  15  15  15
  10        18  18  18  18
  11        19  19  19  19
  12        20  20  20  20
  13        21  21  21  21
  14        25  25  25  25
  15        26  26  26  26
  16        27  27  27  27
 There are     2 symmetry adapted cartesian basis functions of A2  symmetry.
  17        22  22  22  22
  18        28  28  28  28
 There are     6 symmetry adapted cartesian basis functions of B1  symmetry.
  19         4   4   4   4
  20         8   8   8   8
  21        12  12  12  12
  22        16  16  16  16
  23        23  23  23  23
  24        29  29  29  29
 There are     6 symmetry adapted cartesian basis functions of B2  symmetry.
  25         5   5   5   5
  26         9   9   9   9
  27        13  13  13  13
  28        17  17  17  17
  29        24  24  24  24
  30        30  30  30  30
 Order= 1 2 4 3
 Reordered character table:
              1            2            3            4            5
     1            1            1            1            1            1
     2            2            1            1           -1           -1
     3            4            1           -1           -1            1
     4            3            1           -1            1           -1
 NEqShl: 
              1            2            3            4
     1            1            1            1            1
     2            2            2            2            2
     3            3            3            3            3
     4            4            4            4            4
     5            5            5            5            5
     6            6            6            6            6
     7            7            7            7            7
     8            8            8            8            8
 NEqBas: 
              1            2            3            4
     1            1            1            1            1
     2            2            2            2            2
     3            3            3            3            3
     4            4           -4           -4            4
     5            5           -5            5           -5
     6            6            6            6            6
     7            7            7            7            7
     8            8           -8           -8            8
     9            9           -9            9           -9
    10           10           10           10           10
    11           11           11           11           11
    12           12          -12          -12           12
    13           13          -13           13          -13
    14           14           14           14           14
    15           15           15           15           15
    16           16          -16          -16           16
    17           17          -17           17          -17
    18           18           18           18           18
    19           19           19           19           19
    20           20          -20          -20           20
    21           21          -21           21          -21
    22           22           22           22           22
    23           23           23          -23          -23
    24           24           24           24           24
    25           25          -25          -25           25
    26           26          -26           26          -26
    27           27           27           27           27
    28           28           28          -28          -28
 There are    14 symmetry adapted basis functions of A1  symmetry.
   1         1   1   1   1
   2         2   2   2   2
   3         3   3   3   3
   4         6   6   6   6
   5         7   7   7   7
   6        10  10  10  10
   7        11  11  11  11
   8        14  14  14  14
   9        15  15  15  15
  10        18  18  18  18
  11        19  19  19  19
  12        22  22  22  22
  13        24  24  24  24
  14        27  27  27  27
 There are     2 symmetry adapted basis functions of A2  symmetry.
  15        23  23  23  23
  16        28  28  28  28
 There are     6 symmetry adapted basis functions of B1  symmetry.
  17         4   4   4   4
  18         8   8   8   8
  19        12  12  12  12
  20        16  16  16  16
  21        20  20  20  20
  22        25  25  25  25
 There are     6 symmetry adapted basis functions of B2  symmetry.
  23         5   5   5   5
  24         9   9   9   9
  25        13  13  13  13
  26        17  17  17  17
  27        21  21  21  21
  28        26  26  26  26
 Order= 1 2 4 3
 Reordered character table:
              1            2            3            4            5
     1            1            1            1            1            1
     2            2            1            1           -1           -1
     3            4            1           -1           -1            1
     4            3            1           -1            1           -1
    28 basis functions,    97 primitive gaussians,    30 cartesian basis functions
    14 alpha electrons        9 beta electrons
       nuclear repulsion energy        23.2837972805 Hartrees.
 IS=     1 IAt=     1 ISR=     1 T=0 IP=      1 IndIP=      1 IndIPD=      0 C=  2.769344D-01  0.000000D+00                             NZ=T
 IS=     1 IAt=     1 ISR=     1 T=0 IP=      2 IndIP=      2 IndIPD=      1 C=  2.678389D-01  0.000000D+00                             NZ=T
 IS=     1 IAt=     1 ISR=     1 T=0 IP=      3 IndIP=      3 IndIPD=      2 C=  8.347367D-02  0.000000D+00                             NZ=T
 IS=     2 IAt=     2 ISR=     1 T=0 IP=      1 IndIP=      4 IndIPD=      0 C=  3.823622D+00  0.000000D+00                             NZ=T
 IS=     2 IAt=     2 ISR=     1 T=0 IP=      2 IndIP=      5 IndIPD=      1 C=  7.063955D+00  0.000000D+00                             NZ=T
 IS=     2 IAt=     2 ISR=     1 T=0 IP=      3 IndIP=      6 IndIPD=      2 C=  1.147576D+01  0.000000D+00                             NZ=T
 IS=     2 IAt=     2 ISR=     1 T=0 IP=      4 IndIP=      7 IndIPD=      3 C=  1.533813D+01  0.000000D+00                             NZ=T
 IS=     2 IAt=     2 ISR=     1 T=0 IP=      5 IndIP=      8 IndIPD=      4 C=  1.342790D+01  0.000000D+00                             NZ=T
 IS=     2 IAt=     2 ISR=     1 T=0 IP=      6 IndIP=      9 IndIPD=      5 C=  4.306715D+00  0.000000D+00                             NZ=T
 IS=     3 IAt=     2 ISR=     2 T=1 IP=      1 IndIP=     10 IndIPD=      0 C=  2.786662D-01  2.724134D+01                             NZ=T
 IS=     3 IAt=     2 ISR=     2 T=1 IP=      2 IndIP=     11 IndIPD=      1 C=  1.261924D+00  3.505718D+01                             NZ=T
 IS=     3 IAt=     2 ISR=     2 T=1 IP=      3 IndIP=     12 IndIPD=      2 C=  2.071008D+00  3.677821D+01                             NZ=T
 IS=     3 IAt=     2 ISR=     2 T=1 IP=      4 IndIP=     13 IndIPD=      3 C= -3.098929D-01  2.717167D+01                             NZ=T
 IS=     3 IAt=     2 ISR=     2 T=1 IP=      5 IndIP=     14 IndIPD=      4 C= -2.467696D+00  1.167904D+01                             NZ=T
 IS=     3 IAt=     2 ISR=     2 T=1 IP=      6 IndIP=     15 IndIPD=      5 C= -9.124724D-01  1.772051D+00                             NZ=T
 IS=     4 IAt=     2 ISR=     3 T=1 IP=      1 IndIP=     16 IndIPD=      0 C= -2.927436D-02 -7.289697D-01                             NZ=T
 IS=     4 IAt=     2 ISR=     3 T=1 IP=      2 IndIP=     17 IndIPD=      1 C=  3.057403D-01 -7.594388D-01                             NZ=T
 IS=     4 IAt=     2 ISR=     3 T=1 IP=      3 IndIP=     18 IndIPD=      2 C=  5.687287D-01  5.144727D-01                             NZ=T
 IS=     4 IAt=     2 ISR=     3 T=1 IP=      4 IndIP=     19 IndIPD=      3 C= -3.488887D-01  1.263214D+00                             NZ=T
 IS=     4 IAt=     2 ISR=     3 T=1 IP=      5 IndIP=     20 IndIPD=      4 C= -4.520346D-01  5.611750D-01                             NZ=T
 IS=     4 IAt=     2 ISR=     3 T=1 IP=      6 IndIP=     21 IndIPD=      5 C= -5.626677D-02  6.224893D-02                             NZ=T
 IS=     5 IAt=     2 ISR=     4 T=1 IP=      1 IndIP=     22 IndIPD=      0 C=  5.268162D-02 -3.876509D-01                             NZ=T
 IS=     5 IAt=     2 ISR=     4 T=1 IP=      2 IndIP=     23 IndIPD=      1 C=  1.303842D-01  4.475323D-02                             NZ=T
 IS=     5 IAt=     2 ISR=     4 T=1 IP=      3 IndIP=     24 IndIPD=      2 C= -1.293957D-01  6.389489D-02                             NZ=T
 IS=     6 IAt=     2 ISR=     5 T=1 IP=      1 IndIP=     25 IndIPD=      0 C=  5.396831D-02  1.931915D-02                             NZ=T
 IS=     7 IAt=     2 ISR=     6 T=2 IP=      1 IndIP=     26 IndIPD=      1 C=  0.000000D+00  0.000000D+00  1.377610D+01  0.000000D+00 NZ=T
 IS=     7 IAt=     2 ISR=     6 T=2 IP=      2 IndIP=     27 IndIPD=      2 C=  0.000000D+00  0.000000D+00  5.615749D+00  0.000000D+00 NZ=T
 IS=     7 IAt=     2 ISR=     6 T=2 IP=      3 IndIP=     28 IndIPD=      3 C=  0.000000D+00  0.000000D+00  1.263348D+00  0.000000D+00 NZ=T
 IS=     8 IAt=     2 ISR=     7 T=2 IP=      1 IndIP=     29 IndIPD=      4 C=  0.000000D+00  0.000000D+00  1.851834D-01  0.000000D+00 NZ=T
 IExCor=    0 DFT=F Ex=HF Corr=None ExCW=0 ScaHFX=  1.000000
 ScaDFX=  1.000000  1.000000  1.000000  1.000000 ScalE2=  1.000000  1.000000
 IRadAn=      5 IRanWt=     -1 IRanGd=            0 ICorTp=0 IEmpDi=  4
 NAtoms=    2 NActive=    2 NUniq=    2 SFac= 1.00D+00 NAtFMM=   60 NAOKFM=F Big=F
 Integral buffers will be    131072 words long.
 Raffenetti 2 integral format.
 Two-electron integral symmetry is turned on.
 Leave Link  301 at Mon Mar 28 12:47:22 2022, MaxMem=  9663676416 cpu:               2.0 elap:               0.1
 (Enter /nopt/nrel/apps/gaussian/g16C_1/g16/l302.exe)
 NPDir=0 NMtPBC=     1 NCelOv=     1 NCel=       1 NClECP=     1 NCelD=      1
         NCelK=      1 NCelE2=     1 NClLst=     1 CellRange=     0.0.
 One-electron integrals computed using PRISM.
 One-electron integral symmetry used in STVInt
 Entering OneElI...
 Calculate overlap and kinetic energy integrals
    NBasis =  28  MinDer = 0  MaxDer = 0
 Requested accuracy = 0.1000D-12
 Symmetry will be used
 PrmmSu-InSpLW:  IPartL=    0 NPrtUS=   36 NPrtUL=    1 DoSpLW=F IThBeg=    0 IThEnd=   35 NThAct=   36.
 PrSmSu:  IncTry=   512 NBBP=             36 NTPThr=   100 NPartT=   36 Incr=           1 LDynOK=F GPUOK=F.
 PrsmSu:  NPrtUS=  36 ThrOK=T IAlg=1 LenDen=           0 ISkipM=0 DoSpLW=F IThBeg=    0 IThEnd=   35.
 Prism:   IPart=     0 DynPar=F LinDyn=F Incr=           1.
 PRISM was handed   268429120 working-precision words and    36 shell-pairs
 PRISM was handed   268429120 working-precision words and    36 shell-pairs
 PRISM was handed   268429120 working-precision words and    36 shell-pairs
 PRISM was handed   268429120 working-precision words and    36 shell-pairs
 PRISM was handed   268429120 working-precision words and    36 shell-pairs
 PRISM was handed   268429120 working-precision words and    36 shell-pairs
 PRISM was handed   268429120 working-precision words and    36 shell-pairs
 PRISM was handed   268429120 working-precision words and    36 shell-pairs
 PRISM was handed   268429120 working-precision words and    36 shell-pairs
 PRISM was handed   268429120 working-precision words and    36 shell-pairs
 IPart= 14 NShTot=           0 NBatch=           0 AvBLen=         0.0
 IPart= 19 NShTot=           0 NBatch=           0 AvBLen=         0.0
 IPart=  4 NShTot=           0 NBatch=           0 AvBLen=         0.0
 IPart=  8 NShTot=           0 NBatch=           0 AvBLen=         0.0
 IPart=  5 NShTot=           0 NBatch=           0 AvBLen=         0.0
 IPart= 32 NShTot=           0 NBatch=           0 AvBLen=         0.0
 IPart= 26 NShTot=           0 NBatch=           0 AvBLen=         0.0
 IPart= 10 NShTot=           0 NBatch=           0 AvBLen=         0.0
 PRISM was handed   268429120 working-precision words and    36 shell-pairs
 PRISM was handed   268429120 working-precision words and    36 shell-pairs
 IPart=  2 NShTot=           2 NBatch=           2 AvBLen=         1.0
 PRISM was handed   268429120 working-precision words and    36 shell-pairs
 PRISM was handed   268429120 working-precision words and    36 shell-pairs
 IPart= 35 NShTot=           0 NBatch=           0 AvBLen=         0.0
 PRISM was handed   268429120 working-precision words and    36 shell-pairs
 PRISM was handed   268429120 working-precision words and    36 shell-pairs
 PRISM was handed   268429120 working-precision words and    36 shell-pairs
 PRISM was handed   268429120 working-precision words and    36 shell-pairs
 PRISM was handed   268429120 working-precision words and    36 shell-pairs
 IPart= 22 NShTot=           0 NBatch=           0 AvBLen=         0.0
 IPart= 33 NShTot=           0 NBatch=           0 AvBLen=         0.0
 PRISM was handed   268429120 working-precision words and    36 shell-pairs
 PRISM was handed   268429120 working-precision words and    36 shell-pairs
 IPart=  0 NShTot=          26 NBatch=          26 AvBLen=         1.0
 IPart= 20 NShTot=           0 NBatch=           0 AvBLen=         0.0
 IPart= 27 NShTot=           0 NBatch=           0 AvBLen=         0.0
 IPart= 31 NShTot=           0 NBatch=           0 AvBLen=         0.0
 IPart= 21 NShTot=           0 NBatch=           0 AvBLen=         0.0
 PRISM was handed   268429120 working-precision words and    36 shell-pairs
 PRISM was handed   268429120 working-precision words and    36 shell-pairs
 PRISM was handed   268429120 working-precision words and    36 shell-pairs
 IPart=  9 NShTot=           0 NBatch=           0 AvBLen=         0.0
 IPart=  3 NShTot=           0 NBatch=           0 AvBLen=         0.0
 IPart=  7 NShTot=           0 NBatch=           0 AvBLen=         0.0
 IPart= 17 NShTot=           0 NBatch=           0 AvBLen=         0.0
 PRISM was handed   268429120 working-precision words and    36 shell-pairs
 PRISM was handed   268429120 working-precision words and    36 shell-pairs
 PRISM was handed   268429120 working-precision words and    36 shell-pairs
 IPart= 28 NShTot=           0 NBatch=           0 AvBLen=         0.0
 PRISM was handed   268429120 working-precision words and    36 shell-pairs
 PRISM was handed   268429120 working-precision words and    36 shell-pairs
 IPart= 29 NShTot=           0 NBatch=           0 AvBLen=         0.0
 PRISM was handed   268429120 working-precision words and    36 shell-pairs
 PRISM was handed   268429120 working-precision words and    36 shell-pairs
 IPart= 16 NShTot=           0 NBatch=           0 AvBLen=         0.0
 PRISM was handed   268429120 working-precision words and    36 shell-pairs
 IPart= 25 NShTot=           0 NBatch=           0 AvBLen=         0.0
 IPart= 11 NShTot=           0 NBatch=           0 AvBLen=         0.0
 IPart= 12 NShTot=           0 NBatch=           0 AvBLen=         0.0
 IPart= 30 NShTot=           0 NBatch=           0 AvBLen=         0.0
 PRISM was handed   268429120 working-precision words and    36 shell-pairs
 PRISM was handed   268429120 working-precision words and    36 shell-pairs
 PRISM was handed   268429120 working-precision words and    36 shell-pairs
 PRISM was handed   268429120 working-precision words and    36 shell-pairs
 IPart= 15 NShTot=           0 NBatch=           0 AvBLen=         0.0
 IPart= 13 NShTot=           0 NBatch=           0 AvBLen=         0.0
 IPart= 18 NShTot=           0 NBatch=           0 AvBLen=         0.0
 IPart=  1 NShTot=           8 NBatch=           8 AvBLen=         1.0
 IPart= 24 NShTot=           0 NBatch=           0 AvBLen=         0.0
 IPart= 23 NShTot=           0 NBatch=           0 AvBLen=         0.0
 IPart= 34 NShTot=           0 NBatch=           0 AvBLen=         0.0
 IPart=  6 NShTot=           0 NBatch=           0 AvBLen=         0.0
 PrSmSu:  NxtVal=             37.
 *** Overlap *** 
                1             2             3             4             5 
      1  0.100000D+01
      2  0.329747D-01  0.100000D+01
      3 -0.237460D+00 -0.274497D+00  0.100000D+01
      4  0.000000D+00  0.000000D+00  0.000000D+00  0.100000D+01
      5  0.000000D+00  0.000000D+00  0.000000D+00  0.000000D+00  0.100000D+01
      6 -0.700941D-01  0.000000D+00  0.000000D+00  0.000000D+00  0.000000D+00
      7 -0.737429D+00 -0.126254D-01  0.358999D+00  0.000000D+00  0.000000D+00
      8  0.000000D+00  0.000000D+00  0.000000D+00  0.323756D+00  0.000000D+00
      9  0.000000D+00  0.000000D+00  0.000000D+00  0.000000D+00  0.323756D+00
     10 -0.431497D+00  0.000000D+00  0.000000D+00  0.000000D+00  0.000000D+00
     11 -0.491598D+00  0.708216D-02 -0.284985D-01  0.000000D+00  0.000000D+00
     12  0.000000D+00  0.000000D+00  0.000000D+00 -0.418224D-01  0.000000D+00
     13  0.000000D+00  0.000000D+00  0.000000D+00  0.000000D+00 -0.418224D-01
     14 -0.234772D+00  0.000000D+00  0.000000D+00  0.000000D+00  0.000000D+00
     15  0.432001D+00  0.748293D-02 -0.560115D-01  0.000000D+00  0.000000D+00
     16  0.000000D+00  0.000000D+00  0.000000D+00  0.532285D-02  0.000000D+00
     17  0.000000D+00  0.000000D+00  0.000000D+00  0.000000D+00  0.532285D-02
     18 -0.128973D+00  0.000000D+00  0.000000D+00  0.000000D+00  0.000000D+00
     19  0.174081D+00  0.000000D+00  0.000000D+00  0.000000D+00  0.000000D+00
     20  0.000000D+00  0.000000D+00  0.000000D+00  0.000000D+00  0.000000D+00
     21  0.000000D+00  0.000000D+00  0.000000D+00  0.000000D+00  0.000000D+00
     22  0.000000D+00  0.000000D+00  0.000000D+00  0.000000D+00  0.000000D+00
     23  0.000000D+00  0.000000D+00  0.000000D+00  0.000000D+00  0.000000D+00
     24  0.166775D+00  0.000000D+00  0.000000D+00  0.000000D+00  0.000000D+00
     25  0.000000D+00  0.000000D+00  0.000000D+00  0.000000D+00  0.000000D+00
     26  0.000000D+00  0.000000D+00  0.000000D+00  0.000000D+00  0.000000D+00
     27  0.000000D+00  0.000000D+00  0.000000D+00  0.000000D+00  0.000000D+00
     28  0.000000D+00  0.000000D+00  0.000000D+00  0.000000D+00  0.000000D+00
                6             7             8             9            10 
      6  0.100000D+01
      7  0.000000D+00  0.100000D+01
      8  0.000000D+00  0.000000D+00  0.100000D+01
      9  0.000000D+00  0.000000D+00  0.000000D+00  0.100000D+01
     10  0.323756D+00  0.000000D+00  0.000000D+00  0.000000D+00  0.100000D+01
     11  0.000000D+00  0.220325D+00  0.000000D+00  0.000000D+00  0.000000D+00
     12  0.000000D+00  0.000000D+00  0.139925D+00  0.000000D+00  0.000000D+00
     13  0.000000D+00  0.000000D+00  0.000000D+00  0.139925D+00  0.000000D+00
     14 -0.418224D-01  0.000000D+00  0.000000D+00  0.000000D+00  0.139925D+00
     15  0.000000D+00 -0.274846D+00  0.000000D+00  0.000000D+00  0.000000D+00
     16  0.000000D+00  0.000000D+00  0.104615D+00  0.000000D+00  0.000000D+00
     17  0.000000D+00  0.000000D+00  0.000000D+00  0.104615D+00  0.000000D+00
     18  0.532285D-02  0.000000D+00  0.000000D+00  0.000000D+00  0.104615D+00
     19  0.000000D+00  0.000000D+00  0.000000D+00  0.000000D+00  0.000000D+00
     20  0.000000D+00  0.000000D+00  0.000000D+00  0.000000D+00  0.000000D+00
     21  0.000000D+00  0.000000D+00  0.000000D+00  0.000000D+00  0.000000D+00
     22  0.000000D+00  0.000000D+00  0.000000D+00  0.000000D+00  0.000000D+00
     23  0.000000D+00  0.000000D+00  0.000000D+00  0.000000D+00  0.000000D+00
     24  0.000000D+00  0.000000D+00  0.000000D+00  0.000000D+00  0.000000D+00
     25  0.000000D+00  0.000000D+00  0.000000D+00  0.000000D+00  0.000000D+00
     26  0.000000D+00  0.000000D+00  0.000000D+00  0.000000D+00  0.000000D+00
     27  0.000000D+00  0.000000D+00  0.000000D+00  0.000000D+00  0.000000D+00
     28  0.000000D+00  0.000000D+00  0.000000D+00  0.000000D+00  0.000000D+00
               11            12            13            14            15 
     11  0.100000D+01
     12  0.000000D+00  0.100000D+01
     13  0.000000D+00  0.000000D+00  0.100000D+01
     14  0.000000D+00  0.000000D+00  0.000000D+00  0.100000D+01
     15 -0.865690D+00  0.000000D+00  0.000000D+00  0.000000D+00  0.100000D+01
     16  0.000000D+00  0.748550D+00  0.000000D+00  0.000000D+00  0.000000D+00
     17  0.000000D+00  0.000000D+00  0.748550D+00  0.000000D+00  0.000000D+00
     18  0.000000D+00  0.000000D+00  0.000000D+00  0.748550D+00  0.000000D+00
     19  0.000000D+00  0.000000D+00  0.000000D+00  0.000000D+00  0.000000D+00
     20  0.000000D+00  0.000000D+00  0.000000D+00  0.000000D+00  0.000000D+00
     21  0.000000D+00  0.000000D+00  0.000000D+00  0.000000D+00  0.000000D+00
     22  0.000000D+00  0.000000D+00  0.000000D+00  0.000000D+00  0.000000D+00
     23  0.000000D+00  0.000000D+00  0.000000D+00  0.000000D+00  0.000000D+00
     24  0.000000D+00  0.000000D+00  0.000000D+00  0.000000D+00  0.000000D+00
     25  0.000000D+00  0.000000D+00  0.000000D+00  0.000000D+00  0.000000D+00
     26  0.000000D+00  0.000000D+00  0.000000D+00  0.000000D+00  0.000000D+00
     27  0.000000D+00  0.000000D+00  0.000000D+00  0.000000D+00  0.000000D+00
     28  0.000000D+00  0.000000D+00  0.000000D+00  0.000000D+00  0.000000D+00
               16            17            18            19            20 
     16  0.100000D+01
     17  0.000000D+00  0.100000D+01
     18  0.000000D+00  0.000000D+00  0.100000D+01
     19  0.000000D+00  0.000000D+00  0.000000D+00  0.100000D+01
     20  0.000000D+00  0.000000D+00  0.000000D+00  0.000000D+00  0.100000D+01
     21  0.000000D+00  0.000000D+00  0.000000D+00  0.000000D+00  0.000000D+00
     22  0.000000D+00  0.000000D+00  0.000000D+00  0.000000D+00  0.000000D+00
     23  0.000000D+00  0.000000D+00  0.000000D+00  0.000000D+00  0.000000D+00
     24  0.000000D+00  0.000000D+00  0.000000D+00  0.404226D+00  0.000000D+00
     25  0.000000D+00  0.000000D+00  0.000000D+00  0.000000D+00  0.404226D+00
     26  0.000000D+00  0.000000D+00  0.000000D+00  0.000000D+00  0.000000D+00
     27  0.000000D+00  0.000000D+00  0.000000D+00  0.000000D+00  0.000000D+00
     28  0.000000D+00  0.000000D+00  0.000000D+00  0.000000D+00  0.000000D+00
               21            22            23            24            25 
     21  0.100000D+01
     22  0.000000D+00  0.100000D+01
     23  0.000000D+00  0.000000D+00  0.100000D+01
     24  0.000000D+00  0.000000D+00  0.000000D+00  0.100000D+01
     25  0.000000D+00  0.000000D+00  0.000000D+00  0.000000D+00  0.100000D+01
     26  0.404226D+00  0.000000D+00  0.000000D+00  0.000000D+00  0.000000D+00
     27  0.000000D+00  0.404226D+00  0.000000D+00  0.000000D+00  0.000000D+00
     28  0.000000D+00  0.000000D+00  0.404226D+00  0.000000D+00  0.000000D+00
               26            27            28 
     26  0.100000D+01
     27  0.000000D+00  0.100000D+01
     28  0.000000D+00  0.000000D+00  0.100000D+01
 *** Kinetic Energy *** 
                1             2             3             4             5 
      1  0.760032D+00
      2  0.114367D-01  0.233868D+03
      3 -0.155860D+00  0.128565D+02  0.116517D+02
      4  0.000000D+00  0.000000D+00  0.000000D+00  0.397344D+02
      5  0.000000D+00  0.000000D+00  0.000000D+00  0.000000D+00  0.397344D+02
      6 -0.140212D+00  0.000000D+00  0.000000D+00  0.000000D+00  0.000000D+00
      7 -0.497798D+00  0.130537D+01 -0.886570D+00  0.000000D+00  0.000000D+00
      8  0.000000D+00  0.000000D+00  0.000000D+00  0.141365D+01  0.000000D+00
      9  0.000000D+00  0.000000D+00  0.000000D+00  0.000000D+00  0.141365D+01
     10 -0.698902D+00  0.000000D+00  0.000000D+00  0.000000D+00  0.000000D+00
     11  0.279895D-01  0.469217D-01 -0.250757D+00  0.000000D+00  0.000000D+00
     12  0.000000D+00  0.000000D+00  0.000000D+00 -0.329355D+00  0.000000D+00
     13  0.000000D+00  0.000000D+00  0.000000D+00  0.000000D+00 -0.329355D+00
     14  0.216284D-01  0.000000D+00  0.000000D+00  0.000000D+00  0.000000D+00
     15  0.360279D-01  0.718816D-03 -0.535103D-02  0.000000D+00  0.000000D+00
     16  0.000000D+00  0.000000D+00  0.000000D+00  0.847976D-03  0.000000D+00
     17  0.000000D+00  0.000000D+00  0.000000D+00  0.000000D+00  0.847976D-03
     18 -0.181201D-01  0.000000D+00  0.000000D+00  0.000000D+00  0.000000D+00
     19  0.630415D+00  0.000000D+00  0.000000D+00  0.000000D+00  0.000000D+00
     20  0.000000D+00  0.000000D+00  0.000000D+00  0.000000D+00  0.000000D+00
     21  0.000000D+00  0.000000D+00  0.000000D+00  0.000000D+00  0.000000D+00
     22  0.000000D+00  0.000000D+00  0.000000D+00  0.000000D+00  0.000000D+00
     23  0.000000D+00  0.000000D+00  0.000000D+00  0.000000D+00  0.000000D+00
     24  0.209889D+00  0.000000D+00  0.000000D+00  0.000000D+00  0.000000D+00
     25  0.000000D+00  0.000000D+00  0.000000D+00  0.000000D+00  0.000000D+00
     26  0.000000D+00  0.000000D+00  0.000000D+00  0.000000D+00  0.000000D+00
     27  0.000000D+00  0.000000D+00  0.000000D+00  0.000000D+00  0.000000D+00
     28  0.000000D+00  0.000000D+00  0.000000D+00  0.000000D+00  0.000000D+00
                6             7             8             9            10 
      6  0.397344D+02
      7  0.000000D+00  0.138627D+01
      8  0.000000D+00  0.000000D+00  0.264346D+01
      9  0.000000D+00  0.000000D+00  0.000000D+00  0.264346D+01
     10  0.141365D+01  0.000000D+00  0.000000D+00  0.000000D+00  0.264346D+01
     11  0.000000D+00 -0.202155D+00  0.000000D+00  0.000000D+00  0.000000D+00
     12  0.000000D+00  0.000000D+00 -0.382323D+00  0.000000D+00  0.000000D+00
     13  0.000000D+00  0.000000D+00  0.000000D+00 -0.382323D+00  0.000000D+00
     14 -0.329355D+00  0.000000D+00  0.000000D+00  0.000000D+00 -0.382323D+00
     15  0.000000D+00 -0.250190D-01  0.000000D+00  0.000000D+00  0.000000D+00
     16  0.000000D+00  0.000000D+00  0.157808D-01  0.000000D+00  0.000000D+00
     17  0.000000D+00  0.000000D+00  0.000000D+00  0.157808D-01  0.000000D+00
     18  0.847976D-03  0.000000D+00  0.000000D+00  0.000000D+00  0.157808D-01
     19  0.000000D+00  0.000000D+00  0.000000D+00  0.000000D+00  0.000000D+00
     20  0.000000D+00  0.000000D+00  0.000000D+00  0.000000D+00  0.000000D+00
     21  0.000000D+00  0.000000D+00  0.000000D+00  0.000000D+00  0.000000D+00
     22  0.000000D+00  0.000000D+00  0.000000D+00  0.000000D+00  0.000000D+00
     23  0.000000D+00  0.000000D+00  0.000000D+00  0.000000D+00  0.000000D+00
     24  0.000000D+00  0.000000D+00  0.000000D+00  0.000000D+00  0.000000D+00
     25  0.000000D+00  0.000000D+00  0.000000D+00  0.000000D+00  0.000000D+00
     26  0.000000D+00  0.000000D+00  0.000000D+00  0.000000D+00  0.000000D+00
     27  0.000000D+00  0.000000D+00  0.000000D+00  0.000000D+00  0.000000D+00
     28  0.000000D+00  0.000000D+00  0.000000D+00  0.000000D+00  0.000000D+00
               11            12            13            14            15 
     11  0.179473D+00
     12  0.000000D+00  0.301582D+00
     13  0.000000D+00  0.000000D+00  0.301582D+00
     14  0.000000D+00  0.000000D+00  0.000000D+00  0.301582D+00
     15 -0.578075D-01  0.000000D+00  0.000000D+00  0.000000D+00  0.480540D-01
     16  0.000000D+00  0.867842D-01  0.000000D+00  0.000000D+00  0.000000D+00
     17  0.000000D+00  0.000000D+00  0.867842D-01  0.000000D+00  0.000000D+00
     18  0.000000D+00  0.000000D+00  0.000000D+00  0.867842D-01  0.000000D+00
     19  0.000000D+00  0.000000D+00  0.000000D+00  0.000000D+00  0.000000D+00
     20  0.000000D+00  0.000000D+00  0.000000D+00  0.000000D+00  0.000000D+00
     21  0.000000D+00  0.000000D+00  0.000000D+00  0.000000D+00  0.000000D+00
     22  0.000000D+00  0.000000D+00  0.000000D+00  0.000000D+00  0.000000D+00
     23  0.000000D+00  0.000000D+00  0.000000D+00  0.000000D+00  0.000000D+00
     24  0.000000D+00  0.000000D+00  0.000000D+00  0.000000D+00  0.000000D+00
     25  0.000000D+00  0.000000D+00  0.000000D+00  0.000000D+00  0.000000D+00
     26  0.000000D+00  0.000000D+00  0.000000D+00  0.000000D+00  0.000000D+00
     27  0.000000D+00  0.000000D+00  0.000000D+00  0.000000D+00  0.000000D+00
     28  0.000000D+00  0.000000D+00  0.000000D+00  0.000000D+00  0.000000D+00
               16            17            18            19            20 
     16  0.800900D-01
     17  0.000000D+00  0.800900D-01
     18  0.000000D+00  0.000000D+00  0.800900D-01
     19  0.000000D+00  0.000000D+00  0.000000D+00  0.631380D+01
     20  0.000000D+00  0.000000D+00  0.000000D+00  0.000000D+00  0.631380D+01
     21  0.000000D+00  0.000000D+00  0.000000D+00  0.000000D+00  0.000000D+00
     22  0.000000D+00  0.000000D+00  0.000000D+00  0.000000D+00  0.000000D+00
     23  0.000000D+00  0.000000D+00  0.000000D+00  0.000000D+00  0.000000D+00
     24  0.000000D+00  0.000000D+00  0.000000D+00  0.648327D+00  0.000000D+00
     25  0.000000D+00  0.000000D+00  0.000000D+00  0.000000D+00  0.648327D+00
     26  0.000000D+00  0.000000D+00  0.000000D+00  0.000000D+00  0.000000D+00
     27  0.000000D+00  0.000000D+00  0.000000D+00  0.000000D+00  0.000000D+00
     28  0.000000D+00  0.000000D+00  0.000000D+00  0.000000D+00  0.000000D+00
               21            22            23            24            25 
     21  0.631380D+01
     22  0.000000D+00  0.631380D+01
     23  0.000000D+00  0.000000D+00  0.631380D+01
     24  0.000000D+00  0.000000D+00  0.000000D+00  0.100437D+01
     25  0.000000D+00  0.000000D+00  0.000000D+00  0.000000D+00  0.100437D+01
     26  0.648327D+00  0.000000D+00  0.000000D+00  0.000000D+00  0.000000D+00
     27  0.000000D+00  0.648327D+00  0.000000D+00  0.000000D+00  0.000000D+00
     28  0.000000D+00  0.000000D+00  0.648327D+00  0.000000D+00  0.000000D+00
               26            27            28 
     26  0.100437D+01
     27  0.000000D+00  0.100437D+01
     28  0.000000D+00  0.000000D+00  0.100437D+01
 Entering OneElI...
 Calculate potential energy integrals
    NBasis =  28  MinDer = 0  MaxDer = 0
 Requested accuracy = 0.1000D-12
 Symmetry will be used
 PrmmSu-InSpLW:  IPartL=    0 NPrtUS=   36 NPrtUL=    1 DoSpLW=F IThBeg=    0 IThEnd=   35 NThAct=   36.
 PrSmSu:  IncTry=   512 NBBP=             72 NTPThr=   100 NPartT=   36 Incr=           1 LDynOK=F GPUOK=F.
 PrsmSu:  NPrtUS=  36 ThrOK=T IAlg=1 LenDen=           0 ISkipM=0 DoSpLW=F IThBeg=    0 IThEnd=   35.
 Prism:   IPart=     0 DynPar=F LinDyn=F Incr=           1.
 PRISM was handed   268429560 working-precision words and    36 shell-pairs
 PRISM was handed   268429560 working-precision words and    36 shell-pairs
 PRISM was handed   268429560 working-precision words and    36 shell-pairs
 PRISM was handed   268429560 working-precision words and    36 shell-pairs
 PRISM was handed   268429560 working-precision words and    36 shell-pairs
 PRISM was handed   268429560 working-precision words and    36 shell-pairs
 PRISM was handed   268429560 working-precision words and    36 shell-pairs
 PRISM was handed   268429560 working-precision words and    36 shell-pairs
 PRISM was handed   268429560 working-precision words and    36 shell-pairs
 PRISM was handed   268429560 working-precision words and    36 shell-pairs
 PRISM was handed   268429560 working-precision words and    36 shell-pairs
 PRISM was handed   268429560 working-precision words and    36 shell-pairs
 PRISM was handed   268429560 working-precision words and    36 shell-pairs
 PRISM was handed   268429560 working-precision words and    36 shell-pairs
 PRISM was handed   268429560 working-precision words and    36 shell-pairs
 PRISM was handed   268429560 working-precision words and    36 shell-pairs
 PRISM was handed   268429560 working-precision words and    36 shell-pairs
 PRISM was handed   268429560 working-precision words and    36 shell-pairs
 PRISM was handed   268429560 working-precision words and    36 shell-pairs
 PRISM was handed   268429560 working-precision words and    36 shell-pairs
 PRISM was handed   268429560 working-precision words and    36 shell-pairs
 PRISM was handed   268429560 working-precision words and    36 shell-pairs
 PRISM was handed   268429560 working-precision words and    36 shell-pairs
 PRISM was handed   268429560 working-precision words and    36 shell-pairs
 PRISM was handed   268429560 working-precision words and    36 shell-pairs
 PRISM was handed   268429560 working-precision words and    36 shell-pairs
 PRISM was handed   268429560 working-precision words and    36 shell-pairs
 PRISM was handed   268429560 working-precision words and    36 shell-pairs
 PRISM was handed   268429560 working-precision words and    36 shell-pairs
 PRISM was handed   268429560 working-precision words and    36 shell-pairs
 PRISM was handed   268429560 working-precision words and    36 shell-pairs
 PRISM was handed   268429560 working-precision words and    36 shell-pairs
 PRISM was handed   268429560 working-precision words and    36 shell-pairs
 PRISM was handed   268429560 working-precision words and    36 shell-pairs
 PRISM was handed   268429560 working-precision words and    36 shell-pairs
 PRISM was handed   268429560 working-precision words and    36 shell-pairs
 IPart=  6 NShTot=           0 NBatch=           0 AvBLen=         0.0
 IPart=  3 NShTot=           0 NBatch=           0 AvBLen=         0.0
 IPart= 12 NShTot=           0 NBatch=           0 AvBLen=         0.0
 IPart=  7 NShTot=           0 NBatch=           0 AvBLen=         0.0
 IPart= 18 NShTot=           0 NBatch=           0 AvBLen=         0.0
 IPart=  5 NShTot=           0 NBatch=           0 AvBLen=         0.0
 IPart=  2 NShTot=           4 NBatch=           2 AvBLen=         2.0
 IPart= 14 NShTot=           0 NBatch=           0 AvBLen=         0.0
 IPart= 10 NShTot=           0 NBatch=           0 AvBLen=         0.0
 IPart= 16 NShTot=           0 NBatch=           0 AvBLen=         0.0
 IPart= 19 NShTot=           0 NBatch=           0 AvBLen=         0.0
 IPart= 13 NShTot=           0 NBatch=           0 AvBLen=         0.0
 IPart=  1 NShTot=          16 NBatch=           8 AvBLen=         2.0
 IPart=  4 NShTot=           0 NBatch=           0 AvBLen=         0.0
 IPart=  0 NShTot=          52 NBatch=          26 AvBLen=         2.0
 IPart=  9 NShTot=           0 NBatch=           0 AvBLen=         0.0
 IPart=  8 NShTot=           0 NBatch=           0 AvBLen=         0.0
 IPart= 11 NShTot=           0 NBatch=           0 AvBLen=         0.0
 IPart= 17 NShTot=           0 NBatch=           0 AvBLen=         0.0
 IPart= 15 NShTot=           0 NBatch=           0 AvBLen=         0.0
 IPart= 33 NShTot=           0 NBatch=           0 AvBLen=         0.0
 IPart= 25 NShTot=           0 NBatch=           0 AvBLen=         0.0
 IPart= 22 NShTot=           0 NBatch=           0 AvBLen=         0.0
 IPart= 32 NShTot=           0 NBatch=           0 AvBLen=         0.0
 IPart= 34 NShTot=           0 NBatch=           0 AvBLen=         0.0
 IPart= 27 NShTot=           0 NBatch=           0 AvBLen=         0.0
 IPart= 35 NShTot=           0 NBatch=           0 AvBLen=         0.0
 IPart= 28 NShTot=           0 NBatch=           0 AvBLen=         0.0
 IPart= 30 NShTot=           0 NBatch=           0 AvBLen=         0.0
 IPart= 21 NShTot=           0 NBatch=           0 AvBLen=         0.0
 IPart= 20 NShTot=           0 NBatch=           0 AvBLen=         0.0
 IPart= 24 NShTot=           0 NBatch=           0 AvBLen=         0.0
 IPart= 29 NShTot=           0 NBatch=           0 AvBLen=         0.0
 IPart= 31 NShTot=           0 NBatch=           0 AvBLen=         0.0
 IPart= 26 NShTot=           0 NBatch=           0 AvBLen=         0.0
 IPart= 23 NShTot=           0 NBatch=           0 AvBLen=         0.0
 PrSmSu:  NxtVal=             37.
 ***** Potential Energy ***** 
                1             2             3             4             5 
      1  0.196423D+02
      2  0.799276D+01  0.476819D+03
      3 -0.145960D+02 -0.528129D+02  0.847736D+02
      4  0.000000D+00  0.000000D+00  0.000000D+00  0.989342D+02
      5  0.000000D+00  0.000000D+00  0.000000D+00  0.000000D+00  0.989342D+02
      6 -0.355988D+01 -0.318418D-01  0.194072D+00  0.000000D+00  0.000000D+00
      7 -0.181872D+02 -0.187072D+01  0.182968D+02  0.000000D+00  0.000000D+00
      8  0.000000D+00  0.000000D+00  0.000000D+00  0.171324D+02  0.000000D+00
      9  0.000000D+00  0.000000D+00  0.000000D+00  0.000000D+00  0.171324D+02
     10 -0.959248D+01 -0.174835D-02  0.111687D+00  0.000000D+00  0.000000D+00
     11 -0.504682D+01  0.175552D+01 -0.225321D+01  0.000000D+00  0.000000D+00
     12  0.000000D+00  0.000000D+00  0.000000D+00 -0.240684D+01  0.000000D+00
     13  0.000000D+00  0.000000D+00  0.000000D+00  0.000000D+00 -0.240684D+01
     14 -0.194541D+01  0.308244D-03 -0.137402D-01  0.000000D+00  0.000000D+00
     15  0.600768D+01  0.181212D+01 -0.337609D+01  0.000000D+00  0.000000D+00
     16  0.000000D+00  0.000000D+00  0.000000D+00  0.250142D+00  0.000000D+00
     17  0.000000D+00  0.000000D+00  0.000000D+00  0.000000D+00  0.250142D+00
     18 -0.131239D+01 -0.230160D-04  0.199029D-02  0.000000D+00  0.000000D+00
     19  0.417152D+01  0.414618D-03 -0.542490D-01  0.000000D+00  0.000000D+00
     20  0.000000D+00  0.000000D+00  0.000000D+00 -0.721812D-01  0.000000D+00
     21  0.000000D+00  0.000000D+00  0.000000D+00  0.000000D+00 -0.721812D-01
     22  0.000000D+00  0.000000D+00  0.000000D+00  0.000000D+00  0.000000D+00
     23  0.000000D+00  0.000000D+00  0.000000D+00  0.000000D+00  0.000000D+00
     24  0.233091D+01  0.664602D-05 -0.470065D-02  0.000000D+00  0.000000D+00
     25  0.000000D+00  0.000000D+00  0.000000D+00 -0.482127D-02  0.000000D+00
     26  0.000000D+00  0.000000D+00  0.000000D+00  0.000000D+00 -0.482127D-02
     27  0.000000D+00  0.000000D+00  0.000000D+00  0.000000D+00  0.000000D+00
     28  0.000000D+00  0.000000D+00  0.000000D+00  0.000000D+00  0.000000D+00
                6             7             8             9            10 
      6  0.990065D+02
      7  0.110784D+00  0.271589D+02
      8  0.000000D+00  0.000000D+00  0.256069D+02
      9  0.000000D+00  0.000000D+00  0.000000D+00  0.256069D+02
     10  0.171989D+02  0.403979D+00  0.000000D+00  0.000000D+00  0.259307D+02
     11 -0.550874D-02  0.262537D+01  0.000000D+00  0.000000D+00  0.560094D-01
     12  0.000000D+00  0.000000D+00  0.236860D+00  0.000000D+00  0.000000D+00
     13  0.000000D+00  0.000000D+00  0.000000D+00  0.236860D+00  0.000000D+00
     14 -0.241448D+01 -0.559535D-02  0.000000D+00  0.000000D+00  0.231542D+00
     15 -0.161030D-01 -0.560921D+01  0.000000D+00  0.000000D+00 -0.896807D-01
     16  0.000000D+00  0.000000D+00  0.150956D+01  0.000000D+00  0.000000D+00
     17  0.000000D+00  0.000000D+00  0.000000D+00  0.150956D+01  0.000000D+00
     18  0.251506D+00  0.202674D-01  0.000000D+00  0.000000D+00  0.152558D+01
     19 -0.125624D+00 -0.248948D+00  0.000000D+00  0.000000D+00 -0.500627D+00
     20  0.000000D+00  0.000000D+00 -0.221990D+00  0.000000D+00  0.000000D+00
     21  0.000000D+00  0.000000D+00  0.000000D+00 -0.221990D+00  0.000000D+00
     22  0.000000D+00  0.000000D+00  0.000000D+00  0.000000D+00  0.000000D+00
     23  0.000000D+00  0.000000D+00  0.000000D+00  0.000000D+00  0.000000D+00
     24 -0.101103D-01 -0.634906D-01  0.000000D+00  0.000000D+00 -0.146161D+00
     25  0.000000D+00  0.000000D+00 -0.727509D-01  0.000000D+00  0.000000D+00
     26  0.000000D+00  0.000000D+00  0.000000D+00 -0.727509D-01  0.000000D+00
     27  0.000000D+00  0.000000D+00  0.000000D+00  0.000000D+00  0.000000D+00
     28  0.000000D+00  0.000000D+00  0.000000D+00  0.000000D+00  0.000000D+00
               11            12            13            14            15 
     11  0.816102D+01
     12  0.000000D+00  0.713707D+01
     13  0.000000D+00  0.000000D+00  0.713707D+01
     14  0.624841D-01  0.000000D+00  0.000000D+00  0.715984D+01
     15 -0.639603D+01  0.000000D+00  0.000000D+00 -0.447325D-01  0.656392D+01
     16  0.000000D+00  0.433392D+01  0.000000D+00  0.000000D+00  0.000000D+00
     17  0.000000D+00  0.000000D+00  0.433392D+01  0.000000D+00  0.000000D+00
     18  0.318118D-01  0.000000D+00  0.000000D+00  0.434326D+01 -0.311193D-01
     19 -0.267547D-01  0.000000D+00  0.000000D+00  0.784687D-02  0.501289D-01
     20  0.000000D+00 -0.511984D-03  0.000000D+00  0.000000D+00  0.000000D+00
     21  0.000000D+00  0.000000D+00 -0.511984D-03  0.000000D+00  0.000000D+00
     22  0.000000D+00  0.000000D+00  0.000000D+00  0.000000D+00  0.000000D+00
     23  0.000000D+00  0.000000D+00  0.000000D+00  0.000000D+00  0.000000D+00
     24 -0.327210D-01  0.000000D+00  0.000000D+00 -0.633703D-01  0.287320D-01
     25  0.000000D+00 -0.457851D-01  0.000000D+00  0.000000D+00  0.000000D+00
     26  0.000000D+00  0.000000D+00 -0.457851D-01  0.000000D+00  0.000000D+00
     27  0.000000D+00  0.000000D+00  0.000000D+00  0.000000D+00  0.000000D+00
     28  0.000000D+00  0.000000D+00  0.000000D+00  0.000000D+00  0.000000D+00
               16            17            18            19            20 
     16  0.437736D+01
     17  0.000000D+00  0.437736D+01
     18  0.000000D+00  0.000000D+00  0.438363D+01
     19  0.000000D+00  0.000000D+00 -0.244688D-01  0.271060D+02
     20 -0.119110D-01  0.000000D+00  0.000000D+00  0.000000D+00  0.268520D+02
     21  0.000000D+00 -0.119110D-01  0.000000D+00  0.000000D+00  0.000000D+00
     22  0.000000D+00  0.000000D+00  0.000000D+00  0.000000D+00  0.000000D+00
     23  0.000000D+00  0.000000D+00  0.000000D+00  0.000000D+00  0.000000D+00
     24  0.000000D+00  0.000000D+00 -0.314991D-01  0.698399D+01  0.000000D+00
     25 -0.213786D-01  0.000000D+00  0.000000D+00  0.000000D+00  0.692129D+01
     26  0.000000D+00 -0.213786D-01  0.000000D+00  0.000000D+00  0.000000D+00
     27  0.000000D+00  0.000000D+00  0.000000D+00  0.000000D+00  0.000000D+00
     28  0.000000D+00  0.000000D+00  0.000000D+00  0.000000D+00  0.000000D+00
               21            22            23            24            25 
     21  0.268520D+02
     22  0.000000D+00  0.267077D+02
     23  0.000000D+00  0.000000D+00  0.267077D+02
     24  0.000000D+00  0.000000D+00  0.000000D+00  0.105277D+02
     25  0.000000D+00  0.000000D+00  0.000000D+00  0.000000D+00  0.104931D+02
     26  0.692129D+01  0.000000D+00  0.000000D+00  0.000000D+00  0.000000D+00
     27  0.000000D+00  0.688025D+01  0.000000D+00  0.000000D+00  0.000000D+00
     28  0.000000D+00  0.000000D+00  0.688025D+01  0.000000D+00  0.000000D+00
               26            27            28 
     26  0.104931D+02
     27  0.000000D+00  0.104552D+02
     28  0.000000D+00  0.000000D+00  0.104552D+02
 ****** Core Hamiltonian ****** 
                1             2             3             4             5 
      1 -0.188823D+02
      2 -0.798132D+01 -0.242951D+03
      3  0.144401D+02  0.656694D+02 -0.731219D+02
      4  0.000000D+00  0.000000D+00  0.000000D+00 -0.591998D+02
      5  0.000000D+00  0.000000D+00  0.000000D+00  0.000000D+00 -0.591998D+02
      6  0.341967D+01  0.318418D-01 -0.194072D+00  0.000000D+00  0.000000D+00
      7  0.176894D+02  0.317609D+01 -0.191833D+02  0.000000D+00  0.000000D+00
      8  0.000000D+00  0.000000D+00  0.000000D+00 -0.157187D+02  0.000000D+00
      9  0.000000D+00  0.000000D+00  0.000000D+00  0.000000D+00 -0.157187D+02
     10  0.889357D+01  0.174835D-02 -0.111687D+00  0.000000D+00  0.000000D+00
     11  0.507481D+01 -0.170860D+01  0.200246D+01  0.000000D+00  0.000000D+00
     12  0.000000D+00  0.000000D+00  0.000000D+00  0.207749D+01  0.000000D+00
     13  0.000000D+00  0.000000D+00  0.000000D+00  0.000000D+00  0.207749D+01
     14  0.196704D+01 -0.308244D-03  0.137402D-01  0.000000D+00  0.000000D+00
     15 -0.597165D+01 -0.181140D+01  0.337074D+01  0.000000D+00  0.000000D+00
     16  0.000000D+00  0.000000D+00  0.000000D+00 -0.249294D+00  0.000000D+00
     17  0.000000D+00  0.000000D+00  0.000000D+00  0.000000D+00 -0.249294D+00
     18  0.129427D+01  0.230160D-04 -0.199029D-02  0.000000D+00  0.000000D+00
     19 -0.354110D+01 -0.414618D-03  0.542490D-01  0.000000D+00  0.000000D+00
     20  0.000000D+00  0.000000D+00  0.000000D+00  0.721812D-01  0.000000D+00
     21  0.000000D+00  0.000000D+00  0.000000D+00  0.000000D+00  0.721812D-01
     22  0.000000D+00  0.000000D+00  0.000000D+00  0.000000D+00  0.000000D+00
     23  0.000000D+00  0.000000D+00  0.000000D+00  0.000000D+00  0.000000D+00
     24 -0.212102D+01 -0.664602D-05  0.470065D-02  0.000000D+00  0.000000D+00
     25  0.000000D+00  0.000000D+00  0.000000D+00  0.482127D-02  0.000000D+00
     26  0.000000D+00  0.000000D+00  0.000000D+00  0.000000D+00  0.482127D-02
     27  0.000000D+00  0.000000D+00  0.000000D+00  0.000000D+00  0.000000D+00
     28  0.000000D+00  0.000000D+00  0.000000D+00  0.000000D+00  0.000000D+00
                6             7             8             9            10 
      6 -0.592722D+02
      7 -0.110784D+00 -0.257726D+02
      8  0.000000D+00  0.000000D+00 -0.229634D+02
      9  0.000000D+00  0.000000D+00  0.000000D+00 -0.229634D+02
     10 -0.157852D+02 -0.403979D+00  0.000000D+00  0.000000D+00 -0.232872D+02
     11  0.550874D-02 -0.282753D+01  0.000000D+00  0.000000D+00 -0.560094D-01
     12  0.000000D+00  0.000000D+00 -0.619183D+00  0.000000D+00  0.000000D+00
     13  0.000000D+00  0.000000D+00  0.000000D+00 -0.619183D+00  0.000000D+00
     14  0.208512D+01  0.559535D-02  0.000000D+00  0.000000D+00 -0.613865D+00
     15  0.161030D-01  0.558419D+01  0.000000D+00  0.000000D+00  0.896807D-01
     16  0.000000D+00  0.000000D+00 -0.149378D+01  0.000000D+00  0.000000D+00
     17  0.000000D+00  0.000000D+00  0.000000D+00 -0.149378D+01  0.000000D+00
     18 -0.250658D+00 -0.202674D-01  0.000000D+00  0.000000D+00 -0.150980D+01
     19  0.125624D+00  0.248948D+00  0.000000D+00  0.000000D+00  0.500627D+00
     20  0.000000D+00  0.000000D+00  0.221990D+00  0.000000D+00  0.000000D+00
     21  0.000000D+00  0.000000D+00  0.000000D+00  0.221990D+00  0.000000D+00
     22  0.000000D+00  0.000000D+00  0.000000D+00  0.000000D+00  0.000000D+00
     23  0.000000D+00  0.000000D+00  0.000000D+00  0.000000D+00  0.000000D+00
     24  0.101103D-01  0.634906D-01  0.000000D+00  0.000000D+00  0.146161D+00
     25  0.000000D+00  0.000000D+00  0.727509D-01  0.000000D+00  0.000000D+00
     26  0.000000D+00  0.000000D+00  0.000000D+00  0.727509D-01  0.000000D+00
     27  0.000000D+00  0.000000D+00  0.000000D+00  0.000000D+00  0.000000D+00
     28  0.000000D+00  0.000000D+00  0.000000D+00  0.000000D+00  0.000000D+00
               11            12            13            14            15 
     11 -0.798155D+01
     12  0.000000D+00 -0.683549D+01
     13  0.000000D+00  0.000000D+00 -0.683549D+01
     14 -0.624841D-01  0.000000D+00  0.000000D+00 -0.685826D+01
     15  0.633822D+01  0.000000D+00  0.000000D+00  0.447325D-01 -0.651586D+01
     16  0.000000D+00 -0.424714D+01  0.000000D+00  0.000000D+00  0.000000D+00
     17  0.000000D+00  0.000000D+00 -0.424714D+01  0.000000D+00  0.000000D+00
     18 -0.318118D-01  0.000000D+00  0.000000D+00 -0.425648D+01  0.311193D-01
     19  0.267547D-01  0.000000D+00  0.000000D+00 -0.784687D-02 -0.501289D-01
     20  0.000000D+00  0.511984D-03  0.000000D+00  0.000000D+00  0.000000D+00
     21  0.000000D+00  0.000000D+00  0.511984D-03  0.000000D+00  0.000000D+00
     22  0.000000D+00  0.000000D+00  0.000000D+00  0.000000D+00  0.000000D+00
     23  0.000000D+00  0.000000D+00  0.000000D+00  0.000000D+00  0.000000D+00
     24  0.327210D-01  0.000000D+00  0.000000D+00  0.633703D-01 -0.287320D-01
     25  0.000000D+00  0.457851D-01  0.000000D+00  0.000000D+00  0.000000D+00
     26  0.000000D+00  0.000000D+00  0.457851D-01  0.000000D+00  0.000000D+00
     27  0.000000D+00  0.000000D+00  0.000000D+00  0.000000D+00  0.000000D+00
     28  0.000000D+00  0.000000D+00  0.000000D+00  0.000000D+00  0.000000D+00
               16            17            18            19            20 
     16 -0.429727D+01
     17  0.000000D+00 -0.429727D+01
     18  0.000000D+00  0.000000D+00 -0.430354D+01
     19  0.000000D+00  0.000000D+00  0.244688D-01 -0.207922D+02
     20  0.119110D-01  0.000000D+00  0.000000D+00  0.000000D+00 -0.205382D+02
     21  0.000000D+00  0.119110D-01  0.000000D+00  0.000000D+00  0.000000D+00
     22  0.000000D+00  0.000000D+00  0.000000D+00  0.000000D+00  0.000000D+00
     23  0.000000D+00  0.000000D+00  0.000000D+00  0.000000D+00  0.000000D+00
     24  0.000000D+00  0.000000D+00  0.314991D-01 -0.633566D+01  0.000000D+00
     25  0.213786D-01  0.000000D+00  0.000000D+00  0.000000D+00 -0.627296D+01
     26  0.000000D+00  0.213786D-01  0.000000D+00  0.000000D+00  0.000000D+00
     27  0.000000D+00  0.000000D+00  0.000000D+00  0.000000D+00  0.000000D+00
     28  0.000000D+00  0.000000D+00  0.000000D+00  0.000000D+00  0.000000D+00
               21            22            23            24            25 
     21 -0.205382D+02
     22  0.000000D+00 -0.203939D+02
     23  0.000000D+00  0.000000D+00 -0.203939D+02
     24  0.000000D+00  0.000000D+00  0.000000D+00 -0.952332D+01
     25  0.000000D+00  0.000000D+00  0.000000D+00  0.000000D+00 -0.948876D+01
     26 -0.627296D+01  0.000000D+00  0.000000D+00  0.000000D+00  0.000000D+00
     27  0.000000D+00 -0.623192D+01  0.000000D+00  0.000000D+00  0.000000D+00
     28  0.000000D+00  0.000000D+00 -0.623192D+01  0.000000D+00  0.000000D+00
               26            27            28 
     26 -0.948876D+01
     27  0.000000D+00 -0.945088D+01
     28  0.000000D+00  0.000000D+00 -0.945088D+01
 SVDSVc IOpt=   1 NormSV=T IR=1
 SVDSVc V= 2.67D+00 1.82D+00 1.47D+00 1.40D+00 1.40D+00 1.33D+00 1.00D+00 7.20D-01 5.96D-01 5.96D-01
 SVDSVc V= 5.62D-01 2.55D-01 1.53D-01 2.99D-02
 SVDSVc IOpt=   1 NormSV=T IR=2
 SVDSVc V= 1.40D+00 5.96D-01
 SVDSVc IOpt=   1 NormSV=T IR=3
 SVDSVc V= 1.79D+00 1.40D+00 1.30D+00 6.62D-01 5.96D-01 2.47D-01
 SVDSVc IOpt=   1 NormSV=T IR=4
 SVDSVc V= 1.79D+00 1.40D+00 1.30D+00 6.62D-01 5.96D-01 2.47D-01
 TstOVc:  Largest diagonal error= 2.55D-15 IB=1 I=    7.
 TstOVc:  Largest same sym error= 2.50D-15 IB=1 I=   14 J=    5.
 TstOVc:  Largest diff sym error= 0.00D+00 IB=0 JB=0 I=    0 J=    0.
 Orthogonalized basis functions: 
                 1             2             3             4             5 
      1   0.338396D+00 -0.554067D-01  0.148469D+00  0.000000D+00 -0.159974D-01
      2   0.271814D-01  0.637515D-02  0.178093D+00  0.000000D+00 -0.298291D+00
      3  -0.112304D+00 -0.221329D-01 -0.281521D+00  0.000000D+00  0.418716D+00
      4   0.000000D+00  0.000000D+00  0.000000D+00  0.000000D+00  0.000000D+00
      5   0.000000D+00  0.000000D+00  0.000000D+00  0.000000D+00  0.000000D+00
      6  -0.327874D-01  0.599744D-01 -0.135113D+00  0.000000D+00  0.291070D-01
      7  -0.255858D+00 -0.679303D-01 -0.155571D+00  0.000000D+00  0.231964D+00
      8   0.000000D+00  0.000000D+00  0.000000D+00  0.000000D+00  0.000000D+00
      9   0.000000D+00  0.000000D+00  0.000000D+00  0.000000D+00  0.000000D+00
     10  -0.105857D+00  0.192696D+00 -0.148510D+00  0.000000D+00  0.304201D-01
     11  -0.274962D+00 -0.175596D+00  0.292063D+00  0.000000D+00 -0.171290D+00
     12   0.000000D+00  0.000000D+00  0.000000D+00  0.000000D+00  0.000000D+00
     13   0.000000D+00  0.000000D+00  0.000000D+00  0.000000D+00  0.000000D+00
     14  -0.882300D-01  0.470269D+00  0.148744D+00  0.000000D+00 -0.167714D-01
     15   0.276410D+00  0.180922D+00 -0.272621D+00  0.000000D+00  0.130587D+00
     16   0.000000D+00  0.000000D+00  0.000000D+00  0.000000D+00  0.000000D+00
     17   0.000000D+00  0.000000D+00  0.000000D+00  0.000000D+00  0.000000D+00
     18  -0.725071D-01  0.463989D+00  0.160685D+00  0.000000D+00 -0.179879D-01
     19   0.462337D-01 -0.229749D-01  0.370740D+00  0.000000D+00  0.417258D+00
     20   0.000000D+00  0.000000D+00  0.000000D+00  0.000000D+00  0.000000D+00
     21   0.000000D+00  0.000000D+00  0.000000D+00  0.000000D+00  0.000000D+00
     22   0.000000D+00  0.000000D+00  0.000000D+00  0.596714D+00  0.000000D+00
     23   0.000000D+00  0.000000D+00  0.000000D+00  0.000000D+00  0.000000D+00
     24   0.450407D-01 -0.226438D-01  0.369503D+00  0.000000D+00  0.417404D+00
     25   0.000000D+00  0.000000D+00  0.000000D+00  0.000000D+00  0.000000D+00
     26   0.000000D+00  0.000000D+00  0.000000D+00  0.000000D+00  0.000000D+00
     27   0.000000D+00  0.000000D+00  0.000000D+00  0.596714D+00  0.000000D+00
     28   0.000000D+00  0.000000D+00  0.000000D+00  0.000000D+00  0.000000D+00
                 6             7             8             9            10 
      1  -0.679645D-01 -0.199415D+00  0.256260D+00 -0.687439D-02  0.000000D+00
      2   0.174549D+00  0.746526D+00  0.303815D+00 -0.108720D-01  0.000000D+00
      3  -0.209841D+00 -0.526644D-01  0.332512D+00 -0.170752D-01  0.000000D+00
      4   0.000000D+00  0.000000D+00  0.000000D+00  0.000000D+00  0.000000D+00
      5   0.000000D+00  0.000000D+00  0.000000D+00  0.000000D+00  0.000000D+00
      6   0.550205D+00 -0.233267D+00  0.794921D+00  0.145544D-01  0.000000D+00
      7  -0.981188D-01  0.456930D+00  0.127835D+00  0.698198D-02  0.000000D+00
      8   0.000000D+00  0.000000D+00  0.000000D+00  0.000000D+00  0.000000D+00
      9   0.000000D+00  0.000000D+00  0.000000D+00  0.000000D+00  0.000000D+00
     10   0.520540D+00 -0.476230D-01 -0.630100D+00 -0.196583D-01  0.000000D+00
     11   0.473884D-02 -0.235543D+00  0.325410D-01 -0.225457D-02  0.000000D+00
     12   0.000000D+00  0.000000D+00  0.000000D+00  0.000000D+00  0.000000D+00
     13   0.000000D+00  0.000000D+00  0.000000D+00  0.000000D+00  0.000000D+00
     14  -0.156032D+00 -0.263103D-01  0.416881D-01  0.282777D-03  0.000000D+00
     15   0.201780D-01  0.238187D+00 -0.110927D+00  0.510122D-02  0.000000D+00
     16   0.000000D+00  0.000000D+00  0.000000D+00  0.000000D+00  0.000000D+00
     17   0.000000D+00  0.000000D+00  0.000000D+00  0.000000D+00  0.000000D+00
     18  -0.155689D+00 -0.667796D-01  0.226981D+00  0.217911D-02  0.000000D+00
     19   0.146441D+00  0.829126D-01 -0.563108D-01 -0.914321D+00  0.000000D+00
     20   0.000000D+00  0.000000D+00  0.000000D+00  0.000000D+00  0.000000D+00
     21   0.000000D+00  0.000000D+00  0.000000D+00  0.000000D+00  0.000000D+00
     22   0.000000D+00  0.000000D+00  0.000000D+00  0.000000D+00  0.916103D+00
     23   0.000000D+00  0.000000D+00  0.000000D+00  0.000000D+00  0.000000D+00
     24   0.147121D+00  0.864900D-01 -0.713676D-01  0.917219D+00  0.000000D+00
     25   0.000000D+00  0.000000D+00  0.000000D+00  0.000000D+00  0.000000D+00
     26   0.000000D+00  0.000000D+00  0.000000D+00  0.000000D+00  0.000000D+00
     27   0.000000D+00  0.000000D+00  0.000000D+00  0.000000D+00 -0.916103D+00
     28   0.000000D+00  0.000000D+00  0.000000D+00  0.000000D+00  0.000000D+00
                11            12            13            14            15 
      1   0.203311D+00  0.274077D+00 -0.758604D+00  0.380337D+01  0.000000D+00
      2   0.533358D+00 -0.303921D-01  0.632680D-01 -0.105947D+00  0.000000D+00
      3   0.899302D+00 -0.677491D-01  0.216151D+00  0.550533D-01  0.000000D+00
      4   0.000000D+00  0.000000D+00  0.000000D+00  0.000000D+00  0.000000D+00
      5   0.000000D+00  0.000000D+00  0.000000D+00  0.000000D+00  0.000000D+00
      6  -0.267011D+00 -0.190700D+00  0.620863D-01 -0.236347D+00  0.000000D+00
      7  -0.581985D+00  0.270598D+00 -0.575473D+00  0.266664D+01  0.000000D+00
      8   0.000000D+00  0.000000D+00  0.000000D+00  0.000000D+00  0.000000D+00
      9   0.000000D+00  0.000000D+00  0.000000D+00  0.000000D+00  0.000000D+00
     10   0.404996D+00  0.303229D+00 -0.380235D+00  0.167248D+01  0.000000D+00
     11   0.116253D+00 -0.694267D-01  0.148539D+01  0.240805D+01  0.000000D+00
     12   0.000000D+00  0.000000D+00  0.000000D+00  0.000000D+00  0.000000D+00
     13   0.000000D+00  0.000000D+00  0.000000D+00  0.000000D+00  0.000000D+00
     14  -0.601030D-02 -0.133759D+01 -0.380277D+00  0.103070D+01  0.000000D+00
     15  -0.229974D+00 -0.144544D+00  0.173152D+01  0.121468D+01  0.000000D+00
     16   0.000000D+00  0.000000D+00  0.000000D+00  0.000000D+00  0.000000D+00
     17   0.000000D+00  0.000000D+00  0.000000D+00  0.000000D+00  0.000000D+00
     18  -0.233395D-01  0.135003D+01  0.267050D+00 -0.468718D+00  0.000000D+00
     19  -0.630103D-01 -0.435788D-01  0.109560D+00 -0.496199D+00  0.000000D+00
     20   0.000000D+00  0.000000D+00  0.000000D+00  0.000000D+00  0.000000D+00
     21   0.000000D+00  0.000000D+00  0.000000D+00  0.000000D+00  0.000000D+00
     22   0.000000D+00  0.000000D+00  0.000000D+00  0.000000D+00  0.000000D+00
     23   0.000000D+00  0.000000D+00  0.000000D+00  0.000000D+00  0.596714D+00
     24  -0.192546D-01 -0.377050D-01  0.970519D-01 -0.447100D+00  0.000000D+00
     25   0.000000D+00  0.000000D+00  0.000000D+00  0.000000D+00  0.000000D+00
     26   0.000000D+00  0.000000D+00  0.000000D+00  0.000000D+00  0.000000D+00
     27   0.000000D+00  0.000000D+00  0.000000D+00  0.000000D+00  0.000000D+00
     28   0.000000D+00  0.000000D+00  0.000000D+00  0.000000D+00  0.596714D+00
                16            17            18            19            20 
      1   0.000000D+00  0.000000D+00  0.000000D+00  0.000000D+00  0.000000D+00
      2   0.000000D+00  0.000000D+00  0.000000D+00  0.000000D+00  0.000000D+00
      3   0.000000D+00  0.000000D+00  0.000000D+00  0.000000D+00  0.000000D+00
      4   0.000000D+00  0.496550D-01  0.000000D+00  0.634889D+00 -0.838847D+00
      5   0.000000D+00  0.000000D+00  0.000000D+00  0.000000D+00  0.000000D+00
      6   0.000000D+00  0.000000D+00  0.000000D+00  0.000000D+00  0.000000D+00
      7   0.000000D+00  0.000000D+00  0.000000D+00  0.000000D+00  0.000000D+00
      8   0.000000D+00  0.179002D+00  0.000000D+00  0.575229D+00  0.875786D+00
      9   0.000000D+00  0.000000D+00  0.000000D+00  0.000000D+00  0.000000D+00
     10   0.000000D+00  0.000000D+00  0.000000D+00  0.000000D+00  0.000000D+00
     11   0.000000D+00  0.000000D+00  0.000000D+00  0.000000D+00  0.000000D+00
     12   0.000000D+00  0.513298D+00  0.000000D+00 -0.135910D+00 -0.267878D-01
     13   0.000000D+00  0.000000D+00  0.000000D+00  0.000000D+00  0.000000D+00
     14   0.000000D+00  0.000000D+00  0.000000D+00  0.000000D+00  0.000000D+00
     15   0.000000D+00  0.000000D+00  0.000000D+00  0.000000D+00  0.000000D+00
     16   0.000000D+00  0.510710D+00  0.000000D+00 -0.126746D+00 -0.198477D+00
     17   0.000000D+00  0.000000D+00  0.000000D+00  0.000000D+00  0.000000D+00
     18   0.000000D+00  0.000000D+00  0.000000D+00  0.000000D+00  0.000000D+00
     19   0.000000D+00  0.000000D+00  0.000000D+00  0.000000D+00  0.000000D+00
     20   0.000000D+00  0.000000D+00  0.596714D+00  0.000000D+00  0.000000D+00
     21   0.000000D+00  0.000000D+00  0.000000D+00  0.000000D+00  0.000000D+00
     22   0.000000D+00  0.000000D+00  0.000000D+00  0.000000D+00  0.000000D+00
     23   0.916103D+00  0.000000D+00  0.000000D+00  0.000000D+00  0.000000D+00
     24   0.000000D+00  0.000000D+00  0.000000D+00  0.000000D+00  0.000000D+00
     25   0.000000D+00  0.000000D+00  0.596714D+00  0.000000D+00  0.000000D+00
     26   0.000000D+00  0.000000D+00  0.000000D+00  0.000000D+00  0.000000D+00
     27   0.000000D+00  0.000000D+00  0.000000D+00  0.000000D+00  0.000000D+00
     28  -0.916103D+00  0.000000D+00  0.000000D+00  0.000000D+00  0.000000D+00
                21            22            23            24            25 
      1   0.000000D+00  0.000000D+00  0.000000D+00  0.000000D+00  0.000000D+00
      2   0.000000D+00  0.000000D+00  0.000000D+00  0.000000D+00  0.000000D+00
      3   0.000000D+00  0.000000D+00  0.000000D+00  0.000000D+00  0.000000D+00
      4   0.000000D+00  0.146699D+00  0.000000D+00  0.000000D+00  0.000000D+00
      5   0.000000D+00  0.000000D+00  0.496550D-01  0.000000D+00  0.634889D+00
      6   0.000000D+00  0.000000D+00  0.000000D+00  0.000000D+00  0.000000D+00
      7   0.000000D+00  0.000000D+00  0.000000D+00  0.000000D+00  0.000000D+00
      8   0.000000D+00 -0.133591D+00  0.000000D+00  0.000000D+00  0.000000D+00
      9   0.000000D+00  0.000000D+00  0.179002D+00  0.000000D+00  0.575229D+00
     10   0.000000D+00  0.000000D+00  0.000000D+00  0.000000D+00  0.000000D+00
     11   0.000000D+00  0.000000D+00  0.000000D+00  0.000000D+00  0.000000D+00
     12   0.000000D+00  0.142747D+01  0.000000D+00  0.000000D+00  0.000000D+00
     13   0.000000D+00  0.000000D+00  0.513298D+00  0.000000D+00 -0.135910D+00
     14   0.000000D+00  0.000000D+00  0.000000D+00  0.000000D+00  0.000000D+00
     15   0.000000D+00  0.000000D+00  0.000000D+00  0.000000D+00  0.000000D+00
     16   0.000000D+00 -0.140214D+01  0.000000D+00  0.000000D+00  0.000000D+00
     17   0.000000D+00  0.000000D+00  0.510710D+00  0.000000D+00 -0.126746D+00
     18   0.000000D+00  0.000000D+00  0.000000D+00  0.000000D+00  0.000000D+00
     19   0.000000D+00  0.000000D+00  0.000000D+00  0.000000D+00  0.000000D+00
     20   0.916103D+00  0.000000D+00  0.000000D+00  0.000000D+00  0.000000D+00
     21   0.000000D+00  0.000000D+00  0.000000D+00  0.596714D+00  0.000000D+00
     22   0.000000D+00  0.000000D+00  0.000000D+00  0.000000D+00  0.000000D+00
     23   0.000000D+00  0.000000D+00  0.000000D+00  0.000000D+00  0.000000D+00
     24   0.000000D+00  0.000000D+00  0.000000D+00  0.000000D+00  0.000000D+00
     25  -0.916103D+00  0.000000D+00  0.000000D+00  0.000000D+00  0.000000D+00
     26   0.000000D+00  0.000000D+00  0.000000D+00  0.596714D+00  0.000000D+00
     27   0.000000D+00  0.000000D+00  0.000000D+00  0.000000D+00  0.000000D+00
     28   0.000000D+00  0.000000D+00  0.000000D+00  0.000000D+00  0.000000D+00
                26            27            28 
      1   0.000000D+00  0.000000D+00  0.000000D+00
      2   0.000000D+00  0.000000D+00  0.000000D+00
      3   0.000000D+00  0.000000D+00  0.000000D+00
      4   0.000000D+00  0.000000D+00  0.000000D+00
      5  -0.838847D+00  0.000000D+00  0.146699D+00
      6   0.000000D+00  0.000000D+00  0.000000D+00
      7   0.000000D+00  0.000000D+00  0.000000D+00
      8   0.000000D+00  0.000000D+00  0.000000D+00
      9   0.875786D+00  0.000000D+00 -0.133591D+00
     10   0.000000D+00  0.000000D+00  0.000000D+00
     11   0.000000D+00  0.000000D+00  0.000000D+00
     12   0.000000D+00  0.000000D+00  0.000000D+00
     13  -0.267878D-01  0.000000D+00  0.142747D+01
     14   0.000000D+00  0.000000D+00  0.000000D+00
     15   0.000000D+00  0.000000D+00  0.000000D+00
     16   0.000000D+00  0.000000D+00  0.000000D+00
     17  -0.198477D+00  0.000000D+00 -0.140214D+01
     18   0.000000D+00  0.000000D+00  0.000000D+00
     19   0.000000D+00  0.000000D+00  0.000000D+00
     20   0.000000D+00  0.000000D+00  0.000000D+00
     21   0.000000D+00  0.916103D+00  0.000000D+00
     22   0.000000D+00  0.000000D+00  0.000000D+00
     23   0.000000D+00  0.000000D+00  0.000000D+00
     24   0.000000D+00  0.000000D+00  0.000000D+00
     25   0.000000D+00  0.000000D+00  0.000000D+00
     26   0.000000D+00 -0.916103D+00  0.000000D+00
     27   0.000000D+00  0.000000D+00  0.000000D+00
     28   0.000000D+00  0.000000D+00  0.000000D+00
 NBasis=    28 RedAO= T EigKep=  2.99D-02  NBF=    14     2     6     6
 NBsUse=    28 1.00D-06 EigRej= -1.00D+00 NBFU=    14     2     6     6
 Leave Link  302 at Mon Mar 28 12:47:22 2022, MaxMem=  9663676416 cpu:               4.1 elap:               0.1
 (Enter /nopt/nrel/apps/gaussian/g16C_1/g16/l303.exe)
 DipDrv will not compute anything.
 Fermi contact integrals: 
                 1             2 
      1   0.628247D+00  0.238254D+00
      2   0.000000D+00  0.554361D+02
      3  -0.245793D-01 -0.784630D-01
      4   0.000000D+00  0.000000D+00
      5   0.000000D+00  0.000000D+00
      6  -0.459899D-01  0.000000D+00
      7  -0.313740D+00 -0.119954D-01
      8   0.000000D+00  0.000000D+00
      9   0.000000D+00  0.000000D+00
     10  -0.518634D+00  0.000000D+00
     11  -0.177567D-01  0.536701D-01
     12   0.000000D+00  0.000000D+00
     13   0.000000D+00  0.000000D+00
     14   0.393461D-01  0.000000D+00
     15   0.524466D-01  0.539683D-01
     16   0.000000D+00  0.000000D+00
     17   0.000000D+00  0.000000D+00
     18  -0.177393D-01  0.000000D+00
     19   0.663351D+00  0.000000D+00
     20   0.000000D+00  0.000000D+00
     21   0.000000D+00  0.000000D+00
     22   0.000000D+00  0.000000D+00
     23   0.000000D+00  0.000000D+00
     24   0.127961D+00  0.000000D+00
     25   0.000000D+00  0.000000D+00
     26   0.000000D+00  0.000000D+00
     27   0.000000D+00  0.000000D+00
     28   0.000000D+00  0.000000D+00
 Leave Link  303 at Mon Mar 28 12:47:22 2022, MaxMem=  9663676416 cpu:               1.2 elap:               0.1
 (Enter /nopt/nrel/apps/gaussian/g16C_1/g16/l401.exe)
 ExpMin= 3.20D-02 ExpMax= 4.32D+04 ExpMxC= 6.48D+03 IAcc=3 IRadAn=         5 AccDes= 0.00D+00
 Harris functional with IExCor=  205 and IRadAn=       5 diagonalized for initial guess.
 HarFok:  IExCor=  205 AccDes= 0.00D+00 IRadAn=         5 IDoV= 1 UseB2=F ITyADJ=14
 ICtDFT=  3500011 ScaDFX=  1.000000  1.000000  1.000000  1.000000
 FoFCou: FMM=F IPFlag=           0 FMFlag=      100000 FMFlg1=           0
         NFxFlg=           0 DoJE=T BraDBF=F KetDBF=T FulRan=T
         wScrn=  0.000000 ICntrl=       500 IOpCl=  0 I1Cent=   200000004 NGrid=           0
         NMat0=    1 NMatS0=      1 NMatT0=    0 NMatD0=    1 NMtDS0=    0 NMtDT0=    0
 Petite list used in FoFCou.
 Harris En= -845.450208599578    
 JPrj=0 DoOrth=F DoCkMO=F.
 Initial guess orbital symmetries:
 Alpha Orbitals:
       Occupied  (SG) (SG) (SG) (PI) (PI) (SG) (SG) (PI) (PI) (SG)
                 (PI) (PI) (DLTA) (DLTA)
       Virtual   (SG) (SG) (PI) (PI) (SG) (SG) (PI) (PI) (SG) (PI)
                 (PI) (DLTA) (DLTA) (SG)
 Beta  Orbitals:
       Occupied  (SG) (SG) (SG) (PI) (PI) (SG) (SG) (PI) (PI)
       Virtual   (SG) (PI) (PI) (DLTA) (DLTA) (SG) (SG) (PI) (PI)
                 (SG) (SG) (PI) (PI) (SG) (PI) (PI) (DLTA) (DLTA)
                 (SG)
 The electronic state of the initial guess is 6-SG.
 Initial guess <Sx>= 0.0000 <Sy>= 0.0000 <Sz>= 2.5000 <S**2>= 8.7500 S= 2.5000
 Leave Link  401 at Mon Mar 28 12:47:22 2022, MaxMem=  9663676416 cpu:               4.5 elap:               0.2
 (Enter /nopt/nrel/apps/gaussian/g16C_1/g16/l502.exe)
 Keep R1 and R2 ints in memory in symmetry-blocked form, NReq=7501073.
 FoFCou: FMM=F IPFlag=           0 FMFlag=           0 FMFlg1=           0
         NFxFlg=           0 DoJE=F BraDBF=F KetDBF=F FulRan=T
         wScrn=  0.000000 ICntrl=       600 IOpCl=  0 I1Cent=           0 NGrid=           0
         NMat0=    1 NMatS0=    406 NMatT0=    0 NMatD0=    1 NMtDS0=    0 NMtDT0=    0
 Petite list used in FoFCou.
 UHF open shell SCF:
[...]
 Coeff-Com:  0.267D+00-0.888D+00 0.166D+01
 Coeff:     -0.587D-03 0.799D-03-0.121D-03 0.114D-02 0.280D-02-0.461D-01
 Coeff:      0.267D+00-0.888D+00 0.166D+01
 Gap=     0.240 Goal=   None    Shift=    0.000
 Gap=     1.500 Goal=   None    Shift=    0.000
 RMSDP=3.14D-05 MaxDP=4.67D-04 DE=-2.38D-06 OVMax= 4.72D-05

 Cycle  10  Pass 1  IDiag  1:
 E= -845.939854318827     Delta-E=       -0.000000250322 Rises=F Damp=F
 DIIS: error= 1.29D-05 at cycle  10 NSaved=  10.
 NSaved=10 IEnMin=10 EnMin= -845.939854318827     IErMin=10 ErrMin= 1.29D-05
 ErrMax= 1.29D-05  0.00D+00 EMaxC= 1.00D-01 BMatC= 8.29D-09 BMatP= 1.33D-07
 IDIUse=1 WtCom= 1.00D+00 WtEn= 0.00D+00
 Coeff-Com:  0.174D-03-0.231D-03-0.479D-05-0.580D-03-0.178D-02 0.166D-01
 Coeff-Com: -0.925D-01 0.355D+00-0.928D+00 0.165D+01
 Coeff:      0.174D-03-0.231D-03-0.479D-05-0.580D-03-0.178D-02 0.166D-01
 Coeff:     -0.925D-01 0.355D+00-0.928D+00 0.165D+01
 Gap=     0.240 Goal=   None    Shift=    0.000
 Gap=     1.500 Goal=   None    Shift=    0.000
 RMSDP=9.64D-06 MaxDP=1.36D-04 DE=-2.50D-07 OVMax= 5.41D-06

 Cycle  11  Pass 1  IDiag  1:
 E= -845.939854338613     Delta-E=       -0.000000019785 Rises=F Damp=F
 DIIS: error= 4.16D-06 at cycle  11 NSaved=  11.
 NSaved=11 IEnMin=11 EnMin= -845.939854338613     IErMin=11 ErrMin= 4.16D-06
 ErrMax= 4.16D-06  0.00D+00 EMaxC= 1.00D-01 BMatC= 9.83D-10 BMatP= 8.29D-09
 IDIUse=1 WtCom= 1.00D+00 WtEn= 0.00D+00
 Coeff-Com:  0.771D-05-0.378D-05 0.595D-05 0.201D-03 0.970D-03-0.486D-02
 Coeff-Com:  0.234D-01-0.103D+00 0.312D+00-0.663D+00 0.143D+01
 Coeff:      0.771D-05-0.378D-05 0.595D-05 0.201D-03 0.970D-03-0.486D-02
 Coeff:      0.234D-01-0.103D+00 0.312D+00-0.663D+00 0.143D+01
 Gap=     0.240 Goal=   None    Shift=    0.000
 Gap=     1.500 Goal=   None    Shift=    0.000
 RMSDP=2.03D-06 MaxDP=3.21D-05 DE=-1.98D-08 OVMax= 7.85D-07

 Cycle  12  Pass 1  IDiag  1:
 E= -845.939854339553     Delta-E=       -0.000000000940 Rises=F Damp=F
 DIIS: error= 9.91D-07 at cycle  12 NSaved=  12.
 NSaved=12 IEnMin=12 EnMin= -845.939854339553     IErMin=12 ErrMin= 9.91D-07
 ErrMax= 9.91D-07  0.00D+00 EMaxC= 1.00D-01 BMatC= 5.18D-11 BMatP= 9.83D-10
 IDIUse=1 WtCom= 1.00D+00 WtEn= 0.00D+00
 Coeff-Com:  0.587D-05-0.828D-05-0.844D-06-0.838D-04-0.574D-03 0.222D-02
 Coeff-Com: -0.900D-02 0.394D-01-0.124D+00 0.262D+00-0.852D+00 0.168D+01
 Coeff:      0.587D-05-0.828D-05-0.844D-06-0.838D-04-0.574D-03 0.222D-02
 Coeff:     -0.900D-02 0.394D-01-0.124D+00 0.262D+00-0.852D+00 0.168D+01
 Gap=     0.240 Goal=   None    Shift=    0.000
 Gap=     1.500 Goal=   None    Shift=    0.000
 RMSDP=6.89D-07 MaxDP=7.11D-06 DE=-9.40D-10 OVMax= 1.09D-06

 Cycle  13  Pass 1  IDiag  1:
 E= -845.939854339663     Delta-E=       -0.000000000110 Rises=F Damp=F
 DIIS: error= 2.02D-07 at cycle  13 NSaved=  13.
 NSaved=13 IEnMin=13 EnMin= -845.939854339663     IErMin=13 ErrMin= 2.02D-07
 ErrMax= 2.02D-07  0.00D+00 EMaxC= 1.00D-01 BMatC= 4.36D-12 BMatP= 5.18D-11
 IDIUse=1 WtCom= 1.00D+00 WtEn= 0.00D+00
 Coeff-Com:  0.162D-06-0.511D-06-0.783D-06 0.141D-04 0.138D-03-0.284D-03
 Coeff-Com:  0.557D-03-0.334D-02 0.155D-01-0.367D-01 0.225D+00-0.666D+00
 Coeff-Com:  0.147D+01
 Coeff:      0.162D-06-0.511D-06-0.783D-06 0.141D-04 0.138D-03-0.284D-03
 Coeff:      0.557D-03-0.334D-02 0.155D-01-0.367D-01 0.225D+00-0.666D+00
 Coeff:      0.147D+01
 Gap=     0.240 Goal=   None    Shift=    0.000
 Gap=     1.500 Goal=   None    Shift=    0.000
 RMSDP=1.32D-07 MaxDP=1.53D-06 DE=-1.10D-10 OVMax= 1.41D-07

 Cycle  14  Pass 1  IDiag  1:
 E= -845.939854339670     Delta-E=       -0.000000000007 Rises=F Damp=F
 DIIS: error= 8.10D-08 at cycle  14 NSaved=  14.
 NSaved=14 IEnMin=14 EnMin= -845.939854339670     IErMin=14 ErrMin= 8.10D-08
 ErrMax= 8.10D-08  0.00D+00 EMaxC= 1.00D-01 BMatC= 4.11D-13 BMatP= 4.36D-12
 IDIUse=1 WtCom= 1.00D+00 WtEn= 0.00D+00
 Coeff-Com: -0.568D-06 0.821D-06-0.123D-06-0.488D-05-0.507D-04 0.114D-03
 Coeff-Com: -0.191D-03 0.973D-03-0.490D-02 0.954D-02-0.694D-01 0.249D+00
 Coeff-Com: -0.860D+00 0.167D+01
 Coeff:     -0.568D-06 0.821D-06-0.123D-06-0.488D-05-0.507D-04 0.114D-03
 Coeff:     -0.191D-03 0.973D-03-0.490D-02 0.954D-02-0.694D-01 0.249D+00
 Coeff:     -0.860D+00 0.167D+01
 Gap=     0.240 Goal=   None    Shift=    0.000
 Gap=     1.500 Goal=   None    Shift=    0.000
 RMSDP=6.09D-08 MaxDP=7.28D-07 DE=-6.59D-12 OVMax= 5.02D-08

 Cycle  15  Pass 1  IDiag  1:
 E= -845.939854339671     Delta-E=       -0.000000000001 Rises=F Damp=F
 DIIS: error= 2.80D-08 at cycle  15 NSaved=  15.
 NSaved=15 IEnMin=15 EnMin= -845.939854339671     IErMin=15 ErrMin= 2.80D-08
 ErrMax= 2.80D-08  0.00D+00 EMaxC= 1.00D-01 BMatC= 5.11D-14 BMatP= 4.11D-13
 IDIUse=1 WtCom= 1.00D+00 WtEn= 0.00D+00
 Coeff-Com: -0.251D-07 0.294D-07 0.107D-06 0.553D-05 0.404D-04-0.100D-03
 Coeff-Com:  0.244D-03-0.124D-02 0.529D-02-0.975D-02 0.573D-01-0.208D+00
 Coeff-Com:  0.794D+00-0.187D+01 0.223D+01
 Coeff:     -0.251D-07 0.294D-07 0.107D-06 0.553D-05 0.404D-04-0.100D-03
 Coeff:      0.244D-03-0.124D-02 0.529D-02-0.975D-02 0.573D-01-0.208D+00
 Coeff:      0.794D+00-0.187D+01 0.223D+01
 Gap=     0.240 Goal=   None    Shift=    0.000
 Gap=     1.500 Goal=   None    Shift=    0.000
 RMSDP=2.97D-08 MaxDP=3.22D-07 DE=-1.14D-12 OVMax= 2.10D-08

 Cycle  16  Pass 1  IDiag  1:
 E= -845.939854339671     Delta-E=       -0.000000000001 Rises=F Damp=F
 DIIS: error= 9.57D-09 at cycle  16 NSaved=  16.
 NSaved=16 IEnMin=16 EnMin= -845.939854339671     IErMin=16 ErrMin= 9.57D-09
 ErrMax= 9.57D-09  0.00D+00 EMaxC= 1.00D-01 BMatC= 8.24D-15 BMatP= 5.11D-14
 IDIUse=1 WtCom= 1.00D+00 WtEn= 0.00D+00
 Large coefficients: NSaved= 16 BigCof=    0.00 CofMax=   10.00 Det=-1.55D-15
 Inversion failed.  Reducing to 15 matrices.
 Large coefficients: NSaved= 15 BigCof=    0.00 CofMax=   10.00 Det=-1.56D-15
 Inversion failed.  Reducing to 14 matrices.
 Coeff-Com:  0.450D-07-0.435D-06-0.361D-05 0.579D-05-0.602D-05 0.532D-04
 Coeff-Com: -0.319D-03 0.469D-03-0.376D-02 0.180D-01-0.857D-01 0.258D+00
 Coeff-Com: -0.586D+00 0.140D+01
 Coeff:      0.450D-07-0.435D-06-0.361D-05 0.579D-05-0.602D-05 0.532D-04
 Coeff:     -0.319D-03 0.469D-03-0.376D-02 0.180D-01-0.857D-01 0.258D+00
 Coeff:     -0.586D+00 0.140D+01
 Gap=     0.240 Goal=   None    Shift=    0.000
 Gap=     1.500 Goal=   None    Shift=    0.000
 RMSDP=7.13D-09 MaxDP=9.09D-08 DE=-5.68D-13 OVMax= 7.06D-09

 SCF Done:  E(UHF) =  -845.939854340     A.U. after   16 cycles
            NFock= 16  Conv=0.71D-08     -V/T= 1.9912
 <Sx>= 0.0000 <Sy>= 0.0000 <Sz>= 2.5000 <S**2>= 8.7502 S= 2.5000
 <L.S>= 0.000000000000E+00
 KE= 8.534720107435D+02 PE=-2.060803644645D+03 EE= 3.381079822811D+02
 Annihilation of the first spin contaminant:
 S**2 before annihilation     8.7502,   after     8.7500
 Leave Link  502 at Mon Mar 28 12:47:22 2022, MaxMem=  9663676416 cpu:               6.3 elap:               0.2
 (Enter /nopt/nrel/apps/gaussian/g16C_1/g16/l801.exe)
 Windowed orbitals will be sorted by symmetry type.
 ExpMin= 3.20D-02 ExpMax= 4.32D+04 ExpMxC= 6.48D+03 IAcc=3 IRadAn=         5 AccDes= 0.00D+00
 HarFok:  IExCor=  205 AccDes= 0.00D+00 IRadAn=         5 IDoV=-2 UseB2=F ITyADJ=14
 ICtDFT= 12500011 ScaDFX=  1.000000  1.000000  1.000000  1.000000
 Largest valence mixing into a core orbital is  2.74D-02
 Largest core mixing into a valence orbital is  3.88D-02
 Range of M.O.s used for correlation:    10    28
 NBasis=    28 NAE=    14 NBE=     9 NFC=     9 NFV=     0
 NROrb=     19 NOA=     5 NOB=     0 NVA=    14 NVB=    19
 Leave Link  801 at Mon Mar 28 12:47:22 2022, MaxMem=  9663676416 cpu:               2.6 elap:               0.1
 (Enter /nopt/nrel/apps/gaussian/g16C_1/g16/l804.exe)
 Open-shell transformation, MDV=  9663676416 ITran=4 ISComp=2.
 Unit  1 TFree=         51647 TCopy=        128016.
 Semi-Direct transformation.
 ModeAB=           2 MOrb=             5 LenV=    9663489492
 LASXX=         3330 LTotXX=        3330 LenRXX=        3330
 LTotAB=        4378 MaxLAS=       44175 LenRXY=       44175
 NonZer=       49305 LenScr=      785920 LnRSAI=           0
 LnScr1=           0 LExtra=      232387 Total=      1065812
 MaxDsk= 34359738368 SrtSym=           F ITran=            4
 DoSDTr:  NPSUse= 36
 JobTyp=1 Pass  1:  I=   1 to   5.
 (rs|ai) integrals will be sorted in core.
 Complete sort for first half transformation.
 First half transformation complete.
 Complete sort for second half transformation.
 Second half transformation complete.
 Spin components of T(2) and E(2):
     alpha-alpha T2 =       0.7235555864D-02 E2=     -0.1921846153D-01
     alpha-beta  T2 =       0.0000000000D+00 E2=      0.0000000000D+00
     beta-beta   T2 =       0.0000000000D+00 E2=      0.0000000000D+00
 ANorm=    0.1003611257D+01
 E2 =    -0.1921846153D-01 EUMP2 =    -0.84595907280120D+03
 Leave Link  804 at Mon Mar 28 12:47:23 2022, MaxMem=  9663676416 cpu:              10.0 elap:               0.3
 (Enter /nopt/nrel/apps/gaussian/g16C_1/g16/l913.exe)
 CIDS:  MDV=  9663676416.
 Frozen-core window:  NFC=   9 NFV=   0.
 IFCWin=0 IBDFC=1 NFBD=     0     0 NFCmp=     0     0 NFFFC=     0     0
 Using original routines for 1st iteration.
 Using DD4UQ or CC4UQ for 2nd and later iterations.
 Keep R2 and R3 ints in memory in symmetry-blocked form, NReq=7503631.
 FoFCou: FMM=F IPFlag=           0 FMFlag=           0 FMFlg1=           0
         NFxFlg=           0 DoJE=F BraDBF=F KetDBF=F FulRan=T
         wScrn=  0.000000 ICntrl=       600 IOpCl=  0 I1Cent=           0 NGrid=           0
         NMat0=    1 NMatS0=    406 NMatT0=    0 NMatD0=    1 NMtDS0=    0 NMtDT0=    0
 Petite list used in FoFCou.
 CIDS: In Core Option IDoMem=           1.
 Coupled Cluster theory with single and double substitutions
 ===========================================================
 Iterations= 300 Convergence= 0.100D-06
 Produce multiple copies of IABC intergrals
 Iteration Nr.   1
 **********************
 DD1Dir will call FoFMem   1 times, MxPair=        10
 NAB=     0 NAA=    10 NBB=     0.
 MP4(R+Q)=  0.53587480D-04
 Maximum subspace dimension=  5
 A-vector RMS=  1.7453045D-03 Max=  5.4651272D-03 conv= 1.00D-05.
 RLE energy=       -0.0230995704
 E3=       -0.32873239D-02        EUMP3=      -0.84596236013D+03
 E4(DQ)=   -0.57049566D-03        UMP4(DQ)=   -0.84596293062D+03
 E4(SDQ)=  -0.66088396D-03        UMP4(SDQ)=  -0.84596302101D+03
 VARIATIONAL ENERGIES WITH THE FIRST-ORDER WAVEFUNCTION:
 DE(Corr)= -0.22447481E-01 E(Corr)=     -845.96230182    
 NORM(A)=   0.10054381D+01
 Iteration Nr.   2
 **********************
 DD1Dir will call FoFMem   1 times, MxPair=        10
 NAB=     0 NAA=    10 NBB=     0.
 A-vector RMS=  8.0144924D-04 Max=  2.7559987D-03 conv= 1.00D-05.
 RLE energy=       -0.0233661184
 DE(Corr)= -0.23248500E-01 E(CORR)=     -845.96310284     Delta=-8.01D-04
 NORM(A)=   0.10058346D+01
 Iteration Nr.   3
 **********************
 DD1Dir will call FoFMem   1 times, MxPair=        10
 NAB=     0 NAA=    10 NBB=     0.
 A-vector RMS=  4.3418987D-04 Max=  1.6008623D-03 conv= 1.00D-05.
 RLE energy=       -0.0234249754
 DE(Corr)= -0.23372183E-01 E(CORR)=     -845.96322652     Delta=-1.24D-04
 NORM(A)=   0.10061326D+01
 Iteration Nr.   4
 **********************
 DD1Dir will call FoFMem   1 times, MxPair=        10
 NAB=     0 NAA=    10 NBB=     0.
 A-vector RMS=  1.8587698D-04 Max=  8.4677218D-04 conv= 1.00D-05.
 RLE energy=       -0.0234257937
 DE(Corr)= -0.23421371E-01 E(CORR)=     -845.96327571     Delta=-4.92D-05
 NORM(A)=   0.10062415D+01
 Iteration Nr.   5
 **********************
 DD1Dir will call FoFMem   1 times, MxPair=        10
 NAB=     0 NAA=    10 NBB=     0.
 A-vector RMS=  8.2669120D-05 Max=  3.4050583D-04 conv= 1.00D-05.
 RLE energy=       -0.0234296325
 DE(Corr)= -0.23427417E-01 E(CORR)=     -845.96328176     Delta=-6.05D-06
 NORM(A)=   0.10062774D+01
 Iteration Nr.   6
 **********************
 DD1Dir will call FoFMem   1 times, MxPair=        10
 NAB=     0 NAA=    10 NBB=     0.
 A-vector RMS=  4.1573220D-05 Max=  1.7490806D-04 conv= 1.00D-05.
 RLE energy=       -0.0234296348
 DE(Corr)= -0.23429262E-01 E(CORR)=     -845.96328360     Delta=-1.85D-06
 NORM(A)=   0.10062897D+01
 Iteration Nr.   7
 **********************
 DD1Dir will call FoFMem   1 times, MxPair=        10
 NAB=     0 NAA=    10 NBB=     0.
 A-vector RMS=  1.0174228D-05 Max=  4.4837875D-05 conv= 1.00D-05.
 RLE energy=       -0.0234296054
 DE(Corr)= -0.23429627E-01 E(CORR)=     -845.96328397     Delta=-3.65D-07
 NORM(A)=   0.10062923D+01
 Iteration Nr.   8
 **********************
 DD1Dir will call FoFMem   1 times, MxPair=        10
 NAB=     0 NAA=    10 NBB=     0.
 A-vector RMS=  4.5404253D-06 Max=  3.1881790D-05 conv= 1.00D-05.
 RLE energy=       -0.0234297978
 DE(Corr)= -0.23429707E-01 E(CORR)=     -845.96328405     Delta=-7.97D-08
 NORM(A)=   0.10062931D+01
 Iteration Nr.   9
 **********************
 DD1Dir will call FoFMem   1 times, MxPair=        10
 NAB=     0 NAA=    10 NBB=     0.
 A-vector RMS=  3.9103136D-06 Max=  2.0714009D-05 conv= 1.00D-05.
 RLE energy=       -0.0234298782
 DE(Corr)= -0.23429808E-01 E(CORR)=     -845.96328415     Delta=-1.01D-07
 NORM(A)=   0.10062937D+01
 Iteration Nr.  10
 **********************
 DD1Dir will call FoFMem   1 times, MxPair=        10
 NAB=     0 NAA=    10 NBB=     0.
 A-vector RMS=  2.4880982D-06 Max=  8.9401869D-06 conv= 1.00D-05.
 RLE energy=       -0.0234298930
 DE(Corr)= -0.23429878E-01 E(CORR)=     -845.96328422     Delta=-7.03D-08
 NORM(A)=   0.10062939D+01
 CI/CC converged in   10 iterations to DelEn=-7.03D-08 Conv= 1.00D-07 ErrA1= 2.49D-06 Conv= 1.00D-05
 Wavefunction amplitudes converged. E(Corr)=     -845.96328422    
 Largest amplitude= 3.79D-02
 Discarding MO integrals.
 Leave Link  913 at Mon Mar 28 12:47:23 2022, MaxMem=  9663676416 cpu:               6.6 elap:               0.2
 (Enter /nopt/nrel/apps/gaussian/g16C_1/g16/l601.exe)
 Copying SCF densities to generalized density rwf, IOpCl= 1 IROHF=0.

 **********************************************************************

            Population analysis using the SCF Density.

 **********************************************************************

 Orbital symmetries:
 Alpha Orbitals:
       Occupied  (SG) (SG) (SG) (PI) (PI) (SG) (SG) (PI) (PI) (SG)
                 (PI) (PI) (?A) (SG)
       Virtual   (SG) (PI) (PI) (SG) (SG) (PI) (PI) (?A) (SG) (PI)
                 (PI) (?A) (?A) (SG)
 Beta  Orbitals:
       Occupied  (SG) (SG) (SG) (PI) (PI) (SG) (SG) (PI) (PI)
       Virtual   (SG) (PI) (PI) (SG) (SG) (SG) (PI) (PI) (SG) (PI)
                 (PI) (DLTA) (DLTA) (SG) (PI) (PI) (DLTA) (DLTA)
                 (SG)
 Unable to determine electronic state:  an orbital has unidentified symmetry.
 Alpha  occ. eigenvalues -- -183.01454 -21.20720 -17.61512 -17.55295 -17.55295
 Alpha  occ. eigenvalues --   -3.00478  -2.06126  -1.74703  -1.74703  -0.45542
 Alpha  occ. eigenvalues --   -0.31154  -0.31154  -0.24440  -0.20324
 Alpha virt. eigenvalues --    0.03702   0.03854   0.03854   0.16056   0.24134
 Alpha virt. eigenvalues --    0.25757   0.25757   0.32326   1.03570   1.12292
 Alpha virt. eigenvalues --    1.12292   1.17594   1.29913   2.03957
  Beta  occ. eigenvalues -- -183.01089 -21.14229 -17.53349 -17.49775 -17.49775
  Beta  occ. eigenvalues --   -2.76798  -1.69855  -1.46899  -1.46899
  Beta virt. eigenvalues --    0.03105   0.06713   0.06713   0.06752   0.22082
  Beta virt. eigenvalues --    0.28030   0.31999   0.31999   0.36487   0.39781
  Beta virt. eigenvalues --    0.39781   0.41444   0.43806   1.22924   1.33335
  Beta virt. eigenvalues --    1.33335   1.37129   1.39399   2.14961
          Condensed to atoms (all electrons):
               1          2
     1  H    0.111758   0.123728
     2  Ti   0.123728  22.640787
          Atomic-Atomic Spin Densities.
               1          2
     1  H    0.048508  -0.047201
     2  Ti  -0.047201   5.045894
 Mulliken charges and spin densities:
               1          2
     1  H    0.764514   0.001307
     2  Ti  -0.764514   4.998693
 Sum of Mulliken charges =   0.00000   5.00000
 Mulliken charges and spin densities with hydrogens summed into heavy atoms:
               1          2
     2  Ti   0.000000   5.000000
 N-N= 2.328379728048D+01 E-N=-2.060803644095D+03  KE= 8.534720107435D+02
 Symmetry A1   KE= 6.610908017955D+02
 Symmetry A2   KE= 1.040695026188D-31
 Symmetry B1   KE= 9.619060447401D+01
 Symmetry B2   KE= 9.619060447401D+01
 Symmetry A1   SP= 3.000000000000D+00
 Symmetry A2   SP= 2.999519565324D-32
 Symmetry B1   SP= 1.000000000000D+00
 Symmetry B2   SP= 1.000000000000D+00

 Atomic contributions to Alpha molecular orbitals:
 Alpha occ 1 OE=-183.015 is Ti2-s=0.9998
 Alpha occ 2 OE=-21.207 is Ti2-s=1.0014
 Alpha occ 3 OE=-17.615 is Ti2-p=0.9998
 Alpha occ 4 OE=-17.553 is Ti2-p=1.0000
 Alpha occ 5 OE=-17.553 is Ti2-p=1.0000
 Alpha occ 6 OE=-3.005 is Ti2-s=0.8143
 Alpha occ 7 OE=-2.061 is Ti2-p=0.8137 Ti2-s=0.1400
 Alpha occ 8 OE=-1.747 is Ti2-p=0.9952
 Alpha occ 9 OE=-1.747 is Ti2-p=0.9952
 Alpha occ 10 OE=-0.455 is Ti2-d=0.8893
 Alpha occ 11 OE=-0.312 is Ti2-d=0.9932
 Alpha occ 12 OE=-0.312 is Ti2-d=0.9932
 Alpha occ 13 OE=-0.244 is Ti2-d=1.0000
 Alpha occ 14 OE=-0.203 is Ti2-s=0.9175
 Alpha vir 15 OE=0.037 is Ti2-p=0.9182
 Alpha vir 16 OE=0.039 is Ti2-p=0.9989
 Alpha vir 17 OE=0.039 is Ti2-p=0.9989
 Alpha vir 18 OE=0.161 is Ti2-s=0.8736 Ti2-p=0.1307
 Alpha vir 19 OE=0.241 is Ti2-p=0.8612 Ti2-s=0.1274
 Alpha vir 20 OE=0.258 is Ti2-p=0.9970
 Alpha vir 21 OE=0.258 is Ti2-p=0.9970
 Alpha vir 22 OE=0.323 is Ti2-d=1.0000
 Alpha vir 23 OE=1.036 is Ti2-d=0.9904
 Alpha vir 24 OE=1.123 is Ti2-d=0.9979
 Alpha vir 25 OE=1.123 is Ti2-d=0.9979
 Alpha vir 26 OE=1.176 is Ti2-d=1.0000
 Alpha vir 27 OE=1.299 is Ti2-d=1.0000
 Alpha vir 28 OE=2.040 is H1-s=0.9051

 Atomic contributions to Beta  molecular orbitals:
 Beta  occ 1 OE=-183.011 is Ti2-s=0.9998
 Beta  occ 2 OE=-21.142 is Ti2-s=1.0007
 Beta  occ 3 OE=-17.533 is Ti2-p=0.9996
 Beta  occ 4 OE=-17.498 is Ti2-p=1.0000
 Beta  occ 5 OE=-17.498 is Ti2-p=1.0000
 Beta  occ 6 OE=-2.768 is Ti2-s=0.7932
 Beta  occ 7 OE=-1.699 is Ti2-p=0.7708 Ti2-s=0.1639
 Beta  occ 8 OE=-1.469 is Ti2-p=0.9934
 Beta  occ 9 OE=-1.469 is Ti2-p=0.9934
 Beta  vir 10 OE=0.031 is Ti2-s=0.9925
 Beta  vir 11 OE=0.067 is Ti2-p=0.9999
 Beta  vir 12 OE=0.067 is Ti2-p=0.9999
 Beta  vir 13 OE=0.068 is Ti2-p=0.9843
 Beta  vir 14 OE=0.221 is Ti2-s=0.6446 Ti2-p=0.3122 Ti2-d=0.1066
 Beta  vir 15 OE=0.280 is Ti2-s=0.3797 Ti2-p=0.3760 Ti2-d=0.2229
 Beta  vir 16 OE=0.320 is Ti2-p=0.9690
 Beta  vir 17 OE=0.320 is Ti2-p=0.9690
 Beta  vir 18 OE=0.365 is Ti2-d=0.5861 Ti2-p=0.4010
 Beta  vir 19 OE=0.398 is Ti2-d=0.9650
 Beta  vir 20 OE=0.398 is Ti2-d=0.9650
 Beta  vir 21 OE=0.414 is Ti2-d=1.0000
 Beta  vir 22 OE=0.438 is Ti2-d=1.0000
 Beta  vir 23 OE=1.229 is Ti2-d=0.9649
 Beta  vir 24 OE=1.333 is Ti2-d=0.9972
 Beta  vir 25 OE=1.333 is Ti2-d=0.9972
 Beta  vir 26 OE=1.371 is Ti2-d=1.0000
 Beta  vir 27 OE=1.394 is Ti2-d=1.0000
 Beta  vir 28 OE=2.150 is H1-s=0.9282
 
 Leave Link  601 at Mon Mar 28 12:47:23 2022, MaxMem=  9663676416 cpu:               3.0 elap:               0.1
 (Enter /nopt/nrel/apps/gaussian/g16C_1/g16/l9999.exe)

 Test job not archived.
 1\1\GINC-R3I7N35\SP\UCCSD-FC\Gen\H1Ti1(6)\USER\28-Mar-2022\0\\#P C
 CSD(MaxCyc=300,SaveAmplitudes,ReadAmplitudes)/GEN sp pop=AllOrbitals i
 op(3/33=1,3/36=-1)\\test\\0,6\H,0,0.,0.,0.\Ti,0,0.,0.,0.5\\Version=ES6
 4L-G16RevC.01\State=6-SG\HF=-845.9398543\MP2=-845.9590728\MP3=-845.962
 3601\MP4D=-845.9629842\MP4DQ=-845.9629306\MP4SDQ=-845.963021\CCSD=-845
 .9632842\S2=8.750199\S2-1=0.\S2A=8.75\RMSD=7.132e-09\PG=C*V [C*(H1Ti1)
 ]\\@


 There are more things in heaven and earth, Horatio,
 than are dreamt of in your philosophy.
                   -- Hamlet, Act I, Scene 5
 Job cpu time:       0 days  0 hours  0 minutes 48.8 seconds.
 Elapsed time:       0 days  0 hours  0 minutes  1.7 seconds.
 File lengths (MBytes):  RWF=     13 Int=      0 D2E=      0 Chk=      1 Scr=      1
 Normal termination of Gaussian 16 at Mon Mar 28 12:47:23 2022.
