 Entering Gaussian System, Link 0=g16
 Initial command:
 /nopt/nrel/apps/gaussian/g16C_1/g16/l1.exe "/lustre/eaglefs/scratch/user/qc/lih-dissc/lih-3-ccsd-2.3-ccd/Gau-29456.inp" -scrdir="/lustre/eaglefs/scratch/user/qc/lih-dissc/lih-3-ccsd-2.3-ccd/"
 Default is to use a total of  36 processors:
                               36 via shared-memory
                                1 via Linda
 Entering Link 1 = /nopt/nrel/apps/gaussian/g16C_1/g16/l1.exe PID=     29457.
  
 Copyright (c) 1988-2019, Gaussian, Inc.  All Rights Reserved.
  
 This is part of the Gaussian(R) 16 program.  It is based on
 the Gaussian(R) 09 system (copyright 2009, Gaussian, Inc.),
 the Gaussian(R) 03 system (copyright 2003, Gaussian, Inc.),
 the Gaussian(R) 98 system (copyright 1998, Gaussian, Inc.),
 the Gaussian(R) 94 system (copyright 1995, Gaussian, Inc.),
 the Gaussian 92(TM) system (copyright 1992, Gaussian, Inc.),
 the Gaussian 90(TM) system (copyright 1990, Gaussian, Inc.),
 the Gaussian 88(TM) system (copyright 1988, Gaussian, Inc.),
 the Gaussian 86(TM) system (copyright 1986, Carnegie Mellon
 University), and the Gaussian 82(TM) system (copyright 1983,
 Carnegie Mellon University). Gaussian is a federally registered
 trademark of Gaussian, Inc.
  
 This software contains proprietary and confidential information,
 including trade secrets, belonging to Gaussian, Inc.
  
 This software is provided under written license and may be
 used, copied, transmitted, or stored only in accord with that
 written license.
  
 The following legend is applicable only to US Government
 contracts under FAR:
  
                    RESTRICTED RIGHTS LEGEND
  
 Use, reproduction and disclosure by the US Government is
 subject to restrictions as set forth in subparagraphs (a)
 and (c) of the Commercial Computer Software - Restricted
 Rights clause in FAR 52.227-19.
  
 Gaussian, Inc.
 340 Quinnipiac St., Bldg. 40, Wallingford CT 06492
  
  
 ---------------------------------------------------------------
 Warning -- This program may not be used in any manner that
 competes with the business of Gaussian, Inc. or will provide
 assistance to any competitor of Gaussian, Inc.  The licensee
 of this program is prohibited from giving any competitor of
 Gaussian, Inc. access to this program.  By using this program,
 the user acknowledges that Gaussian, Inc. is engaged in the
 business of creating and licensing software in the field of
 computational chemistry and represents and warrants to the
 licensee that it is not a competitor of Gaussian, Inc. and that
 it will not use this program in any manner prohibited above.
 ---------------------------------------------------------------
  

 Cite this work as:
 Gaussian 16, Revision C.01,
 M. J. Frisch, G. W. Trucks, H. B. Schlegel, G. E. Scuseria, 
 M. A. Robb, J. R. Cheeseman, G. Scalmani, V. Barone, 
 G. A. Petersson, H. Nakatsuji, X. Li, M. Caricato, A. V. Marenich, 
 J. Bloino, B. G. Janesko, R. Gomperts, B. Mennucci, H. P. Hratchian, 
 J. V. Ortiz, A. F. Izmaylov, J. L. Sonnenberg, D. Williams-Young, 
 F. Ding, F. Lipparini, F. Egidi, J. Goings, B. Peng, A. Petrone, 
 T. Henderson, D. Ranasinghe, V. G. Zakrzewski, J. Gao, N. Rega, 
 G. Zheng, W. Liang, M. Hada, M. Ehara, K. Toyota, R. Fukuda, 
 J. Hasegawa, M. Ishida, T. Nakajima, Y. Honda, O. Kitao, H. Nakai, 
 T. Vreven, K. Throssell, J. A. Montgomery, Jr., J. E. Peralta, 
 F. Ogliaro, M. J. Bearpark, J. J. Heyd, E. N. Brothers, K. N. Kudin, 
 V. N. Staroverov, T. A. Keith, R. Kobayashi, J. Normand, 
 K. Raghavachari, A. P. Rendell, J. C. Burant, S. S. Iyengar, 
 J. Tomasi, M. Cossi, J. M. Millam, M. Klene, C. Adamo, R. Cammi, 
 J. W. Ochterski, R. L. Martin, K. Morokuma, O. Farkas, 
 J. B. Foresman, and D. J. Fox, Gaussian, Inc., Wallingford CT, 2019.
 
 ******************************************
 Gaussian 16:  ES64L-G16RevC.01  3-Jul-2019
                28-Mar-2022 
 ******************************************
 %chk=molecule
 Default route: CacheSize=180224 MaxDisk=256GB
 ----------------------------------------------------------------------
 #P CCSD(MaxCyc=200,SaveAmplitudes,ReadAmplitudes)/GEN sp pop=AllOrbita
 ls iop(3/33=1,3/36=-1)
 ----------------------------------------------------------------------
 1/4=180224,38=1,172=1/1;
 2/4=180224,12=2,17=6,18=5,40=1/2;
 3/4=180224,5=7,11=9,25=1,30=1,33=1,36=-1/1,2,3;
 4/4=180224/1;
 5/4=180224,5=2,38=5/2;
 8/4=180224,6=4,9=120000,10=1,24=1/1,4;
 9/4=180224,5=7,6=200,77=1/13;
 6/4=180224,7=2,8=2,9=2,10=2,96=-1/1;
 99/4=180224,5=1,9=1/99;
 Leave Link    1 at Mon Mar 28 14:06:40 2022, MaxMem=           0 cpu:               2.2 elap:               0.1
 (Enter /nopt/nrel/apps/gaussian/g16C_1/g16/l101.exe)
 ----
 test
 ----
 Symbolic Z-matrix:
 Charge =  0 Multiplicity = 3
 H                     0.        0.        0. 
 Li                    0.        0.        2.3 
 
 ITRead=  0  0
 MicOpt= -1 -1
 NAtoms=      2 NQM=        2 NQMF=       0 NMMI=      0 NMMIF=      0
                NMic=       0 NMicF=      0.
                    Isotopes and Nuclear Properties:
 (Nuclear quadrupole moments (NQMom) in fm**2, nuclear magnetic moments (NMagM)
  in nuclear magnetons)

  Atom         1           2
 IAtWgt=           1           7
 AtmWgt=   1.0078250   7.0160045
 NucSpn=           1           3
 AtZEff=  -0.0000000  -0.0000000
 NQMom=    0.0000000  -4.0100000
 NMagM=    2.7928460   3.2564240
 AtZNuc=   1.0000000   3.0000000
 Leave Link  101 at Mon Mar 28 14:06:40 2022, MaxMem=  9663676416 cpu:               2.7 elap:               0.1
 (Enter /nopt/nrel/apps/gaussian/g16C_1/g16/l202.exe)
                          Input orientation:                          
 ---------------------------------------------------------------------
 Center     Atomic      Atomic             Coordinates (Angstroms)
 Number     Number       Type             X           Y           Z
 ---------------------------------------------------------------------
      1          1           0        0.000000    0.000000    0.000000
      2          3           0        0.000000    0.000000    2.300000
 ---------------------------------------------------------------------
 Stoichiometry    HLi(3)
 Framework group  C*V[C*(HLi)]
 Deg. of freedom     1
 Full point group                 C*V     NOp   4
 Largest Abelian subgroup         C2V     NOp   4
 Largest concise Abelian subgroup C1      NOp   1
                         Standard orientation:                         
 ---------------------------------------------------------------------
 Center     Atomic      Atomic             Coordinates (Angstroms)
 Number     Number       Type             X           Y           Z
 ---------------------------------------------------------------------
      1          1           0        0.000000    0.000000   -1.725000
      2          3           0        0.000000    0.000000    0.575000
 ---------------------------------------------------------------------
 Rotational constants (GHZ):           0.0000000         108.4097191         108.4097191
 Leave Link  202 at Mon Mar 28 14:06:40 2022, MaxMem=  9663676416 cpu:               1.0 elap:               0.1
 (Enter /nopt/nrel/apps/gaussian/g16C_1/g16/l301.exe)
 General basis read from cards:  (5D, 7F)
                         Coordinates in L301:                         
 ---------------------------------------------------------------------
 Center     Atomic      Atomic             Coordinates (Angstroms)
 Number     Number       Type             X           Y           Z
 ---------------------------------------------------------------------
      1          1           0        0.000000    0.000000   -1.725000
      2          3           0        0.000000    0.000000    0.575000
 ---------------------------------------------------------------------
 Centers:       1
 STO-3G
 ****
 Centers:       2
 cc-pVDZ
 ****
 FixB: optimizing general contractions.
 Ernie: Thresh=  0.10000D-02 Tol=  0.10000D-05 Strict=F.
 IA=     1 ShT= 0 ShC= 0 NL=   1 NS=   0.
 IA=     1 L=0 SC=0 ISt=    0 NBk=    0 NP=    0 IndPr=    0.
 IA=     2 ShT= 0 ShC= 0 NL=   3 NS=   1.
 IA=     2 L=0 SC=0 ISt=    1 NBk=    2 NP=    8 IndPr=    0.
 DoElim1:  L=0 select primitive    2 from    2 using    1 C= 5.89D-03
 DoElim2:  L=0 select primitive    8 from    1 using    2 C= 5.77D-01
 Delete L=0 primitive    2 from    2 C=  2.10D-22.
 Delete L=0 primitive    1 from    2 C=  3.73D-09.
 Delete L=0 primitive    8 from    1 C=  8.70D-19.
 IA=     2 L=0 SC=0 ISt=    0 NBk=    0 NP=    0 IndPr=   13.
 IA=     2 ShT= 1 ShC= 1 NL=   2 NS=   1.
 IA=     2 L=1 SC=1 ISt=    0 NBk=    0 NP=    0 IndPr=    0.
 IA=     2 ShT= 2 ShC= 2 NL=   1 NS=   1.
 IA=     2 L=2 SC=2 ISt=    0 NBk=    0 NP=    0 IndPr=    0.
 Ernie:  3 primitive shells out of 25 were deleted.
 LdAtmC:  AtmChg=     1.000000     3.000000
 AtZEff=     -1.0000000     -1.3500000
 NEqShl: 
              1            2            3            4
     1            1            1            1            1
     2            2            2            2            2
     3            3            3            3            3
     4            4            4            4            4
     5            5            5            5            5
     6            6            6            6            6
     7            7            7            7            7
 NEqBas: 
              1            2            3            4
     1            1            1            1            1
     2            2            2            2            2
     3            3            3            3            3
     4            4            4            4            4
     5            5           -5           -5            5
     6            6           -6            6           -6
     7            7            7            7            7
     8            8           -8           -8            8
     9            9           -9            9           -9
    10           10           10           10           10
    11           11           11           11           11
    12           12           12           12           12
    13           13           13           13           13
    14           14           14          -14          -14
    15           15          -15          -15           15
    16           16          -16           16          -16
 There are     9 symmetry adapted cartesian basis functions of A1  symmetry.
   1         1   1   1   1
   2         2   2   2   2
   3         3   3   3   3
   4         4   4   4   4
   5         7   7   7   7
   6        10  10  10  10
   7        11  11  11  11
   8        12  12  12  12
   9        13  13  13  13
 There are     1 symmetry adapted cartesian basis functions of A2  symmetry.
  10        14  14  14  14
 There are     3 symmetry adapted cartesian basis functions of B1  symmetry.
  11         5   5   5   5
  12         8   8   8   8
  13        15  15  15  15
 There are     3 symmetry adapted cartesian basis functions of B2  symmetry.
  14         6   6   6   6
  15         9   9   9   9
  16        16  16  16  16
 Order= 1 2 4 3
 Reordered character table:
              1            2            3            4            5
     1            1            1            1            1            1
     2            2            1            1           -1           -1
     3            4            1           -1           -1            1
     4            3            1           -1            1           -1
 NEqShl: 
              1            2            3            4
     1            1            1            1            1
     2            2            2            2            2
     3            3            3            3            3
     4            4            4            4            4
     5            5            5            5            5
     6            6            6            6            6
     7            7            7            7            7
 NEqBas: 
              1            2            3            4
     1            1            1            1            1
     2            2            2            2            2
     3            3            3            3            3
     4            4            4            4            4
     5            5           -5           -5            5
     6            6           -6            6           -6
     7            7            7            7            7
     8            8           -8           -8            8
     9            9           -9            9           -9
    10           10           10           10           10
    11           11           11           11           11
    12           12          -12          -12           12
    13           13          -13           13          -13
    14           14           14           14           14
    15           15           15          -15          -15
 There are     8 symmetry adapted basis functions of A1  symmetry.
   1         1   1   1   1
   2         2   2   2   2
   3         3   3   3   3
   4         4   4   4   4
   5         7   7   7   7
   6        10  10  10  10
   7        11  11  11  11
   8        14  14  14  14
 There are     1 symmetry adapted basis functions of A2  symmetry.
   9        15  15  15  15
 There are     3 symmetry adapted basis functions of B1  symmetry.
  10         5   5   5   5
  11         8   8   8   8
  12        12  12  12  12
 There are     3 symmetry adapted basis functions of B2  symmetry.
  13         6   6   6   6
  14         9   9   9   9
  15        13  13  13  13
 Order= 1 2 4 3
 Reordered character table:
              1            2            3            4            5
     1            1            1            1            1            1
     2            2            1            1           -1           -1
     3            4            1           -1           -1            1
     4            3            1           -1            1           -1
    15 basis functions,    35 primitive gaussians,    16 cartesian basis functions
     3 alpha electrons        1 beta electrons
       nuclear repulsion energy         0.6902311447 Hartrees.
 IS=     1 IAt=     1 ISR=     1 T=0 IP=      1 IndIP=      1 IndIPD=      0 C=  2.769344D-01  0.000000D+00                             NZ=T
 IS=     1 IAt=     1 ISR=     1 T=0 IP=      2 IndIP=      2 IndIPD=      1 C=  2.678389D-01  0.000000D+00                             NZ=T
 IS=     1 IAt=     1 ISR=     1 T=0 IP=      3 IndIP=      3 IndIPD=      2 C=  8.347367D-02  0.000000D+00                             NZ=T
 IS=     2 IAt=     2 ISR=     1 T=0 IP=      1 IndIP=      4 IndIPD=      0 C=  1.296301D-01  0.000000D+00                             NZ=T
 IS=     2 IAt=     2 ISR=     1 T=0 IP=      2 IndIP=      5 IndIPD=      1 C=  2.404528D-01  0.000000D+00                             NZ=T
 IS=     2 IAt=     2 ISR=     1 T=0 IP=      3 IndIP=      6 IndIPD=      2 C=  3.994569D-01  0.000000D+00                             NZ=T
 IS=     2 IAt=     2 ISR=     1 T=0 IP=      4 IndIP=      7 IndIPD=      3 C=  5.708542D-01  0.000000D+00                             NZ=T
 IS=     2 IAt=     2 ISR=     1 T=0 IP=      5 IndIP=      8 IndIPD=      4 C=  6.317030D-01  0.000000D+00                             NZ=T
 IS=     2 IAt=     2 ISR=     1 T=0 IP=      6 IndIP=      9 IndIPD=      5 C=  4.558532D-01  0.000000D+00                             NZ=T
 IS=     2 IAt=     2 ISR=     1 T=0 IP=      7 IndIP=     10 IndIPD=      6 C=  1.282724D-01  0.000000D+00                             NZ=T
 IS=     3 IAt=     2 ISR=     2 T=0 IP=      1 IndIP=     11 IndIPD=      0 C= -1.035279D-03  0.000000D+00                             NZ=T
 IS=     3 IAt=     2 ISR=     2 T=0 IP=      2 IndIP=     12 IndIPD=      1 C= -5.681325D-03  0.000000D+00                             NZ=T
 IS=     3 IAt=     2 ISR=     2 T=0 IP=      3 IndIP=     13 IndIPD=      2 C= -1.930258D-02  0.000000D+00                             NZ=T
 IS=     3 IAt=     2 ISR=     2 T=0 IP=      4 IndIP=     14 IndIPD=      3 C= -4.723991D-02  0.000000D+00                             NZ=T
 IS=     3 IAt=     2 ISR=     2 T=0 IP=      5 IndIP=     15 IndIPD=      4 C= -8.136441D-02  0.000000D+00                             NZ=T
 IS=     3 IAt=     2 ISR=     2 T=0 IP=      6 IndIP=     16 IndIPD=      5 C=  1.089727D-01  0.000000D+00                             NZ=T
 IS=     4 IAt=     2 ISR=     3 T=0 IP=      1 IndIP=     17 IndIPD=      0 C=  4.884946D-02  0.000000D+00                             NZ=T
 IS=     5 IAt=     2 ISR=     4 T=1 IP=      1 IndIP=     18 IndIPD=      0 C=  0.000000D+00  9.248065D-02                             NZ=T
 IS=     5 IAt=     2 ISR=     4 T=1 IP=      2 IndIP=     19 IndIPD=      1 C=  0.000000D+00  6.583497D-02                             NZ=T
 IS=     5 IAt=     2 ISR=     4 T=1 IP=      3 IndIP=     20 IndIPD=      2 C=  0.000000D+00  4.562255D-02                             NZ=T
 IS=     6 IAt=     2 ISR=     5 T=1 IP=      1 IndIP=     21 IndIPD=      0 C=  0.000000D+00  1.348597D-02                             NZ=T
 IS=     7 IAt=     2 ISR=     6 T=2 IP=      1 IndIP=     22 IndIPD=      1 C=  0.000000D+00  0.000000D+00  4.258771D-02  0.000000D+00 NZ=T
 IExCor=    0 DFT=F Ex=HF Corr=None ExCW=0 ScaHFX=  1.000000
 ScaDFX=  1.000000  1.000000  1.000000  1.000000 ScalE2=  1.000000  1.000000
 IRadAn=      5 IRanWt=     -1 IRanGd=            0 ICorTp=0 IEmpDi=  4
 NAtoms=    2 NActive=    2 NUniq=    2 SFac= 1.00D+00 NAtFMM=   60 NAOKFM=F Big=F
 Integral buffers will be    131072 words long.
 Raffenetti 2 integral format.
 Two-electron integral symmetry is turned on.
 Leave Link  301 at Mon Mar 28 14:06:40 2022, MaxMem=  9663676416 cpu:               1.9 elap:               0.1
 (Enter /nopt/nrel/apps/gaussian/g16C_1/g16/l302.exe)
 NPDir=0 NMtPBC=     1 NCelOv=     1 NCel=       1 NClECP=     1 NCelD=      1
         NCelK=      1 NCelE2=     1 NClLst=     1 CellRange=     0.0.
 One-electron integrals computed using PRISM.
 One-electron integral symmetry used in STVInt
 Entering OneElI...
 Calculate overlap and kinetic energy integrals
    NBasis =  15  MinDer = 0  MaxDer = 0
 Requested accuracy = 0.1000D-12
 Symmetry will be used
 PrmmSu-InSpLW:  IPartL=    0 NPrtUS=   36 NPrtUL=    1 DoSpLW=F IThBeg=    0 IThEnd=   35 NThAct=   36.
 PrSmSu:  IncTry=   512 NBBP=             28 NTPThr=   100 NPartT=   36 Incr=           1 LDynOK=F GPUOK=F.
 PrsmSu:  NPrtUS=  36 ThrOK=T IAlg=1 LenDen=           0 ISkipM=0 DoSpLW=F IThBeg=    0 IThEnd=   35.
 Prism:   IPart=     0 DynPar=F LinDyn=F Incr=           1.
 PRISM was handed   268432128 working-precision words and    28 shell-pairs
 PRISM was handed   268432128 working-precision words and    28 shell-pairs
 PRISM was handed   268432128 working-precision words and    28 shell-pairs
 PRISM was handed   268432128 working-precision words and    28 shell-pairs
 PRISM was handed   268432128 working-precision words and    28 shell-pairs
 PRISM was handed   268432128 working-precision words and    28 shell-pairs
 PRISM was handed   268432128 working-precision words and    28 shell-pairs
 PRISM was handed   268432128 working-precision words and    28 shell-pairs
 PRISM was handed   268432128 working-precision words and    28 shell-pairs
 PRISM was handed   268432128 working-precision words and    28 shell-pairs
 PRISM was handed   268432128 working-precision words and    28 shell-pairs
 PRISM was handed   268432128 working-precision words and    28 shell-pairs
 PRISM was handed   268432128 working-precision words and    28 shell-pairs
 PRISM was handed   268432128 working-precision words and    28 shell-pairs
 PRISM was handed   268432128 working-precision words and    28 shell-pairs
 PRISM was handed   268432128 working-precision words and    28 shell-pairs
 IPart= 29 NShTot=           0 NBatch=           0 AvBLen=         0.0
 IPart= 28 NShTot=           0 NBatch=           0 AvBLen=         0.0
 IPart=  2 NShTot=           0 NBatch=           0 AvBLen=         0.0
 IPart= 22 NShTot=           0 NBatch=           0 AvBLen=         0.0
 IPart= 19 NShTot=           0 NBatch=           0 AvBLen=         0.0
 IPart= 23 NShTot=           0 NBatch=           0 AvBLen=         0.0
 IPart=  4 NShTot=           0 NBatch=           0 AvBLen=         0.0
 IPart= 32 NShTot=           0 NBatch=           0 AvBLen=         0.0
 IPart=  6 NShTot=           0 NBatch=           0 AvBLen=         0.0
 PRISM was handed   268432128 working-precision words and    28 shell-pairs
 IPart= 20 NShTot=           0 NBatch=           0 AvBLen=         0.0
 IPart= 11 NShTot=           0 NBatch=           0 AvBLen=         0.0
 PRISM was handed   268432128 working-precision words and    28 shell-pairs
 IPart= 25 NShTot=           0 NBatch=           0 AvBLen=         0.0
 IPart= 16 NShTot=           0 NBatch=           0 AvBLen=         0.0
 IPart=  3 NShTot=           0 NBatch=           0 AvBLen=         0.0
 IPart=  1 NShTot=           1 NBatch=           1 AvBLen=         1.0
 PRISM was handed   268432128 working-precision words and    28 shell-pairs
 IPart= 24 NShTot=           0 NBatch=           0 AvBLen=         0.0
 PRISM was handed   268432128 working-precision words and    28 shell-pairs
 PRISM was handed   268432128 working-precision words and    28 shell-pairs
 PRISM was handed   268432128 working-precision words and    28 shell-pairs
 PRISM was handed   268432128 working-precision words and    28 shell-pairs
 IPart= 33 NShTot=           0 NBatch=           0 AvBLen=         0.0
 PRISM was handed   268432128 working-precision words and    28 shell-pairs
 PRISM was handed   268432128 working-precision words and    28 shell-pairs
 PRISM was handed   268432128 working-precision words and    28 shell-pairs
 PRISM was handed   268432128 working-precision words and    28 shell-pairs
 PRISM was handed   268432128 working-precision words and    28 shell-pairs
 PRISM was handed   268432128 working-precision words and    28 shell-pairs
 IPart= 30 NShTot=           0 NBatch=           0 AvBLen=         0.0
 IPart= 14 NShTot=           0 NBatch=           0 AvBLen=         0.0
 IPart= 31 NShTot=           0 NBatch=           0 AvBLen=         0.0
 IPart=  5 NShTot=           0 NBatch=           0 AvBLen=         0.0
 IPart=  8 NShTot=           0 NBatch=           0 AvBLen=         0.0
 PRISM was handed   268432128 working-precision words and    28 shell-pairs
 PRISM was handed   268432128 working-precision words and    28 shell-pairs
 PRISM was handed   268432128 working-precision words and    28 shell-pairs
 PRISM was handed   268432128 working-precision words and    28 shell-pairs
 IPart= 27 NShTot=           0 NBatch=           0 AvBLen=         0.0
 IPart=  9 NShTot=           0 NBatch=           0 AvBLen=         0.0
 IPart=  7 NShTot=           0 NBatch=           0 AvBLen=         0.0
 IPart= 21 NShTot=           0 NBatch=           0 AvBLen=         0.0
 IPart= 34 NShTot=           0 NBatch=           0 AvBLen=         0.0
 IPart= 26 NShTot=           0 NBatch=           0 AvBLen=         0.0
 PRISM was handed   268432128 working-precision words and    28 shell-pairs
 PRISM was handed   268432128 working-precision words and    28 shell-pairs
 PRISM was handed   268432128 working-precision words and    28 shell-pairs
 IPart= 13 NShTot=           0 NBatch=           0 AvBLen=         0.0
 IPart= 12 NShTot=           0 NBatch=           0 AvBLen=         0.0
 IPart= 35 NShTot=           0 NBatch=           0 AvBLen=         0.0
 IPart= 18 NShTot=           0 NBatch=           0 AvBLen=         0.0
 IPart=  0 NShTot=          27 NBatch=          27 AvBLen=         1.0
 IPart= 17 NShTot=           0 NBatch=           0 AvBLen=         0.0
 IPart= 10 NShTot=           0 NBatch=           0 AvBLen=         0.0
 IPart= 15 NShTot=           0 NBatch=           0 AvBLen=         0.0
 PrSmSu:  NxtVal=             37.
 *** Overlap *** 
                1             2             3             4             5 
      1  0.100000D+01
      2  0.154313D-01  0.100000D+01
      3  0.242622D+00  0.130369D+00  0.100000D+01
      4  0.255257D+00  0.157971D+00  0.861205D+00  0.100000D+01
      5  0.000000D+00  0.000000D+00  0.000000D+00  0.000000D+00  0.100000D+01
      6  0.000000D+00  0.000000D+00  0.000000D+00  0.000000D+00  0.000000D+00
      7 -0.380824D+00  0.000000D+00  0.000000D+00  0.000000D+00  0.000000D+00
      8  0.000000D+00  0.000000D+00  0.000000D+00  0.000000D+00  0.626620D+00
      9  0.000000D+00  0.000000D+00  0.000000D+00  0.000000D+00  0.000000D+00
     10 -0.302390D+00  0.000000D+00  0.000000D+00  0.000000D+00  0.000000D+00
     11  0.404894D+00  0.000000D+00  0.000000D+00  0.000000D+00  0.000000D+00
     12  0.000000D+00  0.000000D+00  0.000000D+00  0.000000D+00  0.000000D+00
     13  0.000000D+00  0.000000D+00  0.000000D+00  0.000000D+00  0.000000D+00
     14  0.000000D+00  0.000000D+00  0.000000D+00  0.000000D+00  0.000000D+00
     15  0.000000D+00  0.000000D+00  0.000000D+00  0.000000D+00  0.000000D+00
                6             7             8             9            10 
      6  0.100000D+01
      7  0.000000D+00  0.100000D+01
      8  0.000000D+00  0.000000D+00  0.100000D+01
      9  0.626620D+00  0.000000D+00  0.000000D+00  0.100000D+01
     10  0.000000D+00  0.626620D+00  0.000000D+00  0.000000D+00  0.100000D+01
     11  0.000000D+00  0.000000D+00  0.000000D+00  0.000000D+00  0.000000D+00
     12  0.000000D+00  0.000000D+00  0.000000D+00  0.000000D+00  0.000000D+00
     13  0.000000D+00  0.000000D+00  0.000000D+00  0.000000D+00  0.000000D+00
     14  0.000000D+00  0.000000D+00  0.000000D+00  0.000000D+00  0.000000D+00
     15  0.000000D+00  0.000000D+00  0.000000D+00  0.000000D+00  0.000000D+00
               11            12            13            14            15 
     11  0.100000D+01
     12  0.000000D+00  0.100000D+01
     13  0.000000D+00  0.000000D+00  0.100000D+01
     14  0.000000D+00  0.000000D+00  0.000000D+00  0.100000D+01
     15  0.000000D+00  0.000000D+00  0.000000D+00  0.000000D+00  0.100000D+01
 *** Kinetic Energy *** 
                1             2             3             4             5 
      1  0.760032D+00
      2 -0.664248D-02  0.362154D+01
      3  0.141042D-01 -0.261904D+00  0.139297D+00
      4  0.131174D-01  0.128893D-01  0.513567D-01  0.420750D-01
      5  0.000000D+00  0.000000D+00  0.000000D+00  0.000000D+00  0.249967D+00
      6  0.000000D+00  0.000000D+00  0.000000D+00  0.000000D+00  0.000000D+00
      7 -0.535677D-01  0.000000D+00  0.000000D+00  0.000000D+00  0.000000D+00
      8  0.000000D+00  0.000000D+00  0.000000D+00  0.000000D+00  0.578002D-01
      9  0.000000D+00  0.000000D+00  0.000000D+00  0.000000D+00  0.000000D+00
     10 -0.275634D-01  0.000000D+00  0.000000D+00  0.000000D+00  0.000000D+00
     11  0.126537D+00  0.000000D+00  0.000000D+00  0.000000D+00  0.000000D+00
     12  0.000000D+00  0.000000D+00  0.000000D+00  0.000000D+00  0.000000D+00
     13  0.000000D+00  0.000000D+00  0.000000D+00  0.000000D+00  0.000000D+00
     14  0.000000D+00  0.000000D+00  0.000000D+00  0.000000D+00  0.000000D+00
     15  0.000000D+00  0.000000D+00  0.000000D+00  0.000000D+00  0.000000D+00
                6             7             8             9            10 
      6  0.249967D+00
      7  0.000000D+00  0.249967D+00
      8  0.000000D+00  0.000000D+00  0.600750D-01
      9  0.578002D-01  0.000000D+00  0.000000D+00  0.600750D-01
     10  0.000000D+00  0.578002D-01  0.000000D+00  0.000000D+00  0.600750D-01
     11  0.000000D+00  0.000000D+00  0.000000D+00  0.000000D+00  0.000000D+00
     12  0.000000D+00  0.000000D+00  0.000000D+00  0.000000D+00  0.000000D+00
     13  0.000000D+00  0.000000D+00  0.000000D+00  0.000000D+00  0.000000D+00
     14  0.000000D+00  0.000000D+00  0.000000D+00  0.000000D+00  0.000000D+00
     15  0.000000D+00  0.000000D+00  0.000000D+00  0.000000D+00  0.000000D+00
               11            12            13            14            15 
     11  0.433650D+00
     12  0.000000D+00  0.433650D+00
     13  0.000000D+00  0.000000D+00  0.433650D+00
     14  0.000000D+00  0.000000D+00  0.000000D+00  0.433650D+00
     15  0.000000D+00  0.000000D+00  0.000000D+00  0.000000D+00  0.433650D+00
 Entering OneElI...
 Calculate potential energy integrals
    NBasis =  15  MinDer = 0  MaxDer = 0
 Requested accuracy = 0.1000D-12
 Symmetry will be used
 PrmmSu-InSpLW:  IPartL=    0 NPrtUS=   36 NPrtUL=    1 DoSpLW=F IThBeg=    0 IThEnd=   35 NThAct=   36.
 PrSmSu:  IncTry=   512 NBBP=             56 NTPThr=   100 NPartT=   36 Incr=           1 LDynOK=F GPUOK=F.
 PrsmSu:  NPrtUS=  36 ThrOK=T IAlg=1 LenDen=           0 ISkipM=0 DoSpLW=F IThBeg=    0 IThEnd=   35.
 Prism:   IPart=     0 DynPar=F LinDyn=F Incr=           1.
 PRISM was handed   268432264 working-precision words and    28 shell-pairs
 PRISM was handed   268432264 working-precision words and    28 shell-pairs
 PRISM was handed   268432264 working-precision words and    28 shell-pairs
 PRISM was handed   268432264 working-precision words and    28 shell-pairs
 PRISM was handed   268432264 working-precision words and    28 shell-pairs
 PRISM was handed   268432264 working-precision words and    28 shell-pairs
 PRISM was handed   268432264 working-precision words and    28 shell-pairs
 PRISM was handed   268432264 working-precision words and    28 shell-pairs
 PRISM was handed   268432264 working-precision words and    28 shell-pairs
 PRISM was handed   268432264 working-precision words and    28 shell-pairs
 PRISM was handed   268432264 working-precision words and    28 shell-pairs
 PRISM was handed   268432264 working-precision words and    28 shell-pairs
 PRISM was handed   268432264 working-precision words and    28 shell-pairs
 PRISM was handed   268432264 working-precision words and    28 shell-pairs
 PRISM was handed   268432264 working-precision words and    28 shell-pairs
 PRISM was handed   268432264 working-precision words and    28 shell-pairs
 PRISM was handed   268432264 working-precision words and    28 shell-pairs
 PRISM was handed   268432264 working-precision words and    28 shell-pairs
 PRISM was handed   268432264 working-precision words and    28 shell-pairs
 PRISM was handed   268432264 working-precision words and    28 shell-pairs
 PRISM was handed   268432264 working-precision words and    28 shell-pairs
 PRISM was handed   268432264 working-precision words and    28 shell-pairs
 PRISM was handed   268432264 working-precision words and    28 shell-pairs
 PRISM was handed   268432264 working-precision words and    28 shell-pairs
 PRISM was handed   268432264 working-precision words and    28 shell-pairs
 PRISM was handed   268432264 working-precision words and    28 shell-pairs
 PRISM was handed   268432264 working-precision words and    28 shell-pairs
 PRISM was handed   268432264 working-precision words and    28 shell-pairs
 PRISM was handed   268432264 working-precision words and    28 shell-pairs
 PRISM was handed   268432264 working-precision words and    28 shell-pairs
 PRISM was handed   268432264 working-precision words and    28 shell-pairs
 PRISM was handed   268432264 working-precision words and    28 shell-pairs
 PRISM was handed   268432264 working-precision words and    28 shell-pairs
 PRISM was handed   268432264 working-precision words and    28 shell-pairs
 PRISM was handed   268432264 working-precision words and    28 shell-pairs
 PRISM was handed   268432264 working-precision words and    28 shell-pairs
 IPart= 23 NShTot=           0 NBatch=           0 AvBLen=         0.0
 IPart= 30 NShTot=           0 NBatch=           0 AvBLen=         0.0
 IPart=  4 NShTot=           0 NBatch=           0 AvBLen=         0.0
 IPart= 19 NShTot=           0 NBatch=           0 AvBLen=         0.0
 IPart= 18 NShTot=           0 NBatch=           0 AvBLen=         0.0
 IPart= 16 NShTot=           0 NBatch=           0 AvBLen=         0.0
 IPart= 11 NShTot=           0 NBatch=           0 AvBLen=         0.0
 IPart= 14 NShTot=           0 NBatch=           0 AvBLen=         0.0
 IPart=  2 NShTot=           0 NBatch=           0 AvBLen=         0.0
 IPart= 33 NShTot=           0 NBatch=           0 AvBLen=         0.0
 IPart= 27 NShTot=           0 NBatch=           0 AvBLen=         0.0
 IPart= 26 NShTot=           0 NBatch=           0 AvBLen=         0.0
 IPart= 20 NShTot=           0 NBatch=           0 AvBLen=         0.0
 IPart=  7 NShTot=           0 NBatch=           0 AvBLen=         0.0
 IPart= 28 NShTot=           0 NBatch=           0 AvBLen=         0.0
 IPart=  5 NShTot=           0 NBatch=           0 AvBLen=         0.0
 IPart= 24 NShTot=           0 NBatch=           0 AvBLen=         0.0
 IPart= 35 NShTot=           0 NBatch=           0 AvBLen=         0.0
 IPart= 32 NShTot=           0 NBatch=           0 AvBLen=         0.0
 IPart=  3 NShTot=           0 NBatch=           0 AvBLen=         0.0
 IPart=  6 NShTot=           0 NBatch=           0 AvBLen=         0.0
 IPart= 13 NShTot=           0 NBatch=           0 AvBLen=         0.0
 IPart=  8 NShTot=           0 NBatch=           0 AvBLen=         0.0
 IPart= 29 NShTot=           0 NBatch=           0 AvBLen=         0.0
 IPart= 17 NShTot=           0 NBatch=           0 AvBLen=         0.0
 IPart= 22 NShTot=           0 NBatch=           0 AvBLen=         0.0
 IPart= 21 NShTot=           0 NBatch=           0 AvBLen=         0.0
 IPart= 31 NShTot=           0 NBatch=           0 AvBLen=         0.0
 IPart= 34 NShTot=           0 NBatch=           0 AvBLen=         0.0
 IPart= 25 NShTot=           0 NBatch=           0 AvBLen=         0.0
 IPart= 15 NShTot=           0 NBatch=           0 AvBLen=         0.0
 IPart= 10 NShTot=           0 NBatch=           0 AvBLen=         0.0
 IPart=  9 NShTot=           0 NBatch=           0 AvBLen=         0.0
 IPart= 12 NShTot=           0 NBatch=           0 AvBLen=         0.0
 IPart=  1 NShTot=           2 NBatch=           1 AvBLen=         2.0
 IPart=  0 NShTot=          54 NBatch=          27 AvBLen=         2.0
 PrSmSu:  NxtVal=             37.
 ***** Potential Energy ***** 
                1             2             3             4             5 
      1  0.191680D+01
      2  0.575287D-01  0.829640D+01
      3  0.369202D+00  0.227768D+00  0.129989D+01
      4  0.365625D+00  0.668310D+00  0.101830D+01  0.998402D+00
      5  0.000000D+00  0.000000D+00  0.000000D+00  0.000000D+00  0.125116D+01
      6  0.000000D+00  0.000000D+00  0.000000D+00  0.000000D+00  0.000000D+00
      7 -0.581157D+00 -0.736278D-02 -0.882169D-01 -0.813507D-01  0.000000D+00
      8  0.000000D+00  0.000000D+00  0.000000D+00  0.000000D+00  0.581761D+00
      9  0.000000D+00  0.000000D+00  0.000000D+00  0.000000D+00  0.000000D+00
     10 -0.411357D+00 -0.126862D-02 -0.506250D-01 -0.660149D-01  0.000000D+00
     11  0.660008D+00  0.118816D-02  0.554069D-01  0.516670D-01  0.000000D+00
     12  0.000000D+00  0.000000D+00  0.000000D+00  0.000000D+00 -0.517878D-01
     13  0.000000D+00  0.000000D+00  0.000000D+00  0.000000D+00  0.000000D+00
     14  0.000000D+00  0.000000D+00  0.000000D+00  0.000000D+00  0.000000D+00
     15  0.000000D+00  0.000000D+00  0.000000D+00  0.000000D+00  0.000000D+00
                6             7             8             9            10 
      6  0.125116D+01
      7  0.000000D+00  0.132116D+01
      8  0.000000D+00  0.000000D+00  0.634680D+00
      9  0.581761D+00  0.000000D+00  0.000000D+00  0.634680D+00
     10  0.000000D+00  0.628289D+00  0.000000D+00  0.000000D+00  0.682576D+00
     11  0.000000D+00 -0.116668D+00  0.000000D+00  0.000000D+00 -0.726767D-01
     12  0.000000D+00  0.000000D+00 -0.304258D-01  0.000000D+00  0.000000D+00
     13 -0.517878D-01  0.000000D+00  0.000000D+00 -0.304258D-01  0.000000D+00
     14  0.000000D+00  0.000000D+00  0.000000D+00  0.000000D+00  0.000000D+00
     15  0.000000D+00  0.000000D+00  0.000000D+00  0.000000D+00  0.000000D+00
               11            12            13            14            15 
     11  0.119056D+01
     12  0.000000D+00  0.112376D+01
     13  0.000000D+00  0.000000D+00  0.112376D+01
     14  0.000000D+00  0.000000D+00  0.000000D+00  0.108748D+01
     15  0.000000D+00  0.000000D+00  0.000000D+00  0.000000D+00  0.108748D+01
 ****** Core Hamiltonian ****** 
                1             2             3             4             5 
      1 -0.115676D+01
      2 -0.641712D-01 -0.467486D+01
      3 -0.355098D+00 -0.489672D+00 -0.116060D+01
      4 -0.352508D+00 -0.655421D+00 -0.966947D+00 -0.956327D+00
      5  0.000000D+00  0.000000D+00  0.000000D+00  0.000000D+00 -0.100119D+01
      6  0.000000D+00  0.000000D+00  0.000000D+00  0.000000D+00  0.000000D+00
      7  0.527589D+00  0.736278D-02  0.882169D-01  0.813507D-01  0.000000D+00
      8  0.000000D+00  0.000000D+00  0.000000D+00  0.000000D+00 -0.523961D+00
      9  0.000000D+00  0.000000D+00  0.000000D+00  0.000000D+00  0.000000D+00
     10  0.383794D+00  0.126862D-02  0.506250D-01  0.660149D-01  0.000000D+00
     11 -0.533471D+00 -0.118816D-02 -0.554069D-01 -0.516670D-01  0.000000D+00
     12  0.000000D+00  0.000000D+00  0.000000D+00  0.000000D+00  0.517878D-01
     13  0.000000D+00  0.000000D+00  0.000000D+00  0.000000D+00  0.000000D+00
     14  0.000000D+00  0.000000D+00  0.000000D+00  0.000000D+00  0.000000D+00
     15  0.000000D+00  0.000000D+00  0.000000D+00  0.000000D+00  0.000000D+00
                6             7             8             9            10 
      6 -0.100119D+01
      7  0.000000D+00 -0.107119D+01
      8  0.000000D+00  0.000000D+00 -0.574605D+00
      9 -0.523961D+00  0.000000D+00  0.000000D+00 -0.574605D+00
     10  0.000000D+00 -0.570489D+00  0.000000D+00  0.000000D+00 -0.622501D+00
     11  0.000000D+00  0.116668D+00  0.000000D+00  0.000000D+00  0.726767D-01
     12  0.000000D+00  0.000000D+00  0.304258D-01  0.000000D+00  0.000000D+00
     13  0.517878D-01  0.000000D+00  0.000000D+00  0.304258D-01  0.000000D+00
     14  0.000000D+00  0.000000D+00  0.000000D+00  0.000000D+00  0.000000D+00
     15  0.000000D+00  0.000000D+00  0.000000D+00  0.000000D+00  0.000000D+00
               11            12            13            14            15 
     11 -0.756912D+00
     12  0.000000D+00 -0.690113D+00
     13  0.000000D+00  0.000000D+00 -0.690113D+00
     14  0.000000D+00  0.000000D+00  0.000000D+00 -0.653835D+00
     15  0.000000D+00  0.000000D+00  0.000000D+00  0.000000D+00 -0.653835D+00
 SVDSVc IOpt=   1 NormSV=T IR=1
 SVDSVc V= 2.14D+00 1.78D+00 1.19D+00 1.00D+00 9.56D-01 4.52D-01 3.50D-01 1.38D-01
 SVDSVc IOpt=   1 NormSV=T IR=2
 SVDSVc V= 1.00D+00
 SVDSVc IOpt=   1 NormSV=T IR=3
 SVDSVc V= 1.63D+00 1.00D+00 3.73D-01
 SVDSVc IOpt=   1 NormSV=T IR=4
 SVDSVc V= 1.63D+00 1.00D+00 3.73D-01
 TstOVc:  Largest diagonal error= 1.78D-15 IB=3 I=   12.
 TstOVc:  Largest same sym error= 1.43D-14 IB=1 I=    8 J=    4.
 TstOVc:  Largest diff sym error= 0.00D+00 IB=0 JB=0 I=    0 J=    0.
 Orthogonalized basis functions: 
                 1             2             3             4             5 
      1   0.328423D+00 -0.173551D+00  0.343503D+00  0.000000D+00 -0.152685D-01
      2   0.926224D-01  0.117178D+00 -0.125153D+00  0.000000D+00  0.989571D+00
      3   0.345281D+00  0.326177D+00 -0.100743D+00  0.000000D+00 -0.169934D+00
      4   0.348640D+00  0.326811D+00 -0.998994D-01  0.000000D+00 -0.136728D+00
      5   0.000000D+00  0.000000D+00  0.000000D+00  0.000000D+00  0.000000D+00
      6   0.000000D+00  0.000000D+00  0.000000D+00  0.000000D+00  0.000000D+00
      7  -0.227851D+00  0.389807D+00  0.251422D+00  0.000000D+00 -0.674381D-02
      8   0.000000D+00  0.000000D+00  0.000000D+00  0.000000D+00  0.000000D+00
      9   0.000000D+00  0.000000D+00  0.000000D+00  0.000000D+00  0.000000D+00
     10  -0.213231D+00  0.380134D+00  0.284468D+00  0.000000D+00 -0.880091D-02
     11   0.117126D+00 -0.900174D-01  0.737120D+00  0.000000D+00  0.139072D+00
     12   0.000000D+00  0.000000D+00  0.000000D+00  0.000000D+00  0.000000D+00
     13   0.000000D+00  0.000000D+00  0.000000D+00  0.000000D+00  0.000000D+00
     14   0.000000D+00  0.000000D+00  0.000000D+00  0.100000D+01  0.000000D+00
     15   0.000000D+00  0.000000D+00  0.000000D+00  0.000000D+00  0.000000D+00
                 6             7             8             9            10 
      1   0.983455D+00  0.628429D+00 -0.598211D-01  0.000000D+00  0.000000D+00
      2   0.660631D-01  0.314504D-01 -0.645178D-01  0.000000D+00  0.000000D+00
      3  -0.203217D+00 -0.127372D+00 -0.188729D+01  0.000000D+00  0.000000D+00
      4  -0.157673D+00 -0.856739D-01  0.191538D+01  0.000000D+00  0.000000D+00
      5   0.000000D+00  0.000000D+00  0.000000D+00  0.000000D+00  0.554424D+00
      6   0.000000D+00  0.000000D+00  0.000000D+00  0.000000D+00  0.000000D+00
      7  -0.206763D+00  0.122354D+01 -0.237012D-01  0.000000D+00  0.000000D+00
      8   0.000000D+00  0.000000D+00  0.000000D+00  0.000000D+00  0.554424D+00
      9   0.000000D+00  0.000000D+00  0.000000D+00  0.000000D+00  0.000000D+00
     10   0.778621D+00 -0.887211D+00 -0.375649D-02  0.000000D+00  0.000000D+00
     11  -0.726183D+00 -0.391473D+00  0.281030D-01  0.000000D+00  0.000000D+00
     12   0.000000D+00  0.000000D+00  0.000000D+00  0.000000D+00  0.000000D+00
     13   0.000000D+00  0.000000D+00  0.000000D+00  0.000000D+00  0.000000D+00
     14   0.000000D+00  0.000000D+00  0.000000D+00  0.000000D+00  0.000000D+00
     15   0.000000D+00  0.000000D+00  0.000000D+00  0.100000D+01  0.000000D+00
                11            12            13            14            15 
      1   0.000000D+00  0.000000D+00  0.000000D+00  0.000000D+00  0.000000D+00
      2   0.000000D+00  0.000000D+00  0.000000D+00  0.000000D+00  0.000000D+00
      3   0.000000D+00  0.000000D+00  0.000000D+00  0.000000D+00  0.000000D+00
      4   0.000000D+00  0.000000D+00  0.000000D+00  0.000000D+00  0.000000D+00
      5   0.000000D+00  0.115720D+01  0.000000D+00  0.000000D+00  0.000000D+00
      6   0.000000D+00  0.000000D+00  0.554424D+00  0.000000D+00  0.115720D+01
      7   0.000000D+00  0.000000D+00  0.000000D+00  0.000000D+00  0.000000D+00
      8   0.000000D+00 -0.115720D+01  0.000000D+00  0.000000D+00  0.000000D+00
      9   0.000000D+00  0.000000D+00  0.554424D+00  0.000000D+00 -0.115720D+01
     10   0.000000D+00  0.000000D+00  0.000000D+00  0.000000D+00  0.000000D+00
     11   0.000000D+00  0.000000D+00  0.000000D+00  0.000000D+00  0.000000D+00
     12   0.100000D+01  0.000000D+00  0.000000D+00  0.000000D+00  0.000000D+00
     13   0.000000D+00  0.000000D+00  0.000000D+00  0.100000D+01  0.000000D+00
     14   0.000000D+00  0.000000D+00  0.000000D+00  0.000000D+00  0.000000D+00
     15   0.000000D+00  0.000000D+00  0.000000D+00  0.000000D+00  0.000000D+00
 NBasis=    15 RedAO= T EigKep=  1.38D-01  NBF=     8     1     3     3
 NBsUse=    15 1.00D-06 EigRej= -1.00D+00 NBFU=     8     1     3     3
 Leave Link  302 at Mon Mar 28 14:06:40 2022, MaxMem=  9663676416 cpu:               3.3 elap:               0.1
 (Enter /nopt/nrel/apps/gaussian/g16C_1/g16/l303.exe)
 DipDrv will not compute anything.
 Fermi contact integrals: 
                 1             2 
      1   0.628247D+00  0.343937D-02
      2   0.302656D-05  0.255622D+01
      3   0.272074D-01 -0.456508D-01
      4   0.287562D-01  0.488495D-01
      5   0.000000D+00  0.000000D+00
      6   0.000000D+00  0.000000D+00
      7  -0.509421D-01  0.000000D+00
      8   0.000000D+00  0.000000D+00
      9   0.000000D+00  0.000000D+00
     10  -0.372273D-01  0.000000D+00
     11   0.774522D-01  0.000000D+00
     12   0.000000D+00  0.000000D+00
     13   0.000000D+00  0.000000D+00
     14   0.000000D+00  0.000000D+00
     15   0.000000D+00  0.000000D+00
 Leave Link  303 at Mon Mar 28 14:06:41 2022, MaxMem=  9663676416 cpu:               1.1 elap:               0.1
 (Enter /nopt/nrel/apps/gaussian/g16C_1/g16/l401.exe)
 ExpMin= 2.40D-02 ExpMax= 1.47D+03 ExpMxC= 5.03D+01 IAcc=3 IRadAn=         5 AccDes= 0.00D+00
 Harris functional with IExCor=  205 and IRadAn=       5 diagonalized for initial guess.
 HarFok:  IExCor=  205 AccDes= 0.00D+00 IRadAn=         5 IDoV= 1 UseB2=F ITyADJ=14
 ICtDFT=  3500011 ScaDFX=  1.000000  1.000000  1.000000  1.000000
 FoFCou: FMM=F IPFlag=           0 FMFlag=      100000 FMFlg1=           0
         NFxFlg=           0 DoJE=T BraDBF=F KetDBF=T FulRan=T
         wScrn=  0.000000 ICntrl=       500 IOpCl=  0 I1Cent=   200000004 NGrid=           0
         NMat0=    1 NMatS0=      1 NMatT0=    0 NMatD0=    1 NMtDS0=    0 NMtDT0=    0
 Petite list used in FoFCou.
 Harris En= -7.82966776732209    
 JPrj=0 DoOrth=F DoCkMO=F.
 Initial guess orbital symmetries:
 Alpha Orbitals:
       Occupied  (SG) (SG) (SG)
       Virtual   (PI) (PI) (SG) (PI) (PI) (SG) (SG) (PI) (PI) (DLTA)
                 (DLTA) (SG)
 Beta  Orbitals:
       Occupied  (SG)
       Virtual   (SG) (SG) (PI) (PI) (SG) (PI) (PI) (SG) (SG) (PI)
                 (PI) (DLTA) (DLTA) (SG)
 The electronic state of the initial guess is 3-SG.
 Initial guess <Sx>= 0.0000 <Sy>= 0.0000 <Sz>= 1.0000 <S**2>= 2.0000 S= 1.0000
 Leave Link  401 at Mon Mar 28 14:06:41 2022, MaxMem=  9663676416 cpu:               4.8 elap:               0.2
 (Enter /nopt/nrel/apps/gaussian/g16C_1/g16/l502.exe)
 Keep R1 and R2 ints in memory in symmetry-blocked form, NReq=7407854.
 FoFCou: FMM=F IPFlag=           0 FMFlag=           0 FMFlg1=           0
         NFxFlg=           0 DoJE=F BraDBF=F KetDBF=F FulRan=T
         wScrn=  0.000000 ICntrl=       600 IOpCl=  0 I1Cent=           0 NGrid=           0
         NMat0=    1 NMatS0=    120 NMatT0=    0 NMatD0=    1 NMtDS0=    0 NMtDT0=    0
 Petite list used in FoFCou.
 UHF open shell SCF:
 Using DIIS extrapolation, IDIIS=  1040.
 NGot=  9663676416 LenX=  9663669219 LenY=  9663668337
 Requested convergence on RMS density matrix=1.00D-08 within 128 cycles.
 Requested convergence on MAX density matrix=1.00D-06.
 Requested convergence on             energy=1.00D-06.
 No special actions if energy rises.

 Cycle   1  Pass 1  IDiag  1:
 E= -7.88904730937650    
 DIIS: error= 2.30D-02 at cycle   1 NSaved=   1.
 NSaved= 1 IEnMin= 1 EnMin= -7.88904730937650     IErMin= 1 ErrMin= 2.30D-02
 ErrMax= 2.30D-02  0.00D+00 EMaxC= 1.00D-01 BMatC= 1.76D-02 BMatP= 1.76D-02
 IDIUse=3 WtCom= 7.70D-01 WtEn= 2.30D-01
 Coeff-Com:  0.100D+01
 Coeff-En:   0.100D+01
 Coeff:      0.100D+01
 Gap=     0.214 Goal=   None    Shift=    0.000
 Gap=     2.446 Goal=   None    Shift=    0.000
 GapD=    0.214 DampG=1.000 DampE=0.500 DampFc=0.5000 IDamp=-1.
 Damping current iteration by 5.00D-01
 RMSDP=8.36D-03 MaxDP=1.40D-01              OVMax= 1.03D-01

 Cycle   2  Pass 1  IDiag  1:
 E= -7.89495201221017     Delta-E=       -0.005904702834 Rises=F Damp=T
 DIIS: error= 1.56D-02 at cycle   2 NSaved=   2.
 NSaved= 2 IEnMin= 2 EnMin= -7.89495201221017     IErMin= 2 ErrMin= 1.56D-02
 ErrMax= 1.56D-02  0.00D+00 EMaxC= 1.00D-01 BMatC= 7.60D-03 BMatP= 1.76D-02
 IDIUse=3 WtCom= 8.44D-01 WtEn= 1.56D-01
 Coeff-Com: -0.179D+01 0.279D+01
 Coeff-En:   0.000D+00 0.100D+01
 Coeff:     -0.151D+01 0.251D+01
 Gap=     0.201 Goal=   None    Shift=    0.000
 Gap=     2.444 Goal=   None    Shift=    0.000
 RMSDP=8.05D-03 MaxDP=1.38D-01 DE=-5.90D-03 OVMax= 3.53D-02

 Cycle   3  Pass 1  IDiag  1:
 E= -7.90452386685266     Delta-E=       -0.009571854642 Rises=F Damp=F
 DIIS: error= 2.11D-03 at cycle   3 NSaved=   3.
 NSaved= 3 IEnMin= 3 EnMin= -7.90452386685266     IErMin= 3 ErrMin= 2.11D-03
 ErrMax= 2.11D-03  0.00D+00 EMaxC= 1.00D-01 BMatC= 1.08D-04 BMatP= 7.60D-03
 IDIUse=3 WtCom= 9.79D-01 WtEn= 2.11D-02
 Coeff-Com:  0.687D+00-0.118D+01 0.150D+01
 Coeff-En:   0.000D+00 0.000D+00 0.100D+01
 Coeff:      0.672D+00-0.116D+01 0.148D+01
 Gap=     0.202 Goal=   None    Shift=    0.000
 Gap=     2.446 Goal=   None    Shift=    0.000
 RMSDP=1.36D-03 MaxDP=2.10D-02 DE=-9.57D-03 OVMax= 7.93D-03

 Cycle   4  Pass 1  IDiag  1:
 E= -7.90464657614349     Delta-E=       -0.000122709291 Rises=F Damp=F
 DIIS: error= 2.10D-04 at cycle   4 NSaved=   4.
 NSaved= 4 IEnMin= 4 EnMin= -7.90464657614349     IErMin= 4 ErrMin= 2.10D-04
 ErrMax= 2.10D-04  0.00D+00 EMaxC= 1.00D-01 BMatC= 1.38D-06 BMatP= 1.08D-04
 IDIUse=3 WtCom= 9.98D-01 WtEn= 2.10D-03
 Coeff-Com: -0.262D+00 0.457D+00-0.644D+00 0.145D+01
 Coeff-En:   0.000D+00 0.000D+00 0.000D+00 0.100D+01
 Coeff:     -0.262D+00 0.456D+00-0.642D+00 0.145D+01
 Gap=     0.202 Goal=   None    Shift=    0.000
 Gap=     2.446 Goal=   None    Shift=    0.000
 RMSDP=2.71D-04 MaxDP=2.74D-03 DE=-1.23D-04 OVMax= 3.33D-03

 Cycle   5  Pass 1  IDiag  1:
 E= -7.90465031216507     Delta-E=       -0.000003736022 Rises=F Damp=F
 DIIS: error= 9.07D-05 at cycle   5 NSaved=   5.
 NSaved= 5 IEnMin= 5 EnMin= -7.90465031216507     IErMin= 5 ErrMin= 9.07D-05
 ErrMax= 9.07D-05  0.00D+00 EMaxC= 1.00D-01 BMatC= 1.40D-07 BMatP= 1.38D-06
 IDIUse=1 WtCom= 1.00D+00 WtEn= 0.00D+00
 Coeff-Com:  0.117D+00-0.204D+00 0.292D+00-0.870D+00 0.167D+01
 Coeff:      0.117D+00-0.204D+00 0.292D+00-0.870D+00 0.167D+01
 Gap=     0.202 Goal=   None    Shift=    0.000
 Gap=     2.445 Goal=   None    Shift=    0.000
 RMSDP=1.12D-04 MaxDP=1.31D-03 DE=-3.74D-06 OVMax= 1.51D-03

 Cycle   6  Pass 1  IDiag  1:
 E= -7.90465082383010     Delta-E=       -0.000000511665 Rises=F Damp=F
 DIIS: error= 1.96D-05 at cycle   6 NSaved=   6.
 NSaved= 6 IEnMin= 6 EnMin= -7.90465082383010     IErMin= 6 ErrMin= 1.96D-05
 ErrMax= 1.96D-05  0.00D+00 EMaxC= 1.00D-01 BMatC= 6.75D-09 BMatP= 1.40D-07
 IDIUse=1 WtCom= 1.00D+00 WtEn= 0.00D+00
 Coeff-Com: -0.199D-01 0.347D-01-0.518D-01 0.184D+00-0.584D+00 0.144D+01
 Coeff:     -0.199D-01 0.347D-01-0.518D-01 0.184D+00-0.584D+00 0.144D+01
 Gap=     0.202 Goal=   None    Shift=    0.000
 Gap=     2.445 Goal=   None    Shift=    0.000
 RMSDP=2.27D-05 MaxDP=2.39D-04 DE=-5.12D-07 OVMax= 2.99D-04

 Cycle   7  Pass 1  IDiag  1:
 E= -7.90465084574593     Delta-E=       -0.000000021916 Rises=F Damp=F
 DIIS: error= 3.40D-06 at cycle   7 NSaved=   7.
 NSaved= 7 IEnMin= 7 EnMin= -7.90465084574593     IErMin= 7 ErrMin= 3.40D-06
 ErrMax= 3.40D-06  0.00D+00 EMaxC= 1.00D-01 BMatC= 2.96D-10 BMatP= 6.75D-09
 IDIUse=1 WtCom= 1.00D+00 WtEn= 0.00D+00
 Coeff-Com:  0.552D-02-0.967D-02 0.147D-01-0.502D-01 0.197D+00-0.613D+00
 Coeff-Com:  0.146D+01
 Coeff:      0.552D-02-0.967D-02 0.147D-01-0.502D-01 0.197D+00-0.613D+00
 Coeff:      0.146D+01
 Gap=     0.202 Goal=   None    Shift=    0.000
 Gap=     2.445 Goal=   None    Shift=    0.000
 RMSDP=5.28D-06 MaxDP=4.42D-05 DE=-2.19D-08 OVMax= 2.72D-05

 Cycle   8  Pass 1  IDiag  1:
 E= -7.90465084652490     Delta-E=       -0.000000000779 Rises=F Damp=F
 DIIS: error= 9.88D-07 at cycle   8 NSaved=   8.
 NSaved= 8 IEnMin= 8 EnMin= -7.90465084652490     IErMin= 8 ErrMin= 9.88D-07
 ErrMax= 9.88D-07  0.00D+00 EMaxC= 1.00D-01 BMatC= 1.99D-11 BMatP= 2.96D-10
 IDIUse=1 WtCom= 1.00D+00 WtEn= 0.00D+00
 Coeff-Com: -0.312D-03 0.558D-03-0.105D-02 0.404D-02-0.403D-01 0.170D+00
 Coeff-Com: -0.689D+00 0.156D+01
 Coeff:     -0.312D-03 0.558D-03-0.105D-02 0.404D-02-0.403D-01 0.170D+00
 Coeff:     -0.689D+00 0.156D+01
 Gap=     0.202 Goal=   None    Shift=    0.000
 Gap=     2.445 Goal=   None    Shift=    0.000
 RMSDP=1.62D-06 MaxDP=1.37D-05 DE=-7.79D-10 OVMax= 5.84D-06

 Cycle   9  Pass 1  IDiag  1:
 E= -7.90465084658040     Delta-E=       -0.000000000056 Rises=F Damp=F
 DIIS: error= 3.74D-08 at cycle   9 NSaved=   9.
 NSaved= 9 IEnMin= 9 EnMin= -7.90465084658040     IErMin= 9 ErrMin= 3.74D-08
 ErrMax= 3.74D-08  0.00D+00 EMaxC= 1.00D-01 BMatC= 5.65D-14 BMatP= 1.99D-11
 IDIUse=1 WtCom= 1.00D+00 WtEn= 0.00D+00
 Coeff-Com: -0.287D-05 0.204D-05 0.427D-04-0.245D-03 0.693D-02-0.319D-01
 Coeff-Com:  0.142D+00-0.358D+00 0.124D+01
 Coeff:     -0.287D-05 0.204D-05 0.427D-04-0.245D-03 0.693D-02-0.319D-01
 Coeff:      0.142D+00-0.358D+00 0.124D+01
 Gap=     0.202 Goal=   None    Shift=    0.000
 Gap=     2.445 Goal=   None    Shift=    0.000
 RMSDP=5.67D-08 MaxDP=4.02D-07 DE=-5.55D-11 OVMax= 5.59D-07

 Cycle  10  Pass 1  IDiag  1:
 E= -7.90465084658050     Delta-E=       -0.000000000000 Rises=F Damp=F
 DIIS: error= 5.64D-09 at cycle  10 NSaved=  10.
 NSaved=10 IEnMin=10 EnMin= -7.90465084658050     IErMin=10 ErrMin= 5.64D-09
 ErrMax= 5.64D-09  0.00D+00 EMaxC= 1.00D-01 BMatC= 6.36D-16 BMatP= 5.65D-14
 IDIUse=1 WtCom= 1.00D+00 WtEn= 0.00D+00
 Coeff-Com: -0.124D-05 0.315D-05-0.197D-04 0.946D-04-0.234D-02 0.107D-01
 Coeff-Com: -0.477D-01 0.120D+00-0.430D+00 0.135D+01
 Coeff:     -0.124D-05 0.315D-05-0.197D-04 0.946D-04-0.234D-02 0.107D-01
 Coeff:     -0.477D-01 0.120D+00-0.430D+00 0.135D+01
 Gap=     0.202 Goal=   None    Shift=    0.000
 Gap=     2.445 Goal=   None    Shift=    0.000
 RMSDP=9.55D-09 MaxDP=1.17D-07 DE=-9.41D-14 OVMax= 8.88D-08

 SCF Done:  E(UHF) =  -7.90465084658     A.U. after   10 cycles
            NFock= 10  Conv=0.95D-08     -V/T= 1.9845
 <Sx>= 0.0000 <Sy>= 0.0000 <Sz>= 1.0000 <S**2>= 2.0000 S= 1.0000
 <L.S>= 0.000000000000E+00
 KE= 8.029084841393D+00 PE=-1.953907341419D+01 EE= 2.915106581544D+00
 Annihilation of the first spin contaminant:
 S**2 before annihilation     2.0000,   after     2.0000
 Leave Link  502 at Mon Mar 28 14:06:41 2022, MaxMem=  9663676416 cpu:               4.6 elap:               0.2
 (Enter /nopt/nrel/apps/gaussian/g16C_1/g16/l801.exe)
 Windowed orbitals will be sorted by symmetry type.
 ExpMin= 2.40D-02 ExpMax= 1.47D+03 ExpMxC= 5.03D+01 IAcc=3 IRadAn=         5 AccDes= 0.00D+00
 HarFok:  IExCor=  205 AccDes= 0.00D+00 IRadAn=         5 IDoV=-2 UseB2=F ITyADJ=14
 ICtDFT= 12500011 ScaDFX=  1.000000  1.000000  1.000000  1.000000
 Largest valence mixing into a core orbital is  3.34D-04
 Largest core mixing into a valence orbital is  1.96D-04
 Range of M.O.s used for correlation:     2    15
 NBasis=    15 NAE=     3 NBE=     1 NFC=     1 NFV=     0
 NROrb=     14 NOA=     2 NOB=     0 NVA=    12 NVB=    14
 Leave Link  801 at Mon Mar 28 14:06:41 2022, MaxMem=  9663676416 cpu:               3.1 elap:               0.1
 (Enter /nopt/nrel/apps/gaussian/g16C_1/g16/l804.exe)
 Open-shell transformation, MDV=  9663676416 ITran=4 ISComp=2.
 Unit  1 TFree=         15923 TCopy=        220880.
 Semi-Direct transformation.
 ModeAB=           2 MOrb=             2 LenV=    9663496526
 LASXX=          607 LTotXX=         607 LenRXX=         607
 LTotAB=         853 MaxLAS=        3808 LenRXY=        3808
 NonZer=        4396 LenScr=      785920 LnRSAI=           0
 LnScr1=           0 LExtra=      221865 Total=      1012200
 MaxDsk= 34359738368 SrtSym=           F ITran=            4
 DoSDTr:  NPSUse= 36
 JobTyp=1 Pass  1:  I=   1 to   2.
 (rs|ai) integrals will be sorted in core.
 Complete sort for first half transformation.
 First half transformation complete.
 Complete sort for second half transformation.
 Second half transformation complete.
 Spin components of T(2) and E(2):
     alpha-alpha T2 =       0.1614431253D-03 E2=     -0.1834843417D-03
     alpha-beta  T2 =       0.0000000000D+00 E2=      0.0000000000D+00
     beta-beta   T2 =       0.0000000000D+00 E2=      0.0000000000D+00
 ANorm=    0.1000080718D+01
 E2 =    -0.1834843417D-03 EUMP2 =    -0.79048343309222D+01
 Leave Link  804 at Mon Mar 28 14:06:41 2022, MaxMem=  9663676416 cpu:               4.4 elap:               0.2
 (Enter /nopt/nrel/apps/gaussian/g16C_1/g16/l913.exe)
 CIDS:  MDV=  9663676416.
 Frozen-core window:  NFC=   1 NFV=   0.
 IFCWin=0 IBDFC=1 NFBD=     0     0 NFCmp=     0     0 NFFFC=     0     0
 Using original routines for 1st iteration.
 Using DD4UQ or CC4UQ for 2nd and later iterations.
 Keep R2 and R3 ints in memory in symmetry-blocked form, NReq=7410290.
 FoFCou: FMM=F IPFlag=           0 FMFlag=           0 FMFlg1=           0
         NFxFlg=           0 DoJE=F BraDBF=F KetDBF=F FulRan=T
         wScrn=  0.000000 ICntrl=       600 IOpCl=  0 I1Cent=           0 NGrid=           0
         NMat0=    1 NMatS0=    120 NMatT0=    0 NMatD0=    1 NMtDS0=    0 NMtDT0=    0
 Petite list used in FoFCou.
 CIDS: In Core Option IDoMem=           1.
 Coupled Cluster theory with single and double substitutions
 ===========================================================
 Iterations= 200 Convergence= 0.100D-06
 Produce multiple copies of IABC intergrals
 Iteration Nr.   1
 **********************
 DD1Dir will call FoFMem   1 times, MxPair=         2
 NAB=     0 NAA=     1 NBB=     0.
 MP4(R+Q)=  0.29622286D-07
 Maximum subspace dimension=  5
 A-vector RMS=  7.7435712D-04 Max=  1.9603058D-03 conv= 1.00D-05.
 RLE energy=       -0.0002939413
 E3=       -0.68977933D-04        EUMP3=      -0.79049033089D+01
 E4(DQ)=   -0.26066622D-04        UMP4(DQ)=   -0.79049293755D+01
 E4(SDQ)=  -0.26585794D-04        UMP4(SDQ)=  -0.79049298946D+01
 VARIATIONAL ENERGIES WITH THE FIRST-ORDER WAVEFUNCTION:
 DE(Corr)= -0.25243392E-03 E(Corr)=     -7.9049032805    
 NORM(A)=   0.10002088D+01
 Iteration Nr.   2
 **********************
 DD1Dir will call FoFMem   1 times, MxPair=         2
 NAB=     0 NAA=     1 NBB=     0.
 A-vector RMS=  1.3607638D-04 Max=  2.4913808D-04 conv= 1.00D-05.
 RLE energy=       -0.0002965363
 DE(Corr)= -0.29500920E-03 E(CORR)=     -7.9049458558     Delta=-4.26D-05
 NORM(A)=   0.10002145D+01
 Iteration Nr.   3
 **********************
 DD1Dir will call FoFMem   1 times, MxPair=         2
 NAB=     0 NAA=     1 NBB=     0.
 A-vector RMS=  2.8578301D-05 Max=  7.6935727D-05 conv= 1.00D-05.
 RLE energy=       -0.0002966542
 DE(Corr)= -0.29655045E-03 E(CORR)=     -7.9049473970     Delta=-1.54D-06
 NORM(A)=   0.10002150D+01
 Iteration Nr.   4
 **********************
 DD1Dir will call FoFMem   1 times, MxPair=         2
 NAB=     0 NAA=     1 NBB=     0.
 A-vector RMS=  6.7626303D-06 Max=  2.1126420D-05 conv= 1.00D-05.
 RLE energy=       -0.0002966405
 DE(Corr)= -0.29664832E-03 E(CORR)=     -7.9049474949     Delta=-9.79D-08
 NORM(A)=   0.10002150D+01
 Iteration Nr.   5
 **********************
 DD1Dir will call FoFMem   1 times, MxPair=         2
 NAB=     0 NAA=     1 NBB=     0.
 A-vector RMS=  6.3314770D-07 Max=  1.5146182D-06 conv= 1.00D-05.
 RLE energy=       -0.0002966504
 DE(Corr)= -0.29664486E-03 E(CORR)=     -7.9049474914     Delta= 3.46D-09
 NORM(A)=   0.10002151D+01
 CI/CC converged in    5 iterations to DelEn= 3.46D-09 Conv= 1.00D-07 ErrA1= 6.33D-07 Conv= 1.00D-05
 Wavefunction amplitudes converged. E(Corr)=     -7.9049474914    
 Largest amplitude= 8.38D-03
 Discarding MO integrals.
 Leave Link  913 at Mon Mar 28 14:06:41 2022, MaxMem=  9663676416 cpu:               3.9 elap:               0.1
 (Enter /nopt/nrel/apps/gaussian/g16C_1/g16/l601.exe)
 Copying SCF densities to generalized density rwf, IOpCl= 1 IROHF=0.

 **********************************************************************

            Population analysis using the SCF Density.

 **********************************************************************

 Orbital symmetries:
 Alpha Orbitals:
       Occupied  (SG) (SG) (SG)
       Virtual   (PI) (PI) (SG) (SG) (PI) (PI) (SG) (PI) (PI) (DLTA)
                 (DLTA) (SG)
 Beta  Orbitals:
       Occupied  (SG)
       Virtual   (SG) (PI) (PI) (SG) (SG) (PI) (PI) (SG) (SG) (DLTA)
                 (DLTA) (PI) (PI) (SG)
 The electronic state is 3-SG.
 Alpha  occ. eigenvalues --   -2.47919  -0.55788  -0.17717
 Alpha virt. eigenvalues --    0.02479   0.02479   0.07145   0.14446   0.15899
 Alpha virt. eigenvalues --    0.15899   0.18330   0.33899   0.33899   0.35133
 Alpha virt. eigenvalues --    0.35133   0.48207
  Beta  occ. eigenvalues --   -2.46553
  Beta virt. eigenvalues --   -0.02007   0.05051   0.05051   0.05818   0.13730
  Beta virt. eigenvalues --    0.19075   0.19075   0.20264   0.28871   0.37625
  Beta virt. eigenvalues --    0.37625   0.37721   0.37721   0.59835
          Condensed to atoms (all electrons):
               1          2
     1  H    0.719740   0.107109
     2  Li   0.107109   3.066042
          Atomic-Atomic Spin Densities.
               1          2
     1  H    0.719738   0.107143
     2  Li   0.107143   1.065976
 Mulliken charges and spin densities:
               1          2
     1  H    0.173151   0.826881
     2  Li  -0.173151   1.173119
 Sum of Mulliken charges =  -0.00000   2.00000
 Mulliken charges and spin densities with hydrogens summed into heavy atoms:
               1          2
     2  Li  -0.000000   2.000000
 N-N= 6.902311446783D-01 E-N=-1.953907342481D+01  KE= 8.029084841393D+00
 Symmetry A1   KE= 8.029084841393D+00
 Symmetry A2   KE=-1.044652016086D-52
 Symmetry B1   KE= 0.000000000000D+00
 Symmetry B2   KE= 0.000000000000D+00
 Symmetry A1   SP= 2.000000000000D+00
 Symmetry A2   SP=-2.408469887045D-52
 Symmetry B1   SP= 0.000000000000D+00
 Symmetry B2   SP= 0.000000000000D+00

 Atomic contributions to Alpha molecular orbitals:
 Alpha occ 1 OE=-2.479 is Li2-s=1.0000
 Alpha occ 2 OE=-0.558 is H1-s=0.8145
 Alpha occ 3 OE=-0.177 is Li2-s=0.8346 Li2-p=0.1482
 Alpha vir 4 OE=0.025 is Li2-p=0.9994
 Alpha vir 5 OE=0.025 is Li2-p=0.9994
 Alpha vir 6 OE=0.071 is Li2-p=0.8332 Li2-s=0.1016
 Alpha vir 7 OE=0.144 is Li2-s=0.9400
 Alpha vir 8 OE=0.159 is Li2-p=0.9974
 Alpha vir 9 OE=0.159 is Li2-p=0.9974
 Alpha vir 10 OE=0.183 is Li2-p=0.8387
 Alpha vir 11 OE=0.339 is Li2-d=0.9968
 Alpha vir 12 OE=0.339 is Li2-d=0.9968
 Alpha vir 13 OE=0.351 is Li2-d=1.0000
 Alpha vir 14 OE=0.351 is Li2-d=1.0000
 Alpha vir 15 OE=0.482 is Li2-d=0.8454

 Atomic contributions to Beta  molecular orbitals:
 Beta  occ 1 OE=-2.466 is Li2-s=1.0000
 Beta  vir 2 OE=-0.020 is Li2-s=0.5173 Li2-p=0.3080 H1-s=0.1623
 Beta  vir 3 OE=0.051 is Li2-p=0.9981
 Beta  vir 4 OE=0.051 is Li2-p=0.9981
 Beta  vir 5 OE=0.058 is Li2-p=0.5848 Li2-s=0.3985
 Beta  vir 6 OE=0.137 is Li2-p=0.5109 Li2-s=0.3079 H1-s=0.1340
 Beta  vir 7 OE=0.191 is Li2-p=0.9877
 Beta  vir 8 OE=0.191 is Li2-p=0.9877
 Beta  vir 9 OE=0.203 is Li2-s=0.7548 Li2-p=0.1734
 Beta  vir 10 OE=0.289 is Li2-d=0.3814 Li2-p=0.3802 H1-s=0.2330
 Beta  vir 11 OE=0.376 is Li2-d=1.0000
 Beta  vir 12 OE=0.376 is Li2-d=1.0000
 Beta  vir 13 OE=0.377 is Li2-d=0.9857
 Beta  vir 14 OE=0.377 is Li2-d=0.9857
 Beta  vir 15 OE=0.598 is Li2-d=0.5209 H1-s=0.4203
 
 Leave Link  601 at Mon Mar 28 14:06:41 2022, MaxMem=  9663676416 cpu:               0.9 elap:               0.0
 (Enter /nopt/nrel/apps/gaussian/g16C_1/g16/l9999.exe)

 Test job not archived.
 1\1\GINC-R102U34\SP\UCCSD-FC\Gen\H1Li1(3)\USER\28-Mar-2022\0\\#P C
 CSD(MaxCyc=200,SaveAmplitudes,ReadAmplitudes)/GEN sp pop=AllOrbitals i
 op(3/33=1,3/36=-1)\\test\\0,3\H,0,0.,0.,0.\Li,0,0.,0.,2.3\\Version=ES6
 4L-G16RevC.01\State=3-SG\HF=-7.9046508\MP2=-7.9048343\MP3=-7.9049033\M
 P4D=-7.9049294\MP4DQ=-7.9049294\MP4SDQ=-7.9049299\CCSD=-7.9049475\S2=2
 .000001\S2-1=0.\S2A=2.\RMSD=9.548e-09\PG=C*V [C*(H1Li1)]\\@


 IF IT HAPPENS, IT MUST BE POSSIBLE.

 -- THE UNNAMED LAW FROM PAUL DICKSON'S 
    "THE OFFICIAL RULES"
 Job cpu time:       0 days  0 hours  0 minutes 35.3 seconds.
 Elapsed time:       0 days  0 hours  0 minutes  1.4 seconds.
 File lengths (MBytes):  RWF=     13 Int=      0 D2E=      0 Chk=      1 Scr=      1
 Normal termination of Gaussian 16 at Mon Mar 28 14:06:41 2022.
