 Entering Gaussian System, Link 0=g16
 Initial command:
 /nopt/nrel/apps/gaussian/g16C_1/g16/l1.exe "/lustre/eaglefs/scratch/user/qc/nah-dissc/nah-3-ccsd-0.9-321g/Gau-33731.inp" -scrdir="/lustre/eaglefs/scratch/user/qc/nah-dissc/nah-3-ccsd-0.9-321g/"
 Default is to use a total of  36 processors:
                               36 via shared-memory
                                1 via Linda
 Entering Link 1 = /nopt/nrel/apps/gaussian/g16C_1/g16/l1.exe PID=     33732.
  
 Copyright (c) 1988-2019, Gaussian, Inc.  All Rights Reserved.
  
 This is part of the Gaussian(R) 16 program.  It is based on
 the Gaussian(R) 09 system (copyright 2009, Gaussian, Inc.),
 the Gaussian(R) 03 system (copyright 2003, Gaussian, Inc.),
 the Gaussian(R) 98 system (copyright 1998, Gaussian, Inc.),
 the Gaussian(R) 94 system (copyright 1995, Gaussian, Inc.),
 the Gaussian 92(TM) system (copyright 1992, Gaussian, Inc.),
 the Gaussian 90(TM) system (copyright 1990, Gaussian, Inc.),
 the Gaussian 88(TM) system (copyright 1988, Gaussian, Inc.),
 the Gaussian 86(TM) system (copyright 1986, Carnegie Mellon
 University), and the Gaussian 82(TM) system (copyright 1983,
 Carnegie Mellon University). Gaussian is a federally registered
 trademark of Gaussian, Inc.
  
 This software contains proprietary and confidential information,
 including trade secrets, belonging to Gaussian, Inc.
  
 This software is provided under written license and may be
 used, copied, transmitted, or stored only in accord with that
 written license.
  
 The following legend is applicable only to US Government
 contracts under FAR:
  
                    RESTRICTED RIGHTS LEGEND
  
 Use, reproduction and disclosure by the US Government is
 subject to restrictions as set forth in subparagraphs (a)
 and (c) of the Commercial Computer Software - Restricted
 Rights clause in FAR 52.227-19.
  
 Gaussian, Inc.
 340 Quinnipiac St., Bldg. 40, Wallingford CT 06492
  
  
 ---------------------------------------------------------------
 Warning -- This program may not be used in any manner that
 competes with the business of Gaussian, Inc. or will provide
 assistance to any competitor of Gaussian, Inc.  The licensee
 of this program is prohibited from giving any competitor of
 Gaussian, Inc. access to this program.  By using this program,
 the user acknowledges that Gaussian, Inc. is engaged in the
 business of creating and licensing software in the field of
 computational chemistry and represents and warrants to the
 licensee that it is not a competitor of Gaussian, Inc. and that
 it will not use this program in any manner prohibited above.
 ---------------------------------------------------------------
  

 Cite this work as:
 Gaussian 16, Revision C.01,
 M. J. Frisch, G. W. Trucks, H. B. Schlegel, G. E. Scuseria, 
 M. A. Robb, J. R. Cheeseman, G. Scalmani, V. Barone, 
 G. A. Petersson, H. Nakatsuji, X. Li, M. Caricato, A. V. Marenich, 
 J. Bloino, B. G. Janesko, R. Gomperts, B. Mennucci, H. P. Hratchian, 
 J. V. Ortiz, A. F. Izmaylov, J. L. Sonnenberg, D. Williams-Young, 
 F. Ding, F. Lipparini, F. Egidi, J. Goings, B. Peng, A. Petrone, 
 T. Henderson, D. Ranasinghe, V. G. Zakrzewski, J. Gao, N. Rega, 
 G. Zheng, W. Liang, M. Hada, M. Ehara, K. Toyota, R. Fukuda, 
 J. Hasegawa, M. Ishida, T. Nakajima, Y. Honda, O. Kitao, H. Nakai, 
 T. Vreven, K. Throssell, J. A. Montgomery, Jr., J. E. Peralta, 
 F. Ogliaro, M. J. Bearpark, J. J. Heyd, E. N. Brothers, K. N. Kudin, 
 V. N. Staroverov, T. A. Keith, R. Kobayashi, J. Normand, 
 K. Raghavachari, A. P. Rendell, J. C. Burant, S. S. Iyengar, 
 J. Tomasi, M. Cossi, J. M. Millam, M. Klene, C. Adamo, R. Cammi, 
 J. W. Ochterski, R. L. Martin, K. Morokuma, O. Farkas, 
 J. B. Foresman, and D. J. Fox, Gaussian, Inc., Wallingford CT, 2019.
 
 ******************************************
 Gaussian 16:  ES64L-G16RevC.01  3-Jul-2019
                28-Mar-2022 
 ******************************************
 %chk=molecule
 Default route: CacheSize=180224 MaxDisk=256GB
 ----------------------------------------------------------------------
 #P CCSD(MaxCyc=200,SaveAmplitudes,ReadAmplitudes)/GEN sp pop=AllOrbita
 ls iop(3/33=1,3/36=-1)
 ----------------------------------------------------------------------
 1/4=180224,38=1,172=1/1;
 2/4=180224,12=2,17=6,18=5,40=1/2;
 3/4=180224,5=7,11=9,25=1,30=1,33=1,36=-1/1,2,3;
 4/4=180224/1;
 5/4=180224,5=2,38=5/2;
 8/4=180224,6=4,9=120000,10=1,24=1/1,4;
 9/4=180224,5=7,6=200,77=1/13;
 6/4=180224,7=2,8=2,9=2,10=2,96=-1/1;
 99/4=180224,5=1,9=1/99;
 Leave Link    1 at Mon Mar 28 14:24:24 2022, MaxMem=           0 cpu:               2.1 elap:               0.1
 (Enter /nopt/nrel/apps/gaussian/g16C_1/g16/l101.exe)
 ----
 test
 ----
 Symbolic Z-matrix:
 Charge =  0 Multiplicity = 3
 H                     0.        0.        0. 
 Na                    0.        0.        0.9 
 
 ITRead=  0  0
 MicOpt= -1 -1
 NAtoms=      2 NQM=        2 NQMF=       0 NMMI=      0 NMMIF=      0
                NMic=       0 NMicF=      0.
                    Isotopes and Nuclear Properties:
 (Nuclear quadrupole moments (NQMom) in fm**2, nuclear magnetic moments (NMagM)
  in nuclear magnetons)

  Atom         1           2
 IAtWgt=           1          23
 AtmWgt=   1.0078250  22.9897697
 NucSpn=           1           3
 AtZEff=  -0.0000000  -0.0000000
 NQMom=    0.0000000  10.4000000
 NMagM=    2.7928460   2.2175200
 AtZNuc=   1.0000000  11.0000000
 Leave Link  101 at Mon Mar 28 14:24:24 2022, MaxMem=  9663676416 cpu:               3.2 elap:               0.1
 (Enter /nopt/nrel/apps/gaussian/g16C_1/g16/l202.exe)
                          Input orientation:                          
 ---------------------------------------------------------------------
 Center     Atomic      Atomic             Coordinates (Angstroms)
 Number     Number       Type             X           Y           Z
 ---------------------------------------------------------------------
      1          1           0        0.000000    0.000000    0.000000
      2         11           0        0.000000    0.000000    0.900000
 ---------------------------------------------------------------------
 Stoichiometry    HNa(3)
 Framework group  C*V[C*(HNa)]
 Deg. of freedom     1
 Full point group                 C*V     NOp   4
 Largest Abelian subgroup         C2V     NOp   4
 Largest concise Abelian subgroup C1      NOp   1
                         Standard orientation:                         
 ---------------------------------------------------------------------
 Center     Atomic      Atomic             Coordinates (Angstroms)
 Number     Number       Type             X           Y           Z
 ---------------------------------------------------------------------
      1          1           0        0.000000    0.000000   -0.825000
      2         11           0        0.000000    0.000000    0.075000
 ---------------------------------------------------------------------
 Rotational constants (GHZ):           0.0000000         646.2196083         646.2196083
 Leave Link  202 at Mon Mar 28 14:24:24 2022, MaxMem=  9663676416 cpu:               0.5 elap:               0.0
 (Enter /nopt/nrel/apps/gaussian/g16C_1/g16/l301.exe)
 General basis read from cards:  (5D, 7F)
                         Coordinates in L301:                         
 ---------------------------------------------------------------------
 Center     Atomic      Atomic             Coordinates (Angstroms)
 Number     Number       Type             X           Y           Z
 ---------------------------------------------------------------------
      1          1           0        0.000000    0.000000   -0.825000
      2         11           0        0.000000    0.000000    0.075000
 ---------------------------------------------------------------------
 Centers:       1
 STO-3G
 ****
 Centers:       2
 3-21G
 ****
 FixB: optimizing general contractions.
 Ernie: Thresh=  0.10000D-02 Tol=  0.10000D-05 Strict=F.
 IA=     1 ShT= 0 ShC= 0 NL=   1 NS=   0.
 IA=     1 L=0 SC=0 ISt=    0 NBk=    0 NP=    0 IndPr=    0.
 IA=     2 ShT= 0 ShC= 0 NL=   1 NS=   0.
 IA=     2 L=0 SC=0 ISt=    0 NBk=    0 NP=    0 IndPr=    0.
 IA=     2 ShT= 1 ShC= 0 NL=   3 NS=   1.
 IA=     2 L=1 SC=0 ISt=    1 NBk=    2 NP=    5 IndPr=    0.
 DoElim1:  L=1 select primitive    1 from    2 using    1 C=-1.12D-01
 DoElim2:  L=1 select primitive    5 from    1 using    2 C= 1.09D+00
 DoElim1:  L=1 select primitive    1 from    2 using    1 C= 1.28D-01
 DoElim2:  L=1 select primitive    5 from    1 using    2 C= 9.97D-01
 Delete L=1 primitive    3 from    2 C=  0.00D+00.
 Delete L=1 primitive    2 from    2 C=  0.00D+00.
 Delete L=1 primitive    1 from    2 C=  0.00D+00.
 Delete L=1 primitive    5 from    1 C=  0.00D+00.
 Delete L=1 primitive    4 from    1 C=  0.00D+00.
 IA=     2 L=1 SC=0 ISt=    0 NBk=    0 NP=    0 IndPr=    5.
 LdAtmC:  AtmChg=     1.000000    11.000000
 AtZEff=     -1.0000000    -10.0400000
 NEqShl: 
              1            2            3            4
     1            1            1            1            1
     2            2            2            2            2
     3            3            3            3            3
     4            4            4            4            4
     5            5            5            5            5
 NEqBas: 
              1            2            3            4
     1            1            1            1            1
     2            2            2            2            2
     3            3            3            3            3
     4            4           -4           -4            4
     5            5           -5            5           -5
     6            6            6            6            6
     7            7            7            7            7
     8            8           -8           -8            8
     9            9           -9            9           -9
    10           10           10           10           10
    11           11           11           11           11
    12           12          -12          -12           12
    13           13          -13           13          -13
    14           14           14           14           14
 There are     8 symmetry adapted cartesian basis functions of A1  symmetry.
   1         1   1   1   1
   2         2   2   2   2
   3         3   3   3   3
   4         6   6   6   6
   5         7   7   7   7
   6        10  10  10  10
   7        11  11  11  11
   8        14  14  14  14
 There are     0 symmetry adapted cartesian basis functions of A2  symmetry.
 There are     3 symmetry adapted cartesian basis functions of B1  symmetry.
   9         4   4   4   4
  10         8   8   8   8
  11        12  12  12  12
 There are     3 symmetry adapted cartesian basis functions of B2  symmetry.
  12         5   5   5   5
  13         9   9   9   9
  14        13  13  13  13
 Order= 1 2 4 3
 Reordered character table:
              1            2            3            4            5
     1            1            1            1            1            1
     2            2            1            1           -1           -1
     3            4            1           -1           -1            1
     4            3            1           -1            1           -1
 NEqShl: 
              1            2            3            4
     1            1            1            1            1
     2            2            2            2            2
     3            3            3            3            3
     4            4            4            4            4
     5            5            5            5            5
 NEqBas: 
              1            2            3            4
     1            1            1            1            1
     2            2            2            2            2
     3            3            3            3            3
     4            4           -4           -4            4
     5            5           -5            5           -5
     6            6            6            6            6
     7            7            7            7            7
     8            8           -8           -8            8
     9            9           -9            9           -9
    10           10           10           10           10
    11           11           11           11           11
    12           12          -12          -12           12
    13           13          -13           13          -13
    14           14           14           14           14
 There are     8 symmetry adapted basis functions of A1  symmetry.
   1         1   1   1   1
   2         2   2   2   2
   3         3   3   3   3
   4         6   6   6   6
   5         7   7   7   7
   6        10  10  10  10
   7        11  11  11  11
   8        14  14  14  14
 There are     0 symmetry adapted basis functions of A2  symmetry.
 There are     3 symmetry adapted basis functions of B1  symmetry.
   9         4   4   4   4
  10         8   8   8   8
  11        12  12  12  12
 There are     3 symmetry adapted basis functions of B2  symmetry.
  12         5   5   5   5
  13         9   9   9   9
  14        13  13  13  13
 Order= 1 2 4 3
 Reordered character table:
              1            2            3            4            5
     1            1            1            1            1            1
     2            2            1            1           -1           -1
     3            4            1           -1           -1            1
     4            3            1           -1            1           -1
    14 basis functions,    30 primitive gaussians,    14 cartesian basis functions
     7 alpha electrons        5 beta electrons
       nuclear repulsion energy         6.4677214668 Hartrees.
 IS=     1 IAt=     1 ISR=     1 T=0 IP=      1 IndIP=      1 IndIPD=      0 C=  2.769344D-01  0.000000D+00                             NZ=T
 IS=     1 IAt=     1 ISR=     1 T=0 IP=      2 IndIP=      2 IndIPD=      1 C=  2.678389D-01  0.000000D+00                             NZ=T
 IS=     1 IAt=     1 ISR=     1 T=0 IP=      3 IndIP=      3 IndIPD=      2 C=  8.347367D-02  0.000000D+00                             NZ=T
 IS=     2 IAt=     2 ISR=     1 T=0 IP=      1 IndIP=      4 IndIPD=      0 C=  5.445177D+00  0.000000D+00                             NZ=T
 IS=     2 IAt=     2 ISR=     1 T=0 IP=      2 IndIP=      5 IndIPD=      1 C=  7.646982D+00  0.000000D+00                             NZ=T
 IS=     2 IAt=     2 ISR=     1 T=0 IP=      3 IndIP=      6 IndIPD=      2 C=  4.092173D+00  0.000000D+00                             NZ=T
 IS=     3 IAt=     2 ISR=     2 T=1 IP=      1 IndIP=      7 IndIPD=      0 C= -6.837842D-01  6.561431D+00                             NZ=T
 IS=     3 IAt=     2 ISR=     2 T=1 IP=      2 IndIP=      8 IndIPD=      1 C=  4.933805D-01  3.558943D+00                             NZ=T
 IS=     3 IAt=     2 ISR=     2 T=1 IP=      3 IndIP=      9 IndIPD=      2 C=  5.590773D-01  7.618119D-01                             NZ=T
 IS=     4 IAt=     2 ISR=     3 T=1 IP=      1 IndIP=     10 IndIPD=      0 C= -9.334168D-02  5.458439D-03                             NZ=T
 IS=     4 IAt=     2 ISR=     3 T=1 IP=      2 IndIP=     11 IndIPD=      1 C=  9.521265D-02  4.304303D-02                             NZ=T
 IS=     5 IAt=     2 ISR=     4 T=1 IP=      1 IndIP=     12 IndIPD=      0 C=  4.404717D-02  1.377061D-02                             NZ=T
 IExCor=    0 DFT=F Ex=HF Corr=None ExCW=0 ScaHFX=  1.000000
 ScaDFX=  1.000000  1.000000  1.000000  1.000000 ScalE2=  1.000000  1.000000
 IRadAn=      5 IRanWt=     -1 IRanGd=            0 ICorTp=0 IEmpDi=  4
 NAtoms=    2 NActive=    2 NUniq=    2 SFac= 1.00D+00 NAtFMM=   60 NAOKFM=F Big=F
 Integral buffers will be    131072 words long.
 Raffenetti 2 integral format.
 Two-electron integral symmetry is turned on.
 Leave Link  301 at Mon Mar 28 14:24:24 2022, MaxMem=  9663676416 cpu:               2.2 elap:               0.1
 (Enter /nopt/nrel/apps/gaussian/g16C_1/g16/l302.exe)
 NPDir=0 NMtPBC=     1 NCelOv=     1 NCel=       1 NClECP=     1 NCelD=      1
         NCelK=      1 NCelE2=     1 NClLst=     1 CellRange=     0.0.
 One-electron integrals computed using PRISM.
 One-electron integral symmetry used in STVInt
 Entering OneElI...
 Calculate overlap and kinetic energy integrals
    NBasis =  14  MinDer = 0  MaxDer = 0
 Requested accuracy = 0.1000D-12
 Symmetry will be used
 PrmmSu-InSpLW:  IPartL=    0 NPrtUS=   36 NPrtUL=    1 DoSpLW=F IThBeg=    0 IThEnd=   35 NThAct=   36.
 PrSmSu:  IncTry=   512 NBBP=             15 NTPThr=   100 NPartT=   36 Incr=           1 LDynOK=F GPUOK=F.
 PrsmSu:  NPrtUS=  36 ThrOK=T IAlg=1 LenDen=           0 ISkipM=0 DoSpLW=F IThBeg=    0 IThEnd=   35.
 Prism:   IPart=     0 DynPar=F LinDyn=F Incr=           1.
 PRISM was handed   268433825 working-precision words and    15 shell-pairs
 PRISM was handed   268433825 working-precision words and    15 shell-pairs
 PRISM was handed   268433825 working-precision words and    15 shell-pairs
 PRISM was handed   268433825 working-precision words and    15 shell-pairs
 PRISM was handed   268433825 working-precision words and    15 shell-pairs
 PRISM was handed   268433825 working-precision words and    15 shell-pairs
 PRISM was handed   268433825 working-precision words and    15 shell-pairs
 PRISM was handed   268433825 working-precision words and    15 shell-pairs
 PRISM was handed   268433825 working-precision words and    15 shell-pairs
 PRISM was handed   268433825 working-precision words and    15 shell-pairs
 PRISM was handed   268433825 working-precision words and    15 shell-pairs
 PRISM was handed   268433825 working-precision words and    15 shell-pairs
 PRISM was handed   268433825 working-precision words and    15 shell-pairs
 PRISM was handed   268433825 working-precision words and    15 shell-pairs
 IPart= 13 NShTot=           0 NBatch=           0 AvBLen=         0.0
 IPart= 21 NShTot=           0 NBatch=           0 AvBLen=         0.0
 IPart= 32 NShTot=           0 NBatch=           0 AvBLen=         0.0
 IPart= 12 NShTot=           0 NBatch=           0 AvBLen=         0.0
 IPart= 16 NShTot=           0 NBatch=           0 AvBLen=         0.0
 IPart= 14 NShTot=           0 NBatch=           0 AvBLen=         0.0
 IPart=  9 NShTot=           0 NBatch=           0 AvBLen=         0.0
 IPart= 18 NShTot=           0 NBatch=           0 AvBLen=         0.0
 IPart=  7 NShTot=           0 NBatch=           0 AvBLen=         0.0
 IPart=  6 NShTot=           0 NBatch=           0 AvBLen=         0.0
 PRISM was handed   268433825 working-precision words and    15 shell-pairs
 IPart= 28 NShTot=           0 NBatch=           0 AvBLen=         0.0
 PRISM was handed   268433825 working-precision words and    15 shell-pairs
 IPart= 24 NShTot=           0 NBatch=           0 AvBLen=         0.0
 PRISM was handed   268433825 working-precision words and    15 shell-pairs
 PRISM was handed   268433825 working-precision words and    15 shell-pairs
 PRISM was handed   268433825 working-precision words and    15 shell-pairs
 PRISM was handed   268433825 working-precision words and    15 shell-pairs
 IPart=  2 NShTot=           1 NBatch=           1 AvBLen=         1.0
 IPart= 15 NShTot=           0 NBatch=           0 AvBLen=         0.0
 IPart= 27 NShTot=           0 NBatch=           0 AvBLen=         0.0
 IPart= 17 NShTot=           0 NBatch=           0 AvBLen=         0.0
 IPart=  4 NShTot=           0 NBatch=           0 AvBLen=         0.0
 IPart=  5 NShTot=           0 NBatch=           0 AvBLen=         0.0
 IPart= 10 NShTot=           0 NBatch=           0 AvBLen=         0.0
 PRISM was handed   268433825 working-precision words and    15 shell-pairs
 PRISM was handed   268433825 working-precision words and    15 shell-pairs
 PRISM was handed   268433825 working-precision words and    15 shell-pairs
 PRISM was handed   268433825 working-precision words and    15 shell-pairs
 PRISM was handed   268433825 working-precision words and    15 shell-pairs
 PRISM was handed   268433825 working-precision words and    15 shell-pairs
 IPart= 29 NShTot=           0 NBatch=           0 AvBLen=         0.0
 IPart= 34 NShTot=           0 NBatch=           0 AvBLen=         0.0
 IPart= 11 NShTot=           0 NBatch=           0 AvBLen=         0.0
 IPart= 25 NShTot=           0 NBatch=           0 AvBLen=         0.0
 IPart= 23 NShTot=           0 NBatch=           0 AvBLen=         0.0
 PRISM was handed   268433825 working-precision words and    15 shell-pairs
 PRISM was handed   268433825 working-precision words and    15 shell-pairs
 PRISM was handed   268433825 working-precision words and    15 shell-pairs
 PRISM was handed   268433825 working-precision words and    15 shell-pairs
 IPart= 19 NShTot=           0 NBatch=           0 AvBLen=         0.0
 IPart= 20 NShTot=           0 NBatch=           0 AvBLen=         0.0
 IPart= 22 NShTot=           0 NBatch=           0 AvBLen=         0.0
 PRISM was handed   268433825 working-precision words and    15 shell-pairs
 IPart= 31 NShTot=           0 NBatch=           0 AvBLen=         0.0
 PRISM was handed   268433825 working-precision words and    15 shell-pairs
 IPart= 35 NShTot=           0 NBatch=           0 AvBLen=         0.0
 PRISM was handed   268433825 working-precision words and    15 shell-pairs
 PRISM was handed   268433825 working-precision words and    15 shell-pairs
 PRISM was handed   268433825 working-precision words and    15 shell-pairs
 PRISM was handed   268433825 working-precision words and    15 shell-pairs
 IPart=  0 NShTot=          10 NBatch=          10 AvBLen=         1.0
 IPart= 30 NShTot=           0 NBatch=           0 AvBLen=         0.0
 IPart=  3 NShTot=           0 NBatch=           0 AvBLen=         0.0
 IPart= 26 NShTot=           0 NBatch=           0 AvBLen=         0.0
 IPart=  8 NShTot=           0 NBatch=           0 AvBLen=         0.0
 IPart= 33 NShTot=           0 NBatch=           0 AvBLen=         0.0
 IPart=  1 NShTot=           4 NBatch=           4 AvBLen=         1.0
 PrSmSu:  NxtVal=             37.
 *** Overlap *** 
                1             2             3             4             5 
      1  0.100000D+01
      2  0.348553D-01  0.100000D+01
      3  0.347970D+00  0.226762D+00  0.100000D+01
      4  0.000000D+00  0.000000D+00  0.000000D+00  0.100000D+01
      5  0.000000D+00  0.000000D+00  0.000000D+00  0.000000D+00  0.100000D+01
      6 -0.262742D+00  0.000000D+00  0.000000D+00  0.000000D+00  0.000000D+00
      7  0.473109D+00  0.175172D-02  0.143132D+00  0.000000D+00  0.000000D+00
      8  0.000000D+00  0.000000D+00  0.000000D+00  0.120813D+00  0.000000D+00
      9  0.000000D+00  0.000000D+00  0.000000D+00  0.000000D+00  0.120813D+00
     10 -0.367872D+00  0.000000D+00  0.000000D+00  0.000000D+00  0.000000D+00
     11  0.353941D+00  0.160858D-01  0.166618D+00  0.000000D+00  0.000000D+00
     12  0.000000D+00  0.000000D+00  0.000000D+00  0.399192D-01  0.000000D+00
     13  0.000000D+00  0.000000D+00  0.000000D+00  0.000000D+00  0.399192D-01
     14 -0.170577D+00  0.000000D+00  0.000000D+00  0.000000D+00  0.000000D+00
                6             7             8             9            10 
      6  0.100000D+01
      7  0.000000D+00  0.100000D+01
      8  0.000000D+00  0.000000D+00  0.100000D+01
      9  0.000000D+00  0.000000D+00  0.000000D+00  0.100000D+01
     10  0.120813D+00  0.000000D+00  0.000000D+00  0.000000D+00  0.100000D+01
     11  0.000000D+00  0.876080D+00  0.000000D+00  0.000000D+00  0.000000D+00
     12  0.000000D+00  0.000000D+00  0.775774D+00  0.000000D+00  0.000000D+00
     13  0.000000D+00  0.000000D+00  0.000000D+00  0.775774D+00  0.000000D+00
     14  0.399192D-01  0.000000D+00  0.000000D+00  0.000000D+00  0.775774D+00
               11            12            13            14 
     11  0.100000D+01
     12  0.000000D+00  0.100000D+01
     13  0.000000D+00  0.000000D+00  0.100000D+01
     14  0.000000D+00  0.000000D+00  0.000000D+00  0.100000D+01
 *** Kinetic Energy *** 
                1             2             3             4             5 
      1  0.760032D+00
      2  0.685431D-03  0.570648D+02
      3  0.883325D-01 -0.145971D+01  0.183414D+01
      4  0.000000D+00  0.000000D+00  0.000000D+00  0.585712D+01
      5  0.000000D+00  0.000000D+00  0.000000D+00  0.000000D+00  0.585712D+01
      6 -0.222970D+00  0.000000D+00  0.000000D+00  0.000000D+00  0.000000D+00
      7  0.411189D-01 -0.420609D-01 -0.141303D+00  0.000000D+00  0.000000D+00
      8  0.000000D+00  0.000000D+00  0.000000D+00  0.441422D-01  0.000000D+00
      9  0.000000D+00  0.000000D+00  0.000000D+00  0.000000D+00  0.441422D-01
     10 -0.890894D-01  0.000000D+00  0.000000D+00  0.000000D+00  0.000000D+00
     11  0.225100D-01  0.117775D-02  0.119127D-01  0.000000D+00  0.000000D+00
     12  0.000000D+00  0.000000D+00  0.000000D+00  0.476129D-02  0.000000D+00
     13  0.000000D+00  0.000000D+00  0.000000D+00  0.000000D+00  0.476129D-02
     14 -0.184463D-01  0.000000D+00  0.000000D+00  0.000000D+00  0.000000D+00
                6             7             8             9            10 
      6  0.585712D+01
      7  0.000000D+00  0.106538D+00
      8  0.000000D+00  0.000000D+00  0.153112D+00
      9  0.000000D+00  0.000000D+00  0.000000D+00  0.153112D+00
     10  0.441422D-01  0.000000D+00  0.000000D+00  0.000000D+00  0.153112D+00
     11  0.000000D+00  0.447876D-01  0.000000D+00  0.000000D+00  0.000000D+00
     12  0.000000D+00  0.000000D+00  0.676855D-01  0.000000D+00  0.000000D+00
     13  0.000000D+00  0.000000D+00  0.000000D+00  0.676855D-01  0.000000D+00
     14  0.476129D-02  0.000000D+00  0.000000D+00  0.000000D+00  0.676855D-01
               11            12            13            14 
     11  0.366524D-01
     12  0.000000D+00  0.610873D-01
     13  0.000000D+00  0.000000D+00  0.610873D-01
     14  0.000000D+00  0.000000D+00  0.000000D+00  0.610873D-01
 Entering OneElI...
 Calculate potential energy integrals
    NBasis =  14  MinDer = 0  MaxDer = 0
 Requested accuracy = 0.1000D-12
 Symmetry will be used
 PrmmSu-InSpLW:  IPartL=    0 NPrtUS=   36 NPrtUL=    1 DoSpLW=F IThBeg=    0 IThEnd=   35 NThAct=   36.
 PrSmSu:  IncTry=   512 NBBP=             30 NTPThr=   100 NPartT=   36 Incr=           1 LDynOK=F GPUOK=F.
 PrsmSu:  NPrtUS=  36 ThrOK=T IAlg=1 LenDen=           0 ISkipM=0 DoSpLW=F IThBeg=    0 IThEnd=   35.
 Prism:   IPart=     0 DynPar=F LinDyn=F Incr=           1.
 PRISM was handed   268433915 working-precision words and    15 shell-pairs
 PRISM was handed   268433915 working-precision words and    15 shell-pairs
 PRISM was handed   268433915 working-precision words and    15 shell-pairs
 PRISM was handed   268433915 working-precision words and    15 shell-pairs
 PRISM was handed   268433915 working-precision words and    15 shell-pairs
 PRISM was handed   268433915 working-precision words and    15 shell-pairs
 PRISM was handed   268433915 working-precision words and    15 shell-pairs
 PRISM was handed   268433915 working-precision words and    15 shell-pairs
 PRISM was handed   268433915 working-precision words and    15 shell-pairs
 PRISM was handed   268433915 working-precision words and    15 shell-pairs
 PRISM was handed   268433915 working-precision words and    15 shell-pairs
 PRISM was handed   268433915 working-precision words and    15 shell-pairs
 PRISM was handed   268433915 working-precision words and    15 shell-pairs
 PRISM was handed   268433915 working-precision words and    15 shell-pairs
 PRISM was handed   268433915 working-precision words and    15 shell-pairs
 PRISM was handed   268433915 working-precision words and    15 shell-pairs
 PRISM was handed   268433915 working-precision words and    15 shell-pairs
 PRISM was handed   268433915 working-precision words and    15 shell-pairs
 PRISM was handed   268433915 working-precision words and    15 shell-pairs
 PRISM was handed   268433915 working-precision words and    15 shell-pairs
 PRISM was handed   268433915 working-precision words and    15 shell-pairs
 PRISM was handed   268433915 working-precision words and    15 shell-pairs
 PRISM was handed   268433915 working-precision words and    15 shell-pairs
 PRISM was handed   268433915 working-precision words and    15 shell-pairs
 PRISM was handed   268433915 working-precision words and    15 shell-pairs
 PRISM was handed   268433915 working-precision words and    15 shell-pairs
 PRISM was handed   268433915 working-precision words and    15 shell-pairs
 PRISM was handed   268433915 working-precision words and    15 shell-pairs
 PRISM was handed   268433915 working-precision words and    15 shell-pairs
 PRISM was handed   268433915 working-precision words and    15 shell-pairs
 PRISM was handed   268433915 working-precision words and    15 shell-pairs
 PRISM was handed   268433915 working-precision words and    15 shell-pairs
 PRISM was handed   268433915 working-precision words and    15 shell-pairs
 PRISM was handed   268433915 working-precision words and    15 shell-pairs
 PRISM was handed   268433915 working-precision words and    15 shell-pairs
 PRISM was handed   268433915 working-precision words and    15 shell-pairs
 IPart= 27 NShTot=           0 NBatch=           0 AvBLen=         0.0
 IPart= 30 NShTot=           0 NBatch=           0 AvBLen=         0.0
 IPart= 23 NShTot=           0 NBatch=           0 AvBLen=         0.0
 IPart= 24 NShTot=           0 NBatch=           0 AvBLen=         0.0
 IPart= 16 NShTot=           0 NBatch=           0 AvBLen=         0.0
 IPart= 29 NShTot=           0 NBatch=           0 AvBLen=         0.0
 IPart= 26 NShTot=           0 NBatch=           0 AvBLen=         0.0
 IPart= 21 NShTot=           0 NBatch=           0 AvBLen=         0.0
 IPart= 14 NShTot=           0 NBatch=           0 AvBLen=         0.0
 IPart=  9 NShTot=           0 NBatch=           0 AvBLen=         0.0
 IPart= 11 NShTot=           0 NBatch=           0 AvBLen=         0.0
 IPart=  7 NShTot=           0 NBatch=           0 AvBLen=         0.0
 IPart=  8 NShTot=           0 NBatch=           0 AvBLen=         0.0
 IPart= 25 NShTot=           0 NBatch=           0 AvBLen=         0.0
 IPart= 33 NShTot=           0 NBatch=           0 AvBLen=         0.0
 IPart=  6 NShTot=           0 NBatch=           0 AvBLen=         0.0
 IPart= 15 NShTot=           0 NBatch=           0 AvBLen=         0.0
 IPart= 18 NShTot=           0 NBatch=           0 AvBLen=         0.0
 IPart= 19 NShTot=           0 NBatch=           0 AvBLen=         0.0
 IPart= 28 NShTot=           0 NBatch=           0 AvBLen=         0.0
 IPart=  5 NShTot=           0 NBatch=           0 AvBLen=         0.0
 IPart= 32 NShTot=           0 NBatch=           0 AvBLen=         0.0
 IPart= 22 NShTot=           0 NBatch=           0 AvBLen=         0.0
 IPart=  3 NShTot=           0 NBatch=           0 AvBLen=         0.0
 IPart= 17 NShTot=           0 NBatch=           0 AvBLen=         0.0
 IPart= 31 NShTot=           0 NBatch=           0 AvBLen=         0.0
 IPart= 35 NShTot=           0 NBatch=           0 AvBLen=         0.0
 IPart= 20 NShTot=           0 NBatch=           0 AvBLen=         0.0
 IPart= 34 NShTot=           0 NBatch=           0 AvBLen=         0.0
 IPart= 10 NShTot=           0 NBatch=           0 AvBLen=         0.0
 IPart=  4 NShTot=           0 NBatch=           0 AvBLen=         0.0
 IPart= 13 NShTot=           0 NBatch=           0 AvBLen=         0.0
 IPart= 12 NShTot=           0 NBatch=           0 AvBLen=         0.0
 IPart=  1 NShTot=           8 NBatch=           4 AvBLen=         2.0
 IPart=  2 NShTot=           2 NBatch=           1 AvBLen=         2.0
 IPart=  0 NShTot=          20 NBatch=          10 AvBLen=         2.0
 PrSmSu:  NxtVal=             37.
 ***** Potential Energy ***** 
                1             2             3             4             5 
      1  0.740005D+01
      2  0.222331D+01  0.117742D+03
      3  0.477856D+01  0.128760D+02  0.187037D+02
      4  0.000000D+00  0.000000D+00  0.000000D+00  0.191945D+02
      5  0.000000D+00  0.000000D+00  0.000000D+00  0.000000D+00  0.191945D+02
      6 -0.296985D+01 -0.130386D-01 -0.151306D+00  0.000000D+00  0.000000D+00
      7  0.264801D+01  0.834588D-01  0.141340D+01  0.000000D+00  0.000000D+00
      8  0.000000D+00  0.000000D+00  0.000000D+00  0.120100D+01  0.000000D+00
      9  0.000000D+00  0.000000D+00  0.000000D+00  0.000000D+00  0.120100D+01
     10 -0.193665D+01 -0.148772D-03 -0.237562D-01  0.000000D+00  0.000000D+00
     11  0.212528D+01  0.102650D+01  0.219939D+01  0.000000D+00  0.000000D+00
     12  0.000000D+00  0.000000D+00  0.000000D+00  0.382766D+00  0.000000D+00
     13  0.000000D+00  0.000000D+00  0.000000D+00  0.000000D+00  0.382766D+00
     14 -0.806340D+00 -0.427282D-04 -0.779494D-02  0.000000D+00  0.000000D+00
                6             7             8             9            10 
      6  0.192828D+02
      7 -0.407882D-01  0.387496D+01
      8  0.000000D+00  0.000000D+00  0.315415D+01
      9  0.000000D+00  0.000000D+00  0.000000D+00  0.315415D+01
     10  0.122357D+01 -0.877626D-01  0.000000D+00  0.000000D+00  0.319825D+01
     11 -0.385154D-01  0.310751D+01  0.000000D+00  0.000000D+00 -0.690559D-01
     12  0.000000D+00  0.000000D+00  0.204222D+01  0.000000D+00  0.000000D+00
     13  0.000000D+00  0.000000D+00  0.000000D+00  0.204222D+01  0.000000D+00
     14  0.390353D+00 -0.434776D-01  0.000000D+00  0.000000D+00  0.206358D+01
               11            12            13            14 
     11  0.298207D+01
     12  0.000000D+00  0.199100D+01
     13  0.000000D+00  0.000000D+00  0.199100D+01
     14 -0.406438D-01  0.000000D+00  0.000000D+00  0.200376D+01
 ****** Core Hamiltonian ****** 
                1             2             3             4             5 
      1 -0.664002D+01
      2 -0.222263D+01 -0.606775D+02
      3 -0.469023D+01 -0.143358D+02 -0.168696D+02
      4  0.000000D+00  0.000000D+00  0.000000D+00 -0.133374D+02
      5  0.000000D+00  0.000000D+00  0.000000D+00  0.000000D+00 -0.133374D+02
      6  0.274688D+01  0.130386D-01  0.151306D+00  0.000000D+00  0.000000D+00
      7 -0.260689D+01 -0.125520D+00 -0.155470D+01  0.000000D+00  0.000000D+00
      8  0.000000D+00  0.000000D+00  0.000000D+00 -0.115685D+01  0.000000D+00
      9  0.000000D+00  0.000000D+00  0.000000D+00  0.000000D+00 -0.115685D+01
     10  0.184756D+01  0.148772D-03  0.237562D-01  0.000000D+00  0.000000D+00
     11 -0.210277D+01 -0.102533D+01 -0.218748D+01  0.000000D+00  0.000000D+00
     12  0.000000D+00  0.000000D+00  0.000000D+00 -0.378004D+00  0.000000D+00
     13  0.000000D+00  0.000000D+00  0.000000D+00  0.000000D+00 -0.378004D+00
     14  0.787894D+00  0.427282D-04  0.779494D-02  0.000000D+00  0.000000D+00
                6             7             8             9            10 
      6 -0.134257D+02
      7  0.407882D-01 -0.376842D+01
      8  0.000000D+00  0.000000D+00 -0.300104D+01
      9  0.000000D+00  0.000000D+00  0.000000D+00 -0.300104D+01
     10 -0.117943D+01  0.877626D-01  0.000000D+00  0.000000D+00 -0.304514D+01
     11  0.385154D-01 -0.306273D+01  0.000000D+00  0.000000D+00  0.690559D-01
     12  0.000000D+00  0.000000D+00 -0.197453D+01  0.000000D+00  0.000000D+00
     13  0.000000D+00  0.000000D+00  0.000000D+00 -0.197453D+01  0.000000D+00
     14 -0.385591D+00  0.434776D-01  0.000000D+00  0.000000D+00 -0.199590D+01
               11            12            13            14 
     11 -0.294542D+01
     12  0.000000D+00 -0.192991D+01
     13  0.000000D+00  0.000000D+00 -0.192991D+01
     14  0.406438D-01  0.000000D+00  0.000000D+00 -0.194267D+01
 SVDSVc IOpt=   1 NormSV=T IR=1
 SVDSVc V= 2.36D+00 1.83D+00 1.21D+00 1.05D+00 7.93D-01 4.70D-01 1.88D-01 1.00D-01
 SVDSVc IOpt=   1 NormSV=T IR=3
 SVDSVc V= 1.79D+00 9.88D-01 2.20D-01
 SVDSVc IOpt=   1 NormSV=T IR=4
 SVDSVc V= 1.79D+00 9.88D-01 2.20D-01
 TstOVc:  Largest diagonal error= 2.00D-15 IB=1 I=    2.
 TstOVc:  Largest same sym error= 1.23D-15 IB=1 I=    8 J=    7.
 TstOVc:  Largest diff sym error= 0.00D+00 IB=0 JB=0 I=    0 J=    0.
 Orthogonalized basis functions: 
                 1             2             3             4             5 
      1   0.330318D+00 -0.561048D-01  0.129040D+00 -0.249996D+00 -0.270038D+00
      2   0.405248D-01  0.229892D-01  0.614047D+00  0.254235D+00  0.754390D+00
      3   0.166966D+00  0.733624D-01  0.560638D+00  0.838596D-01 -0.662552D+00
      4   0.000000D+00  0.000000D+00  0.000000D+00  0.000000D+00  0.000000D+00
      5   0.000000D+00  0.000000D+00  0.000000D+00  0.000000D+00  0.000000D+00
      6  -0.838991D-01  0.106222D+00 -0.110379D+00  0.846212D+00 -0.315299D+00
      7   0.342260D+00  0.239553D+00 -0.221110D+00  0.874241D-01  0.171191D+00
      8   0.000000D+00  0.000000D+00  0.000000D+00  0.000000D+00  0.000000D+00
      9   0.000000D+00  0.000000D+00  0.000000D+00  0.000000D+00  0.000000D+00
     10  -0.179785D+00  0.458549D+00  0.593491D-01 -0.114809D+00 -0.238049D-01
     11   0.326690D+00  0.244681D+00 -0.215031D+00  0.125694D+00  0.212174D+00
     12   0.000000D+00  0.000000D+00  0.000000D+00  0.000000D+00  0.000000D+00
     13   0.000000D+00  0.000000D+00  0.000000D+00  0.000000D+00  0.000000D+00
     14  -0.146139D+00  0.446289D+00  0.943006D-01 -0.257593D+00 -0.726065D-01
                 6             7             8             9            10 
      1   0.100923D+01  0.540702D+00 -0.767849D+00  0.000000D+00  0.000000D+00
      2   0.206462D+00  0.399221D-01 -0.165658D-01  0.000000D+00  0.000000D+00
      3  -0.607435D+00 -0.183477D+00  0.302665D+00  0.000000D+00  0.000000D+00
      4   0.000000D+00  0.000000D+00  0.000000D+00  0.106366D+00  0.993078D+00
      5   0.000000D+00  0.000000D+00  0.000000D+00  0.000000D+00  0.000000D+00
      6   0.495867D+00  0.951998D-02 -0.153076D+00  0.000000D+00  0.000000D+00
      7  -0.411526D-01  0.412500D+00  0.222326D+01  0.000000D+00  0.000000D+00
      8   0.000000D+00  0.000000D+00  0.000000D+00  0.525558D+00 -0.486986D-01
      9   0.000000D+00  0.000000D+00  0.000000D+00  0.000000D+00  0.000000D+00
     10  -0.145843D+00  0.157065D+01 -0.676691D+00  0.000000D+00  0.000000D+00
     11  -0.421290D+00 -0.644223D+00 -0.191830D+01  0.000000D+00  0.000000D+00
     12   0.000000D+00  0.000000D+00  0.000000D+00  0.520070D+00 -0.153894D+00
     13   0.000000D+00  0.000000D+00  0.000000D+00  0.000000D+00  0.000000D+00
     14   0.500982D+00 -0.138820D+01  0.444630D+00  0.000000D+00  0.000000D+00
                11            12            13            14 
      1   0.000000D+00  0.000000D+00  0.000000D+00  0.000000D+00
      2   0.000000D+00  0.000000D+00  0.000000D+00  0.000000D+00
      3   0.000000D+00  0.000000D+00  0.000000D+00  0.000000D+00
      4  -0.157598D+00  0.000000D+00  0.000000D+00  0.000000D+00
      5   0.000000D+00  0.106366D+00  0.993078D+00 -0.157598D+00
      6   0.000000D+00  0.000000D+00  0.000000D+00  0.000000D+00
      7   0.000000D+00  0.000000D+00  0.000000D+00  0.000000D+00
      8   0.151160D+01  0.000000D+00  0.000000D+00  0.000000D+00
      9   0.000000D+00  0.525558D+00 -0.486986D-01  0.151160D+01
     10   0.000000D+00  0.000000D+00  0.000000D+00  0.000000D+00
     11   0.000000D+00  0.000000D+00  0.000000D+00  0.000000D+00
     12  -0.149532D+01  0.000000D+00  0.000000D+00  0.000000D+00
     13   0.000000D+00  0.520070D+00 -0.153894D+00 -0.149532D+01
     14   0.000000D+00  0.000000D+00  0.000000D+00  0.000000D+00
 NBasis=    14 RedAO= T EigKep=  1.00D-01  NBF=     8     0     3     3
 NBsUse=    14 1.00D-06 EigRej= -1.00D+00 NBFU=     8     0     3     3
 Leave Link  302 at Mon Mar 28 14:24:25 2022, MaxMem=  9663676416 cpu:               3.0 elap:               0.1
 (Enter /nopt/nrel/apps/gaussian/g16C_1/g16/l303.exe)
 DipDrv will not compute anything.
 Fermi contact integrals: 
                 1             2 
      1   0.628247D+00  0.952980D-01
      2   0.000000D+00  0.171843D+02
      3   0.406321D-01  0.368674D+00
      4   0.000000D+00  0.000000D+00
      5   0.000000D+00  0.000000D+00
      6  -0.942485D-01  0.000000D+00
      7   0.579628D-01  0.187097D-02
      8   0.000000D+00  0.000000D+00
      9   0.000000D+00  0.000000D+00
     10  -0.635480D-01  0.000000D+00
     11   0.410414D-01  0.440472D-01
     12   0.000000D+00  0.000000D+00
     13   0.000000D+00  0.000000D+00
     14  -0.218222D-01  0.000000D+00
 Leave Link  303 at Mon Mar 28 14:24:25 2022, MaxMem=  9663676416 cpu:               0.9 elap:               0.0
 (Enter /nopt/nrel/apps/gaussian/g16C_1/g16/l401.exe)
 ExpMin= 2.44D-02 ExpMax= 5.48D+02 ExpMxC= 5.48D+02 IAcc=3 IRadAn=         5 AccDes= 0.00D+00
 Harris functional with IExCor=  205 and IRadAn=       5 diagonalized for initial guess.
 HarFok:  IExCor=  205 AccDes= 0.00D+00 IRadAn=         5 IDoV= 1 UseB2=F ITyADJ=14
 ICtDFT=  3500011 ScaDFX=  1.000000  1.000000  1.000000  1.000000
 FoFCou: FMM=F IPFlag=           0 FMFlag=      100000 FMFlg1=           0
         NFxFlg=           0 DoJE=T BraDBF=F KetDBF=T FulRan=T
         wScrn=  0.000000 ICntrl=       500 IOpCl=  0 I1Cent=   200000004 NGrid=           0
         NMat0=    1 NMatS0=      1 NMatT0=    0 NMatD0=    1 NMtDS0=    0 NMtDT0=    0
 Petite list used in FoFCou.
 Harris En= -160.769515766094    
 JPrj=0 DoOrth=F DoCkMO=F.
 Initial guess orbital symmetries:
 Alpha Orbitals:
       Occupied  (SG) (SG) (SG) (PI) (PI) (SG) (SG)
       Virtual   (PI) (PI) (SG) (SG) (PI) (PI) (SG)
 Beta  Orbitals:
       Occupied  (SG) (SG) (SG) (PI) (PI)
       Virtual   (SG) (SG) (PI) (PI) (SG) (SG) (PI) (PI) (SG)
 The electronic state of the initial guess is 3-SG.
 Initial guess <Sx>= 0.0000 <Sy>= 0.0000 <Sz>= 1.0000 <S**2>= 2.0000 S= 1.0000
 Leave Link  401 at Mon Mar 28 14:24:25 2022, MaxMem=  9663676416 cpu:               3.6 elap:               0.1
 (Enter /nopt/nrel/apps/gaussian/g16C_1/g16/l502.exe)
 Keep R1 and R2 ints in memory in symmetry-blocked form, NReq=7213305.
 FoFCou: FMM=F IPFlag=           0 FMFlag=           0 FMFlg1=           0
         NFxFlg=           0 DoJE=F BraDBF=F KetDBF=F FulRan=T
         wScrn=  0.000000 ICntrl=       600 IOpCl=  0 I1Cent=           0 NGrid=           0
         NMat0=    1 NMatS0=    105 NMatT0=    0 NMatD0=    1 NMtDS0=    0 NMtDT0=    0
 Petite list used in FoFCou.
 UHF open shell SCF:
 Using DIIS extrapolation, IDIIS=  1040.
 NGot=  9663676416 LenX=  9663669932 LenY=  9663669050
 Requested convergence on RMS density matrix=1.00D-08 within 128 cycles.
 Requested convergence on MAX density matrix=1.00D-06.
 Requested convergence on             energy=1.00D-06.
 No special actions if energy rises.

 Cycle   1  Pass 1  IDiag  1:
 E= -160.944917028229    
 DIIS: error= 4.04D-02 at cycle   1 NSaved=   1.
 NSaved= 1 IEnMin= 1 EnMin= -160.944917028229     IErMin= 1 ErrMin= 4.04D-02
 ErrMax= 4.04D-02  0.00D+00 EMaxC= 1.00D-01 BMatC= 9.46D-02 BMatP= 9.46D-02
 IDIUse=3 WtCom= 5.96D-01 WtEn= 4.04D-01
 Coeff-Com:  0.100D+01
 Coeff-En:   0.100D+01
 Coeff:      0.100D+01
 Gap=     0.182 Goal=   None    Shift=    0.000
 Gap=     1.705 Goal=   None    Shift=    0.000
 GapD=    0.182 DampG=1.000 DampE=0.500 DampFc=0.5000 IDamp=-1.
 Damping current iteration by 5.00D-01
 RMSDP=2.05D-02 MaxDP=1.70D-01              OVMax= 4.29D-02

 Cycle   2  Pass 1  IDiag  1:
 E= -160.959332190326     Delta-E=       -0.014415162097 Rises=F Damp=T
 DIIS: error= 2.39D-02 at cycle   2 NSaved=   2.
 NSaved= 2 IEnMin= 2 EnMin= -160.959332190326     IErMin= 2 ErrMin= 2.39D-02
 ErrMax= 2.39D-02  0.00D+00 EMaxC= 1.00D-01 BMatC= 2.87D-02 BMatP= 9.46D-02
 IDIUse=3 WtCom= 7.61D-01 WtEn= 2.39D-01
 Coeff-Com: -0.114D+01 0.214D+01
 Coeff-En:   0.000D+00 0.100D+01
 Coeff:     -0.868D+00 0.187D+01
 Gap=     0.175 Goal=   None    Shift=    0.000
 Gap=     1.633 Goal=   None    Shift=    0.000
 RMSDP=1.51D-02 MaxDP=1.54D-01 DE=-1.44D-02 OVMax= 6.16D-03

 Cycle   3  Pass 1  IDiag  1:
 E= -160.978191583995     Delta-E=       -0.018859393669 Rises=F Damp=F
 DIIS: error= 4.24D-03 at cycle   3 NSaved=   3.
 NSaved= 3 IEnMin= 3 EnMin= -160.978191583995     IErMin= 3 ErrMin= 4.24D-03
 ErrMax= 4.24D-03  0.00D+00 EMaxC= 1.00D-01 BMatC= 6.08D-04 BMatP= 2.87D-02
 IDIUse=3 WtCom= 9.58D-01 WtEn= 4.24D-02
 Coeff-Com:  0.858D+00-0.169D+01 0.183D+01
 Coeff-En:   0.000D+00 0.000D+00 0.100D+01
 Coeff:      0.821D+00-0.162D+01 0.180D+01
 Gap=     0.175 Goal=   None    Shift=    0.000
 Gap=     1.608 Goal=   None    Shift=    0.000
 RMSDP=4.65D-03 MaxDP=5.93D-02 DE=-1.89D-02 OVMax= 3.92D-03

 Cycle   4  Pass 1  IDiag  1:
 E= -160.978834185207     Delta-E=       -0.000642601212 Rises=F Damp=F
 DIIS: error= 5.05D-04 at cycle   4 NSaved=   4.
 NSaved= 4 IEnMin= 4 EnMin= -160.978834185207     IErMin= 4 ErrMin= 5.05D-04
 ErrMax= 5.05D-04  0.00D+00 EMaxC= 1.00D-01 BMatC= 6.76D-06 BMatP= 6.08D-04
 IDIUse=3 WtCom= 9.95D-01 WtEn= 5.05D-03
 Coeff-Com: -0.212D+00 0.421D+00-0.530D+00 0.132D+01
 Coeff-En:   0.000D+00 0.000D+00 0.000D+00 0.100D+01
 Coeff:     -0.211D+00 0.419D+00-0.527D+00 0.132D+01
 Gap=     0.175 Goal=   None    Shift=    0.000
 Gap=     1.607 Goal=   None    Shift=    0.000
 RMSDP=1.05D-03 MaxDP=1.40D-02 DE=-6.43D-04 OVMax= 1.78D-04

 Cycle   5  Pass 1  IDiag  1:
 E= -160.978855737901     Delta-E=       -0.000021552694 Rises=F Damp=F
 DIIS: error= 1.96D-04 at cycle   5 NSaved=   5.
 NSaved= 5 IEnMin= 5 EnMin= -160.978855737901     IErMin= 5 ErrMin= 1.96D-04
 ErrMax= 1.96D-04  0.00D+00 EMaxC= 1.00D-01 BMatC= 9.27D-07 BMatP= 6.76D-06
 IDIUse=3 WtCom= 9.98D-01 WtEn= 1.96D-03
 Coeff-Com:  0.105D+00-0.211D+00 0.281D+00-0.104D+01 0.186D+01
 Coeff-En:   0.000D+00 0.000D+00 0.000D+00 0.000D+00 0.100D+01
 Coeff:      0.105D+00-0.211D+00 0.281D+00-0.103D+01 0.186D+01
 Gap=     0.175 Goal=   None    Shift=    0.000
 Gap=     1.607 Goal=   None    Shift=    0.000
 RMSDP=7.47D-04 MaxDP=1.07D-02 DE=-2.16D-05 OVMax= 3.58D-05

 Cycle   6  Pass 1  IDiag  1:
 E= -160.978860856313     Delta-E=       -0.000005118412 Rises=F Damp=F
 DIIS: error= 3.36D-05 at cycle   6 NSaved=   6.
 NSaved= 6 IEnMin= 6 EnMin= -160.978860856313     IErMin= 6 ErrMin= 3.36D-05
 ErrMax= 3.36D-05  0.00D+00 EMaxC= 1.00D-01 BMatC= 3.31D-08 BMatP= 9.27D-07
 IDIUse=1 WtCom= 1.00D+00 WtEn= 0.00D+00
 Coeff-Com: -0.105D-01 0.214D-01-0.315D-01 0.148D+00-0.464D+00 0.134D+01
 Coeff:     -0.105D-01 0.214D-01-0.315D-01 0.148D+00-0.464D+00 0.134D+01
 Gap=     0.175 Goal=   None    Shift=    0.000
 Gap=     1.607 Goal=   None    Shift=    0.000
 RMSDP=1.61D-04 MaxDP=2.30D-03 DE=-5.12D-06 OVMax= 1.53D-05

 Cycle   7  Pass 1  IDiag  1:
 E= -160.978861032530     Delta-E=       -0.000000176217 Rises=F Damp=F
 DIIS: error= 2.37D-06 at cycle   7 NSaved=   7.
 NSaved= 7 IEnMin= 7 EnMin= -160.978861032530     IErMin= 7 ErrMin= 2.37D-06
 ErrMax= 2.37D-06  0.00D+00 EMaxC= 1.00D-01 BMatC= 2.87D-10 BMatP= 3.31D-08
 IDIUse=1 WtCom= 1.00D+00 WtEn= 0.00D+00
 Coeff-Com:  0.983D-03-0.201D-02 0.294D-02-0.105D-01 0.480D-01-0.233D+00
 Coeff-Com:  0.119D+01
 Coeff:      0.983D-03-0.201D-02 0.294D-02-0.105D-01 0.480D-01-0.233D+00
 Coeff:      0.119D+01
 Gap=     0.175 Goal=   None    Shift=    0.000
 Gap=     1.607 Goal=   None    Shift=    0.000
 RMSDP=9.01D-06 MaxDP=1.09D-04 DE=-1.76D-07 OVMax= 2.27D-06

 Cycle   8  Pass 1  IDiag  1:
 E= -160.978861033216     Delta-E=       -0.000000000686 Rises=F Damp=F
 DIIS: error= 6.33D-07 at cycle   8 NSaved=   8.
 NSaved= 8 IEnMin= 8 EnMin= -160.978861033216     IErMin= 8 ErrMin= 6.33D-07
 ErrMax= 6.33D-07  0.00D+00 EMaxC= 1.00D-01 BMatC= 8.33D-12 BMatP= 2.87D-10
 IDIUse=1 WtCom= 1.00D+00 WtEn= 0.00D+00
 Coeff-Com:  0.653D-04-0.123D-03 0.144D-03-0.893D-03-0.262D-02 0.343D-01
 Coeff-Com: -0.297D+00 0.127D+01
 Coeff:      0.653D-04-0.123D-03 0.144D-03-0.893D-03-0.262D-02 0.343D-01
 Coeff:     -0.297D+00 0.127D+01
 Gap=     0.175 Goal=   None    Shift=    0.000
 Gap=     1.607 Goal=   None    Shift=    0.000
 RMSDP=1.17D-06 MaxDP=9.27D-06 DE=-6.86D-10 OVMax= 2.39D-07

 Cycle   9  Pass 1  IDiag  1:
 E= -160.978861033242     Delta-E=       -0.000000000026 Rises=F Damp=F
 DIIS: error= 2.34D-07 at cycle   9 NSaved=   9.
 NSaved= 9 IEnMin= 9 EnMin= -160.978861033242     IErMin= 9 ErrMin= 2.34D-07
 ErrMax= 2.34D-07  0.00D+00 EMaxC= 1.00D-01 BMatC= 1.02D-12 BMatP= 8.33D-12
 IDIUse=1 WtCom= 1.00D+00 WtEn= 0.00D+00
 Coeff-Com:  0.157D-05-0.506D-05 0.523D-05 0.254D-03 0.127D-02-0.154D-01
 Coeff-Com:  0.143D+00-0.824D+00 0.170D+01
 Coeff:      0.157D-05-0.506D-05 0.523D-05 0.254D-03 0.127D-02-0.154D-01
 Coeff:      0.143D+00-0.824D+00 0.170D+01
 Gap=     0.175 Goal=   None    Shift=    0.000
 Gap=     1.607 Goal=   None    Shift=    0.000
 RMSDP=5.97D-07 MaxDP=4.81D-06 DE=-2.55D-11 OVMax= 2.80D-08

 Cycle  10  Pass 1  IDiag  1:
 E= -160.978861033246     Delta-E=       -0.000000000004 Rises=F Damp=F
 DIIS: error= 2.93D-08 at cycle  10 NSaved=  10.
 NSaved=10 IEnMin=10 EnMin= -160.978861033246     IErMin=10 ErrMin= 2.93D-08
 ErrMax= 2.93D-08  0.00D+00 EMaxC= 1.00D-01 BMatC= 3.42D-14 BMatP= 1.02D-12
 IDIUse=1 WtCom= 1.00D+00 WtEn= 0.00D+00
 Coeff-Com: -0.513D-05 0.105D-04-0.114D-04-0.462D-04-0.232D-03 0.316D-02
 Coeff-Com: -0.323D-01 0.229D+00-0.637D+00 0.144D+01
 Coeff:     -0.513D-05 0.105D-04-0.114D-04-0.462D-04-0.232D-03 0.316D-02
 Coeff:     -0.323D-01 0.229D+00-0.637D+00 0.144D+01
 Gap=     0.175 Goal=   None    Shift=    0.000
 Gap=     1.607 Goal=   None    Shift=    0.000
 RMSDP=1.16D-07 MaxDP=9.54D-07 DE=-4.15D-12 OVMax= 2.42D-08

 Cycle  11  Pass 1  IDiag  1:
 E= -160.978861033246     Delta-E=       -0.000000000000 Rises=F Damp=F
 DIIS: error= 1.40D-09 at cycle  11 NSaved=  11.
 NSaved=11 IEnMin=11 EnMin= -160.978861033246     IErMin=11 ErrMin= 1.40D-09
 ErrMax= 1.40D-09  0.00D+00 EMaxC= 1.00D-01 BMatC= 7.66D-17 BMatP= 3.42D-14
 IDIUse=1 WtCom= 1.00D+00 WtEn= 0.00D+00
 Coeff-Com:  0.266D-06-0.552D-06 0.263D-06 0.112D-04 0.120D-04-0.333D-03
 Coeff-Com:  0.389D-02-0.304D-01 0.917D-01-0.230D+00 0.117D+01
 Coeff:      0.266D-06-0.552D-06 0.263D-06 0.112D-04 0.120D-04-0.333D-03
 Coeff:      0.389D-02-0.304D-01 0.917D-01-0.230D+00 0.117D+01
 Gap=     0.175 Goal=   None    Shift=    0.000
 Gap=     1.607 Goal=   None    Shift=    0.000
 RMSDP=4.25D-09 MaxDP=5.30D-08 DE=-8.53D-14 OVMax= 4.05D-10

 SCF Done:  E(UHF) =  -160.978861033     A.U. after   11 cycles
            NFock= 11  Conv=0.42D-08     -V/T= 1.9994
 <Sx>= 0.0000 <Sy>= 0.0000 <Sz>= 1.0000 <S**2>= 2.0001 S= 1.0000
 <L.S>= 0.000000000000E+00
 KE= 1.610756623543D+02 PE=-3.986281753269D+02 EE= 7.010593047248D+01
 Annihilation of the first spin contaminant:
 S**2 before annihilation     2.0001,   after     2.0000
 Leave Link  502 at Mon Mar 28 14:24:25 2022, MaxMem=  9663676416 cpu:               4.1 elap:               0.2
 (Enter /nopt/nrel/apps/gaussian/g16C_1/g16/l801.exe)
 Windowed orbitals will be sorted by symmetry type.
 ExpMin= 2.44D-02 ExpMax= 5.48D+02 ExpMxC= 5.48D+02 IAcc=3 IRadAn=         5 AccDes= 0.00D+00
 HarFok:  IExCor=  205 AccDes= 0.00D+00 IRadAn=         5 IDoV=-2 UseB2=F ITyADJ=14
 ICtDFT= 12500011 ScaDFX=  1.000000  1.000000  1.000000  1.000000
 Largest valence mixing into a core orbital is  1.55D-02
 Largest core mixing into a valence orbital is  8.82D-03
 Range of M.O.s used for correlation:     6    14
 NBasis=    14 NAE=     7 NBE=     5 NFC=     5 NFV=     0
 NROrb=      9 NOA=     2 NOB=     0 NVA=     7 NVB=     9
 Leave Link  801 at Mon Mar 28 14:24:25 2022, MaxMem=  9663676416 cpu:               3.2 elap:               0.1
 (Enter /nopt/nrel/apps/gaussian/g16C_1/g16/l804.exe)
 Open-shell transformation, MDV=  9663676416 ITran=4 ISComp=2.
 Unit  1 TFree=         14304 TCopy=        117515.
 Semi-Direct transformation.
 ModeAB=           2 MOrb=             2 LenV=    9663555281
 LASXX=          158 LTotXX=         158 LenRXX=         158
 LTotAB=         269 MaxLAS=        1890 LenRXY=        1890
 NonZer=        2214 LenScr=      785920 LnRSAI=           0
 LnScr1=           0 LExtra=      220902 Total=      1008870
 MaxDsk= 34359738368 SrtSym=           F ITran=            4
 DoSDTr:  NPSUse= 36
 JobTyp=1 Pass  1:  I=   1 to   2.
 (rs|ai) integrals will be sorted in core.
 Complete sort for first half transformation.
 First half transformation complete.
 Complete sort for second half transformation.
 Second half transformation complete.
 Spin components of T(2) and E(2):
     alpha-alpha T2 =       0.9761410498D-04 E2=     -0.9078669043D-04
     alpha-beta  T2 =       0.0000000000D+00 E2=      0.0000000000D+00
     beta-beta   T2 =       0.0000000000D+00 E2=      0.0000000000D+00
 ANorm=    0.1000048806D+01
 E2 =    -0.9078669043D-04 EUMP2 =    -0.16097895181994D+03
 Leave Link  804 at Mon Mar 28 14:24:25 2022, MaxMem=  9663676416 cpu:               1.7 elap:               0.1
 (Enter /nopt/nrel/apps/gaussian/g16C_1/g16/l913.exe)
 CIDS:  MDV=  9663676416.
 Frozen-core window:  NFC=   5 NFV=   0.
 IFCWin=0 IBDFC=1 NFBD=     0     0 NFCmp=     0     0 NFFFC=     0     0
 Using original routines for 1st iteration.
 Using DD4UQ or CC4UQ for 2nd and later iterations.
 Keep R2 and R3 ints in memory in symmetry-blocked form, NReq=7215711.
 FoFCou: FMM=F IPFlag=           0 FMFlag=           0 FMFlg1=           0
         NFxFlg=           0 DoJE=F BraDBF=F KetDBF=F FulRan=T
         wScrn=  0.000000 ICntrl=       600 IOpCl=  0 I1Cent=           0 NGrid=           0
         NMat0=    1 NMatS0=    105 NMatT0=    0 NMatD0=    1 NMtDS0=    0 NMtDT0=    0
 Petite list used in FoFCou.
 CIDS: In Core Option IDoMem=           1.
 Coupled Cluster theory with single and double substitutions
 ===========================================================
 Iterations= 200 Convergence= 0.100D-06
 Produce multiple copies of IABC intergrals
 Iteration Nr.   1
 **********************
 DD1Dir will call FoFMem   1 times, MxPair=         2
 NAB=     0 NAA=     1 NBB=     0.
 MP4(R+Q)=  0.88620615D-08
 Maximum subspace dimension=  5
 A-vector RMS=  9.6976166D-04 Max=  2.2777905D-03 conv= 1.00D-05.
 RLE energy=       -0.0001524147
 E3=       -0.36718241D-04        EUMP3=      -0.16097898854D+03
 E4(DQ)=   -0.14872007D-04        UMP4(DQ)=   -0.16097900341D+03
 E4(SDQ)=  -0.14926852D-04        UMP4(SDQ)=  -0.16097900347D+03
 VARIATIONAL ENERGIES WITH THE FIRST-ORDER WAVEFUNCTION:
 DE(Corr)= -0.12749577E-03 E(Corr)=     -160.97898853    
 NORM(A)=   0.10001374D+01
 Iteration Nr.   2
 **********************
 DD1Dir will call FoFMem   1 times, MxPair=         2
 NAB=     0 NAA=     1 NBB=     0.
 A-vector RMS=  1.0049808D-04 Max=  1.7567197D-04 conv= 1.00D-05.
 RLE energy=       -0.0001527931
 DE(Corr)= -0.15254770E-03 E(CORR)=     -160.97901358     Delta=-2.51D-05
 NORM(A)=   0.10001383D+01
 Iteration Nr.   3
 **********************
 DD1Dir will call FoFMem   1 times, MxPair=         2
 NAB=     0 NAA=     1 NBB=     0.
 A-vector RMS=  1.1893212D-05 Max=  2.5780579D-05 conv= 1.00D-05.
 RLE energy=       -0.0001528172
 DE(Corr)= -0.15279995E-03 E(CORR)=     -160.97901383     Delta=-2.52D-07
 NORM(A)=   0.10001384D+01
 Iteration Nr.   4
 **********************
 DD1Dir will call FoFMem   1 times, MxPair=         2
 NAB=     0 NAA=     1 NBB=     0.
 A-vector RMS=  3.2809729D-06 Max=  9.0444005D-06 conv= 1.00D-05.
 RLE energy=       -0.0001528028
 DE(Corr)= -0.15281211E-03 E(CORR)=     -160.97901385     Delta=-1.22D-08
 NORM(A)=   0.10001384D+01
 CI/CC converged in    4 iterations to DelEn=-1.22D-08 Conv= 1.00D-07 ErrA1= 3.28D-06 Conv= 1.00D-05
 Wavefunction amplitudes converged. E(Corr)=     -160.97901385    
 Largest amplitude= 9.38D-03
 Discarding MO integrals.
 Leave Link  913 at Mon Mar 28 14:24:25 2022, MaxMem=  9663676416 cpu:               3.0 elap:               0.1
 (Enter /nopt/nrel/apps/gaussian/g16C_1/g16/l601.exe)
 Copying SCF densities to generalized density rwf, IOpCl= 1 IROHF=0.

 **********************************************************************

            Population analysis using the SCF Density.

 **********************************************************************

 Orbital symmetries:
 Alpha Orbitals:
       Occupied  (SG) (SG) (SG) (PI) (PI) (SG) (SG)
       Virtual   (PI) (PI) (SG) (SG) (PI) (PI) (SG)
 Beta  Orbitals:
       Occupied  (SG) (SG) (SG) (PI) (PI)
       Virtual   (SG) (PI) (PI) (SG) (SG) (PI) (PI) (SG) (SG)
 The electronic state is 3-SG.
 Alpha  occ. eigenvalues --  -40.39484  -2.97360  -1.74288  -1.64774  -1.64774
 Alpha  occ. eigenvalues --   -0.50883  -0.15546
 Alpha virt. eigenvalues --    0.01910   0.01910   0.03669   0.12947   0.13126
 Alpha virt. eigenvalues --    0.13126   0.33136
  Beta  occ. eigenvalues --  -40.37994  -2.93696  -1.68042  -1.63611  -1.63611
  Beta virt. eigenvalues --   -0.02880   0.04403   0.04403   0.05967   0.08867
  Beta virt. eigenvalues --    0.16121   0.16121   0.18584   0.51601
          Condensed to atoms (all electrons):
               1          2
     1  H    0.805390   0.039684
     2  Na   0.039684  11.115241
          Atomic-Atomic Spin Densities.
               1          2
     1  H    0.760379  -0.045747
     2  Na  -0.045747   1.331116
 Mulliken charges and spin densities:
               1          2
     1  H    0.154926   0.714632
     2  Na  -0.154926   1.285368
 Sum of Mulliken charges =  -0.00000   2.00000
 Mulliken charges and spin densities with hydrogens summed into heavy atoms:
               1          2
     2  Na  -0.000000   2.000000
 N-N= 6.467721466800D+00 E-N=-3.986281753410D+02  KE= 1.610756623543D+02
 Symmetry A1   KE= 1.379475319674D+02
 Symmetry A2   KE= 0.000000000000D+00
 Symmetry B1   KE= 1.156406519346D+01
 Symmetry B2   KE= 1.156406519346D+01
 Symmetry A1   SP= 2.000000000000D+00
 Symmetry A2   SP= 0.000000000000D+00
 Symmetry B1   SP= 2.305070540524D-16
 Symmetry B2   SP= 9.543153422060D-16

 Atomic contributions to Alpha molecular orbitals:
 Alpha occ 1 OE=-40.395 is Na2-s=1.0004
 Alpha occ 2 OE=-2.974 is Na2-s=0.9733
 Alpha occ 3 OE=-1.743 is Na2-p=0.9260
 Alpha occ 4 OE=-1.648 is Na2-p=1.0000
 Alpha occ 5 OE=-1.648 is Na2-p=1.0000
 Alpha occ 6 OE=-0.509 is H1-s=0.6838 Na2-s=0.1873 Na2-p=0.1289
 Alpha occ 7 OE=-0.155 is Na2-s=0.6125 Na2-p=0.3722
 Alpha vir 8 OE=0.019 is Na2-p=1.0000
 Alpha vir 9 OE=0.019 is Na2-p=1.0000
 Alpha vir 10 OE=0.037 is Na2-p=0.6533 Na2-s=0.3289
 Alpha vir 11 OE=0.129 is Na2-s=0.5128 Na2-p=0.4872
 Alpha vir 12 OE=0.131 is Na2-p=1.0000
 Alpha vir 13 OE=0.131 is Na2-p=1.0000
 Alpha vir 14 OE=0.331 is Na2-p=0.4259 Na2-s=0.3719 H1-s=0.2023

 Atomic contributions to Beta  molecular orbitals:
 Beta  occ 1 OE=-40.380 is Na2-s=1.0004
 Beta  occ 2 OE=-2.937 is Na2-s=0.9786
 Beta  occ 3 OE=-1.680 is Na2-p=0.9456
 Beta  occ 4 OE=-1.636 is Na2-p=1.0000
 Beta  occ 5 OE=-1.636 is Na2-p=1.0000
 Beta  vir 6 OE=-0.029 is Na2-s=0.7149 Na2-p=0.1668 H1-s=0.1183
 Beta  vir 7 OE=0.044 is Na2-p=1.0000
 Beta  vir 8 OE=0.044 is Na2-p=1.0000
 Beta  vir 9 OE=0.060 is Na2-p=0.8760 Na2-s=0.1213
 Beta  vir 10 OE=0.089 is Na2-s=0.7005 Na2-p=0.1719 H1-s=0.1276
 Beta  vir 11 OE=0.161 is Na2-p=1.0000
 Beta  vir 12 OE=0.161 is Na2-p=1.0000
 Beta  vir 13 OE=0.186 is Na2-p=0.6811 Na2-s=0.3166
 Beta  vir 14 OE=0.516 is H1-s=0.6839 Na2-s=0.1607 Na2-p=0.1554
 
 Leave Link  601 at Mon Mar 28 14:24:25 2022, MaxMem=  9663676416 cpu:               0.9 elap:               0.0
 (Enter /nopt/nrel/apps/gaussian/g16C_1/g16/l9999.exe)

 Test job not archived.
 1\1\GINC-R102U34\SP\UCCSD-FC\Gen\H1Na1(3)\USER\28-Mar-2022\0\\#P C
 CSD(MaxCyc=200,SaveAmplitudes,ReadAmplitudes)/GEN sp pop=AllOrbitals i
 op(3/33=1,3/36=-1)\\test\\0,3\H,0,0.,0.,0.\Na,0,0.,0.,0.9\\Version=ES6
 4L-G16RevC.01\State=3-SG\HF=-160.978861\MP2=-160.9789518\MP3=-160.9789
 885\MP4D=-160.9790034\MP4DQ=-160.9790034\MP4SDQ=-160.9790035\CCSD=-160
 .9790138\S2=2.000103\S2-1=0.\S2A=2.\RMSD=4.246e-09\PG=C*V [C*(H1Na1)]\
 \@


 A COMPUTER IS LIKE A HORSE, IT WILL SENSE WEAKNESS.
     -- GREG WETTSTEIN
 Job cpu time:       0 days  0 hours  0 minutes 29.9 seconds.
 Elapsed time:       0 days  0 hours  0 minutes  1.2 seconds.
 File lengths (MBytes):  RWF=     13 Int=      0 D2E=      0 Chk=      1 Scr=      1
 Normal termination of Gaussian 16 at Mon Mar 28 14:24:25 2022.
