 Entering Gaussian System, Link 0=g16
 Initial command:
 /nopt/nrel/apps/gaussian/g16C_1/g16/l1.exe "/lustre/eaglefs/scratch/user/qc/lih-dissc/lih-1-ccsd-2.0-631g/Gau-11370.inp" -scrdir="/lustre/eaglefs/scratch/user/qc/lih-dissc/lih-1-ccsd-2.0-631g/"
 Default is to use a total of  36 processors:
                               36 via shared-memory
                                1 via Linda
 Entering Link 1 = /nopt/nrel/apps/gaussian/g16C_1/g16/l1.exe PID=     11371.
  
 Copyright (c) 1988-2019, Gaussian, Inc.  All Rights Reserved.
  
 This is part of the Gaussian(R) 16 program.  It is based on
 the Gaussian(R) 09 system (copyright 2009, Gaussian, Inc.),
 the Gaussian(R) 03 system (copyright 2003, Gaussian, Inc.),
 the Gaussian(R) 98 system (copyright 1998, Gaussian, Inc.),
 the Gaussian(R) 94 system (copyright 1995, Gaussian, Inc.),
 the Gaussian 92(TM) system (copyright 1992, Gaussian, Inc.),
 the Gaussian 90(TM) system (copyright 1990, Gaussian, Inc.),
 the Gaussian 88(TM) system (copyright 1988, Gaussian, Inc.),
 the Gaussian 86(TM) system (copyright 1986, Carnegie Mellon
 University), and the Gaussian 82(TM) system (copyright 1983,
 Carnegie Mellon University). Gaussian is a federally registered
 trademark of Gaussian, Inc.
  
 This software contains proprietary and confidential information,
 including trade secrets, belonging to Gaussian, Inc.
  
 This software is provided under written license and may be
 used, copied, transmitted, or stored only in accord with that
 written license.
  
 The following legend is applicable only to US Government
 contracts under FAR:
  
                    RESTRICTED RIGHTS LEGEND
  
 Use, reproduction and disclosure by the US Government is
 subject to restrictions as set forth in subparagraphs (a)
 and (c) of the Commercial Computer Software - Restricted
 Rights clause in FAR 52.227-19.
  
 Gaussian, Inc.
 340 Quinnipiac St., Bldg. 40, Wallingford CT 06492
  
  
 ---------------------------------------------------------------
 Warning -- This program may not be used in any manner that
 competes with the business of Gaussian, Inc. or will provide
 assistance to any competitor of Gaussian, Inc.  The licensee
 of this program is prohibited from giving any competitor of
 Gaussian, Inc. access to this program.  By using this program,
 the user acknowledges that Gaussian, Inc. is engaged in the
 business of creating and licensing software in the field of
 computational chemistry and represents and warrants to the
 licensee that it is not a competitor of Gaussian, Inc. and that
 it will not use this program in any manner prohibited above.
 ---------------------------------------------------------------
  

 Cite this work as:
 Gaussian 16, Revision C.01,
 M. J. Frisch, G. W. Trucks, H. B. Schlegel, G. E. Scuseria, 
 M. A. Robb, J. R. Cheeseman, G. Scalmani, V. Barone, 
 G. A. Petersson, H. Nakatsuji, X. Li, M. Caricato, A. V. Marenich, 
 J. Bloino, B. G. Janesko, R. Gomperts, B. Mennucci, H. P. Hratchian, 
 J. V. Ortiz, A. F. Izmaylov, J. L. Sonnenberg, D. Williams-Young, 
 F. Ding, F. Lipparini, F. Egidi, J. Goings, B. Peng, A. Petrone, 
 T. Henderson, D. Ranasinghe, V. G. Zakrzewski, J. Gao, N. Rega, 
 G. Zheng, W. Liang, M. Hada, M. Ehara, K. Toyota, R. Fukuda, 
 J. Hasegawa, M. Ishida, T. Nakajima, Y. Honda, O. Kitao, H. Nakai, 
 T. Vreven, K. Throssell, J. A. Montgomery, Jr., J. E. Peralta, 
 F. Ogliaro, M. J. Bearpark, J. J. Heyd, E. N. Brothers, K. N. Kudin, 
 V. N. Staroverov, T. A. Keith, R. Kobayashi, J. Normand, 
 K. Raghavachari, A. P. Rendell, J. C. Burant, S. S. Iyengar, 
 J. Tomasi, M. Cossi, J. M. Millam, M. Klene, C. Adamo, R. Cammi, 
 J. W. Ochterski, R. L. Martin, K. Morokuma, O. Farkas, 
 J. B. Foresman, and D. J. Fox, Gaussian, Inc., Wallingford CT, 2019.
 
 ******************************************
 Gaussian 16:  ES64L-G16RevC.01  3-Jul-2019
                28-Mar-2022 
 ******************************************
 %chk=molecule
 Default route: CacheSize=180224 MaxDisk=256GB
 ----------------------------------------------------------------------
 #P CCSD(MaxCyc=200,SaveAmplitudes,ReadAmplitudes)/GEN sp pop=AllOrbita
 ls iop(3/33=1,3/36=-1)
 ----------------------------------------------------------------------
 1/4=180224,38=1,172=1/1;
 2/4=180224,12=2,17=6,18=5,40=1/2;
 3/4=180224,5=7,11=9,25=1,30=1,33=1,36=-1/1,2,3;
 4/4=180224/1;
 5/4=180224,5=2,38=5/2;
 8/4=180224,6=4,9=120000,10=1,24=1/1,4;
 9/4=180224,5=7,6=200,77=1/13;
 6/4=180224,7=2,8=2,9=2,10=2,96=-1/1;
 99/4=180224,5=1,9=1/99;
 Leave Link    1 at Mon Mar 28 14:00:55 2022, MaxMem=           0 cpu:               3.0 elap:               0.1
 (Enter /nopt/nrel/apps/gaussian/g16C_1/g16/l101.exe)
 ----
 test
 ----
 Symbolic Z-matrix:
 Charge =  0 Multiplicity = 1
 H                     0.        0.        0. 
 Li                    0.        0.        2. 
 
 ITRead=  0  0
 MicOpt= -1 -1
 NAtoms=      2 NQM=        2 NQMF=       0 NMMI=      0 NMMIF=      0
                NMic=       0 NMicF=      0.
                    Isotopes and Nuclear Properties:
 (Nuclear quadrupole moments (NQMom) in fm**2, nuclear magnetic moments (NMagM)
  in nuclear magnetons)

  Atom         1           2
 IAtWgt=           1           7
 AtmWgt=   1.0078250   7.0160045
 NucSpn=           1           3
 AtZEff=  -0.0000000  -0.0000000
 NQMom=    0.0000000  -4.0100000
 NMagM=    2.7928460   3.2564240
 AtZNuc=   1.0000000   3.0000000
 Leave Link  101 at Mon Mar 28 14:00:55 2022, MaxMem=  9663676416 cpu:               3.2 elap:               0.1
 (Enter /nopt/nrel/apps/gaussian/g16C_1/g16/l202.exe)
                          Input orientation:                          
 ---------------------------------------------------------------------
 Center     Atomic      Atomic             Coordinates (Angstroms)
 Number     Number       Type             X           Y           Z
 ---------------------------------------------------------------------
      1          1           0        0.000000    0.000000    0.000000
      2          3           0        0.000000    0.000000    2.000000
 ---------------------------------------------------------------------
 Stoichiometry    HLi
 Framework group  C*V[C*(HLi)]
 Deg. of freedom     1
 Full point group                 C*V     NOp   4
 Largest Abelian subgroup         C2V     NOp   4
 Largest concise Abelian subgroup C1      NOp   1
                         Standard orientation:                         
 ---------------------------------------------------------------------
 Center     Atomic      Atomic             Coordinates (Angstroms)
 Number     Number       Type             X           Y           Z
 ---------------------------------------------------------------------
      1          1           0        0.000000    0.000000   -1.500000
      2          3           0        0.000000    0.000000    0.500000
 ---------------------------------------------------------------------
 Rotational constants (GHZ):           0.0000000         143.3718536         143.3718536
 Leave Link  202 at Mon Mar 28 14:00:55 2022, MaxMem=  9663676416 cpu:               0.7 elap:               0.0
 (Enter /nopt/nrel/apps/gaussian/g16C_1/g16/l301.exe)
 General basis read from cards:  (5D, 7F)
                         Coordinates in L301:                         
 ---------------------------------------------------------------------
 Center     Atomic      Atomic             Coordinates (Angstroms)
 Number     Number       Type             X           Y           Z
 ---------------------------------------------------------------------
      1          1           0        0.000000    0.000000   -1.500000
      2          3           0        0.000000    0.000000    0.500000
 ---------------------------------------------------------------------
 Centers:       1
 STO-3G
 ****
 Centers:       2
 6-31G
 ****
 FixB: optimizing general contractions.
 Ernie: Thresh=  0.10000D-02 Tol=  0.10000D-05 Strict=F.
 IA=     1 ShT= 0 ShC= 0 NL=   1 NS=   0.
 IA=     1 L=0 SC=0 ISt=    0 NBk=    0 NP=    0 IndPr=    0.
 IA=     2 ShT= 0 ShC= 0 NL=   1 NS=   0.
 IA=     2 L=0 SC=0 ISt=    0 NBk=    0 NP=    0 IndPr=    0.
 IA=     2 ShT= 1 ShC= 0 NL=   2 NS=   1.
 IA=     2 L=1 SC=0 ISt=    0 NBk=    0 NP=    0 IndPr=    0.
 LdAtmC:  AtmChg=     1.000000     3.000000
 AtZEff=     -1.0000000     -1.3500000
 NEqShl: 
              1            2            3            4
     1            1            1            1            1
     2            2            2            2            2
     3            3            3            3            3
     4            4            4            4            4
 NEqBas: 
              1            2            3            4
     1            1            1            1            1
     2            2            2            2            2
     3            3            3            3            3
     4            4           -4           -4            4
     5            5           -5            5           -5
     6            6            6            6            6
     7            7            7            7            7
     8            8           -8           -8            8
     9            9           -9            9           -9
    10           10           10           10           10
 There are     6 symmetry adapted cartesian basis functions of A1  symmetry.
   1         1   1   1   1
   2         2   2   2   2
   3         3   3   3   3
   4         6   6   6   6
   5         7   7   7   7
   6        10  10  10  10
 There are     0 symmetry adapted cartesian basis functions of A2  symmetry.
 There are     2 symmetry adapted cartesian basis functions of B1  symmetry.
   7         4   4   4   4
   8         8   8   8   8
 There are     2 symmetry adapted cartesian basis functions of B2  symmetry.
   9         5   5   5   5
  10         9   9   9   9
 Order= 1 2 4 3
 Reordered character table:
              1            2            3            4            5
     1            1            1            1            1            1
     2            2            1            1           -1           -1
     3            4            1           -1           -1            1
     4            3            1           -1            1           -1
 NEqShl: 
              1            2            3            4
     1            1            1            1            1
     2            2            2            2            2
     3            3            3            3            3
     4            4            4            4            4
 NEqBas: 
              1            2            3            4
     1            1            1            1            1
     2            2            2            2            2
     3            3            3            3            3
     4            4           -4           -4            4
     5            5           -5            5           -5
     6            6            6            6            6
     7            7            7            7            7
     8            8           -8           -8            8
     9            9           -9            9           -9
    10           10           10           10           10
 There are     6 symmetry adapted basis functions of A1  symmetry.
   1         1   1   1   1
   2         2   2   2   2
   3         3   3   3   3
   4         6   6   6   6
   5         7   7   7   7
   6        10  10  10  10
 There are     0 symmetry adapted basis functions of A2  symmetry.
 There are     2 symmetry adapted basis functions of B1  symmetry.
   7         4   4   4   4
   8         8   8   8   8
 There are     2 symmetry adapted basis functions of B2  symmetry.
   9         5   5   5   5
  10         9   9   9   9
 Order= 1 2 4 3
 Reordered character table:
              1            2            3            4            5
     1            1            1            1            1            1
     2            2            1            1           -1           -1
     3            4            1           -1           -1            1
     4            3            1           -1            1           -1
    10 basis functions,    25 primitive gaussians,    10 cartesian basis functions
     2 alpha electrons        2 beta electrons
       nuclear repulsion energy         0.7937658164 Hartrees.
 IS=     1 IAt=     1 ISR=     1 T=0 IP=      1 IndIP=      1 IndIPD=      0 C=  2.769344D-01  0.000000D+00                             NZ=T
 IS=     1 IAt=     1 ISR=     1 T=0 IP=      2 IndIP=      2 IndIPD=      1 C=  2.678389D-01  0.000000D+00                             NZ=T
 IS=     1 IAt=     1 ISR=     1 T=0 IP=      3 IndIP=      3 IndIPD=      2 C=  8.347367D-02  0.000000D+00                             NZ=T
 IS=     2 IAt=     2 ISR=     1 T=0 IP=      1 IndIP=      4 IndIPD=      0 C=  1.948572D-01  0.000000D+00                             NZ=T
 IS=     2 IAt=     2 ISR=     1 T=0 IP=      2 IndIP=      5 IndIPD=      1 C=  3.565040D-01  0.000000D+00                             NZ=T
 IS=     2 IAt=     2 ISR=     1 T=0 IP=      3 IndIP=      6 IndIPD=      2 C=  5.614879D-01  0.000000D+00                             NZ=T
 IS=     2 IAt=     2 ISR=     1 T=0 IP=      4 IndIP=      7 IndIPD=      3 C=  6.883627D-01  0.000000D+00                             NZ=T
 IS=     2 IAt=     2 ISR=     1 T=0 IP=      5 IndIP=      8 IndIPD=      4 C=  5.498106D-01  0.000000D+00                             NZ=T
 IS=     2 IAt=     2 ISR=     1 T=0 IP=      6 IndIP=      9 IndIPD=      5 C=  1.755056D-01  0.000000D+00                             NZ=T
 IS=     3 IAt=     2 ISR=     2 T=1 IP=      1 IndIP=     10 IndIPD=      0 C= -4.708915D-02  3.658984D-02                             NZ=T
 IS=     3 IAt=     2 ISR=     2 T=1 IP=      2 IndIP=     11 IndIPD=      1 C= -9.665673D-02  1.133585D-01                             NZ=T
 IS=     3 IAt=     2 ISR=     2 T=1 IP=      3 IndIP=     12 IndIPD=      2 C=  1.151795D-01  5.648589D-02                             NZ=T
 IS=     4 IAt=     2 ISR=     3 T=1 IP=      1 IndIP=     13 IndIPD=      0 C=  5.885627D-02  2.232258D-02                             NZ=T
 IExCor=    0 DFT=F Ex=HF Corr=None ExCW=0 ScaHFX=  1.000000
 ScaDFX=  1.000000  1.000000  1.000000  1.000000 ScalE2=  1.000000  1.000000
 IRadAn=      5 IRanWt=     -1 IRanGd=            0 ICorTp=0 IEmpDi=  4
 NAtoms=    2 NActive=    2 NUniq=    2 SFac= 1.00D+00 NAtFMM=   60 NAOKFM=F Big=F
 Integral buffers will be    131072 words long.
 Raffenetti 1 integral format.
 Two-electron integral symmetry is turned on.
 Leave Link  301 at Mon Mar 28 14:00:55 2022, MaxMem=  9663676416 cpu:               2.0 elap:               0.1
 (Enter /nopt/nrel/apps/gaussian/g16C_1/g16/l302.exe)
 NPDir=0 NMtPBC=     1 NCelOv=     1 NCel=       1 NClECP=     1 NCelD=      1
         NCelK=      1 NCelE2=     1 NClLst=     1 CellRange=     0.0.
 One-electron integrals computed using PRISM.
 One-electron integral symmetry used in STVInt
 Entering OneElI...
 Calculate overlap and kinetic energy integrals
    NBasis =  10  MinDer = 0  MaxDer = 0
 Requested accuracy = 0.1000D-12
 Symmetry will be used
 PrmmSu-InSpLW:  IPartL=    0 NPrtUS=   36 NPrtUL=    1 DoSpLW=F IThBeg=    0 IThEnd=   35 NThAct=   36.
 PrSmSu:  IncTry=   512 NBBP=             10 NTPThr=   100 NPartT=   36 Incr=           1 LDynOK=F GPUOK=F.
 PrsmSu:  NPrtUS=  36 ThrOK=T IAlg=1 LenDen=           0 ISkipM=0 DoSpLW=F IThBeg=    0 IThEnd=   35.
 Prism:   IPart=     0 DynPar=F LinDyn=F Incr=           1.
 PRISM was handed   268433759 working-precision words and    10 shell-pairs
 PRISM was handed   268433759 working-precision words and    10 shell-pairs
 PRISM was handed   268433759 working-precision words and    10 shell-pairs
 PRISM was handed   268433759 working-precision words and    10 shell-pairs
 PRISM was handed   268433759 working-precision words and    10 shell-pairs
 PRISM was handed   268433759 working-precision words and    10 shell-pairs
 PRISM was handed   268433759 working-precision words and    10 shell-pairs
 PRISM was handed   268433759 working-precision words and    10 shell-pairs
 PRISM was handed   268433759 working-precision words and    10 shell-pairs
 PRISM was handed   268433759 working-precision words and    10 shell-pairs
 IPart=  2 NShTot=           0 NBatch=           0 AvBLen=         0.0
 IPart=  4 NShTot=           0 NBatch=           0 AvBLen=         0.0
 IPart= 24 NShTot=           0 NBatch=           0 AvBLen=         0.0
 IPart= 23 NShTot=           0 NBatch=           0 AvBLen=         0.0
 IPart= 19 NShTot=           0 NBatch=           0 AvBLen=         0.0
 IPart= 18 NShTot=           0 NBatch=           0 AvBLen=         0.0
 IPart= 16 NShTot=           0 NBatch=           0 AvBLen=         0.0
 IPart=  1 NShTot=           0 NBatch=           0 AvBLen=         0.0
 IPart= 26 NShTot=           0 NBatch=           0 AvBLen=         0.0
 PRISM was handed   268433759 working-precision words and    10 shell-pairs
 IPart= 15 NShTot=           0 NBatch=           0 AvBLen=         0.0
 PRISM was handed   268433759 working-precision words and    10 shell-pairs
 PRISM was handed   268433759 working-precision words and    10 shell-pairs
 PRISM was handed   268433759 working-precision words and    10 shell-pairs
 PRISM was handed   268433759 working-precision words and    10 shell-pairs
 IPart= 32 NShTot=           0 NBatch=           0 AvBLen=         0.0
 PRISM was handed   268433759 working-precision words and    10 shell-pairs
 IPart= 22 NShTot=           0 NBatch=           0 AvBLen=         0.0
 PRISM was handed   268433759 working-precision words and    10 shell-pairs
 PRISM was handed   268433759 working-precision words and    10 shell-pairs
 PRISM was handed   268433759 working-precision words and    10 shell-pairs
 PRISM was handed   268433759 working-precision words and    10 shell-pairs
 IPart= 28 NShTot=           0 NBatch=           0 AvBLen=         0.0
 PRISM was handed   268433759 working-precision words and    10 shell-pairs
 IPart= 13 NShTot=           0 NBatch=           0 AvBLen=         0.0
 IPart=  7 NShTot=           0 NBatch=           0 AvBLen=         0.0
 PRISM was handed   268433759 working-precision words and    10 shell-pairs
 PRISM was handed   268433759 working-precision words and    10 shell-pairs
 PRISM was handed   268433759 working-precision words and    10 shell-pairs
 PRISM was handed   268433759 working-precision words and    10 shell-pairs
 PRISM was handed   268433759 working-precision words and    10 shell-pairs
 IPart= 29 NShTot=           0 NBatch=           0 AvBLen=         0.0
 IPart= 33 NShTot=           0 NBatch=           0 AvBLen=         0.0
 IPart=  6 NShTot=           0 NBatch=           0 AvBLen=         0.0
 IPart= 10 NShTot=           0 NBatch=           0 AvBLen=         0.0
 IPart=  3 NShTot=           0 NBatch=           0 AvBLen=         0.0
 PRISM was handed   268433759 working-precision words and    10 shell-pairs
 PRISM was handed   268433759 working-precision words and    10 shell-pairs
 IPart= 12 NShTot=           0 NBatch=           0 AvBLen=         0.0
 PRISM was handed   268433759 working-precision words and    10 shell-pairs
 PRISM was handed   268433759 working-precision words and    10 shell-pairs
 PRISM was handed   268433759 working-precision words and    10 shell-pairs
 IPart=  9 NShTot=           0 NBatch=           0 AvBLen=         0.0
 IPart= 20 NShTot=           0 NBatch=           0 AvBLen=         0.0
 IPart=  8 NShTot=           0 NBatch=           0 AvBLen=         0.0
 IPart= 14 NShTot=           0 NBatch=           0 AvBLen=         0.0
 IPart= 25 NShTot=           0 NBatch=           0 AvBLen=         0.0
 IPart= 31 NShTot=           0 NBatch=           0 AvBLen=         0.0
 PRISM was handed   268433759 working-precision words and    10 shell-pairs
 PRISM was handed   268433759 working-precision words and    10 shell-pairs
 PRISM was handed   268433759 working-precision words and    10 shell-pairs
 PRISM was handed   268433759 working-precision words and    10 shell-pairs
 IPart=  0 NShTot=          10 NBatch=          10 AvBLen=         1.0
 PRISM was handed   268433759 working-precision words and    10 shell-pairs
 IPart= 34 NShTot=           0 NBatch=           0 AvBLen=         0.0
 IPart= 30 NShTot=           0 NBatch=           0 AvBLen=         0.0
 IPart= 17 NShTot=           0 NBatch=           0 AvBLen=         0.0
 IPart= 21 NShTot=           0 NBatch=           0 AvBLen=         0.0
 IPart= 27 NShTot=           0 NBatch=           0 AvBLen=         0.0
 IPart=  5 NShTot=           0 NBatch=           0 AvBLen=         0.0
 IPart= 35 NShTot=           0 NBatch=           0 AvBLen=         0.0
 IPart= 11 NShTot=           0 NBatch=           0 AvBLen=         0.0
 PrSmSu:  NxtVal=             37.
 *** Overlap *** 
                1             2             3             4             5 
      1  0.100000D+01
      2  0.303437D-01  0.100000D+01
      3  0.305859D+00  0.145258D+00  0.100000D+01
      4  0.000000D+00  0.000000D+00  0.000000D+00  0.100000D+01
      5  0.000000D+00  0.000000D+00  0.000000D+00  0.000000D+00  0.100000D+01
      6 -0.457417D+00  0.000000D+00  0.000000D+00  0.000000D+00  0.000000D+00
      7  0.302471D+00  0.185742D+00  0.905515D+00  0.000000D+00  0.000000D+00
      8  0.000000D+00  0.000000D+00  0.000000D+00  0.802063D+00  0.000000D+00
      9  0.000000D+00  0.000000D+00  0.000000D+00  0.000000D+00  0.802063D+00
     10 -0.376942D+00  0.000000D+00  0.000000D+00  0.000000D+00  0.000000D+00
                6             7             8             9            10 
      6  0.100000D+01
      7  0.000000D+00  0.100000D+01
      8  0.000000D+00  0.000000D+00  0.100000D+01
      9  0.000000D+00  0.000000D+00  0.000000D+00  0.100000D+01
     10  0.802063D+00  0.000000D+00  0.000000D+00  0.000000D+00  0.100000D+01
 *** Kinetic Energy *** 
                1             2             3             4             5 
      1  0.760032D+00
      2 -0.975301D-02  0.362575D+01
      3  0.272724D-01 -0.242849D+00  0.145919D+00
      4  0.000000D+00  0.000000D+00  0.000000D+00  0.242177D+00
      5  0.000000D+00  0.000000D+00  0.000000D+00  0.000000D+00  0.242177D+00
      6 -0.858088D-01  0.000000D+00  0.000000D+00  0.000000D+00  0.000000D+00
      7  0.198829D-01  0.193002D-01  0.653913D-01  0.000000D+00  0.000000D+00
      8  0.000000D+00  0.000000D+00  0.000000D+00  0.100038D+00  0.000000D+00
      9  0.000000D+00  0.000000D+00  0.000000D+00  0.000000D+00  0.100038D+00
     10 -0.485278D-01  0.000000D+00  0.000000D+00  0.000000D+00  0.000000D+00
                6             7             8             9            10 
      6  0.242177D+00
      7  0.000000D+00  0.539430D-01
      8  0.000000D+00  0.000000D+00  0.899049D-01
      9  0.000000D+00  0.000000D+00  0.000000D+00  0.899049D-01
     10  0.100038D+00  0.000000D+00  0.000000D+00  0.000000D+00  0.899049D-01
 Entering OneElI...
 Calculate potential energy integrals
    NBasis =  10  MinDer = 0  MaxDer = 0
 Requested accuracy = 0.1000D-12
 Symmetry will be used
 PrmmSu-InSpLW:  IPartL=    0 NPrtUS=   36 NPrtUL=    1 DoSpLW=F IThBeg=    0 IThEnd=   35 NThAct=   36.
 PrSmSu:  IncTry=   512 NBBP=             20 NTPThr=   100 NPartT=   36 Incr=           1 LDynOK=F GPUOK=F.
 PrsmSu:  NPrtUS=  36 ThrOK=T IAlg=1 LenDen=           0 ISkipM=0 DoSpLW=F IThBeg=    0 IThEnd=   35.
 Prism:   IPart=     0 DynPar=F LinDyn=F Incr=           1.
 PRISM was handed   268433817 working-precision words and    10 shell-pairs
 PRISM was handed   268433817 working-precision words and    10 shell-pairs
 PRISM was handed   268433817 working-precision words and    10 shell-pairs
 PRISM was handed   268433817 working-precision words and    10 shell-pairs
 PRISM was handed   268433817 working-precision words and    10 shell-pairs
 PRISM was handed   268433817 working-precision words and    10 shell-pairs
 PRISM was handed   268433817 working-precision words and    10 shell-pairs
 PRISM was handed   268433817 working-precision words and    10 shell-pairs
 PRISM was handed   268433817 working-precision words and    10 shell-pairs
 PRISM was handed   268433817 working-precision words and    10 shell-pairs
 PRISM was handed   268433817 working-precision words and    10 shell-pairs
 PRISM was handed   268433817 working-precision words and    10 shell-pairs
 PRISM was handed   268433817 working-precision words and    10 shell-pairs
 PRISM was handed   268433817 working-precision words and    10 shell-pairs
 PRISM was handed   268433817 working-precision words and    10 shell-pairs
 PRISM was handed   268433817 working-precision words and    10 shell-pairs
 PRISM was handed   268433817 working-precision words and    10 shell-pairs
 PRISM was handed   268433817 working-precision words and    10 shell-pairs
 PRISM was handed   268433817 working-precision words and    10 shell-pairs
 PRISM was handed   268433817 working-precision words and    10 shell-pairs
 PRISM was handed   268433817 working-precision words and    10 shell-pairs
 PRISM was handed   268433817 working-precision words and    10 shell-pairs
 PRISM was handed   268433817 working-precision words and    10 shell-pairs
 PRISM was handed   268433817 working-precision words and    10 shell-pairs
 PRISM was handed   268433817 working-precision words and    10 shell-pairs
 PRISM was handed   268433817 working-precision words and    10 shell-pairs
 PRISM was handed   268433817 working-precision words and    10 shell-pairs
 PRISM was handed   268433817 working-precision words and    10 shell-pairs
 PRISM was handed   268433817 working-precision words and    10 shell-pairs
 PRISM was handed   268433817 working-precision words and    10 shell-pairs
 PRISM was handed   268433817 working-precision words and    10 shell-pairs
 PRISM was handed   268433817 working-precision words and    10 shell-pairs
 PRISM was handed   268433817 working-precision words and    10 shell-pairs
 PRISM was handed   268433817 working-precision words and    10 shell-pairs
 PRISM was handed   268433817 working-precision words and    10 shell-pairs
 PRISM was handed   268433817 working-precision words and    10 shell-pairs
 IPart=  0 NShTot=          20 NBatch=          10 AvBLen=         2.0
 IPart= 18 NShTot=           0 NBatch=           0 AvBLen=         0.0
 IPart= 33 NShTot=           0 NBatch=           0 AvBLen=         0.0
 IPart=  9 NShTot=           0 NBatch=           0 AvBLen=         0.0
 IPart= 12 NShTot=           0 NBatch=           0 AvBLen=         0.0
 IPart= 19 NShTot=           0 NBatch=           0 AvBLen=         0.0
 IPart= 15 NShTot=           0 NBatch=           0 AvBLen=         0.0
 IPart= 24 NShTot=           0 NBatch=           0 AvBLen=         0.0
 IPart= 21 NShTot=           0 NBatch=           0 AvBLen=         0.0
 IPart= 25 NShTot=           0 NBatch=           0 AvBLen=         0.0
 IPart=  7 NShTot=           0 NBatch=           0 AvBLen=         0.0
 IPart=  6 NShTot=           0 NBatch=           0 AvBLen=         0.0
 IPart= 30 NShTot=           0 NBatch=           0 AvBLen=         0.0
 IPart=  2 NShTot=           0 NBatch=           0 AvBLen=         0.0
 IPart= 11 NShTot=           0 NBatch=           0 AvBLen=         0.0
 IPart=  4 NShTot=           0 NBatch=           0 AvBLen=         0.0
 IPart= 22 NShTot=           0 NBatch=           0 AvBLen=         0.0
 IPart=  1 NShTot=           0 NBatch=           0 AvBLen=         0.0
 IPart= 27 NShTot=           0 NBatch=           0 AvBLen=         0.0
 IPart= 17 NShTot=           0 NBatch=           0 AvBLen=         0.0
 IPart=  8 NShTot=           0 NBatch=           0 AvBLen=         0.0
 IPart= 10 NShTot=           0 NBatch=           0 AvBLen=         0.0
 IPart=  5 NShTot=           0 NBatch=           0 AvBLen=         0.0
 IPart= 13 NShTot=           0 NBatch=           0 AvBLen=         0.0
 IPart=  3 NShTot=           0 NBatch=           0 AvBLen=         0.0
 IPart= 35 NShTot=           0 NBatch=           0 AvBLen=         0.0
 IPart= 14 NShTot=           0 NBatch=           0 AvBLen=         0.0
 IPart= 32 NShTot=           0 NBatch=           0 AvBLen=         0.0
 IPart= 20 NShTot=           0 NBatch=           0 AvBLen=         0.0
 IPart= 34 NShTot=           0 NBatch=           0 AvBLen=         0.0
 IPart= 31 NShTot=           0 NBatch=           0 AvBLen=         0.0
 IPart= 23 NShTot=           0 NBatch=           0 AvBLen=         0.0
 IPart= 29 NShTot=           0 NBatch=           0 AvBLen=         0.0
 IPart= 26 NShTot=           0 NBatch=           0 AvBLen=         0.0
 IPart= 28 NShTot=           0 NBatch=           0 AvBLen=         0.0
 IPart= 16 NShTot=           0 NBatch=           0 AvBLen=         0.0
 PrSmSu:  NxtVal=             37.
 ***** Potential Energy ***** 
                1             2             3             4             5 
      1  0.202008D+01
      2  0.119773D+00  0.833561D+01
      3  0.504513D+00  0.324461D+00  0.136706D+01
      4  0.000000D+00  0.000000D+00  0.000000D+00  0.123633D+01
      5  0.000000D+00  0.000000D+00  0.000000D+00  0.000000D+00  0.123633D+01
      6 -0.748067D+00 -0.921655D-02 -0.102878D+00  0.000000D+00  0.000000D+00
      7  0.473910D+00  0.803064D+00  0.115013D+01  0.000000D+00  0.000000D+00
      8  0.000000D+00  0.000000D+00  0.000000D+00  0.791906D+00  0.000000D+00
      9  0.000000D+00  0.000000D+00  0.000000D+00  0.000000D+00  0.791906D+00
     10 -0.559133D+00 -0.252738D-02 -0.714745D-01  0.000000D+00  0.000000D+00
                6             7             8             9            10 
      6  0.132209D+01
      7 -0.975476D-01  0.113229D+01
      8  0.000000D+00  0.000000D+00  0.773160D+00
      9  0.000000D+00  0.000000D+00  0.000000D+00  0.773160D+00
     10  0.857734D+00 -0.810097D-01  0.000000D+00  0.000000D+00  0.834383D+00
 ****** Core Hamiltonian ****** 
                1             2             3             4             5 
      1 -0.126005D+01
      2 -0.129526D+00 -0.470986D+01
      3 -0.477241D+00 -0.567310D+00 -0.122114D+01
      4  0.000000D+00  0.000000D+00  0.000000D+00 -0.994151D+00
      5  0.000000D+00  0.000000D+00  0.000000D+00  0.000000D+00 -0.994151D+00
      6  0.662258D+00  0.921655D-02  0.102878D+00  0.000000D+00  0.000000D+00
      7 -0.454027D+00 -0.783763D+00 -0.108474D+01  0.000000D+00  0.000000D+00
      8  0.000000D+00  0.000000D+00  0.000000D+00 -0.691868D+00  0.000000D+00
      9  0.000000D+00  0.000000D+00  0.000000D+00  0.000000D+00 -0.691868D+00
     10  0.510605D+00  0.252738D-02  0.714745D-01  0.000000D+00  0.000000D+00
                6             7             8             9            10 
      6 -0.107992D+01
      7  0.975476D-01 -0.107835D+01
      8  0.000000D+00  0.000000D+00 -0.683255D+00
      9  0.000000D+00  0.000000D+00  0.000000D+00 -0.683255D+00
     10 -0.757696D+00  0.810097D-01  0.000000D+00  0.000000D+00 -0.744478D+00
 SVDSVc IOpt=   1 NormSV=T IR=1
 SVDSVc V= 2.29D+00 1.90D+00 9.54D-01 5.79D-01 1.91D-01 9.35D-02
 SVDSVc IOpt=   1 NormSV=T IR=3
 SVDSVc V= 1.80D+00 1.98D-01
 SVDSVc IOpt=   1 NormSV=T IR=4
 SVDSVc V= 1.80D+00 1.98D-01
 TstOVc:  Largest diagonal error= 2.00D-15 IB=1 I=    6.
 TstOVc:  Largest same sym error= 7.95D-16 IB=1 I=    6 J=    2.
 TstOVc:  Largest diff sym error= 0.00D+00 IB=0 JB=0 I=    0 J=    0.
 Orthogonalized basis functions: 
                 1             2             3             4             5 
      1   0.321734D+00 -0.802242D-01 -0.135365D+00  0.111527D+01  0.266798D+00
      2   0.833018D-01  0.129438D+00  0.993293D+00  0.133602D+00  0.988499D-02
      3   0.293404D+00  0.356486D+00 -0.153121D+00 -0.274071D+00 -0.456898D-01
      4   0.000000D+00  0.000000D+00  0.000000D+00  0.000000D+00  0.000000D+00
      5   0.000000D+00  0.000000D+00  0.000000D+00  0.000000D+00  0.000000D+00
      6  -0.283920D+00  0.353711D+00 -0.593577D-01  0.262626D+00  0.167276D+01
      7   0.294446D+00  0.359544D+00 -0.105786D+00 -0.270705D+00 -0.508951D-01
      8   0.000000D+00  0.000000D+00  0.000000D+00  0.000000D+00  0.000000D+00
      9   0.000000D+00  0.000000D+00  0.000000D+00  0.000000D+00  0.000000D+00
     10  -0.271516D+00  0.349912D+00 -0.737718D-01  0.498175D+00 -0.153456D+01
                 6             7             8             9            10 
      1   0.902757D-02  0.000000D+00  0.000000D+00  0.000000D+00  0.000000D+00
      2  -0.106500D+00  0.000000D+00  0.000000D+00  0.000000D+00  0.000000D+00
      3  -0.230246D+01  0.000000D+00  0.000000D+00  0.000000D+00  0.000000D+00
      4   0.000000D+00  0.526744D+00  0.158936D+01  0.000000D+00  0.000000D+00
      5   0.000000D+00  0.000000D+00  0.000000D+00  0.526744D+00  0.158936D+01
      6   0.568396D-02  0.000000D+00  0.000000D+00  0.000000D+00  0.000000D+00
      7   0.231889D+01  0.000000D+00  0.000000D+00  0.000000D+00  0.000000D+00
      8   0.000000D+00  0.526744D+00 -0.158936D+01  0.000000D+00  0.000000D+00
      9   0.000000D+00  0.000000D+00  0.000000D+00  0.526744D+00 -0.158936D+01
     10  -0.127532D-02  0.000000D+00  0.000000D+00  0.000000D+00  0.000000D+00
 NBasis=    10 RedAO= T EigKep=  9.35D-02  NBF=     6     0     2     2
 NBsUse=    10 1.00D-06 EigRej= -1.00D+00 NBFU=     6     0     2     2
 Leave Link  302 at Mon Mar 28 14:00:55 2022, MaxMem=  9663676416 cpu:               3.4 elap:               0.1
 (Enter /nopt/nrel/apps/gaussian/g16C_1/g16/l303.exe)
 DipDrv will not compute anything.
 Fermi contact integrals: 
                 1             2 
      1   0.628247D+00  0.751851D-02
      2   0.196903D-04  0.252653D+01
      3   0.372243D-01 -0.285664D-01
      4   0.000000D+00  0.000000D+00
      5   0.000000D+00  0.000000D+00
      6  -0.690679D-01  0.000000D+00
      7   0.352127D-01  0.588563D-01
      8   0.000000D+00  0.000000D+00
      9   0.000000D+00  0.000000D+00
     10  -0.504755D-01  0.000000D+00
 Leave Link  303 at Mon Mar 28 14:00:56 2022, MaxMem=  9663676416 cpu:               1.1 elap:               0.1
 (Enter /nopt/nrel/apps/gaussian/g16C_1/g16/l401.exe)
 ExpMin= 3.60D-02 ExpMax= 6.42D+02 ExpMxC= 9.68D+01 IAcc=3 IRadAn=         5 AccDes= 0.00D+00
 Harris functional with IExCor=  205 and IRadAn=       5 diagonalized for initial guess.
 HarFok:  IExCor=  205 AccDes= 0.00D+00 IRadAn=         5 IDoV= 1 UseB2=F ITyADJ=14
 ICtDFT=  3500011 ScaDFX=  1.000000  1.000000  1.000000  1.000000
 FoFCou: FMM=F IPFlag=           0 FMFlag=      100000 FMFlg1=           0
         NFxFlg=           0 DoJE=T BraDBF=F KetDBF=T FulRan=T
         wScrn=  0.000000 ICntrl=       500 IOpCl=  0 I1Cent=   200000004 NGrid=           0
         NMat0=    1 NMatS0=      1 NMatT0=    0 NMatD0=    1 NMtDS0=    0 NMtDT0=    0
 Petite list used in FoFCou.
 Harris En= -7.99616516932213    
 JPrj=0 DoOrth=F DoCkMO=F.
 Initial guess orbital symmetries:
       Occupied  (SG) (SG)
       Virtual   (SG) (PI) (PI) (SG) (PI) (PI) (SG) (SG)
 The electronic state of the initial guess is 1-SG.
 Leave Link  401 at Mon Mar 28 14:00:56 2022, MaxMem=  9663676416 cpu:               4.3 elap:               0.2
 (Enter /nopt/nrel/apps/gaussian/g16C_1/g16/l502.exe)
 Keep R1 ints in memory in symmetry-blocked form, NReq=7210566.
 FoFCou: FMM=F IPFlag=           0 FMFlag=           0 FMFlg1=           0
         NFxFlg=           0 DoJE=F BraDBF=F KetDBF=F FulRan=T
         wScrn=  0.000000 ICntrl=       600 IOpCl=  0 I1Cent=           0 NGrid=           0
         NMat0=    1 NMatS0=     55 NMatT0=    0 NMatD0=    1 NMtDS0=    0 NMtDT0=    0
 Petite list used in FoFCou.
 Closed shell SCF:
 Using DIIS extrapolation, IDIIS=  1040.
 NGot=  9663676416 LenX=  9663673310 LenY=  9663672428
 Requested convergence on RMS density matrix=1.00D-08 within 128 cycles.
 Requested convergence on MAX density matrix=1.00D-06.
 Requested convergence on             energy=1.00D-06.
 No special actions if energy rises.

 Cycle   1  Pass 1  IDiag  1:
 E= -7.92179980771083    
 DIIS: error= 3.86D-02 at cycle   1 NSaved=   1.
 NSaved= 1 IEnMin= 1 EnMin= -7.92179980771083     IErMin= 1 ErrMin= 3.86D-02
 ErrMax= 3.86D-02  0.00D+00 EMaxC= 1.00D-01 BMatC= 9.39D-03 BMatP= 9.39D-03
 IDIUse=3 WtCom= 6.14D-01 WtEn= 3.86D-01
 Coeff-Com:  0.100D+01
 Coeff-En:   0.100D+01
 Coeff:      0.100D+01
 Gap=     0.231 Goal=   None    Shift=    0.000
 GapD=    0.231 DampG=1.000 DampE=0.500 DampFc=0.5000 IDamp=-1.
 Damping current iteration by 5.00D-01
 RMSDP=2.18D-02 MaxDP=1.74D-01              OVMax= 1.19D-01

 Cycle   2  Pass 1  IDiag  1:
 E= -7.93536998721989     Delta-E=       -0.013570179509 Rises=F Damp=T
 DIIS: error= 1.96D-02 at cycle   2 NSaved=   2.
 NSaved= 2 IEnMin= 2 EnMin= -7.93536998721989     IErMin= 2 ErrMin= 1.96D-02
 ErrMax= 1.96D-02  0.00D+00 EMaxC= 1.00D-01 BMatC= 2.52D-03 BMatP= 9.39D-03
 IDIUse=3 WtCom= 8.04D-01 WtEn= 1.96D-01
 Coeff-Com: -0.106D+01 0.206D+01
 Coeff-En:   0.000D+00 0.100D+01
 Coeff:     -0.852D+00 0.185D+01
 Gap=     0.277 Goal=   None    Shift=    0.000
 RMSDP=1.16D-02 MaxDP=8.90D-02 DE=-1.36D-02 OVMax= 1.04D-02

 Cycle   3  Pass 1  IDiag  1:
 E= -7.94959224823676     Delta-E=       -0.014222261017 Rises=F Damp=F
 DIIS: error= 6.55D-04 at cycle   3 NSaved=   3.
 NSaved= 3 IEnMin= 3 EnMin= -7.94959224823676     IErMin= 3 ErrMin= 6.55D-04
 ErrMax= 6.55D-04  0.00D+00 EMaxC= 1.00D-01 BMatC= 4.54D-06 BMatP= 2.52D-03
 IDIUse=3 WtCom= 9.93D-01 WtEn= 6.55D-03
 Coeff-Com:  0.497D+00-0.970D+00 0.147D+01
 Coeff-En:   0.000D+00 0.000D+00 0.100D+01
 Coeff:      0.494D+00-0.964D+00 0.147D+01
 Gap=     0.282 Goal=   None    Shift=    0.000
 RMSDP=8.83D-04 MaxDP=4.01D-03 DE=-1.42D-02 OVMax= 7.55D-03

 Cycle   4  Pass 1  IDiag  1:
 E= -7.94963009593677     Delta-E=       -0.000037847700 Rises=F Damp=F
 DIIS: error= 2.40D-04 at cycle   4 NSaved=   4.
 NSaved= 4 IEnMin= 4 EnMin= -7.94963009593677     IErMin= 4 ErrMin= 2.40D-04
 ErrMax= 2.40D-04  0.00D+00 EMaxC= 1.00D-01 BMatC= 3.39D-07 BMatP= 4.54D-06
 IDIUse=3 WtCom= 9.98D-01 WtEn= 2.40D-03
 Coeff-Com: -0.258D+00 0.509D+00-0.114D+01 0.189D+01
 Coeff-En:   0.000D+00 0.000D+00 0.000D+00 0.100D+01
 Coeff:     -0.257D+00 0.507D+00-0.114D+01 0.189D+01
 Gap=     0.283 Goal=   None    Shift=    0.000
 RMSDP=3.68D-04 MaxDP=1.62D-03 DE=-3.78D-05 OVMax= 3.95D-03

 Cycle   5  Pass 1  IDiag  1:
 E= -7.94963415244306     Delta-E=       -0.000004056506 Rises=F Damp=F
 DIIS: error= 4.29D-05 at cycle   5 NSaved=   5.
 NSaved= 5 IEnMin= 5 EnMin= -7.94963415244306     IErMin= 5 ErrMin= 4.29D-05
 ErrMax= 4.29D-05  0.00D+00 EMaxC= 1.00D-01 BMatC= 1.24D-08 BMatP= 3.39D-07
 IDIUse=1 WtCom= 1.00D+00 WtEn= 0.00D+00
 Coeff-Com: -0.247D-01 0.480D-01-0.410D-01 0.726D-01 0.945D+00
 Coeff:     -0.247D-01 0.480D-01-0.410D-01 0.726D-01 0.945D+00
 Gap=     0.283 Goal=   None    Shift=    0.000
 RMSDP=5.96D-05 MaxDP=2.55D-04 DE=-4.06D-06 OVMax= 3.65D-04

 Cycle   6  Pass 1  IDiag  1:
 E= -7.94963423869190     Delta-E=       -0.000000086249 Rises=F Damp=F
 DIIS: error= 9.35D-06 at cycle   6 NSaved=   6.
 NSaved= 6 IEnMin= 6 EnMin= -7.94963423869190     IErMin= 6 ErrMin= 9.35D-06
 ErrMax= 9.35D-06  0.00D+00 EMaxC= 1.00D-01 BMatC= 5.03D-10 BMatP= 1.24D-08
 IDIUse=1 WtCom= 1.00D+00 WtEn= 0.00D+00
 Coeff-Com:  0.835D-05-0.137D-04-0.106D-01 0.608D-02-0.422D+00 0.143D+01
 Coeff:      0.835D-05-0.137D-04-0.106D-01 0.608D-02-0.422D+00 0.143D+01
 Gap=     0.283 Goal=   None    Shift=    0.000
 RMSDP=1.56D-05 MaxDP=6.05D-05 DE=-8.62D-08 OVMax= 6.65D-05

 Cycle   7  Pass 1  IDiag  1:
 E= -7.94963424175364     Delta-E=       -0.000000003062 Rises=F Damp=F
 DIIS: error= 1.08D-07 at cycle   7 NSaved=   7.
 NSaved= 7 IEnMin= 7 EnMin= -7.94963424175364     IErMin= 7 ErrMin= 1.08D-07
 ErrMax= 1.08D-07  0.00D+00 EMaxC= 1.00D-01 BMatC= 1.20D-13 BMatP= 5.03D-10
 IDIUse=1 WtCom= 1.00D+00 WtEn= 0.00D+00
 Coeff-Com:  0.673D-04-0.125D-03 0.215D-02-0.936D-03 0.816D-01-0.282D+00
 Coeff-Com:  0.120D+01
 Coeff:      0.673D-04-0.125D-03 0.215D-02-0.936D-03 0.816D-01-0.282D+00
 Coeff:      0.120D+01
 Gap=     0.283 Goal=   None    Shift=    0.000
 RMSDP=1.68D-07 MaxDP=6.39D-07 DE=-3.06D-09 OVMax= 1.03D-06

 Cycle   8  Pass 1  IDiag  1:
 E= -7.94963424175401     Delta-E=       -0.000000000000 Rises=F Damp=F
 DIIS: error= 3.17D-08 at cycle   8 NSaved=   8.
 NSaved= 8 IEnMin= 8 EnMin= -7.94963424175401     IErMin= 8 ErrMin= 3.17D-08
 ErrMax= 3.17D-08  0.00D+00 EMaxC= 1.00D-01 BMatC= 5.95D-15 BMatP= 1.20D-13
 IDIUse=1 WtCom= 1.00D+00 WtEn= 0.00D+00
 Coeff-Com:  0.165D-04-0.350D-04-0.281D-03-0.118D-03-0.155D-01 0.545D-01
 Coeff-Com: -0.232D+00 0.119D+01
 Coeff:      0.165D-04-0.350D-04-0.281D-03-0.118D-03-0.155D-01 0.545D-01
 Coeff:     -0.232D+00 0.119D+01
 Gap=     0.283 Goal=   None    Shift=    0.000
 RMSDP=4.17D-08 MaxDP=1.93D-07 DE=-3.66D-13 OVMax= 4.46D-07

 Cycle   9  Pass 1  IDiag  1:
 E= -7.94963424175408     Delta-E=       -0.000000000000 Rises=F Damp=F
 DIIS: error= 4.57D-09 at cycle   9 NSaved=   9.
 NSaved= 9 IEnMin= 9 EnMin= -7.94963424175408     IErMin= 9 ErrMin= 4.57D-09
 ErrMax= 4.57D-09  0.00D+00 EMaxC= 1.00D-01 BMatC= 1.81D-16 BMatP= 5.95D-15
 IDIUse=1 WtCom= 1.00D+00 WtEn= 0.00D+00
 Coeff-Com: -0.103D-05 0.223D-05-0.344D-04 0.312D-04-0.105D-02 0.369D-02
 Coeff-Com: -0.240D-01-0.102D+00 0.112D+01
 Coeff:     -0.103D-05 0.223D-05-0.344D-04 0.312D-04-0.105D-02 0.369D-02
 Coeff:     -0.240D-01-0.102D+00 0.112D+01
 Gap=     0.283 Goal=   None    Shift=    0.000
 RMSDP=6.82D-09 MaxDP=2.71D-08 DE=-7.28D-14 OVMax= 3.97D-08

 SCF Done:  E(RHF) =  -7.94963424175     A.U. after    9 cycles
            NFock=  9  Conv=0.68D-08     -V/T= 2.0017
 KE= 7.936531856378D+00 PE=-1.992160915854D+01 EE= 3.241677244027D+00
 Leave Link  502 at Mon Mar 28 14:00:56 2022, MaxMem=  9663676416 cpu:               4.8 elap:               0.2
 (Enter /nopt/nrel/apps/gaussian/g16C_1/g16/l801.exe)
 Windowed orbitals will be sorted by symmetry type.
 ExpMin= 3.60D-02 ExpMax= 6.42D+02 ExpMxC= 9.68D+01 IAcc=3 IRadAn=         5 AccDes= 0.00D+00
 HarFok:  IExCor=  205 AccDes= 0.00D+00 IRadAn=         5 IDoV=-2 UseB2=F ITyADJ=14
 ICtDFT= 12500011 ScaDFX=  1.000000  1.000000  1.000000  1.000000
 Largest valence mixing into a core orbital is  3.49D-04
 Largest core mixing into a valence orbital is  1.08D-04
 Range of M.O.s used for correlation:     2    10
 NBasis=    10 NAE=     2 NBE=     2 NFC=     1 NFV=     0
 NROrb=      9 NOA=     1 NOB=     1 NVA=     8 NVB=     8
 Leave Link  801 at Mon Mar 28 14:00:56 2022, MaxMem=  9663676416 cpu:               2.5 elap:               0.1
 (Enter /nopt/nrel/apps/gaussian/g16C_1/g16/l804.exe)
 Closed-shell transformation, MDV=  9663676416 ITran=4 ISComp=2.
 Unit  1 TFree=          4815 TCopy=        115391.
 Semi-Direct transformation.
 ModeAB=           2 MOrb=             1 LenV=    9663554992
 LASXX=           88 LTotXX=          88 LenRXX=          88
 LTotAB=         141 MaxLAS=         495 LenRXY=         495
 NonZer=         603 LenScr=      785920 LnRSAI=           0
 LnScr1=           0 LExtra=      218815 Total=      1005318
 MaxDsk= 34359738368 SrtSym=           F ITran=            4
 DoSDTr:  NPSUse= 36
 JobTyp=0 Pass  1:  I=   1 to   1.
 (rs|ai) integrals will be sorted in core.
 Complete sort for first half transformation.
 First half transformation complete.
 Complete sort for second half transformation.
 Second half transformation complete.
 Spin components of T(2) and E(2):
     alpha-alpha T2 =       0.0000000000D+00 E2=      0.0000000000D+00
     alpha-beta  T2 =       0.1461247997D-01 E2=     -0.1672274153D-01
     beta-beta   T2 =       0.0000000000D+00 E2=      0.0000000000D+00
 ANorm=    0.1007279743D+01
 E2 =    -0.1672274153D-01 EUMP2 =    -0.79663569832840D+01
 Leave Link  804 at Mon Mar 28 14:00:56 2022, MaxMem=  9663676416 cpu:               1.4 elap:               0.1
 (Enter /nopt/nrel/apps/gaussian/g16C_1/g16/l913.exe)
 CIDS:  MDV=  9663676416.
 Frozen-core window:  NFC=   1 NFV=   0.
 IFCWin=0 IBDFC=1 NFBD=     0     0 NFCmp=     0     0 NFFFC=     0     0
 Using DD3R+UMP44R for 1st iteration.
 Using DD4RQ for 2nd and later iterations.
 Keep R2 and R3 ints in memory in symmetry-blocked form, NReq=7212948.
 FoFCou: FMM=F IPFlag=           0 FMFlag=           0 FMFlg1=           0
         NFxFlg=           0 DoJE=F BraDBF=F KetDBF=F FulRan=T
         wScrn=  0.000000 ICntrl=       600 IOpCl=  0 I1Cent=           0 NGrid=           0
         NMat0=    1 NMatS0=     55 NMatT0=    0 NMatD0=    1 NMtDS0=    0 NMtDT0=    0
 Petite list used in FoFCou.
 CIDS: In Core Option IDoMem=           1.
 Coupled Cluster theory with single and double substitutions
 ===========================================================
 Iterations= 200 Convergence= 0.100D-06
 Produce multiple copies of IABC intergrals
 Iteration Nr.   1
 **********************
 DD1Dir will call FoFMem   1 times, MxPair=         2
 NAB=     1 NAA=     0 NBB=     0.
 MP4(R+Q)=  0.24436073D-03
 Maximum subspace dimension=  5
 A-vector RMS=  1.4984465D-02 Max=  3.2581887D-02 conv= 1.00D-05.
 RLE energy=       -0.0266494497
 E3=       -0.64742896D-02        EUMP3=      -0.79728312728D+01
 E4(DQ)=   -0.25106448D-02        UMP4(DQ)=   -0.79753419176D+01
 E4(SDQ)=  -0.26142833D-02        UMP4(SDQ)=  -0.79754455561D+01
 VARIATIONAL ENERGIES WITH THE FIRST-ORDER WAVEFUNCTION:
 DE(Corr)= -0.22951830E-01 E(Corr)=     -7.9725860716    
 NORM(A)=   0.10186693D+01
 Iteration Nr.   2
 **********************
 DD1Dir will call FoFMem   1 times, MxPair=         2
 NAB=     1 NAA=     0 NBB=     0.
 A-vector RMS=  8.0673739D-03 Max=  8.5461125D-03 conv= 1.00D-05.
 RLE energy=       -0.0274023904
 DE(Corr)= -0.26995376E-01 E(CORR)=     -7.9766296173     Delta=-4.04D-03
 NORM(A)=   0.10209138D+01
 Iteration Nr.   3
 **********************
 DD1Dir will call FoFMem   1 times, MxPair=         2
 NAB=     1 NAA=     0 NBB=     0.
 A-vector RMS=  5.5922954D-03 Max=  6.7049080D-03 conv= 1.00D-05.
 RLE energy=       -0.0278092231
 DE(Corr)= -0.27461480E-01 E(CORR)=     -7.9770957218     Delta=-4.66D-04
 NORM(A)=   0.10237306D+01
 Iteration Nr.   4
 **********************
 DD1Dir will call FoFMem   1 times, MxPair=         2
 NAB=     1 NAA=     0 NBB=     0.
 A-vector RMS=  1.9920919D-03 Max=  2.1832558D-03 conv= 1.00D-05.
 RLE energy=       -0.0279683419
 DE(Corr)= -0.27828514E-01 E(CORR)=     -7.9774627556     Delta=-3.67D-04
 NORM(A)=   0.10253096D+01
 Iteration Nr.   5
 **********************
 DD1Dir will call FoFMem   1 times, MxPair=         2
 NAB=     1 NAA=     0 NBB=     0.
 A-vector RMS=  2.5698598D-04 Max=  2.3875633D-04 conv= 1.00D-05.
 RLE energy=       -0.0279289097
 DE(Corr)= -0.27943096E-01 E(CORR)=     -7.9775773378     Delta=-1.15D-04
 NORM(A)=   0.10253118D+01
 Iteration Nr.   6
 **********************
 DD1Dir will call FoFMem   1 times, MxPair=         2
 NAB=     1 NAA=     0 NBB=     0.
 A-vector RMS=  4.0291399D-05 Max=  3.2325224D-05 conv= 1.00D-05.
 RLE energy=       -0.0279294989
 DE(Corr)= -0.27929395E-01 E(CORR)=     -7.9775636370     Delta= 1.37D-05
 NORM(A)=   0.10253159D+01
 Iteration Nr.   7
 **********************
 DD1Dir will call FoFMem   1 times, MxPair=         2
 NAB=     1 NAA=     0 NBB=     0.
 A-vector RMS=  1.7334261D-05 Max=  1.3631888D-05 conv= 1.00D-05.
 RLE energy=       -0.0279299509
 DE(Corr)= -0.27929689E-01 E(CORR)=     -7.9775639305     Delta=-2.93D-07
 NORM(A)=   0.10253180D+01
 Iteration Nr.   8
 **********************
 DD1Dir will call FoFMem   1 times, MxPair=         2
 NAB=     1 NAA=     0 NBB=     0.
 A-vector RMS=  5.1625082D-06 Max=  4.9194951D-06 conv= 1.00D-05.
 RLE energy=       -0.0279296951
 DE(Corr)= -0.27929828E-01 E(CORR)=     -7.9775640696     Delta=-1.39D-07
 NORM(A)=   0.10253171D+01
 Iteration Nr.   9
 **********************
 DD1Dir will call FoFMem   1 times, MxPair=         2
 NAB=     1 NAA=     0 NBB=     0.
 A-vector RMS=  5.9703634D-07 Max=  9.8673046D-07 conv= 1.00D-05.
 RLE energy=       -0.0279297785
 DE(Corr)= -0.27929738E-01 E(CORR)=     -7.9775639800     Delta= 8.96D-08
 NORM(A)=   0.10253174D+01
 CI/CC converged in    9 iterations to DelEn= 8.96D-08 Conv= 1.00D-07 ErrA1= 5.97D-07 Conv= 1.00D-05
 Wavefunction amplitudes converged. E(Corr)=     -7.9775639800    
 Dominant configurations:
 ***********************
 Spin Case        I    J    A    B          Value
   ABAB           2    2   10   10      -0.133615D+00
 Largest amplitude= 1.34D-01
 Discarding MO integrals.
 Leave Link  913 at Mon Mar 28 14:00:56 2022, MaxMem=  9663676416 cpu:               4.3 elap:               0.2
 (Enter /nopt/nrel/apps/gaussian/g16C_1/g16/l601.exe)
 Copying SCF densities to generalized density rwf, IOpCl= 0 IROHF=0.

 **********************************************************************

            Population analysis using the SCF Density.

 **********************************************************************

 Orbital symmetries:
       Occupied  (SG) (SG)
       Virtual   (SG) (PI) (PI) (SG) (SG) (PI) (PI) (SG)
 The electronic state is 1-SG.
 Alpha  occ. eigenvalues --   -2.47324  -0.27762
 Alpha virt. eigenvalues --    0.00547   0.05591   0.05591   0.16947   0.20940
 Alpha virt. eigenvalues --    0.21715   0.21715   0.40718
          Condensed to atoms (all electrons):
               1          2
     1  H    0.575373   0.340051
     2  Li   0.340051   2.744525
 Mulliken charges:
               1
     1  H    0.084576
     2  Li  -0.084576
 Sum of Mulliken charges =  -0.00000
 Mulliken charges with hydrogens summed into heavy atoms:
               1
     2  Li  -0.000000
 N-N= 7.937658163800D-01 E-N=-1.992160915076D+01  KE= 7.936531856378D+00
 Symmetry A1   KE= 7.936531856378D+00
 Symmetry A2   KE= 0.000000000000D+00
 Symmetry B1   KE= 0.000000000000D+00
 Symmetry B2   KE= 0.000000000000D+00

 Atomic contributions to Alpha molecular orbitals:
 Alpha occ 1 OE=-2.473 is Li2-s=0.9999
 Alpha occ 2 OE=-0.278 is H1-s=0.4576 Li2-s=0.3182 Li2-p=0.2242
 Alpha vir 3 OE=0.005 is Li2-s=0.5192 Li2-p=0.4644
 Alpha vir 4 OE=0.056 is Li2-p=1.0000
 Alpha vir 5 OE=0.056 is Li2-p=1.0000
 Alpha vir 6 OE=0.169 is Li2-p=0.8558
 Alpha vir 7 OE=0.209 is Li2-s=0.9306
 Alpha vir 8 OE=0.217 is Li2-p=1.0000
 Alpha vir 9 OE=0.217 is Li2-p=1.0000
 Alpha vir 10 OE=0.407 is H1-s=0.4555 Li2-p=0.3999 Li2-s=0.1446
 
 Leave Link  601 at Mon Mar 28 14:00:56 2022, MaxMem=  9663676416 cpu:               5.2 elap:               0.2
 (Enter /nopt/nrel/apps/gaussian/g16C_1/g16/l9999.exe)

 Test job not archived.
 1\1\GINC-R102U34\SP\RCCSD-FC\Gen\H1Li1\USER\28-Mar-2022\0\\#P CCSD
 (MaxCyc=200,SaveAmplitudes,ReadAmplitudes)/GEN sp pop=AllOrbitals iop(
 3/33=1,3/36=-1)\\test\\0,1\H,0,0.,0.,0.\Li,0,0.,0.,2.\\Version=ES64L-G
 16RevC.01\State=1-SG\HF=-7.9496342\MP2=-7.966357\MP3=-7.9728313\MP4D=-
 7.9755863\MP4DQ=-7.9753419\MP4SDQ=-7.9754456\CCSD=-7.977564\RMSD=6.816
 e-09\PG=C*V [C*(H1Li1)]\\@


 THOSE WHO ARE UNABLE TO LEARN FROM PAST MEETINGS
 ARE CONDEMNED TO REPEAT THEM.
 Job cpu time:       0 days  0 hours  0 minutes 37.5 seconds.
 Elapsed time:       0 days  0 hours  0 minutes  1.4 seconds.
 File lengths (MBytes):  RWF=     13 Int=      0 D2E=      0 Chk=      1 Scr=      1
 Normal termination of Gaussian 16 at Mon Mar 28 14:00:56 2022.
