 Entering Gaussian System, Link 0=g16
 Initial command:
 /nopt/nrel/apps/gaussian/g16C_1/g16/l1.exe "/lustre/eaglefs/scratch/user/qc/lih-dissc/lih-3-ccsd-1.7-321g/Gau-33094.inp" -scrdir="/lustre/eaglefs/scratch/user/qc/lih-dissc/lih-3-ccsd-1.7-321g/"
 Default is to use a total of  36 processors:
                               36 via shared-memory
                                1 via Linda
 Entering Link 1 = /nopt/nrel/apps/gaussian/g16C_1/g16/l1.exe PID=     33095.
  
 Copyright (c) 1988-2019, Gaussian, Inc.  All Rights Reserved.
  
 This is part of the Gaussian(R) 16 program.  It is based on
 the Gaussian(R) 09 system (copyright 2009, Gaussian, Inc.),
 the Gaussian(R) 03 system (copyright 2003, Gaussian, Inc.),
 the Gaussian(R) 98 system (copyright 1998, Gaussian, Inc.),
 the Gaussian(R) 94 system (copyright 1995, Gaussian, Inc.),
 the Gaussian 92(TM) system (copyright 1992, Gaussian, Inc.),
 the Gaussian 90(TM) system (copyright 1990, Gaussian, Inc.),
 the Gaussian 88(TM) system (copyright 1988, Gaussian, Inc.),
 the Gaussian 86(TM) system (copyright 1986, Carnegie Mellon
 University), and the Gaussian 82(TM) system (copyright 1983,
 Carnegie Mellon University). Gaussian is a federally registered
 trademark of Gaussian, Inc.
  
 This software contains proprietary and confidential information,
 including trade secrets, belonging to Gaussian, Inc.
  
 This software is provided under written license and may be
 used, copied, transmitted, or stored only in accord with that
 written license.
  
 The following legend is applicable only to US Government
 contracts under FAR:
  
                    RESTRICTED RIGHTS LEGEND
  
 Use, reproduction and disclosure by the US Government is
 subject to restrictions as set forth in subparagraphs (a)
 and (c) of the Commercial Computer Software - Restricted
 Rights clause in FAR 52.227-19.
  
 Gaussian, Inc.
 340 Quinnipiac St., Bldg. 40, Wallingford CT 06492
  
  
 ---------------------------------------------------------------
 Warning -- This program may not be used in any manner that
 competes with the business of Gaussian, Inc. or will provide
 assistance to any competitor of Gaussian, Inc.  The licensee
 of this program is prohibited from giving any competitor of
 Gaussian, Inc. access to this program.  By using this program,
 the user acknowledges that Gaussian, Inc. is engaged in the
 business of creating and licensing software in the field of
 computational chemistry and represents and warrants to the
 licensee that it is not a competitor of Gaussian, Inc. and that
 it will not use this program in any manner prohibited above.
 ---------------------------------------------------------------
  

 Cite this work as:
 Gaussian 16, Revision C.01,
 M. J. Frisch, G. W. Trucks, H. B. Schlegel, G. E. Scuseria, 
 M. A. Robb, J. R. Cheeseman, G. Scalmani, V. Barone, 
 G. A. Petersson, H. Nakatsuji, X. Li, M. Caricato, A. V. Marenich, 
 J. Bloino, B. G. Janesko, R. Gomperts, B. Mennucci, H. P. Hratchian, 
 J. V. Ortiz, A. F. Izmaylov, J. L. Sonnenberg, D. Williams-Young, 
 F. Ding, F. Lipparini, F. Egidi, J. Goings, B. Peng, A. Petrone, 
 T. Henderson, D. Ranasinghe, V. G. Zakrzewski, J. Gao, N. Rega, 
 G. Zheng, W. Liang, M. Hada, M. Ehara, K. Toyota, R. Fukuda, 
 J. Hasegawa, M. Ishida, T. Nakajima, Y. Honda, O. Kitao, H. Nakai, 
 T. Vreven, K. Throssell, J. A. Montgomery, Jr., J. E. Peralta, 
 F. Ogliaro, M. J. Bearpark, J. J. Heyd, E. N. Brothers, K. N. Kudin, 
 V. N. Staroverov, T. A. Keith, R. Kobayashi, J. Normand, 
 K. Raghavachari, A. P. Rendell, J. C. Burant, S. S. Iyengar, 
 J. Tomasi, M. Cossi, J. M. Millam, M. Klene, C. Adamo, R. Cammi, 
 J. W. Ochterski, R. L. Martin, K. Morokuma, O. Farkas, 
 J. B. Foresman, and D. J. Fox, Gaussian, Inc., Wallingford CT, 2019.
 
 ******************************************
 Gaussian 16:  ES64L-G16RevC.01  3-Jul-2019
                28-Mar-2022 
 ******************************************
 %chk=molecule
 Default route: CacheSize=180224 MaxDisk=256GB
 ----------------------------------------------------------------------
 #P CCSD(MaxCyc=200,SaveAmplitudes,ReadAmplitudes)/GEN sp pop=AllOrbita
 ls iop(3/33=1,3/36=-1)
 ----------------------------------------------------------------------
 1/4=180224,38=1,172=1/1;
 2/4=180224,12=2,17=6,18=5,40=1/2;
 3/4=180224,5=7,11=9,25=1,30=1,33=1,36=-1/1,2,3;
 4/4=180224/1;
 5/4=180224,5=2,38=5/2;
 8/4=180224,6=4,9=120000,10=1,24=1/1,4;
 9/4=180224,5=7,6=200,77=1/13;
 6/4=180224,7=2,8=2,9=2,10=2,96=-1/1;
 99/4=180224,5=1,9=1/99;
 Leave Link    1 at Mon Mar 28 14:04:55 2022, MaxMem=           0 cpu:               2.6 elap:               0.1
 (Enter /nopt/nrel/apps/gaussian/g16C_1/g16/l101.exe)
 ----
 test
 ----
 Symbolic Z-matrix:
 Charge =  0 Multiplicity = 3
 H                     0.        0.        0. 
 Li                    0.        0.        1.7 
 
 ITRead=  0  0
 MicOpt= -1 -1
 NAtoms=      2 NQM=        2 NQMF=       0 NMMI=      0 NMMIF=      0
                NMic=       0 NMicF=      0.
                    Isotopes and Nuclear Properties:
 (Nuclear quadrupole moments (NQMom) in fm**2, nuclear magnetic moments (NMagM)
  in nuclear magnetons)

  Atom         1           2
 IAtWgt=           1           7
 AtmWgt=   1.0078250   7.0160045
 NucSpn=           1           3
 AtZEff=  -0.0000000  -0.0000000
 NQMom=    0.0000000  -4.0100000
 NMagM=    2.7928460   3.2564240
 AtZNuc=   1.0000000   3.0000000
 Leave Link  101 at Mon Mar 28 14:04:55 2022, MaxMem=  9663676416 cpu:               3.3 elap:               0.1
 (Enter /nopt/nrel/apps/gaussian/g16C_1/g16/l202.exe)
                          Input orientation:                          
 ---------------------------------------------------------------------
 Center     Atomic      Atomic             Coordinates (Angstroms)
 Number     Number       Type             X           Y           Z
 ---------------------------------------------------------------------
      1          1           0        0.000000    0.000000    0.000000
      2          3           0        0.000000    0.000000    1.700000
 ---------------------------------------------------------------------
 Stoichiometry    HLi(3)
 Framework group  C*V[C*(HLi)]
 Deg. of freedom     1
 Full point group                 C*V     NOp   4
 Largest Abelian subgroup         C2V     NOp   4
 Largest concise Abelian subgroup C1      NOp   1
                         Standard orientation:                         
 ---------------------------------------------------------------------
 Center     Atomic      Atomic             Coordinates (Angstroms)
 Number     Number       Type             X           Y           Z
 ---------------------------------------------------------------------
      1          1           0        0.000000    0.000000   -1.275000
      2          3           0        0.000000    0.000000    0.425000
 ---------------------------------------------------------------------
 Rotational constants (GHZ):           0.0000000         198.4385516         198.4385516
 Leave Link  202 at Mon Mar 28 14:04:56 2022, MaxMem=  9663676416 cpu:               1.2 elap:               0.1
 (Enter /nopt/nrel/apps/gaussian/g16C_1/g16/l301.exe)
 General basis read from cards:  (5D, 7F)
                         Coordinates in L301:                         
 ---------------------------------------------------------------------
 Center     Atomic      Atomic             Coordinates (Angstroms)
 Number     Number       Type             X           Y           Z
 ---------------------------------------------------------------------
      1          1           0        0.000000    0.000000   -1.275000
      2          3           0        0.000000    0.000000    0.425000
 ---------------------------------------------------------------------
 Centers:       1
 STO-3G
 ****
 Centers:       2
 3-21G
 ****
 FixB: optimizing general contractions.
 Ernie: Thresh=  0.10000D-02 Tol=  0.10000D-05 Strict=F.
 IA=     1 ShT= 0 ShC= 0 NL=   1 NS=   0.
 IA=     1 L=0 SC=0 ISt=    0 NBk=    0 NP=    0 IndPr=    0.
 IA=     2 ShT= 0 ShC= 0 NL=   1 NS=   0.
 IA=     2 L=0 SC=0 ISt=    0 NBk=    0 NP=    0 IndPr=    0.
 IA=     2 ShT= 1 ShC= 0 NL=   2 NS=   1.
 IA=     2 L=1 SC=0 ISt=    0 NBk=    0 NP=    0 IndPr=    0.
 LdAtmC:  AtmChg=     1.000000     3.000000
 AtZEff=     -1.0000000     -1.3500000
 NEqShl: 
              1            2            3            4
     1            1            1            1            1
     2            2            2            2            2
     3            3            3            3            3
     4            4            4            4            4
 NEqBas: 
              1            2            3            4
     1            1            1            1            1
     2            2            2            2            2
     3            3            3            3            3
     4            4           -4           -4            4
     5            5           -5            5           -5
     6            6            6            6            6
     7            7            7            7            7
     8            8           -8           -8            8
     9            9           -9            9           -9
    10           10           10           10           10
 There are     6 symmetry adapted cartesian basis functions of A1  symmetry.
   1         1   1   1   1
   2         2   2   2   2
   3         3   3   3   3
   4         6   6   6   6
   5         7   7   7   7
   6        10  10  10  10
 There are     0 symmetry adapted cartesian basis functions of A2  symmetry.
 There are     2 symmetry adapted cartesian basis functions of B1  symmetry.
   7         4   4   4   4
   8         8   8   8   8
 There are     2 symmetry adapted cartesian basis functions of B2  symmetry.
   9         5   5   5   5
  10         9   9   9   9
 Order= 1 2 4 3
 Reordered character table:
              1            2            3            4            5
     1            1            1            1            1            1
     2            2            1            1           -1           -1
     3            4            1           -1           -1            1
     4            3            1           -1            1           -1
 NEqShl: 
              1            2            3            4
     1            1            1            1            1
     2            2            2            2            2
     3            3            3            3            3
     4            4            4            4            4
 NEqBas: 
              1            2            3            4
     1            1            1            1            1
     2            2            2            2            2
     3            3            3            3            3
     4            4           -4           -4            4
     5            5           -5            5           -5
     6            6            6            6            6
     7            7            7            7            7
     8            8           -8           -8            8
     9            9           -9            9           -9
    10           10           10           10           10
 There are     6 symmetry adapted basis functions of A1  symmetry.
   1         1   1   1   1
   2         2   2   2   2
   3         3   3   3   3
   4         6   6   6   6
   5         7   7   7   7
   6        10  10  10  10
 There are     0 symmetry adapted basis functions of A2  symmetry.
 There are     2 symmetry adapted basis functions of B1  symmetry.
   7         4   4   4   4
   8         8   8   8   8
 There are     2 symmetry adapted basis functions of B2  symmetry.
   9         5   5   5   5
  10         9   9   9   9
 Order= 1 2 4 3
 Reordered character table:
              1            2            3            4            5
     1            1            1            1            1            1
     2            2            1            1           -1           -1
     3            4            1           -1           -1            1
     4            3            1           -1            1           -1
    10 basis functions,    18 primitive gaussians,    10 cartesian basis functions
     3 alpha electrons        1 beta electrons
       nuclear repulsion energy         0.9338421369 Hartrees.
 IS=     1 IAt=     1 ISR=     1 T=0 IP=      1 IndIP=      1 IndIPD=      0 C=  2.769344D-01  0.000000D+00                             NZ=T
 IS=     1 IAt=     1 ISR=     1 T=0 IP=      2 IndIP=      2 IndIPD=      1 C=  2.678389D-01  0.000000D+00                             NZ=T
 IS=     1 IAt=     1 ISR=     1 T=0 IP=      3 IndIP=      3 IndIPD=      2 C=  8.347367D-02  0.000000D+00                             NZ=T
 IS=     2 IAt=     2 ISR=     1 T=0 IP=      1 IndIP=      4 IndIPD=      0 C=  7.424571D-01  0.000000D+00                             NZ=T
 IS=     2 IAt=     2 ISR=     1 T=0 IP=      2 IndIP=      5 IndIPD=      1 C=  9.736824D-01  0.000000D+00                             NZ=T
 IS=     2 IAt=     2 ISR=     1 T=0 IP=      3 IndIP=      6 IndIPD=      2 C=  5.265692D-01  0.000000D+00                             NZ=T
 IS=     3 IAt=     2 ISR=     2 T=1 IP=      1 IndIP=      7 IndIPD=      0 C= -1.181663D-01  1.066435D-01                             NZ=T
 IS=     3 IAt=     2 ISR=     2 T=1 IP=      2 IndIP=      8 IndIPD=      1 C=  1.473557D-01  7.547122D-02                             NZ=T
 IS=     4 IAt=     2 ISR=     3 T=1 IP=      1 IndIP=      9 IndIPD=      0 C=  4.951993D-02  1.673876D-02                             NZ=T
 IExCor=    0 DFT=F Ex=HF Corr=None ExCW=0 ScaHFX=  1.000000
 ScaDFX=  1.000000  1.000000  1.000000  1.000000 ScalE2=  1.000000  1.000000
 IRadAn=      5 IRanWt=     -1 IRanGd=            0 ICorTp=0 IEmpDi=  4
 NAtoms=    2 NActive=    2 NUniq=    2 SFac= 1.00D+00 NAtFMM=   60 NAOKFM=F Big=F
 Integral buffers will be    131072 words long.
 Raffenetti 2 integral format.
 Two-electron integral symmetry is turned on.
 Leave Link  301 at Mon Mar 28 14:04:56 2022, MaxMem=  9663676416 cpu:               2.0 elap:               0.1
 (Enter /nopt/nrel/apps/gaussian/g16C_1/g16/l302.exe)
 NPDir=0 NMtPBC=     1 NCelOv=     1 NCel=       1 NClECP=     1 NCelD=      1
         NCelK=      1 NCelE2=     1 NClLst=     1 CellRange=     0.0.
 One-electron integrals computed using PRISM.
 One-electron integral symmetry used in STVInt
 Entering OneElI...
 Calculate overlap and kinetic energy integrals
    NBasis =  10  MinDer = 0  MaxDer = 0
 Requested accuracy = 0.1000D-12
 Symmetry will be used
 PrmmSu-InSpLW:  IPartL=    0 NPrtUS=   36 NPrtUL=    1 DoSpLW=F IThBeg=    0 IThEnd=   35 NThAct=   36.
 PrSmSu:  IncTry=   512 NBBP=             10 NTPThr=   100 NPartT=   36 Incr=           1 LDynOK=F GPUOK=F.
 PrsmSu:  NPrtUS=  36 ThrOK=T IAlg=1 LenDen=           0 ISkipM=0 DoSpLW=F IThBeg=    0 IThEnd=   35.
 Prism:   IPart=     0 DynPar=F LinDyn=F Incr=           1.
 PRISM was handed   268434300 working-precision words and    10 shell-pairs
 PRISM was handed   268434300 working-precision words and    10 shell-pairs
 PRISM was handed   268434300 working-precision words and    10 shell-pairs
 PRISM was handed   268434300 working-precision words and    10 shell-pairs
 PRISM was handed   268434300 working-precision words and    10 shell-pairs
 PRISM was handed   268434300 working-precision words and    10 shell-pairs
 PRISM was handed   268434300 working-precision words and    10 shell-pairs
 PRISM was handed   268434300 working-precision words and    10 shell-pairs
 PRISM was handed   268434300 working-precision words and    10 shell-pairs
 IPart= 23 NShTot=           0 NBatch=           0 AvBLen=         0.0
 IPart= 30 NShTot=           0 NBatch=           0 AvBLen=         0.0
 IPart= 17 NShTot=           0 NBatch=           0 AvBLen=         0.0
 IPart= 25 NShTot=           0 NBatch=           0 AvBLen=         0.0
 IPart= 22 NShTot=           0 NBatch=           0 AvBLen=         0.0
 IPart= 15 NShTot=           0 NBatch=           0 AvBLen=         0.0
 IPart= 35 NShTot=           0 NBatch=           0 AvBLen=         0.0
 PRISM was handed   268434300 working-precision words and    10 shell-pairs
 PRISM was handed   268434300 working-precision words and    10 shell-pairs
 PRISM was handed   268434300 working-precision words and    10 shell-pairs
 PRISM was handed   268434300 working-precision words and    10 shell-pairs
 PRISM was handed   268434300 working-precision words and    10 shell-pairs
 PRISM was handed   268434300 working-precision words and    10 shell-pairs
 IPart=  1 NShTot=           3 NBatch=           3 AvBLen=         1.0
 PRISM was handed   268434300 working-precision words and    10 shell-pairs
 IPart= 26 NShTot=           0 NBatch=           0 AvBLen=         0.0
 PRISM was handed   268434300 working-precision words and    10 shell-pairs
 PRISM was handed   268434300 working-precision words and    10 shell-pairs
 IPart= 21 NShTot=           0 NBatch=           0 AvBLen=         0.0
 IPart= 28 NShTot=           0 NBatch=           0 AvBLen=         0.0
 IPart= 12 NShTot=           0 NBatch=           0 AvBLen=         0.0
 PRISM was handed   268434300 working-precision words and    10 shell-pairs
 IPart= 18 NShTot=           0 NBatch=           0 AvBLen=         0.0
 IPart= 11 NShTot=           0 NBatch=           0 AvBLen=         0.0
 IPart= 14 NShTot=           0 NBatch=           0 AvBLen=         0.0
 PRISM was handed   268434300 working-precision words and    10 shell-pairs
 IPart= 29 NShTot=           0 NBatch=           0 AvBLen=         0.0
 PRISM was handed   268434300 working-precision words and    10 shell-pairs
 IPart= 16 NShTot=           0 NBatch=           0 AvBLen=         0.0
 IPart=  6 NShTot=           0 NBatch=           0 AvBLen=         0.0
 PRISM was handed   268434300 working-precision words and    10 shell-pairs
 IPart=  3 NShTot=           0 NBatch=           0 AvBLen=         0.0
 IPart=  2 NShTot=           1 NBatch=           1 AvBLen=         1.0
 PRISM was handed   268434300 working-precision words and    10 shell-pairs
 PRISM was handed   268434300 working-precision words and    10 shell-pairs
 PRISM was handed   268434300 working-precision words and    10 shell-pairs
 PRISM was handed   268434300 working-precision words and    10 shell-pairs
 IPart= 34 NShTot=           0 NBatch=           0 AvBLen=         0.0
 PRISM was handed   268434300 working-precision words and    10 shell-pairs
 PRISM was handed   268434300 working-precision words and    10 shell-pairs
 PRISM was handed   268434300 working-precision words and    10 shell-pairs
 IPart= 20 NShTot=           0 NBatch=           0 AvBLen=         0.0
 IPart= 33 NShTot=           0 NBatch=           0 AvBLen=         0.0
 PRISM was handed   268434300 working-precision words and    10 shell-pairs
 IPart= 31 NShTot=           0 NBatch=           0 AvBLen=         0.0
 IPart=  8 NShTot=           0 NBatch=           0 AvBLen=         0.0
 PRISM was handed   268434300 working-precision words and    10 shell-pairs
 PRISM was handed   268434300 working-precision words and    10 shell-pairs
 IPart= 19 NShTot=           0 NBatch=           0 AvBLen=         0.0
 IPart=  4 NShTot=           0 NBatch=           0 AvBLen=         0.0
 IPart=  9 NShTot=           0 NBatch=           0 AvBLen=         0.0
 IPart= 32 NShTot=           0 NBatch=           0 AvBLen=         0.0
 IPart=  0 NShTot=           6 NBatch=           6 AvBLen=         1.0
 PRISM was handed   268434300 working-precision words and    10 shell-pairs
 PRISM was handed   268434300 working-precision words and    10 shell-pairs
 IPart= 10 NShTot=           0 NBatch=           0 AvBLen=         0.0
 PRISM was handed   268434300 working-precision words and    10 shell-pairs
 PRISM was handed   268434300 working-precision words and    10 shell-pairs
 IPart= 13 NShTot=           0 NBatch=           0 AvBLen=         0.0
 IPart=  5 NShTot=           0 NBatch=           0 AvBLen=         0.0
 IPart= 27 NShTot=           0 NBatch=           0 AvBLen=         0.0
 IPart=  7 NShTot=           0 NBatch=           0 AvBLen=         0.0
 IPart= 24 NShTot=           0 NBatch=           0 AvBLen=         0.0
 PrSmSu:  NxtVal=             37.
 *** Overlap *** 
                1             2             3             4             5 
      1  0.100000D+01
      2  0.494666D-01  0.100000D+01
      3  0.375554D+00  0.177215D+00  0.100000D+01
      4  0.000000D+00  0.000000D+00  0.000000D+00  0.100000D+01
      5  0.000000D+00  0.000000D+00  0.000000D+00  0.000000D+00  0.100000D+01
      6 -0.508409D+00  0.000000D+00  0.000000D+00  0.000000D+00  0.000000D+00
      7  0.318510D+00  0.140674D+00  0.782781D+00  0.000000D+00  0.000000D+00
      8  0.000000D+00  0.000000D+00  0.000000D+00  0.588593D+00  0.000000D+00
      9  0.000000D+00  0.000000D+00  0.000000D+00  0.000000D+00  0.588593D+00
     10 -0.308727D+00  0.000000D+00  0.000000D+00  0.000000D+00  0.000000D+00
                6             7             8             9            10 
      6  0.100000D+01
      7  0.000000D+00  0.100000D+01
      8  0.000000D+00  0.000000D+00  0.100000D+01
      9  0.000000D+00  0.000000D+00  0.000000D+00  0.100000D+01
     10  0.588593D+00  0.000000D+00  0.000000D+00  0.000000D+00  0.100000D+01
 *** Kinetic Energy *** 
                1             2             3             4             5 
      1  0.760032D+00
      2 -0.138284D-01  0.365490D+01
      3  0.486949D-01 -0.135538D+00  0.159492D+00
      4  0.000000D+00  0.000000D+00  0.000000D+00  0.307817D+00
      5  0.000000D+00  0.000000D+00  0.000000D+00  0.000000D+00  0.307817D+00
      6 -0.123973D+00  0.000000D+00  0.000000D+00  0.000000D+00  0.000000D+00
      7  0.200757D-01  0.117904D-01  0.513380D-01  0.000000D+00  0.000000D+00
      8  0.000000D+00  0.000000D+00  0.000000D+00  0.661980D-01  0.000000D+00
      9  0.000000D+00  0.000000D+00  0.000000D+00  0.000000D+00  0.661980D-01
     10 -0.352994D-01  0.000000D+00  0.000000D+00  0.000000D+00  0.000000D+00
                6             7             8             9            10 
      6  0.307817D+00
      7  0.000000D+00  0.428467D-01
      8  0.000000D+00  0.000000D+00  0.714113D-01
      9  0.000000D+00  0.000000D+00  0.000000D+00  0.714113D-01
     10  0.661980D-01  0.000000D+00  0.000000D+00  0.000000D+00  0.714113D-01
 Entering OneElI...
 Calculate potential energy integrals
    NBasis =  10  MinDer = 0  MaxDer = 0
 Requested accuracy = 0.1000D-12
 Symmetry will be used
 PrmmSu-InSpLW:  IPartL=    0 NPrtUS=   36 NPrtUL=    1 DoSpLW=F IThBeg=    0 IThEnd=   35 NThAct=   36.
 PrSmSu:  IncTry=   512 NBBP=             20 NTPThr=   100 NPartT=   36 Incr=           1 LDynOK=F GPUOK=F.
 PrsmSu:  NPrtUS=  36 ThrOK=T IAlg=1 LenDen=           0 ISkipM=0 DoSpLW=F IThBeg=    0 IThEnd=   35.
 Prism:   IPart=     0 DynPar=F LinDyn=F Incr=           1.
 PRISM was handed   268434350 working-precision words and    10 shell-pairs
 PRISM was handed   268434350 working-precision words and    10 shell-pairs
 PRISM was handed   268434350 working-precision words and    10 shell-pairs
 PRISM was handed   268434350 working-precision words and    10 shell-pairs
 PRISM was handed   268434350 working-precision words and    10 shell-pairs
 PRISM was handed   268434350 working-precision words and    10 shell-pairs
 PRISM was handed   268434350 working-precision words and    10 shell-pairs
 PRISM was handed   268434350 working-precision words and    10 shell-pairs
 PRISM was handed   268434350 working-precision words and    10 shell-pairs
 PRISM was handed   268434350 working-precision words and    10 shell-pairs
 PRISM was handed   268434350 working-precision words and    10 shell-pairs
 PRISM was handed   268434350 working-precision words and    10 shell-pairs
 PRISM was handed   268434350 working-precision words and    10 shell-pairs
 PRISM was handed   268434350 working-precision words and    10 shell-pairs
 PRISM was handed   268434350 working-precision words and    10 shell-pairs
 PRISM was handed   268434350 working-precision words and    10 shell-pairs
 PRISM was handed   268434350 working-precision words and    10 shell-pairs
 PRISM was handed   268434350 working-precision words and    10 shell-pairs
 PRISM was handed   268434350 working-precision words and    10 shell-pairs
 PRISM was handed   268434350 working-precision words and    10 shell-pairs
 PRISM was handed   268434350 working-precision words and    10 shell-pairs
 PRISM was handed   268434350 working-precision words and    10 shell-pairs
 PRISM was handed   268434350 working-precision words and    10 shell-pairs
 PRISM was handed   268434350 working-precision words and    10 shell-pairs
 PRISM was handed   268434350 working-precision words and    10 shell-pairs
 PRISM was handed   268434350 working-precision words and    10 shell-pairs
 PRISM was handed   268434350 working-precision words and    10 shell-pairs
 PRISM was handed   268434350 working-precision words and    10 shell-pairs
 PRISM was handed   268434350 working-precision words and    10 shell-pairs
 PRISM was handed   268434350 working-precision words and    10 shell-pairs
 PRISM was handed   268434350 working-precision words and    10 shell-pairs
 PRISM was handed   268434350 working-precision words and    10 shell-pairs
 PRISM was handed   268434350 working-precision words and    10 shell-pairs
 PRISM was handed   268434350 working-precision words and    10 shell-pairs
 PRISM was handed   268434350 working-precision words and    10 shell-pairs
 PRISM was handed   268434350 working-precision words and    10 shell-pairs
 IPart=  7 NShTot=           0 NBatch=           0 AvBLen=         0.0
 IPart= 24 NShTot=           0 NBatch=           0 AvBLen=         0.0
 IPart= 25 NShTot=           0 NBatch=           0 AvBLen=         0.0
 IPart=  8 NShTot=           0 NBatch=           0 AvBLen=         0.0
 IPart=  9 NShTot=           0 NBatch=           0 AvBLen=         0.0
 IPart= 30 NShTot=           0 NBatch=           0 AvBLen=         0.0
 IPart= 14 NShTot=           0 NBatch=           0 AvBLen=         0.0
 IPart= 26 NShTot=           0 NBatch=           0 AvBLen=         0.0
 IPart= 20 NShTot=           0 NBatch=           0 AvBLen=         0.0
 IPart=  1 NShTot=           6 NBatch=           3 AvBLen=         2.0
 IPart= 35 NShTot=           0 NBatch=           0 AvBLen=         0.0
 IPart=  6 NShTot=           0 NBatch=           0 AvBLen=         0.0
 IPart=  4 NShTot=           0 NBatch=           0 AvBLen=         0.0
 IPart=  2 NShTot=           0 NBatch=           0 AvBLen=         0.0
 IPart=  3 NShTot=           0 NBatch=           0 AvBLen=         0.0
 IPart= 11 NShTot=           0 NBatch=           0 AvBLen=         0.0
 IPart= 28 NShTot=           0 NBatch=           0 AvBLen=         0.0
 IPart= 33 NShTot=           0 NBatch=           0 AvBLen=         0.0
 IPart= 10 NShTot=           0 NBatch=           0 AvBLen=         0.0
 IPart= 13 NShTot=           0 NBatch=           0 AvBLen=         0.0
 IPart= 21 NShTot=           0 NBatch=           0 AvBLen=         0.0
 IPart= 32 NShTot=           0 NBatch=           0 AvBLen=         0.0
 IPart= 15 NShTot=           0 NBatch=           0 AvBLen=         0.0
 IPart= 16 NShTot=           0 NBatch=           0 AvBLen=         0.0
 IPart= 34 NShTot=           0 NBatch=           0 AvBLen=         0.0
 IPart= 31 NShTot=           0 NBatch=           0 AvBLen=         0.0
 IPart= 18 NShTot=           0 NBatch=           0 AvBLen=         0.0
 IPart= 22 NShTot=           0 NBatch=           0 AvBLen=         0.0
 IPart= 23 NShTot=           0 NBatch=           0 AvBLen=         0.0
 IPart= 29 NShTot=           0 NBatch=           0 AvBLen=         0.0
 IPart= 19 NShTot=           0 NBatch=           0 AvBLen=         0.0
 IPart= 17 NShTot=           0 NBatch=           0 AvBLen=         0.0
 IPart= 12 NShTot=           0 NBatch=           0 AvBLen=         0.0
 IPart= 27 NShTot=           0 NBatch=           0 AvBLen=         0.0
 IPart=  5 NShTot=           0 NBatch=           0 AvBLen=         0.0
 IPart=  0 NShTot=          14 NBatch=           7 AvBLen=         2.0
 PrSmSu:  NxtVal=             37.
 ***** Potential Energy ***** 
                1             2             3             4             5 
      1  0.215891D+01
      2  0.221194D+00  0.839285D+01
      3  0.690763D+00  0.684856D+00  0.151827D+01
      4  0.000000D+00  0.000000D+00  0.000000D+00  0.141218D+01
      5  0.000000D+00  0.000000D+00  0.000000D+00  0.000000D+00  0.141218D+01
      6 -0.928646D+00 -0.114788D-01 -0.123500D+00  0.000000D+00  0.000000D+00
      7  0.530785D+00  0.657987D+00  0.107435D+01  0.000000D+00  0.000000D+00
      8  0.000000D+00  0.000000D+00  0.000000D+00  0.626742D+00  0.000000D+00
      9  0.000000D+00  0.000000D+00  0.000000D+00  0.000000D+00  0.626742D+00
     10 -0.474814D+00 -0.176879D-02 -0.580105D-01  0.000000D+00  0.000000D+00
                6             7             8             9            10 
      6  0.151201D+01
      7 -0.969750D-01  0.103400D+01
      8  0.000000D+00  0.000000D+00  0.700414D+00
      9  0.000000D+00  0.000000D+00  0.000000D+00  0.700414D+00
     10  0.678197D+00 -0.693706D-01  0.000000D+00  0.000000D+00  0.742498D+00
 ****** Core Hamiltonian ****** 
                1             2             3             4             5 
      1 -0.139888D+01
      2 -0.235022D+00 -0.473795D+01
      3 -0.642069D+00 -0.820394D+00 -0.135877D+01
      4  0.000000D+00  0.000000D+00  0.000000D+00 -0.110436D+01
      5  0.000000D+00  0.000000D+00  0.000000D+00  0.000000D+00 -0.110436D+01
      6  0.804673D+00  0.114788D-01  0.123500D+00  0.000000D+00  0.000000D+00
      7 -0.510710D+00 -0.646197D+00 -0.102301D+01  0.000000D+00  0.000000D+00
      8  0.000000D+00  0.000000D+00  0.000000D+00 -0.560544D+00  0.000000D+00
      9  0.000000D+00  0.000000D+00  0.000000D+00  0.000000D+00 -0.560544D+00
     10  0.439515D+00  0.176879D-02  0.580105D-01  0.000000D+00  0.000000D+00
                6             7             8             9            10 
      6 -0.120419D+01
      7  0.969750D-01 -0.991151D+00
      8  0.000000D+00  0.000000D+00 -0.629002D+00
      9  0.000000D+00  0.000000D+00  0.000000D+00 -0.629002D+00
     10 -0.611999D+00  0.693706D-01  0.000000D+00  0.000000D+00 -0.671087D+00
 SVDSVc IOpt=   1 NormSV=T IR=1
 SVDSVc V= 2.21D+00 1.72D+00 9.49D-01 5.83D-01 3.32D-01 2.11D-01
 SVDSVc IOpt=   1 NormSV=T IR=3
 SVDSVc V= 1.59D+00 4.11D-01
 SVDSVc IOpt=   1 NormSV=T IR=4
 SVDSVc V= 1.59D+00 4.11D-01
 TstOVc:  Largest diagonal error= 1.22D-15 IB=1 I=    6.
 TstOVc:  Largest same sym error= 8.88D-16 IB=1 I=    4 J=    3.
 TstOVc:  Largest diff sym error= 0.00D+00 IB=0 JB=0 I=    0 J=    0.
 Orthogonalized basis functions: 
                 1             2             3             4             5 
      1   0.351423D+00 -0.126767D+00 -0.112244D+00  0.879982D+00  0.809388D+00
      2   0.100101D+00  0.139473D+00  0.993885D+00  0.927240D-01  0.221109D-01
      3   0.330745D+00  0.333928D+00 -0.122404D+00 -0.193703D+00  0.905980D-02
      4   0.000000D+00  0.000000D+00  0.000000D+00  0.000000D+00  0.000000D+00
      5   0.000000D+00  0.000000D+00  0.000000D+00  0.000000D+00  0.000000D+00
      6  -0.251618D+00  0.411275D+00 -0.509273D-01 -0.153415D+00  0.127780D+01
      7   0.318833D+00  0.335351D+00 -0.163256D+00 -0.340070D+00 -0.401059D+00
      8   0.000000D+00  0.000000D+00  0.000000D+00  0.000000D+00  0.000000D+00
      9   0.000000D+00  0.000000D+00  0.000000D+00  0.000000D+00  0.000000D+00
     10  -0.212543D+00  0.391895D+00 -0.925814D-01  0.868707D+00 -0.751573D+00
                 6             7             8             9            10 
      1  -0.298744D+00  0.000000D+00  0.000000D+00  0.000000D+00  0.000000D+00
      2  -0.812010D-01  0.000000D+00  0.000000D+00  0.000000D+00  0.000000D+00
      3   0.158767D+01  0.000000D+00  0.000000D+00  0.000000D+00  0.000000D+00
      4   0.000000D+00  0.561020D+00  0.110243D+01  0.000000D+00  0.000000D+00
      5   0.000000D+00  0.000000D+00  0.000000D+00  0.561020D+00  0.110243D+01
      6  -0.237118D+00  0.000000D+00  0.000000D+00  0.000000D+00  0.000000D+00
      7  -0.143937D+01  0.000000D+00  0.000000D+00  0.000000D+00  0.000000D+00
      8   0.000000D+00  0.561020D+00 -0.110243D+01  0.000000D+00  0.000000D+00
      9   0.000000D+00  0.000000D+00  0.000000D+00  0.561020D+00 -0.110243D+01
     10   0.599655D-01  0.000000D+00  0.000000D+00  0.000000D+00  0.000000D+00
 NBasis=    10 RedAO= T EigKep=  2.11D-01  NBF=     6     0     2     2
 NBsUse=    10 1.00D-06 EigRej= -1.00D+00 NBFU=     6     0     2     2
 Leave Link  302 at Mon Mar 28 14:04:56 2022, MaxMem=  9663676416 cpu:               4.0 elap:               0.1
 (Enter /nopt/nrel/apps/gaussian/g16C_1/g16/l303.exe)
 DipDrv will not compute anything.
 Fermi contact integrals: 
                 1             2 
      1   0.628247D+00  0.150405D-01
      2   0.539122D-05  0.224271D+01
      3   0.508443D-01  0.291894D-01
      4   0.000000D+00  0.000000D+00
      5   0.000000D+00  0.000000D+00
      6  -0.856932D-01  0.000000D+00
      7   0.368767D-01  0.495199D-01
      8   0.000000D+00  0.000000D+00
      9   0.000000D+00  0.000000D+00
     10  -0.400445D-01  0.000000D+00
 Leave Link  303 at Mon Mar 28 14:04:56 2022, MaxMem=  9663676416 cpu:               2.0 elap:               0.1
 (Enter /nopt/nrel/apps/gaussian/g16C_1/g16/l401.exe)
 ExpMin= 2.86D-02 ExpMax= 3.68D+01 ExpMxC= 3.68D+01 IAcc=3 IRadAn=         5 AccDes= 0.00D+00
 Harris functional with IExCor=  205 and IRadAn=       5 diagonalized for initial guess.
 HarFok:  IExCor=  205 AccDes= 0.00D+00 IRadAn=         5 IDoV= 1 UseB2=F ITyADJ=14
 ICtDFT=  3500011 ScaDFX=  1.000000  1.000000  1.000000  1.000000
 FoFCou: FMM=F IPFlag=           0 FMFlag=      100000 FMFlg1=           0
         NFxFlg=           0 DoJE=T BraDBF=F KetDBF=T FulRan=T
         wScrn=  0.000000 ICntrl=       500 IOpCl=  0 I1Cent=   200000004 NGrid=           0
         NMat0=    1 NMatS0=      1 NMatT0=    0 NMatD0=    1 NMtDS0=    0 NMtDT0=    0
 Petite list used in FoFCou.
 Harris En= -7.76750656162352    
 JPrj=0 DoOrth=F DoCkMO=F.
 Initial guess orbital symmetries:
 Alpha Orbitals:
       Occupied  (SG) (SG) (SG)
       Virtual   (PI) (PI) (SG) (PI) (PI) (SG) (SG)
 Beta  Orbitals:
       Occupied  (SG)
       Virtual   (SG) (SG) (PI) (PI) (SG) (PI) (PI) (SG) (SG)
 The electronic state of the initial guess is 3-SG.
 Initial guess <Sx>= 0.0000 <Sy>= 0.0000 <Sz>= 1.0000 <S**2>= 2.0000 S= 1.0000
 Leave Link  401 at Mon Mar 28 14:04:56 2022, MaxMem=  9663676416 cpu:               4.2 elap:               0.2
 (Enter /nopt/nrel/apps/gaussian/g16C_1/g16/l502.exe)
 Keep R1 and R2 ints in memory in symmetry-blocked form, NReq=7206306.
 FoFCou: FMM=F IPFlag=           0 FMFlag=           0 FMFlg1=           0
         NFxFlg=           0 DoJE=F BraDBF=F KetDBF=F FulRan=T
         wScrn=  0.000000 ICntrl=       600 IOpCl=  0 I1Cent=           0 NGrid=           0
         NMat0=    1 NMatS0=     55 NMatT0=    0 NMatD0=    1 NMtDS0=    0 NMtDT0=    0
 Petite list used in FoFCou.
 UHF open shell SCF:
 Using DIIS extrapolation, IDIIS=  1040.
 NGot=  9663676416 LenX=  9663672766 LenY=  9663671884
 Requested convergence on RMS density matrix=1.00D-08 within 128 cycles.
 Requested convergence on MAX density matrix=1.00D-06.
 Requested convergence on             energy=1.00D-06.
 No special actions if energy rises.

 Cycle   1  Pass 1  IDiag  1:
 E= -7.82536713624476    
 DIIS: error= 3.18D-02 at cycle   1 NSaved=   1.
 NSaved= 1 IEnMin= 1 EnMin= -7.82536713624476     IErMin= 1 ErrMin= 3.18D-02
 ErrMax= 3.18D-02  0.00D+00 EMaxC= 1.00D-01 BMatC= 2.36D-02 BMatP= 2.36D-02
 IDIUse=3 WtCom= 6.82D-01 WtEn= 3.18D-01
 Coeff-Com:  0.100D+01
 Coeff-En:   0.100D+01
 Coeff:      0.100D+01
 Gap=     0.205 Goal=   None    Shift=    0.000
 Gap=     2.401 Goal=   None    Shift=    0.000
 GapD=    0.205 DampG=1.000 DampE=0.500 DampFc=0.5000 IDamp=-1.
 Damping current iteration by 5.00D-01
 RMSDP=1.35D-02 MaxDP=1.55D-01              OVMax= 1.93D-02

 Cycle   2  Pass 1  IDiag  1:
 E= -7.83148967794288     Delta-E=       -0.006122541698 Rises=F Damp=T
 DIIS: error= 2.10D-02 at cycle   2 NSaved=   2.
 NSaved= 2 IEnMin= 2 EnMin= -7.83148967794288     IErMin= 2 ErrMin= 2.10D-02
 ErrMax= 2.10D-02  0.00D+00 EMaxC= 1.00D-01 BMatC= 9.62D-03 BMatP= 2.36D-02
 IDIUse=3 WtCom= 7.90D-01 WtEn= 2.10D-01
 Coeff-Com: -0.169D+01 0.269D+01
 Coeff-En:   0.000D+00 0.100D+01
 Coeff:     -0.133D+01 0.233D+01
 Gap=     0.195 Goal=   None    Shift=    0.000
 Gap=     2.401 Goal=   None    Shift=    0.000
 RMSDP=1.21D-02 MaxDP=1.43D-01 DE=-6.12D-03 OVMax= 3.47D-03

 Cycle   3  Pass 1  IDiag  1:
 E= -7.84086821456475     Delta-E=       -0.009378536622 Rises=F Damp=F
 DIIS: error= 2.27D-03 at cycle   3 NSaved=   3.
 NSaved= 3 IEnMin= 3 EnMin= -7.84086821456475     IErMin= 3 ErrMin= 2.27D-03
 ErrMax= 2.27D-03  0.00D+00 EMaxC= 1.00D-01 BMatC= 1.12D-04 BMatP= 9.62D-03
 IDIUse=3 WtCom= 9.77D-01 WtEn= 2.27D-02
 Coeff-Com:  0.622D+00-0.110D+01 0.148D+01
 Coeff-En:   0.000D+00 0.000D+00 0.100D+01
 Coeff:      0.608D+00-0.108D+01 0.147D+01
 Gap=     0.196 Goal=   None    Shift=    0.000
 Gap=     2.406 Goal=   None    Shift=    0.000
 RMSDP=1.83D-03 MaxDP=2.09D-02 DE=-9.38D-03 OVMax= 2.04D-04

 Cycle   4  Pass 1  IDiag  1:
 E= -7.84096654452991     Delta-E=       -0.000098329965 Rises=F Damp=F
 DIIS: error= 9.37D-05 at cycle   4 NSaved=   4.
 NSaved= 4 IEnMin= 4 EnMin= -7.84096654452991     IErMin= 4 ErrMin= 9.37D-05
 ErrMax= 9.37D-05  0.00D+00 EMaxC= 1.00D-01 BMatC= 3.07D-07 BMatP= 1.12D-04
 IDIUse=1 WtCom= 1.00D+00 WtEn= 0.00D+00
 Coeff-Com: -0.202D+00 0.361D+00-0.515D+00 0.136D+01
 Coeff:     -0.202D+00 0.361D+00-0.515D+00 0.136D+01
 Gap=     0.196 Goal=   None    Shift=    0.000
 Gap=     2.406 Goal=   None    Shift=    0.000
 RMSDP=1.83D-04 MaxDP=1.15D-03 DE=-9.83D-05 OVMax= 4.56D-05

 Cycle   5  Pass 1  IDiag  1:
 E= -7.84096721242357     Delta-E=       -0.000000667894 Rises=F Damp=F
 DIIS: error= 3.29D-05 at cycle   5 NSaved=   5.
 NSaved= 5 IEnMin= 5 EnMin= -7.84096721242357     IErMin= 5 ErrMin= 3.29D-05
 ErrMax= 3.29D-05  0.00D+00 EMaxC= 1.00D-01 BMatC= 2.43D-08 BMatP= 3.07D-07
 IDIUse=1 WtCom= 1.00D+00 WtEn= 0.00D+00
 Coeff-Com:  0.715D-01-0.128D+00 0.187D+00-0.692D+00 0.156D+01
 Coeff:      0.715D-01-0.128D+00 0.187D+00-0.692D+00 0.156D+01
 Gap=     0.196 Goal=   None    Shift=    0.000
 Gap=     2.406 Goal=   None    Shift=    0.000
 RMSDP=7.80D-05 MaxDP=5.29D-04 DE=-6.68D-07 OVMax= 4.81D-06

 Cycle   6  Pass 1  IDiag  1:
 E= -7.84096729206202     Delta-E=       -0.000000079638 Rises=F Damp=F
 DIIS: error= 6.57D-06 at cycle   6 NSaved=   6.
 NSaved= 6 IEnMin= 6 EnMin= -7.84096729206202     IErMin= 6 ErrMin= 6.57D-06
 ErrMax= 6.57D-06  0.00D+00 EMaxC= 1.00D-01 BMatC= 6.93D-10 BMatP= 2.43D-08
 IDIUse=1 WtCom= 1.00D+00 WtEn= 0.00D+00
 Coeff-Com: -0.130D-01 0.234D-01-0.350D-01 0.146D+00-0.483D+00 0.136D+01
 Coeff:     -0.130D-01 0.234D-01-0.350D-01 0.146D+00-0.483D+00 0.136D+01
 Gap=     0.196 Goal=   None    Shift=    0.000
 Gap=     2.406 Goal=   None    Shift=    0.000
 RMSDP=1.44D-05 MaxDP=9.80D-05 DE=-7.96D-08 OVMax= 4.41D-07

 Cycle   7  Pass 1  IDiag  1:
 E= -7.84096729433594     Delta-E=       -0.000000002274 Rises=F Damp=F
 DIIS: error= 7.83D-07 at cycle   7 NSaved=   7.
 NSaved= 7 IEnMin= 7 EnMin= -7.84096729433594     IErMin= 7 ErrMin= 7.83D-07
 ErrMax= 7.83D-07  0.00D+00 EMaxC= 1.00D-01 BMatC= 1.28D-11 BMatP= 6.93D-10
 IDIUse=1 WtCom= 1.00D+00 WtEn= 0.00D+00
 Coeff-Com:  0.708D-03-0.129D-02 0.213D-02-0.114D-01 0.691D-01-0.335D+00
 Coeff-Com:  0.128D+01
 Coeff:      0.708D-03-0.129D-02 0.213D-02-0.114D-01 0.691D-01-0.335D+00
 Coeff:      0.128D+01
 Gap=     0.196 Goal=   None    Shift=    0.000
 Gap=     2.406 Goal=   None    Shift=    0.000
 RMSDP=1.62D-06 MaxDP=1.16D-05 DE=-2.27D-09 OVMax= 1.99D-07

 Cycle   8  Pass 1  IDiag  1:
 E= -7.84096729436553     Delta-E=       -0.000000000030 Rises=F Damp=F
 DIIS: error= 2.32D-07 at cycle   8 NSaved=   8.
 NSaved= 8 IEnMin= 8 EnMin= -7.84096729436553     IErMin= 8 ErrMin= 2.32D-07
 ErrMax= 2.32D-07  0.00D+00 EMaxC= 1.00D-01 BMatC= 7.52D-13 BMatP= 1.28D-11
 IDIUse=1 WtCom= 1.00D+00 WtEn= 0.00D+00
 Coeff-Com:  0.107D-03-0.178D-03 0.104D-03 0.199D-02-0.307D-01 0.188D+00
 Coeff-Com: -0.878D+00 0.172D+01
 Coeff:      0.107D-03-0.178D-03 0.104D-03 0.199D-02-0.307D-01 0.188D+00
 Coeff:     -0.878D+00 0.172D+01
 Gap=     0.196 Goal=   None    Shift=    0.000
 Gap=     2.406 Goal=   None    Shift=    0.000
 RMSDP=6.54D-07 MaxDP=6.69D-06 DE=-2.96D-11 OVMax= 1.69D-08

 Cycle   9  Pass 1  IDiag  1:
 E= -7.84096729436829     Delta-E=       -0.000000000003 Rises=F Damp=F
 DIIS: error= 2.07D-08 at cycle   9 NSaved=   9.
 NSaved= 9 IEnMin= 9 EnMin= -7.84096729436829     IErMin= 9 ErrMin= 2.07D-08
 ErrMax= 2.07D-08  0.00D+00 EMaxC= 1.00D-01 BMatC= 1.34D-14 BMatP= 7.52D-13
 IDIUse=1 WtCom= 1.00D+00 WtEn= 0.00D+00
 Coeff-Com:  0.434D-04-0.805D-04 0.149D-03-0.992D-03 0.786D-02-0.420D-01
 Coeff-Com:  0.186D+00-0.444D+00 0.129D+01
 Coeff:      0.434D-04-0.805D-04 0.149D-03-0.992D-03 0.786D-02-0.420D-01
 Coeff:      0.186D+00-0.444D+00 0.129D+01
 Gap=     0.196 Goal=   None    Shift=    0.000
 Gap=     2.406 Goal=   None    Shift=    0.000
 RMSDP=7.62D-08 MaxDP=8.33D-07 DE=-2.76D-12 OVMax= 8.71D-09

 Cycle  10  Pass 1  IDiag  1:
 E= -7.84096729436832     Delta-E=       -0.000000000000 Rises=F Damp=F
 DIIS: error= 5.43D-09 at cycle  10 NSaved=  10.
 NSaved=10 IEnMin=10 EnMin= -7.84096729436832     IErMin=10 ErrMin= 5.43D-09
 ErrMax= 5.43D-09  0.00D+00 EMaxC= 1.00D-01 BMatC= 5.73D-16 BMatP= 1.34D-14
 IDIUse=1 WtCom= 1.00D+00 WtEn= 0.00D+00
 Coeff-Com:  0.387D-05-0.592D-05-0.254D-05 0.166D-03-0.234D-02 0.141D-01
 Coeff-Com: -0.661D-01 0.176D+00-0.663D+00 0.154D+01
 Coeff:      0.387D-05-0.592D-05-0.254D-05 0.166D-03-0.234D-02 0.141D-01
 Coeff:     -0.661D-01 0.176D+00-0.663D+00 0.154D+01
 Gap=     0.196 Goal=   None    Shift=    0.000
 Gap=     2.406 Goal=   None    Shift=    0.000
 RMSDP=8.69D-09 MaxDP=7.14D-08 DE=-3.55D-14 OVMax= 1.40D-09

 SCF Done:  E(UHF) =  -7.84096729437     A.U. after   10 cycles
            NFock= 10  Conv=0.87D-08     -V/T= 1.9823
 <Sx>= 0.0000 <Sy>= 0.0000 <Sz>= 1.0000 <S**2>= 2.0000 S= 1.0000
 <L.S>= 0.000000000000E+00
 KE= 7.981961863659D+00 PE=-1.983073844910D+01 EE= 3.073967154151D+00
 Annihilation of the first spin contaminant:
 S**2 before annihilation     2.0000,   after     2.0000
 Leave Link  502 at Mon Mar 28 14:04:57 2022, MaxMem=  9663676416 cpu:              40.8 elap:               1.2
 (Enter /nopt/nrel/apps/gaussian/g16C_1/g16/l801.exe)
 Windowed orbitals will be sorted by symmetry type.
 ExpMin= 2.86D-02 ExpMax= 3.68D+01 ExpMxC= 3.68D+01 IAcc=3 IRadAn=         5 AccDes= 0.00D+00
 HarFok:  IExCor=  205 AccDes= 0.00D+00 IRadAn=         5 IDoV=-2 UseB2=F ITyADJ=14
 ICtDFT= 12500011 ScaDFX=  1.000000  1.000000  1.000000  1.000000
 Largest valence mixing into a core orbital is  4.57D-04
 Largest core mixing into a valence orbital is  1.94D-04
 Range of M.O.s used for correlation:     2    10
 NBasis=    10 NAE=     3 NBE=     1 NFC=     1 NFV=     0
 NROrb=      9 NOA=     2 NOB=     0 NVA=     7 NVB=     9
 Leave Link  801 at Mon Mar 28 14:04:57 2022, MaxMem=  9663676416 cpu:               3.5 elap:               0.1
 (Enter /nopt/nrel/apps/gaussian/g16C_1/g16/l804.exe)
 Open-shell transformation, MDV=  9663676416 ITran=4 ISComp=2.
 Unit  1 TFree=          7989 TCopy=        218228.
 Semi-Direct transformation.
 ModeAB=           2 MOrb=             2 LenV=    9663556261
 LASXX=          158 LTotXX=         158 LenRXX=         158
 LTotAB=         269 MaxLAS=         990 LenRXY=         990
 NonZer=        1206 LenScr=      785920 LnRSAI=           0
 LnScr1=           0 LExtra=      219218 Total=      1006286
 MaxDsk= 34359738368 SrtSym=           F ITran=            4
 DoSDTr:  NPSUse= 36
 JobTyp=1 Pass  1:  I=   1 to   2.
 (rs|ai) integrals will be sorted in core.
 Complete sort for first half transformation.
 First half transformation complete.
 Complete sort for second half transformation.
 Second half transformation complete.
 Spin components of T(2) and E(2):
     alpha-alpha T2 =       0.6108669847D-04 E2=     -0.7234117112D-04
     alpha-beta  T2 =       0.0000000000D+00 E2=      0.0000000000D+00
     beta-beta   T2 =       0.0000000000D+00 E2=      0.0000000000D+00
 ANorm=    0.1000030543D+01
 E2 =    -0.7234117112D-04 EUMP2 =    -0.78410396355394D+01
 Leave Link  804 at Mon Mar 28 14:04:57 2022, MaxMem=  9663676416 cpu:               1.8 elap:               0.1
 (Enter /nopt/nrel/apps/gaussian/g16C_1/g16/l913.exe)
 CIDS:  MDV=  9663676416.
 Frozen-core window:  NFC=   1 NFV=   0.
 IFCWin=0 IBDFC=1 NFBD=     0     0 NFCmp=     0     0 NFFFC=     0     0
 Using original routines for 1st iteration.
 Using DD4UQ or CC4UQ for 2nd and later iterations.
 Keep R2 and R3 ints in memory in symmetry-blocked form, NReq=7208700.
 FoFCou: FMM=F IPFlag=           0 FMFlag=           0 FMFlg1=           0
         NFxFlg=           0 DoJE=F BraDBF=F KetDBF=F FulRan=T
         wScrn=  0.000000 ICntrl=       600 IOpCl=  0 I1Cent=           0 NGrid=           0
         NMat0=    1 NMatS0=     55 NMatT0=    0 NMatD0=    1 NMtDS0=    0 NMtDT0=    0
 Petite list used in FoFCou.
 CIDS: In Core Option IDoMem=           1.
 Coupled Cluster theory with single and double substitutions
 ===========================================================
 Iterations= 200 Convergence= 0.100D-06
 Produce multiple copies of IABC intergrals
 Iteration Nr.   1
 **********************
 DD1Dir will call FoFMem   1 times, MxPair=         2
 NAB=     0 NAA=     1 NBB=     0.
 MP4(R+Q)=  0.44190833D-08
 Maximum subspace dimension=  5
 A-vector RMS=  7.4654626D-04 Max=  2.2527600D-03 conv= 1.00D-05.
 RLE energy=       -0.0001160490
 E3=       -0.27250385D-04        EUMP3=      -0.78410668859D+01
 E4(DQ)=   -0.10288964D-04        UMP4(DQ)=   -0.78410771749D+01
 E4(SDQ)=  -0.10400317D-04        UMP4(SDQ)=  -0.78410772862D+01
 VARIATIONAL ENERGIES WITH THE FIRST-ORDER WAVEFUNCTION:
 DE(Corr)= -0.99587199E-04 E(Corr)=     -7.8410668816    
 NORM(A)=   0.10000787D+01
 Iteration Nr.   2
 **********************
 DD1Dir will call FoFMem   1 times, MxPair=         2
 NAB=     0 NAA=     1 NBB=     0.
 A-vector RMS=  7.3114791D-05 Max=  1.1431965D-04 conv= 1.00D-05.
 RLE energy=       -0.0001165457
 DE(Corr)= -0.11626889E-03 E(CORR)=     -7.8410835633     Delta=-1.67D-05
 NORM(A)=   0.10000795D+01
 Iteration Nr.   3
 **********************
 DD1Dir will call FoFMem   1 times, MxPair=         2
 NAB=     0 NAA=     1 NBB=     0.
 A-vector RMS=  1.4792584D-05 Max=  2.7728706D-05 conv= 1.00D-05.
 RLE energy=       -0.0001165611
 DE(Corr)= -0.11654736E-03 E(CORR)=     -7.8410838417     Delta=-2.78D-07
 NORM(A)=   0.10000795D+01
 Iteration Nr.   4
 **********************
 DD1Dir will call FoFMem   1 times, MxPair=         2
 NAB=     0 NAA=     1 NBB=     0.
 A-vector RMS=  2.8416530D-06 Max=  6.7374860D-06 conv= 1.00D-05.
 RLE energy=       -0.0001165593
 DE(Corr)= -0.11656036E-03 E(CORR)=     -7.8410838547     Delta=-1.30D-08
 NORM(A)=   0.10000795D+01
 CI/CC converged in    4 iterations to DelEn=-1.30D-08 Conv= 1.00D-07 ErrA1= 2.84D-06 Conv= 1.00D-05
 Wavefunction amplitudes converged. E(Corr)=     -7.8410838547    
 Largest amplitude= 9.57D-03
 Discarding MO integrals.
 Leave Link  913 at Mon Mar 28 14:04:58 2022, MaxMem=  9663676416 cpu:              13.1 elap:               0.4
 (Enter /nopt/nrel/apps/gaussian/g16C_1/g16/l601.exe)
 Copying SCF densities to generalized density rwf, IOpCl= 1 IROHF=0.

 **********************************************************************

            Population analysis using the SCF Density.

 **********************************************************************

 Orbital symmetries:
 Alpha Orbitals:
       Occupied  (SG) (SG) (SG)
       Virtual   (PI) (PI) (SG) (SG) (PI) (PI) (SG)
 Beta  Orbitals:
       Occupied  (SG)
       Virtual   (SG) (PI) (PI) (SG) (SG) (PI) (PI) (SG) (SG)
 The electronic state is 3-SG.
 Alpha  occ. eigenvalues --   -2.46525  -0.61566  -0.17103
 Alpha virt. eigenvalues --    0.02516   0.02516   0.06813   0.18148   0.19335
 Alpha virt. eigenvalues --    0.19335   0.33533
  Beta  occ. eigenvalues --   -2.44891
  Beta virt. eigenvalues --   -0.04338   0.05546   0.05546   0.07159   0.12529
  Beta virt. eigenvalues --    0.22365   0.22365   0.25047   0.50432
          Condensed to atoms (all electrons):
               1          2
     1  H    0.729275   0.102683
     2  Li   0.102683   3.065360
          Atomic-Atomic Spin Densities.
               1          2
     1  H    0.729212   0.103465
     2  Li   0.103465   1.063858
 Mulliken charges and spin densities:
               1          2
     1  H    0.168043   0.832677
     2  Li  -0.168043   1.167323
 Sum of Mulliken charges =   0.00000   2.00000
 Mulliken charges and spin densities with hydrogens summed into heavy atoms:
               1          2
     2  Li   0.000000   2.000000
 N-N= 9.338421369176D-01 E-N=-1.983073844614D+01  KE= 7.981961863659D+00
 Symmetry A1   KE= 7.981961863659D+00
 Symmetry A2   KE= 0.000000000000D+00
 Symmetry B1   KE= 0.000000000000D+00
 Symmetry B2   KE= 0.000000000000D+00
 Symmetry A1   SP= 2.000000000000D+00
 Symmetry A2   SP= 0.000000000000D+00
 Symmetry B1   SP= 0.000000000000D+00
 Symmetry B2   SP= 0.000000000000D+00

 Atomic contributions to Alpha molecular orbitals:
 Alpha occ 1 OE=-2.465 is Li2-s=1.0000
 Alpha occ 2 OE=-0.616 is H1-s=0.8248 Li2-p=0.1012
 Alpha occ 3 OE=-0.171 is Li2-s=0.7586 Li2-p=0.2339
 Alpha vir 4 OE=0.025 is Li2-p=1.0000
 Alpha vir 5 OE=0.025 is Li2-p=1.0000
 Alpha vir 6 OE=0.068 is Li2-p=0.7620 Li2-s=0.2218
 Alpha vir 7 OE=0.181 is Li2-s=0.7871 Li2-p=0.2115
 Alpha vir 8 OE=0.193 is Li2-p=1.0000
 Alpha vir 9 OE=0.193 is Li2-p=1.0000
 Alpha vir 10 OE=0.335 is Li2-p=0.6914 Li2-s=0.1586 H1-s=0.1500

 Atomic contributions to Beta  molecular orbitals:
 Beta  occ 1 OE=-2.449 is Li2-s=1.0003
 Beta  vir 2 OE=-0.043 is Li2-s=0.4911 Li2-p=0.2763 H1-s=0.2325
 Beta  vir 3 OE=0.055 is Li2-p=1.0000
 Beta  vir 4 OE=0.055 is Li2-p=1.0000
 Beta  vir 5 OE=0.072 is Li2-p=0.5924 Li2-s=0.3928
 Beta  vir 6 OE=0.125 is Li2-p=0.4666 Li2-s=0.3673 H1-s=0.1661
 Beta  vir 7 OE=0.224 is Li2-p=1.0000
 Beta  vir 8 OE=0.224 is Li2-p=1.0000
 Beta  vir 9 OE=0.250 is Li2-s=0.6795 Li2-p=0.3046
 Beta  vir 10 OE=0.504 is H1-s=0.5711 Li2-p=0.3600
 
 Leave Link  601 at Mon Mar 28 14:04:58 2022, MaxMem=  9663676416 cpu:               1.1 elap:               0.1
 (Enter /nopt/nrel/apps/gaussian/g16C_1/g16/l9999.exe)

 Test job not archived.
 1\1\GINC-R102U34\SP\UCCSD-FC\Gen\H1Li1(3)\USER\28-Mar-2022\0\\#P C
 CSD(MaxCyc=200,SaveAmplitudes,ReadAmplitudes)/GEN sp pop=AllOrbitals i
 op(3/33=1,3/36=-1)\\test\\0,3\H,0,0.,0.,0.\Li,0,0.,0.,1.7\\Version=ES6
 4L-G16RevC.01\State=3-SG\HF=-7.8409673\MP2=-7.8410396\MP3=-7.8410669\M
 P4D=-7.8410772\MP4DQ=-7.8410772\MP4SDQ=-7.8410773\CCSD=-7.8410839\S2=2
 .000004\S2-1=0.\S2A=2.\RMSD=8.687e-09\PG=C*V [C*(H1Li1)]\\@


 MY DESCRIPTION OF EXPERIENCE IS NOT WHAT HAPPENS
 TO A MAN.  EXPERIENCE IS WHAT A MAN DOES WITH WHAT
 HAPPENS TO HIM.
                         - CHUCK KNOX, SEATTLE SEAHAWKS, 1985
 Job cpu time:       0 days  0 hours  1 minutes 21.6 seconds.
 Elapsed time:       0 days  0 hours  0 minutes  2.7 seconds.
 File lengths (MBytes):  RWF=     13 Int=      0 D2E=      0 Chk=      1 Scr=      1
 Normal termination of Gaussian 16 at Mon Mar 28 14:04:58 2022.
