 Entering Gaussian System, Link 0=g16
 Initial command:
 /nopt/nrel/apps/gaussian/g16C_1/g16/l1.exe "/lustre/eaglefs/scratch/user/qc/nah-dissc/nah-3-ccsd-3.3-631g/Gau-24240.inp" -scrdir="/lustre/eaglefs/scratch/user/qc/nah-dissc/nah-3-ccsd-3.3-631g/"
 Default is to use a total of  36 processors:
                               36 via shared-memory
                                1 via Linda
 Entering Link 1 = /nopt/nrel/apps/gaussian/g16C_1/g16/l1.exe PID=     24241.
  
 Copyright (c) 1988-2019, Gaussian, Inc.  All Rights Reserved.
  
 This is part of the Gaussian(R) 16 program.  It is based on
 the Gaussian(R) 09 system (copyright 2009, Gaussian, Inc.),
 the Gaussian(R) 03 system (copyright 2003, Gaussian, Inc.),
 the Gaussian(R) 98 system (copyright 1998, Gaussian, Inc.),
 the Gaussian(R) 94 system (copyright 1995, Gaussian, Inc.),
 the Gaussian 92(TM) system (copyright 1992, Gaussian, Inc.),
 the Gaussian 90(TM) system (copyright 1990, Gaussian, Inc.),
 the Gaussian 88(TM) system (copyright 1988, Gaussian, Inc.),
 the Gaussian 86(TM) system (copyright 1986, Carnegie Mellon
 University), and the Gaussian 82(TM) system (copyright 1983,
 Carnegie Mellon University). Gaussian is a federally registered
 trademark of Gaussian, Inc.
  
 This software contains proprietary and confidential information,
 including trade secrets, belonging to Gaussian, Inc.
  
 This software is provided under written license and may be
 used, copied, transmitted, or stored only in accord with that
 written license.
  
 The following legend is applicable only to US Government
 contracts under FAR:
  
                    RESTRICTED RIGHTS LEGEND
  
 Use, reproduction and disclosure by the US Government is
 subject to restrictions as set forth in subparagraphs (a)
 and (c) of the Commercial Computer Software - Restricted
 Rights clause in FAR 52.227-19.
  
 Gaussian, Inc.
 340 Quinnipiac St., Bldg. 40, Wallingford CT 06492
  
  
 ---------------------------------------------------------------
 Warning -- This program may not be used in any manner that
 competes with the business of Gaussian, Inc. or will provide
 assistance to any competitor of Gaussian, Inc.  The licensee
 of this program is prohibited from giving any competitor of
 Gaussian, Inc. access to this program.  By using this program,
 the user acknowledges that Gaussian, Inc. is engaged in the
 business of creating and licensing software in the field of
 computational chemistry and represents and warrants to the
 licensee that it is not a competitor of Gaussian, Inc. and that
 it will not use this program in any manner prohibited above.
 ---------------------------------------------------------------
  

 Cite this work as:
 Gaussian 16, Revision C.01,
 M. J. Frisch, G. W. Trucks, H. B. Schlegel, G. E. Scuseria, 
 M. A. Robb, J. R. Cheeseman, G. Scalmani, V. Barone, 
 G. A. Petersson, H. Nakatsuji, X. Li, M. Caricato, A. V. Marenich, 
 J. Bloino, B. G. Janesko, R. Gomperts, B. Mennucci, H. P. Hratchian, 
 J. V. Ortiz, A. F. Izmaylov, J. L. Sonnenberg, D. Williams-Young, 
 F. Ding, F. Lipparini, F. Egidi, J. Goings, B. Peng, A. Petrone, 
 T. Henderson, D. Ranasinghe, V. G. Zakrzewski, J. Gao, N. Rega, 
 G. Zheng, W. Liang, M. Hada, M. Ehara, K. Toyota, R. Fukuda, 
 J. Hasegawa, M. Ishida, T. Nakajima, Y. Honda, O. Kitao, H. Nakai, 
 T. Vreven, K. Throssell, J. A. Montgomery, Jr., J. E. Peralta, 
 F. Ogliaro, M. J. Bearpark, J. J. Heyd, E. N. Brothers, K. N. Kudin, 
 V. N. Staroverov, T. A. Keith, R. Kobayashi, J. Normand, 
 K. Raghavachari, A. P. Rendell, J. C. Burant, S. S. Iyengar, 
 J. Tomasi, M. Cossi, J. M. Millam, M. Klene, C. Adamo, R. Cammi, 
 J. W. Ochterski, R. L. Martin, K. Morokuma, O. Farkas, 
 J. B. Foresman, and D. J. Fox, Gaussian, Inc., Wallingford CT, 2019.
 
 ******************************************
 Gaussian 16:  ES64L-G16RevC.01  3-Jul-2019
                28-Mar-2022 
 ******************************************
 %chk=molecule
 Default route: CacheSize=180224 MaxDisk=256GB
 ----------------------------------------------------------------------
 #P CCSD(MaxCyc=200,SaveAmplitudes,ReadAmplitudes)/GEN sp pop=AllOrbita
 ls iop(3/33=1,3/36=-1)
 ----------------------------------------------------------------------
 1/4=180224,38=1,172=1/1;
 2/4=180224,12=2,17=6,18=5,40=1/2;
 3/4=180224,5=7,11=9,25=1,30=1,33=1,36=-1/1,2,3;
 4/4=180224/1;
 5/4=180224,5=2,38=5/2;
 8/4=180224,6=4,9=120000,10=1,24=1/1,4;
 9/4=180224,5=7,6=200,77=1/13;
 6/4=180224,7=2,8=2,9=2,10=2,96=-1/1;
 99/4=180224,5=1,9=1/99;
 Leave Link    1 at Mon Mar 28 14:25:48 2022, MaxMem=           0 cpu:               2.5 elap:               0.1
 (Enter /nopt/nrel/apps/gaussian/g16C_1/g16/l101.exe)
 ----
 test
 ----
 Symbolic Z-matrix:
 Charge =  0 Multiplicity = 3
 H                     0.        0.        0. 
 Na                    0.        0.        3.3 
 
 ITRead=  0  0
 MicOpt= -1 -1
 NAtoms=      2 NQM=        2 NQMF=       0 NMMI=      0 NMMIF=      0
                NMic=       0 NMicF=      0.
                    Isotopes and Nuclear Properties:
 (Nuclear quadrupole moments (NQMom) in fm**2, nuclear magnetic moments (NMagM)
  in nuclear magnetons)

  Atom         1           2
 IAtWgt=           1          23
 AtmWgt=   1.0078250  22.9897697
 NucSpn=           1           3
 AtZEff=  -0.0000000  -0.0000000
 NQMom=    0.0000000  10.4000000
 NMagM=    2.7928460   2.2175200
 AtZNuc=   1.0000000  11.0000000
 Leave Link  101 at Mon Mar 28 14:25:48 2022, MaxMem=  9663676416 cpu:               3.2 elap:               0.1
 (Enter /nopt/nrel/apps/gaussian/g16C_1/g16/l202.exe)
                          Input orientation:                          
 ---------------------------------------------------------------------
 Center     Atomic      Atomic             Coordinates (Angstroms)
 Number     Number       Type             X           Y           Z
 ---------------------------------------------------------------------
      1          1           0        0.000000    0.000000    0.000000
      2         11           0        0.000000    0.000000    3.300000
 ---------------------------------------------------------------------
 Stoichiometry    HNa(3)
 Framework group  C*V[C*(HNa)]
 Deg. of freedom     1
 Full point group                 C*V     NOp   4
 Largest Abelian subgroup         C2V     NOp   4
 Largest concise Abelian subgroup C1      NOp   1
                         Standard orientation:                         
 ---------------------------------------------------------------------
 Center     Atomic      Atomic             Coordinates (Angstroms)
 Number     Number       Type             X           Y           Z
 ---------------------------------------------------------------------
      1          1           0        0.000000    0.000000   -3.025000
      2         11           0        0.000000    0.000000    0.275000
 ---------------------------------------------------------------------
 Rotational constants (GHZ):           0.0000000          48.0659213          48.0659213
 Leave Link  202 at Mon Mar 28 14:25:49 2022, MaxMem=  9663676416 cpu:               1.1 elap:               0.1
 (Enter /nopt/nrel/apps/gaussian/g16C_1/g16/l301.exe)
 General basis read from cards:  (5D, 7F)
                         Coordinates in L301:                         
 ---------------------------------------------------------------------
 Center     Atomic      Atomic             Coordinates (Angstroms)
 Number     Number       Type             X           Y           Z
 ---------------------------------------------------------------------
      1          1           0        0.000000    0.000000   -3.025000
      2         11           0        0.000000    0.000000    0.275000
 ---------------------------------------------------------------------
 Centers:       1
 STO-3G
 ****
 Centers:       2
 6-31G
 ****
 FixB: optimizing general contractions.
 Ernie: Thresh=  0.10000D-02 Tol=  0.10000D-05 Strict=F.
 IA=     1 ShT= 0 ShC= 0 NL=   1 NS=   0.
 IA=     1 L=0 SC=0 ISt=    0 NBk=    0 NP=    0 IndPr=    0.
 IA=     2 ShT= 0 ShC= 0 NL=   1 NS=   0.
 IA=     2 L=0 SC=0 ISt=    0 NBk=    0 NP=    0 IndPr=    0.
 IA=     2 ShT= 1 ShC= 0 NL=   3 NS=   1.
 IA=     2 L=1 SC=0 ISt=    1 NBk=    2 NP=    9 IndPr=    0.
 DoElim1:  L=1 select primitive    1 from    2 using    1 C=-3.54D-03
 DoElim2:  L=1 select primitive    9 from    1 using    2 C= 1.23D+00
 DoElim1:  L=1 select primitive    1 from    2 using    1 C= 5.00D-03
 DoElim2:  L=1 select primitive    8 from    1 using    2 C= 9.50D-01
 Delete L=1 primitive    7 from    2 C=  0.00D+00.
 Delete L=1 primitive    5 from    2 C=  0.00D+00.
 Delete L=1 primitive    4 from    2 C=  0.00D+00.
 Delete L=1 primitive    3 from    2 C=  0.00D+00.
 Delete L=1 primitive    2 from    2 C=  0.00D+00.
 Delete L=1 primitive    1 from    2 C=  0.00D+00.
 Delete L=1 primitive    9 from    1 C=  0.00D+00.
 Delete L=1 primitive    8 from    1 C=  0.00D+00.
 Delete L=1 primitive    6 from    1 C=  0.00D+00.
 IA=     2 L=1 SC=0 ISt=    0 NBk=    0 NP=    0 IndPr=    9.
 LdAtmC:  AtmChg=     1.000000    11.000000
 AtZEff=     -1.0000000    -10.0400000
 NEqShl: 
              1            2            3            4
     1            1            1            1            1
     2            2            2            2            2
     3            3            3            3            3
     4            4            4            4            4
     5            5            5            5            5
 NEqBas: 
              1            2            3            4
     1            1            1            1            1
     2            2            2            2            2
     3            3            3            3            3
     4            4           -4           -4            4
     5            5           -5            5           -5
     6            6            6            6            6
     7            7            7            7            7
     8            8           -8           -8            8
     9            9           -9            9           -9
    10           10           10           10           10
    11           11           11           11           11
    12           12          -12          -12           12
    13           13          -13           13          -13
    14           14           14           14           14
 There are     8 symmetry adapted cartesian basis functions of A1  symmetry.
   1         1   1   1   1
   2         2   2   2   2
   3         3   3   3   3
   4         6   6   6   6
   5         7   7   7   7
   6        10  10  10  10
   7        11  11  11  11
   8        14  14  14  14
 There are     0 symmetry adapted cartesian basis functions of A2  symmetry.
 There are     3 symmetry adapted cartesian basis functions of B1  symmetry.
   9         4   4   4   4
  10         8   8   8   8
  11        12  12  12  12
 There are     3 symmetry adapted cartesian basis functions of B2  symmetry.
  12         5   5   5   5
  13         9   9   9   9
  14        13  13  13  13
 Order= 1 2 4 3
 Reordered character table:
              1            2            3            4            5
     1            1            1            1            1            1
     2            2            1            1           -1           -1
     3            4            1           -1           -1            1
     4            3            1           -1            1           -1
 NEqShl: 
              1            2            3            4
     1            1            1            1            1
     2            2            2            2            2
     3            3            3            3            3
     4            4            4            4            4
     5            5            5            5            5
 NEqBas: 
              1            2            3            4
     1            1            1            1            1
     2            2            2            2            2
     3            3            3            3            3
     4            4           -4           -4            4
     5            5           -5            5           -5
     6            6            6            6            6
     7            7            7            7            7
     8            8           -8           -8            8
     9            9           -9            9           -9
    10           10           10           10           10
    11           11           11           11           11
    12           12          -12          -12           12
    13           13          -13           13          -13
    14           14           14           14           14
 There are     8 symmetry adapted basis functions of A1  symmetry.
   1         1   1   1   1
   2         2   2   2   2
   3         3   3   3   3
   4         6   6   6   6
   5         7   7   7   7
   6        10  10  10  10
   7        11  11  11  11
   8        14  14  14  14
 There are     0 symmetry adapted basis functions of A2  symmetry.
 There are     3 symmetry adapted basis functions of B1  symmetry.
   9         4   4   4   4
  10         8   8   8   8
  11        12  12  12  12
 There are     3 symmetry adapted basis functions of B2  symmetry.
  12         5   5   5   5
  13         9   9   9   9
  14        13  13  13  13
 Order= 1 2 4 3
 Reordered character table:
              1            2            3            4            5
     1            1            1            1            1            1
     2            2            1            1           -1           -1
     3            4            1           -1           -1            1
     4            3            1           -1            1           -1
    14 basis functions,    49 primitive gaussians,    14 cartesian basis functions
     7 alpha electrons        5 beta electrons
       nuclear repulsion energy         1.7639240364 Hartrees.
 IS=     1 IAt=     1 ISR=     1 T=0 IP=      1 IndIP=      1 IndIPD=      0 C=  2.769344D-01  0.000000D+00                             NZ=T
 IS=     1 IAt=     1 ISR=     1 T=0 IP=      2 IndIP=      2 IndIPD=      1 C=  2.678389D-01  0.000000D+00                             NZ=T
 IS=     1 IAt=     1 ISR=     1 T=0 IP=      3 IndIP=      3 IndIPD=      2 C=  8.347367D-02  0.000000D+00                             NZ=T
 IS=     2 IAt=     2 ISR=     1 T=0 IP=      1 IndIP=      4 IndIPD=      0 C=  1.380276D+00  0.000000D+00                             NZ=T
 IS=     2 IAt=     2 ISR=     1 T=0 IP=      2 IndIP=      5 IndIPD=      1 C=  2.543440D+00  0.000000D+00                             NZ=T
 IS=     2 IAt=     2 ISR=     1 T=0 IP=      3 IndIP=      6 IndIPD=      2 C=  4.120502D+00  0.000000D+00                             NZ=T
 IS=     2 IAt=     2 ISR=     1 T=0 IP=      4 IndIP=      7 IndIPD=      3 C=  5.464941D+00  0.000000D+00                             NZ=T
 IS=     2 IAt=     2 ISR=     1 T=0 IP=      5 IndIP=      8 IndIPD=      4 C=  4.476262D+00  0.000000D+00                             NZ=T
 IS=     2 IAt=     2 ISR=     1 T=0 IP=      6 IndIP=      9 IndIPD=      5 C=  1.255723D+00  0.000000D+00                             NZ=T
 IS=     3 IAt=     2 ISR=     2 T=1 IP=      1 IndIP=     10 IndIPD=      0 C= -1.087231D-01  3.772614D+00                             NZ=T
 IS=     3 IAt=     2 ISR=     2 T=1 IP=      2 IndIP=     11 IndIPD=      1 C= -4.564910D-01  4.399752D+00                             NZ=T
 IS=     3 IAt=     2 ISR=     2 T=1 IP=      3 IndIP=     12 IndIPD=      2 C= -4.778739D-01  4.156503D+00                             NZ=T
 IS=     3 IAt=     2 ISR=     2 T=1 IP=      4 IndIP=     13 IndIPD=      3 C=  3.708017D-01  2.647056D+00                             NZ=T
 IS=     3 IAt=     2 ISR=     2 T=1 IP=      5 IndIP=     14 IndIPD=      4 C=  5.874076D-01  9.643141D-01                             NZ=T
 IS=     3 IAt=     2 ISR=     2 T=1 IP=      6 IndIP=     15 IndIPD=      5 C=  1.231036D-01  1.501277D-01                             NZ=T
 IS=     4 IAt=     2 ISR=     3 T=1 IP=      1 IndIP=     16 IndIPD=      0 C= -1.049885D-01 -1.372752D-02                             NZ=T
 IS=     4 IAt=     2 ISR=     3 T=1 IP=      2 IndIP=     17 IndIPD=      1 C= -1.469212D-02  6.158186D-02                             NZ=T
 IS=     4 IAt=     2 ISR=     3 T=1 IP=      3 IndIP=     18 IndIPD=      2 C=  1.153011D-01  2.888614D-03                             NZ=T
 IS=     5 IAt=     2 ISR=     4 T=1 IP=      1 IndIP=     19 IndIPD=      0 C=  4.608593D-02  1.484923D-02                             NZ=T
 IExCor=    0 DFT=F Ex=HF Corr=None ExCW=0 ScaHFX=  1.000000
 ScaDFX=  1.000000  1.000000  1.000000  1.000000 ScalE2=  1.000000  1.000000
 IRadAn=      5 IRanWt=     -1 IRanGd=            0 ICorTp=0 IEmpDi=  4
 NAtoms=    2 NActive=    2 NUniq=    2 SFac= 1.00D+00 NAtFMM=   60 NAOKFM=F Big=F
 Integral buffers will be    131072 words long.
 Raffenetti 2 integral format.
 Two-electron integral symmetry is turned on.
 Leave Link  301 at Mon Mar 28 14:25:49 2022, MaxMem=  9663676416 cpu:               2.9 elap:               0.1
 (Enter /nopt/nrel/apps/gaussian/g16C_1/g16/l302.exe)
 NPDir=0 NMtPBC=     1 NCelOv=     1 NCel=       1 NClECP=     1 NCelD=      1
         NCelK=      1 NCelE2=     1 NClLst=     1 CellRange=     0.0.
 One-electron integrals computed using PRISM.
 One-electron integral symmetry used in STVInt
 Entering OneElI...
 Calculate overlap and kinetic energy integrals
    NBasis =  14  MinDer = 0  MaxDer = 0
 Requested accuracy = 0.1000D-12
 Symmetry will be used
 PrmmSu-InSpLW:  IPartL=    0 NPrtUS=   36 NPrtUL=    1 DoSpLW=F IThBeg=    0 IThEnd=   35 NThAct=   36.
 PrSmSu:  IncTry=   512 NBBP=             15 NTPThr=   100 NPartT=   36 Incr=           1 LDynOK=F GPUOK=F.
 PrsmSu:  NPrtUS=  36 ThrOK=T IAlg=1 LenDen=           0 ISkipM=0 DoSpLW=F IThBeg=    0 IThEnd=   35.
 Prism:   IPart=     0 DynPar=F LinDyn=F Incr=           1.
 PRISM was handed   268432554 working-precision words and    15 shell-pairs
 PRISM was handed   268432554 working-precision words and    15 shell-pairs
 PRISM was handed   268432554 working-precision words and    15 shell-pairs
 PRISM was handed   268432554 working-precision words and    15 shell-pairs
 PRISM was handed   268432554 working-precision words and    15 shell-pairs
 PRISM was handed   268432554 working-precision words and    15 shell-pairs
 PRISM was handed   268432554 working-precision words and    15 shell-pairs
 PRISM was handed   268432554 working-precision words and    15 shell-pairs
 IPart= 34 NShTot=           0 NBatch=           0 AvBLen=         0.0
 IPart= 22 NShTot=           0 NBatch=           0 AvBLen=         0.0
 IPart= 35 NShTot=           0 NBatch=           0 AvBLen=         0.0
 IPart= 18 NShTot=           0 NBatch=           0 AvBLen=         0.0
 IPart= 33 NShTot=           0 NBatch=           0 AvBLen=         0.0
 IPart=  5 NShTot=           0 NBatch=           0 AvBLen=         0.0
 IPart= 32 NShTot=           0 NBatch=           0 AvBLen=         0.0
 PRISM was handed   268432554 working-precision words and    15 shell-pairs
 PRISM was handed   268432554 working-precision words and    15 shell-pairs
 PRISM was handed   268432554 working-precision words and    15 shell-pairs
 PRISM was handed   268432554 working-precision words and    15 shell-pairs
 PRISM was handed   268432554 working-precision words and    15 shell-pairs
 IPart= 24 NShTot=           0 NBatch=           0 AvBLen=         0.0
 PRISM was handed   268432554 working-precision words and    15 shell-pairs
 IPart= 14 NShTot=           0 NBatch=           0 AvBLen=         0.0
 IPart= 26 NShTot=           0 NBatch=           0 AvBLen=         0.0
 PRISM was handed   268432554 working-precision words and    15 shell-pairs
 PRISM was handed   268432554 working-precision words and    15 shell-pairs
 PRISM was handed   268432554 working-precision words and    15 shell-pairs
 IPart= 15 NShTot=           0 NBatch=           0 AvBLen=         0.0
 IPart=  4 NShTot=           0 NBatch=           0 AvBLen=         0.0
 PRISM was handed   268432554 working-precision words and    15 shell-pairs
 PRISM was handed   268432554 working-precision words and    15 shell-pairs
 IPart=  2 NShTot=           0 NBatch=           0 AvBLen=         0.0
 IPart= 13 NShTot=           0 NBatch=           0 AvBLen=         0.0
 PRISM was handed   268432554 working-precision words and    15 shell-pairs
 PRISM was handed   268432554 working-precision words and    15 shell-pairs
 IPart= 21 NShTot=           0 NBatch=           0 AvBLen=         0.0
 IPart= 30 NShTot=           0 NBatch=           0 AvBLen=         0.0
 IPart=  1 NShTot=           0 NBatch=           0 AvBLen=         0.0
 IPart= 10 NShTot=           0 NBatch=           0 AvBLen=         0.0
 IPart= 31 NShTot=           0 NBatch=           0 AvBLen=         0.0
 IPart=  9 NShTot=           0 NBatch=           0 AvBLen=         0.0
 PRISM was handed   268432554 working-precision words and    15 shell-pairs
 PRISM was handed   268432554 working-precision words and    15 shell-pairs
 PRISM was handed   268432554 working-precision words and    15 shell-pairs
 PRISM was handed   268432554 working-precision words and    15 shell-pairs
 IPart=  0 NShTot=          15 NBatch=          15 AvBLen=         1.0
 PRISM was handed   268432554 working-precision words and    15 shell-pairs
 PRISM was handed   268432554 working-precision words and    15 shell-pairs
 PRISM was handed   268432554 working-precision words and    15 shell-pairs
 PRISM was handed   268432554 working-precision words and    15 shell-pairs
 PRISM was handed   268432554 working-precision words and    15 shell-pairs
 PRISM was handed   268432554 working-precision words and    15 shell-pairs
 IPart= 29 NShTot=           0 NBatch=           0 AvBLen=         0.0
 IPart= 12 NShTot=           0 NBatch=           0 AvBLen=         0.0
 IPart= 19 NShTot=           0 NBatch=           0 AvBLen=         0.0
 IPart= 16 NShTot=           0 NBatch=           0 AvBLen=         0.0
 PRISM was handed   268432554 working-precision words and    15 shell-pairs
 PRISM was handed   268432554 working-precision words and    15 shell-pairs
 PRISM was handed   268432554 working-precision words and    15 shell-pairs
 PRISM was handed   268432554 working-precision words and    15 shell-pairs
 PRISM was handed   268432554 working-precision words and    15 shell-pairs
 IPart= 20 NShTot=           0 NBatch=           0 AvBLen=         0.0
 IPart=  3 NShTot=           0 NBatch=           0 AvBLen=         0.0
 IPart= 23 NShTot=           0 NBatch=           0 AvBLen=         0.0
 IPart=  6 NShTot=           0 NBatch=           0 AvBLen=         0.0
 IPart=  7 NShTot=           0 NBatch=           0 AvBLen=         0.0
 IPart= 28 NShTot=           0 NBatch=           0 AvBLen=         0.0
 IPart= 11 NShTot=           0 NBatch=           0 AvBLen=         0.0
 IPart= 25 NShTot=           0 NBatch=           0 AvBLen=         0.0
 IPart=  8 NShTot=           0 NBatch=           0 AvBLen=         0.0
 IPart= 27 NShTot=           0 NBatch=           0 AvBLen=         0.0
 IPart= 17 NShTot=           0 NBatch=           0 AvBLen=         0.0
 PrSmSu:  NxtVal=             37.
 *** Overlap *** 
                1             2             3             4             5 
      1  0.100000D+01
      2  0.511489D-04  0.100000D+01
      3  0.135056D-02  0.230835D+00  0.100000D+01
      4  0.000000D+00  0.000000D+00  0.000000D+00  0.100000D+01
      5  0.000000D+00  0.000000D+00  0.000000D+00  0.000000D+00  0.100000D+01
      6 -0.239541D-02  0.000000D+00  0.000000D+00  0.000000D+00  0.000000D+00
      7  0.952539D-01 -0.127644D-04  0.161245D+00  0.000000D+00  0.000000D+00
      8  0.000000D+00  0.000000D+00  0.000000D+00  0.186871D+00  0.000000D+00
      9  0.000000D+00  0.000000D+00  0.000000D+00  0.000000D+00  0.186871D+00
     10 -0.167899D+00  0.000000D+00  0.000000D+00  0.000000D+00  0.000000D+00
     11  0.157721D+00  0.189170D-01  0.190082D+00  0.000000D+00  0.000000D+00
     12  0.000000D+00  0.000000D+00  0.000000D+00  0.574619D-01  0.000000D+00
     13  0.000000D+00  0.000000D+00  0.000000D+00  0.000000D+00  0.574619D-01
     14 -0.285050D+00  0.000000D+00  0.000000D+00  0.000000D+00  0.000000D+00
                6             7             8             9            10 
      6  0.100000D+01
      7  0.000000D+00  0.100000D+01
      8  0.000000D+00  0.000000D+00  0.100000D+01
      9  0.000000D+00  0.000000D+00  0.000000D+00  0.100000D+01
     10  0.186871D+00  0.000000D+00  0.000000D+00  0.000000D+00  0.100000D+01
     11  0.000000D+00  0.876272D+00  0.000000D+00  0.000000D+00  0.000000D+00
     12  0.000000D+00  0.000000D+00  0.672925D+00  0.000000D+00  0.000000D+00
     13  0.000000D+00  0.000000D+00  0.000000D+00  0.672925D+00  0.000000D+00
     14  0.574619D-01  0.000000D+00  0.000000D+00  0.000000D+00  0.672925D+00
               11            12            13            14 
     11  0.100000D+01
     12  0.000000D+00  0.100000D+01
     13  0.000000D+00  0.000000D+00  0.100000D+01
     14  0.000000D+00  0.000000D+00  0.000000D+00  0.100000D+01
 *** Kinetic Energy *** 
                1             2             3             4             5 
      1  0.760032D+00
      2 -0.852578D-04  0.565455D+02
      3 -0.134908D-02 -0.266647D+01  0.196759D+01
      4  0.000000D+00  0.000000D+00  0.000000D+00  0.588848D+01
      5  0.000000D+00  0.000000D+00  0.000000D+00  0.000000D+00  0.588848D+01
      6  0.170736D-02  0.000000D+00  0.000000D+00  0.000000D+00  0.000000D+00
      7 -0.420412D-02 -0.516638D-01 -0.152029D+00  0.000000D+00  0.000000D+00
      8  0.000000D+00  0.000000D+00  0.000000D+00  0.478086D-01  0.000000D+00
      9  0.000000D+00  0.000000D+00  0.000000D+00  0.000000D+00  0.478086D-01
     10 -0.121308D-02  0.000000D+00  0.000000D+00  0.000000D+00  0.000000D+00
     11  0.434327D-02  0.147038D-02  0.142898D-01  0.000000D+00  0.000000D+00
     12  0.000000D+00  0.000000D+00  0.000000D+00  0.716353D-02  0.000000D+00
     13  0.000000D+00  0.000000D+00  0.000000D+00  0.000000D+00  0.716353D-02
     14 -0.211809D-01  0.000000D+00  0.000000D+00  0.000000D+00  0.000000D+00
                6             7             8             9            10 
      6  0.588848D+01
      7  0.000000D+00  0.116833D+00
      8  0.000000D+00  0.000000D+00  0.205703D+00
      9  0.000000D+00  0.000000D+00  0.000000D+00  0.205703D+00
     10  0.478086D-01  0.000000D+00  0.000000D+00  0.000000D+00  0.205703D+00
     11  0.000000D+00  0.474660D-01  0.000000D+00  0.000000D+00  0.000000D+00
     12  0.000000D+00  0.000000D+00  0.664432D-01  0.000000D+00  0.000000D+00
     13  0.000000D+00  0.000000D+00  0.000000D+00  0.664432D-01  0.000000D+00
     14  0.716353D-02  0.000000D+00  0.000000D+00  0.000000D+00  0.664432D-01
               11            12            13            14 
     11  0.389316D-01
     12  0.000000D+00  0.648860D-01
     13  0.000000D+00  0.000000D+00  0.648860D-01
     14  0.000000D+00  0.000000D+00  0.000000D+00  0.648860D-01
 Entering OneElI...
 Calculate potential energy integrals
    NBasis =  14  MinDer = 0  MaxDer = 0
 Requested accuracy = 0.1000D-12
 Symmetry will be used
 PrmmSu-InSpLW:  IPartL=    0 NPrtUS=   36 NPrtUL=    1 DoSpLW=F IThBeg=    0 IThEnd=   35 NThAct=   36.
 PrSmSu:  IncTry=   512 NBBP=             30 NTPThr=   100 NPartT=   36 Incr=           1 LDynOK=F GPUOK=F.
 PrsmSu:  NPrtUS=  36 ThrOK=T IAlg=1 LenDen=           0 ISkipM=0 DoSpLW=F IThBeg=    0 IThEnd=   35.
 Prism:   IPart=     0 DynPar=F LinDyn=F Incr=           1.
 PRISM was handed   268432661 working-precision words and    15 shell-pairs
 PRISM was handed   268432661 working-precision words and    15 shell-pairs
 PRISM was handed   268432661 working-precision words and    15 shell-pairs
 PRISM was handed   268432661 working-precision words and    15 shell-pairs
 PRISM was handed   268432661 working-precision words and    15 shell-pairs
 PRISM was handed   268432661 working-precision words and    15 shell-pairs
 PRISM was handed   268432661 working-precision words and    15 shell-pairs
 PRISM was handed   268432661 working-precision words and    15 shell-pairs
 PRISM was handed   268432661 working-precision words and    15 shell-pairs
 PRISM was handed   268432661 working-precision words and    15 shell-pairs
 PRISM was handed   268432661 working-precision words and    15 shell-pairs
 PRISM was handed   268432661 working-precision words and    15 shell-pairs
 PRISM was handed   268432661 working-precision words and    15 shell-pairs
 PRISM was handed   268432661 working-precision words and    15 shell-pairs
 PRISM was handed   268432661 working-precision words and    15 shell-pairs
 PRISM was handed   268432661 working-precision words and    15 shell-pairs
 PRISM was handed   268432661 working-precision words and    15 shell-pairs
 PRISM was handed   268432661 working-precision words and    15 shell-pairs
 PRISM was handed   268432661 working-precision words and    15 shell-pairs
 PRISM was handed   268432661 working-precision words and    15 shell-pairs
 PRISM was handed   268432661 working-precision words and    15 shell-pairs
 PRISM was handed   268432661 working-precision words and    15 shell-pairs
 PRISM was handed   268432661 working-precision words and    15 shell-pairs
 PRISM was handed   268432661 working-precision words and    15 shell-pairs
 PRISM was handed   268432661 working-precision words and    15 shell-pairs
 PRISM was handed   268432661 working-precision words and    15 shell-pairs
 PRISM was handed   268432661 working-precision words and    15 shell-pairs
 PRISM was handed   268432661 working-precision words and    15 shell-pairs
 PRISM was handed   268432661 working-precision words and    15 shell-pairs
 PRISM was handed   268432661 working-precision words and    15 shell-pairs
 PRISM was handed   268432661 working-precision words and    15 shell-pairs
 PRISM was handed   268432661 working-precision words and    15 shell-pairs
 PRISM was handed   268432661 working-precision words and    15 shell-pairs
 PRISM was handed   268432661 working-precision words and    15 shell-pairs
 PRISM was handed   268432661 working-precision words and    15 shell-pairs
 PRISM was handed   268432661 working-precision words and    15 shell-pairs
 IPart=  0 NShTot=          30 NBatch=          15 AvBLen=         2.0
 IPart= 11 NShTot=           0 NBatch=           0 AvBLen=         0.0
 IPart= 14 NShTot=           0 NBatch=           0 AvBLen=         0.0
 IPart= 15 NShTot=           0 NBatch=           0 AvBLen=         0.0
 IPart= 26 NShTot=           0 NBatch=           0 AvBLen=         0.0
 IPart=  1 NShTot=           0 NBatch=           0 AvBLen=         0.0
 IPart=  9 NShTot=           0 NBatch=           0 AvBLen=         0.0
 IPart= 35 NShTot=           0 NBatch=           0 AvBLen=         0.0
 IPart= 31 NShTot=           0 NBatch=           0 AvBLen=         0.0
 IPart= 27 NShTot=           0 NBatch=           0 AvBLen=         0.0
 IPart= 29 NShTot=           0 NBatch=           0 AvBLen=         0.0
 IPart= 10 NShTot=           0 NBatch=           0 AvBLen=         0.0
 IPart=  6 NShTot=           0 NBatch=           0 AvBLen=         0.0
 IPart= 23 NShTot=           0 NBatch=           0 AvBLen=         0.0
 IPart=  2 NShTot=           0 NBatch=           0 AvBLen=         0.0
 IPart=  5 NShTot=           0 NBatch=           0 AvBLen=         0.0
 IPart=  7 NShTot=           0 NBatch=           0 AvBLen=         0.0
 IPart= 16 NShTot=           0 NBatch=           0 AvBLen=         0.0
 IPart= 25 NShTot=           0 NBatch=           0 AvBLen=         0.0
 IPart= 30 NShTot=           0 NBatch=           0 AvBLen=         0.0
 IPart= 33 NShTot=           0 NBatch=           0 AvBLen=         0.0
 IPart= 13 NShTot=           0 NBatch=           0 AvBLen=         0.0
 IPart= 24 NShTot=           0 NBatch=           0 AvBLen=         0.0
 IPart= 32 NShTot=           0 NBatch=           0 AvBLen=         0.0
 IPart=  8 NShTot=           0 NBatch=           0 AvBLen=         0.0
 IPart= 17 NShTot=           0 NBatch=           0 AvBLen=         0.0
 IPart=  4 NShTot=           0 NBatch=           0 AvBLen=         0.0
 IPart= 34 NShTot=           0 NBatch=           0 AvBLen=         0.0
 IPart= 21 NShTot=           0 NBatch=           0 AvBLen=         0.0
 IPart= 28 NShTot=           0 NBatch=           0 AvBLen=         0.0
 IPart= 22 NShTot=           0 NBatch=           0 AvBLen=         0.0
 IPart=  3 NShTot=           0 NBatch=           0 AvBLen=         0.0
 IPart= 20 NShTot=           0 NBatch=           0 AvBLen=         0.0
 IPart= 12 NShTot=           0 NBatch=           0 AvBLen=         0.0
 IPart= 19 NShTot=           0 NBatch=           0 AvBLen=         0.0
 IPart= 18 NShTot=           0 NBatch=           0 AvBLen=         0.0
 PrSmSu:  NxtVal=             37.
 ***** Potential Energy ***** 
                1             2             3             4             5 
      1  0.299054D+01
      2  0.291506D-02  0.117121D+03
      3  0.114368D-01  0.106437D+02  0.179865D+02
      4  0.000000D+00  0.000000D+00  0.000000D+00  0.188171D+02
      5  0.000000D+00  0.000000D+00  0.000000D+00  0.000000D+00  0.188171D+02
      6 -0.151567D-01 -0.118239D-02 -0.114781D-01  0.000000D+00  0.000000D+00
      7  0.272001D+00 -0.498336D-01  0.131353D+01  0.000000D+00  0.000000D+00
      8  0.000000D+00  0.000000D+00  0.000000D+00  0.154417D+01  0.000000D+00
      9  0.000000D+00  0.000000D+00  0.000000D+00  0.000000D+00  0.154417D+01
     10 -0.475475D+00 -0.180870D-04 -0.336604D-02  0.000000D+00  0.000000D+00
     11  0.412617D+00  0.110884D+01  0.227762D+01  0.000000D+00  0.000000D+00
     12  0.000000D+00  0.000000D+00  0.000000D+00  0.458670D+00  0.000000D+00
     13  0.000000D+00  0.000000D+00  0.000000D+00  0.000000D+00  0.458670D+00
     14 -0.717742D+00 -0.524116D-05 -0.104667D-02  0.000000D+00  0.000000D+00
                6             7             8             9            10 
      6  0.188191D+02
      7 -0.542658D-02  0.375958D+01
      8  0.000000D+00  0.000000D+00  0.347165D+01
      9  0.000000D+00  0.000000D+00  0.000000D+00  0.347165D+01
     10  0.154576D+01 -0.524786D-01  0.000000D+00  0.000000D+00  0.350839D+01
     11 -0.458584D-02  0.304336D+01  0.000000D+00  0.000000D+00 -0.516819D-01
     12  0.000000D+00  0.000000D+00  0.192478D+01  0.000000D+00  0.000000D+00
     13  0.000000D+00  0.000000D+00  0.000000D+00  0.192478D+01  0.000000D+00
     14  0.459209D+00 -0.396105D-01  0.000000D+00  0.000000D+00  0.195801D+01
               11            12            13            14 
     11  0.298115D+01
     12  0.000000D+00  0.200901D+01
     13  0.000000D+00  0.000000D+00  0.200901D+01
     14 -0.592597D-01  0.000000D+00  0.000000D+00  0.206334D+01
 ****** Core Hamiltonian ****** 
                1             2             3             4             5 
      1 -0.223051D+01
      2 -0.300031D-02 -0.605756D+02
      3 -0.127859D-01 -0.133102D+02 -0.160189D+02
      4  0.000000D+00  0.000000D+00  0.000000D+00 -0.129286D+02
      5  0.000000D+00  0.000000D+00  0.000000D+00  0.000000D+00 -0.129286D+02
      6  0.168641D-01  0.118239D-02  0.114781D-01  0.000000D+00  0.000000D+00
      7 -0.276205D+00 -0.183013D-02 -0.146555D+01  0.000000D+00  0.000000D+00
      8  0.000000D+00  0.000000D+00  0.000000D+00 -0.149636D+01  0.000000D+00
      9  0.000000D+00  0.000000D+00  0.000000D+00  0.000000D+00 -0.149636D+01
     10  0.474262D+00  0.180870D-04  0.336604D-02  0.000000D+00  0.000000D+00
     11 -0.408274D+00 -0.110737D+01 -0.226333D+01  0.000000D+00  0.000000D+00
     12  0.000000D+00  0.000000D+00  0.000000D+00 -0.451506D+00  0.000000D+00
     13  0.000000D+00  0.000000D+00  0.000000D+00  0.000000D+00 -0.451506D+00
     14  0.696561D+00  0.524116D-05  0.104667D-02  0.000000D+00  0.000000D+00
                6             7             8             9            10 
      6 -0.129306D+02
      7  0.542658D-02 -0.364274D+01
      8  0.000000D+00  0.000000D+00 -0.326595D+01
      9  0.000000D+00  0.000000D+00  0.000000D+00 -0.326595D+01
     10 -0.149795D+01  0.524786D-01  0.000000D+00  0.000000D+00 -0.330268D+01
     11  0.458584D-02 -0.299589D+01  0.000000D+00  0.000000D+00  0.516819D-01
     12  0.000000D+00  0.000000D+00 -0.185834D+01  0.000000D+00  0.000000D+00
     13  0.000000D+00  0.000000D+00  0.000000D+00 -0.185834D+01  0.000000D+00
     14 -0.452045D+00  0.396105D-01  0.000000D+00  0.000000D+00 -0.189157D+01
               11            12            13            14 
     11 -0.294222D+01
     12  0.000000D+00 -0.194413D+01
     13  0.000000D+00  0.000000D+00 -0.194413D+01
     14  0.592597D-01  0.000000D+00  0.000000D+00 -0.199846D+01
 SVDSVc IOpt=   1 NormSV=T IR=1
 SVDSVc V= 1.99D+00 1.81D+00 1.19D+00 1.01D+00 8.31D-01 7.38D-01 3.05D-01 1.21D-01
 SVDSVc IOpt=   1 NormSV=T IR=3
 SVDSVc V= 1.72D+00 9.71D-01 3.14D-01
 SVDSVc IOpt=   1 NormSV=T IR=4
 SVDSVc V= 1.72D+00 9.71D-01 3.14D-01
 TstOVc:  Largest diagonal error= 4.00D-15 IB=1 I=    8.
 TstOVc:  Largest same sym error= 7.09D-16 IB=1 I=    8 J=    3.
 TstOVc:  Largest diff sym error= 0.00D+00 IB=0 JB=0 I=    0 J=    0.
 Orthogonalized basis functions: 
                 1             2             3             4             5 
      1   0.177844D+00 -0.204763D+00 -0.993086D-01  0.419560D+00  0.855986D+00
      2   0.479263D-01  0.271878D-01  0.679217D+00  0.935318D-01  0.230456D+00
      3   0.169414D+00  0.816889D-01  0.570859D+00  0.845781D-02 -0.166025D+00
      4   0.000000D+00  0.000000D+00  0.000000D+00  0.000000D+00  0.000000D+00
      5   0.000000D+00  0.000000D+00  0.000000D+00  0.000000D+00  0.000000D+00
      6  -0.337466D-01  0.139207D+00 -0.495536D-01  0.875422D+00 -0.445353D+00
      7   0.442361D+00  0.174551D+00 -0.148104D+00 -0.799962D-01 -0.115257D+00
      8   0.000000D+00  0.000000D+00  0.000000D+00  0.000000D+00  0.000000D+00
      9   0.000000D+00  0.000000D+00  0.000000D+00  0.000000D+00  0.000000D+00
     10  -0.133252D+00  0.458801D+00 -0.445215D-01  0.100663D+00  0.337087D+00
     11   0.451397D+00  0.168670D+00 -0.126435D+00 -0.482003D-01 -0.402131D-01
     12   0.000000D+00  0.000000D+00  0.000000D+00  0.000000D+00  0.000000D+00
     13   0.000000D+00  0.000000D+00  0.000000D+00  0.000000D+00  0.000000D+00
     14  -0.143130D+00  0.462828D+00 -0.236196D-01 -0.136722D+00  0.252389D+00
                 6             7             8             9            10 
      1   0.242657D+00  0.227656D+00 -0.168729D+00  0.000000D+00  0.000000D+00
      2  -0.728830D+00 -0.350291D-02 -0.265495D-01  0.000000D+00  0.000000D+00
      3   0.838975D+00  0.881563D-02 -0.669826D-01  0.000000D+00  0.000000D+00
      4   0.000000D+00  0.000000D+00  0.000000D+00  0.180764D+00  0.976429D+00
      5   0.000000D+00  0.000000D+00  0.000000D+00  0.000000D+00  0.000000D+00
      6  -0.727709D-01  0.229161D+00 -0.710455D-03  0.000000D+00  0.000000D+00
      7  -0.171151D+00 -0.590938D-01 -0.201276D+01  0.000000D+00  0.000000D+00
      8   0.000000D+00  0.000000D+00  0.000000D+00  0.532957D+00 -0.716361D-01
      9   0.000000D+00  0.000000D+00  0.000000D+00  0.000000D+00  0.000000D+00
     10   0.914145D-01 -0.124231D+01  0.235155D-01  0.000000D+00  0.000000D+00
     11  -0.129523D+00  0.205193D-01  0.205076D+01  0.000000D+00  0.000000D+00
     12   0.000000D+00  0.000000D+00  0.000000D+00  0.516103D+00 -0.268016D+00
     13   0.000000D+00  0.000000D+00  0.000000D+00  0.000000D+00  0.000000D+00
     14   0.451095D-01  0.127675D+01 -0.726346D-01  0.000000D+00  0.000000D+00
                11            12            13            14 
      1   0.000000D+00  0.000000D+00  0.000000D+00  0.000000D+00
      2   0.000000D+00  0.000000D+00  0.000000D+00  0.000000D+00
      3   0.000000D+00  0.000000D+00  0.000000D+00  0.000000D+00
      4  -0.243572D+00  0.000000D+00  0.000000D+00  0.000000D+00
      5   0.000000D+00  0.180764D+00  0.976429D+00 -0.243572D+00
      6   0.000000D+00  0.000000D+00  0.000000D+00  0.000000D+00
      7   0.000000D+00  0.000000D+00  0.000000D+00  0.000000D+00
      8   0.127086D+01  0.000000D+00  0.000000D+00  0.000000D+00
      9   0.000000D+00  0.532957D+00 -0.716361D-01  0.127086D+01
     10   0.000000D+00  0.000000D+00  0.000000D+00  0.000000D+00
     11   0.000000D+00  0.000000D+00  0.000000D+00  0.000000D+00
     12  -0.122706D+01  0.000000D+00  0.000000D+00  0.000000D+00
     13   0.000000D+00  0.516103D+00 -0.268016D+00 -0.122706D+01
     14   0.000000D+00  0.000000D+00  0.000000D+00  0.000000D+00
 NBasis=    14 RedAO= T EigKep=  1.21D-01  NBF=     8     0     3     3
 NBsUse=    14 1.00D-06 EigRej= -1.00D+00 NBFU=     8     0     3     3
 Leave Link  302 at Mon Mar 28 14:25:49 2022, MaxMem=  9663676416 cpu:               4.4 elap:               0.2
 (Enter /nopt/nrel/apps/gaussian/g16C_1/g16/l303.exe)
 DipDrv will not compute anything.
 Fermi contact integrals: 
                 1             2 
      1   0.628247D+00  0.117412D-03
      2   0.000000D+00  0.192411D+02
      3   0.000000D+00  0.382249D-01
      4   0.000000D+00  0.000000D+00
      5   0.000000D+00  0.000000D+00
      6   0.000000D+00  0.000000D+00
      7   0.808550D-02 -0.437955D-02
      8   0.000000D+00  0.000000D+00
      9   0.000000D+00  0.000000D+00
     10  -0.157943D-01  0.000000D+00
     11   0.167965D-01  0.460859D-01
     12   0.000000D+00  0.000000D+00
     13   0.000000D+00  0.000000D+00
     14  -0.337495D-01  0.000000D+00
 Leave Link  303 at Mon Mar 28 14:25:49 2022, MaxMem=  9663676416 cpu:               1.1 elap:               0.1
 (Enter /nopt/nrel/apps/gaussian/g16C_1/g16/l401.exe)
 ExpMin= 2.60D-02 ExpMax= 9.99D+03 ExpMxC= 1.50D+03 IAcc=3 IRadAn=         5 AccDes= 0.00D+00
 Harris functional with IExCor=  205 and IRadAn=       5 diagonalized for initial guess.
 HarFok:  IExCor=  205 AccDes= 0.00D+00 IRadAn=         5 IDoV= 1 UseB2=F ITyADJ=14
 ICtDFT=  3500011 ScaDFX=  1.000000  1.000000  1.000000  1.000000
 FoFCou: FMM=F IPFlag=           0 FMFlag=      100000 FMFlg1=           0
         NFxFlg=           0 DoJE=T BraDBF=F KetDBF=T FulRan=T
         wScrn=  0.000000 ICntrl=       500 IOpCl=  0 I1Cent=   200000004 NGrid=           0
         NMat0=    1 NMatS0=      1 NMatT0=    0 NMatD0=    1 NMtDS0=    0 NMtDT0=    0
 Petite list used in FoFCou.
 Harris En= -162.042333335488    
 JPrj=0 DoOrth=F DoCkMO=F.
 Initial guess orbital symmetries:
 Alpha Orbitals:
       Occupied  (SG) (SG) (SG) (PI) (PI) (SG) (SG)
       Virtual   (PI) (PI) (SG) (SG) (SG) (PI) (PI)
 Beta  Orbitals:
       Occupied  (SG) (SG) (SG) (PI) (PI)
       Virtual   (SG) (SG) (PI) (PI) (SG) (SG) (SG) (PI) (PI)
 The electronic state of the initial guess is 3-SG.
 Initial guess <Sx>= 0.0000 <Sy>= 0.0000 <Sz>= 1.0000 <S**2>= 2.0000 S= 1.0000
 Leave Link  401 at Mon Mar 28 14:25:49 2022, MaxMem=  9663676416 cpu:               3.6 elap:               0.1
 (Enter /nopt/nrel/apps/gaussian/g16C_1/g16/l502.exe)
 Keep R1 and R2 ints in memory in symmetry-blocked form, NReq=7222776.
 FoFCou: FMM=F IPFlag=           0 FMFlag=           0 FMFlg1=           0
         NFxFlg=           0 DoJE=F BraDBF=F KetDBF=F FulRan=T
         wScrn=  0.000000 ICntrl=       600 IOpCl=  0 I1Cent=           0 NGrid=           0
         NMat0=    1 NMatS0=    105 NMatT0=    0 NMatD0=    1 NMtDS0=    0 NMtDT0=    0
 Petite list used in FoFCou.
 UHF open shell SCF:
 Using DIIS extrapolation, IDIIS=  1040.
 NGot=  9663676416 LenX=  9663669932 LenY=  9663669050
 Requested convergence on RMS density matrix=1.00D-08 within 128 cycles.
 Requested convergence on MAX density matrix=1.00D-06.
 Requested convergence on             energy=1.00D-06.
 No special actions if energy rises.

 Cycle   1  Pass 1  IDiag  1:
 E= -162.290029882025    
 DIIS: error= 2.81D-02 at cycle   1 NSaved=   1.
 NSaved= 1 IEnMin= 1 EnMin= -162.290029882025     IErMin= 1 ErrMin= 2.81D-02
 ErrMax= 2.81D-02  0.00D+00 EMaxC= 1.00D-01 BMatC= 2.89D-02 BMatP= 2.89D-02
 IDIUse=3 WtCom= 7.19D-01 WtEn= 2.81D-01
 Coeff-Com:  0.100D+01
 Coeff-En:   0.100D+01
 Coeff:      0.100D+01
 Gap=     0.214 Goal=   None    Shift=    0.000
 Gap=     1.611 Goal=   None    Shift=    0.000
 GapD=    0.214 DampG=1.000 DampE=0.500 DampFc=0.5000 IDamp=-1.
 Damping current iteration by 5.00D-01
 RMSDP=1.20D-02 MaxDP=1.40D-01              OVMax= 1.10D-02

 Cycle   2  Pass 1  IDiag  1:
 E= -162.298186006121     Delta-E=       -0.008156124096 Rises=F Damp=T
 DIIS: error= 1.83D-02 at cycle   2 NSaved=   2.
 NSaved= 2 IEnMin= 2 EnMin= -162.298186006121     IErMin= 2 ErrMin= 1.83D-02
 ErrMax= 1.83D-02  0.00D+00 EMaxC= 1.00D-01 BMatC= 9.94D-03 BMatP= 2.89D-02
 IDIUse=3 WtCom= 8.17D-01 WtEn= 1.83D-01
 Coeff-Com: -0.134D+01 0.234D+01
 Coeff-En:   0.000D+00 0.100D+01
 Coeff:     -0.110D+01 0.210D+01
 Gap=     0.205 Goal=   None    Shift=    0.000
 Gap=     1.531 Goal=   None    Shift=    0.000
 RMSDP=9.55D-03 MaxDP=1.11D-01 DE=-8.16D-03 OVMax= 9.56D-04

 Cycle   3  Pass 1  IDiag  1:
 E= -162.309571767966     Delta-E=       -0.011385761846 Rises=F Damp=F
 DIIS: error= 2.38D-03 at cycle   3 NSaved=   3.
 NSaved= 3 IEnMin= 3 EnMin= -162.309571767966     IErMin= 3 ErrMin= 2.38D-03
 ErrMax= 2.38D-03  0.00D+00 EMaxC= 1.00D-01 BMatC= 9.59D-05 BMatP= 9.94D-03
 IDIUse=3 WtCom= 9.76D-01 WtEn= 2.38D-02
 Coeff-Com:  0.511D+00-0.971D+00 0.146D+01
 Coeff-En:   0.000D+00 0.000D+00 0.100D+01
 Coeff:      0.499D+00-0.948D+00 0.145D+01
 Gap=     0.205 Goal=   None    Shift=    0.000
 Gap=     1.531 Goal=   None    Shift=    0.000
 RMSDP=1.50D-03 MaxDP=1.55D-02 DE=-1.14D-02 OVMax= 1.47D-04

 Cycle   4  Pass 1  IDiag  1:
 E= -162.309695970617     Delta-E=       -0.000124202651 Rises=F Damp=F
 DIIS: error= 7.17D-05 at cycle   4 NSaved=   4.
 NSaved= 4 IEnMin= 4 EnMin= -162.309695970617     IErMin= 4 ErrMin= 7.17D-05
 ErrMax= 7.17D-05  0.00D+00 EMaxC= 1.00D-01 BMatC= 1.64D-07 BMatP= 9.59D-05
 IDIUse=1 WtCom= 1.00D+00 WtEn= 0.00D+00
 Coeff-Com: -0.441D-01 0.858D-01-0.158D+00 0.112D+01
 Coeff:     -0.441D-01 0.858D-01-0.158D+00 0.112D+01
 Gap=     0.205 Goal=   None    Shift=    0.000
 Gap=     1.531 Goal=   None    Shift=    0.000
 RMSDP=8.27D-05 MaxDP=6.87D-04 DE=-1.24D-04 OVMax= 2.30D-05

 Cycle   5  Pass 1  IDiag  1:
 E= -162.309696346658     Delta-E=       -0.000000376041 Rises=F Damp=F
 DIIS: error= 2.81D-05 at cycle   5 NSaved=   5.
 NSaved= 5 IEnMin= 5 EnMin= -162.309696346658     IErMin= 5 ErrMin= 2.81D-05
 ErrMax= 2.81D-05  0.00D+00 EMaxC= 1.00D-01 BMatC= 1.93D-08 BMatP= 1.64D-07
 IDIUse=1 WtCom= 1.00D+00 WtEn= 0.00D+00
 Coeff-Com:  0.233D-01-0.455D-01 0.858D-01-0.708D+00 0.164D+01
 Coeff:      0.233D-01-0.455D-01 0.858D-01-0.708D+00 0.164D+01
 Gap=     0.205 Goal=   None    Shift=    0.000
 Gap=     1.531 Goal=   None    Shift=    0.000
 RMSDP=4.36D-05 MaxDP=3.62D-04 DE=-3.76D-07 OVMax= 3.84D-06

 Cycle   6  Pass 1  IDiag  1:
 E= -162.309696425866     Delta-E=       -0.000000079208 Rises=F Damp=F
 DIIS: error= 9.44D-06 at cycle   6 NSaved=   6.
 NSaved= 6 IEnMin= 6 EnMin= -162.309696425866     IErMin= 6 ErrMin= 9.44D-06
 ErrMax= 9.44D-06  0.00D+00 EMaxC= 1.00D-01 BMatC= 1.62D-09 BMatP= 1.93D-08
 IDIUse=1 WtCom= 1.00D+00 WtEn= 0.00D+00
 Coeff-Com: -0.700D-02 0.138D-01-0.285D-01 0.296D+00-0.901D+00 0.163D+01
 Coeff:     -0.700D-02 0.138D-01-0.285D-01 0.296D+00-0.901D+00 0.163D+01
 Gap=     0.205 Goal=   None    Shift=    0.000
 Gap=     1.531 Goal=   None    Shift=    0.000
 RMSDP=1.29D-05 MaxDP=1.13D-04 DE=-7.92D-08 OVMax= 1.77D-06

 Cycle   7  Pass 1  IDiag  1:
 E= -162.309696432943     Delta-E=       -0.000000007077 Rises=F Damp=F
 DIIS: error= 2.04D-06 at cycle   7 NSaved=   7.
 NSaved= 7 IEnMin= 7 EnMin= -162.309696432943     IErMin= 7 ErrMin= 2.04D-06
 ErrMax= 2.04D-06  0.00D+00 EMaxC= 1.00D-01 BMatC= 1.43D-10 BMatP= 1.62D-09
 IDIUse=1 WtCom= 1.00D+00 WtEn= 0.00D+00
 Coeff-Com:  0.263D-02-0.520D-02 0.106D-01-0.104D+00 0.374D+00-0.934D+00
 Coeff-Com:  0.166D+01
 Coeff:      0.263D-02-0.520D-02 0.106D-01-0.104D+00 0.374D+00-0.934D+00
 Coeff:      0.166D+01
 Gap=     0.205 Goal=   None    Shift=    0.000
 Gap=     1.531 Goal=   None    Shift=    0.000
 RMSDP=4.36D-06 MaxDP=4.21D-05 DE=-7.08D-09 OVMax= 7.20D-07

 Cycle   8  Pass 1  IDiag  1:
 E= -162.309696433418     Delta-E=       -0.000000000474 Rises=F Damp=F
 DIIS: error= 2.68D-07 at cycle   8 NSaved=   8.
 NSaved= 8 IEnMin= 8 EnMin= -162.309696433418     IErMin= 8 ErrMin= 2.68D-07
 ErrMax= 2.68D-07  0.00D+00 EMaxC= 1.00D-01 BMatC= 2.06D-12 BMatP= 1.43D-10
 IDIUse=1 WtCom= 1.00D+00 WtEn= 0.00D+00
 Coeff-Com: -0.439D-03 0.873D-03-0.177D-02 0.168D-01-0.708D-01 0.180D+00
 Coeff-Com: -0.419D+00 0.129D+01
 Coeff:     -0.439D-03 0.873D-03-0.177D-02 0.168D-01-0.708D-01 0.180D+00
 Coeff:     -0.419D+00 0.129D+01
 Gap=     0.205 Goal=   None    Shift=    0.000
 Gap=     1.531 Goal=   None    Shift=    0.000
 RMSDP=5.00D-07 MaxDP=3.49D-06 DE=-4.74D-10 OVMax= 1.23D-07

 Cycle   9  Pass 1  IDiag  1:
 E= -162.309696433424     Delta-E=       -0.000000000007 Rises=F Damp=F
 DIIS: error= 4.18D-08 at cycle   9 NSaved=   9.
 NSaved= 9 IEnMin= 9 EnMin= -162.309696433424     IErMin= 9 ErrMin= 4.18D-08
 ErrMax= 4.18D-08  0.00D+00 EMaxC= 1.00D-01 BMatC= 4.01D-14 BMatP= 2.06D-12
 IDIUse=1 WtCom= 1.00D+00 WtEn= 0.00D+00
 Coeff-Com:  0.102D-03-0.203D-03 0.403D-03-0.347D-02 0.155D-01-0.346D-01
 Coeff-Com:  0.921D-01-0.333D+00 0.126D+01
 Coeff:      0.102D-03-0.203D-03 0.403D-03-0.347D-02 0.155D-01-0.346D-01
 Coeff:      0.921D-01-0.333D+00 0.126D+01
 Gap=     0.205 Goal=   None    Shift=    0.000
 Gap=     1.531 Goal=   None    Shift=    0.000
 RMSDP=1.04D-07 MaxDP=1.24D-06 DE=-6.85D-12 OVMax= 1.32D-08

 Cycle  10  Pass 1  IDiag  1:
 E= -162.309696433425     Delta-E=       -0.000000000000 Rises=F Damp=F
 DIIS: error= 9.48D-09 at cycle  10 NSaved=  10.
 NSaved=10 IEnMin=10 EnMin= -162.309696433425     IErMin=10 ErrMin= 9.48D-09
 ErrMax= 9.48D-09  0.00D+00 EMaxC= 1.00D-01 BMatC= 2.48D-15 BMatP= 4.01D-14
 IDIUse=1 WtCom= 1.00D+00 WtEn= 0.00D+00
 Coeff-Com: -0.199D-06 0.538D-06 0.180D-05-0.150D-03-0.253D-03-0.136D-02
 Coeff-Com: -0.481D-02 0.398D-01-0.466D+00 0.143D+01
 Coeff:     -0.199D-06 0.538D-06 0.180D-05-0.150D-03-0.253D-03-0.136D-02
 Coeff:     -0.481D-02 0.398D-01-0.466D+00 0.143D+01
 Gap=     0.205 Goal=   None    Shift=    0.000
 Gap=     1.531 Goal=   None    Shift=    0.000
 RMSDP=1.94D-08 MaxDP=2.07D-07 DE=-1.71D-13 OVMax= 2.50D-09

 Cycle  11  Pass 1  IDiag  1:
 E= -162.309696433425     Delta-E=        0.000000000000 Rises=F Damp=F
 DIIS: error= 1.02D-09 at cycle  11 NSaved=  11.
 NSaved=11 IEnMin=10 EnMin= -162.309696433425     IErMin=11 ErrMin= 1.02D-09
 ErrMax= 1.02D-09  0.00D+00 EMaxC= 1.00D-01 BMatC= 2.52D-17 BMatP= 2.48D-15
 IDIUse=1 WtCom= 1.00D+00 WtEn= 0.00D+00
 Coeff-Com:  0.485D-07-0.127D-06-0.587D-06 0.433D-04 0.447D-04 0.474D-03
 Coeff-Com:  0.998D-03-0.870D-02 0.121D+00-0.458D+00 0.134D+01
 Coeff:      0.485D-07-0.127D-06-0.587D-06 0.433D-04 0.447D-04 0.474D-03
 Coeff:      0.998D-03-0.870D-02 0.121D+00-0.458D+00 0.134D+01
 Gap=     0.205 Goal=   None    Shift=    0.000
 Gap=     1.531 Goal=   None    Shift=    0.000
 RMSDP=2.56D-09 MaxDP=3.13D-08 DE= 5.68D-14 OVMax= 1.79D-10

 SCF Done:  E(UHF) =  -162.309696433     A.U. after   11 cycles
            NFock= 11  Conv=0.26D-08     -V/T= 1.9995
 <Sx>= 0.0000 <Sy>= 0.0000 <Sz>= 1.0000 <S**2>= 2.0001 S= 1.0000
 <L.S>= 0.000000000000E+00
 KE= 1.623904917033D+02 PE=-3.941520474456D+02 EE= 6.768793527246D+01
 Annihilation of the first spin contaminant:
 S**2 before annihilation     2.0001,   after     2.0000
 Leave Link  502 at Mon Mar 28 14:25:49 2022, MaxMem=  9663676416 cpu:               4.1 elap:               0.1
 (Enter /nopt/nrel/apps/gaussian/g16C_1/g16/l801.exe)
 Windowed orbitals will be sorted by symmetry type.
 ExpMin= 2.60D-02 ExpMax= 9.99D+03 ExpMxC= 1.50D+03 IAcc=3 IRadAn=         5 AccDes= 0.00D+00
 HarFok:  IExCor=  205 AccDes= 0.00D+00 IRadAn=         5 IDoV=-2 UseB2=F ITyADJ=14
 ICtDFT= 12500011 ScaDFX=  1.000000  1.000000  1.000000  1.000000
 Largest valence mixing into a core orbital is  9.44D-05
 Largest core mixing into a valence orbital is  6.99D-05
 Range of M.O.s used for correlation:     6    14
 NBasis=    14 NAE=     7 NBE=     5 NFC=     5 NFV=     0
 NROrb=      9 NOA=     2 NOB=     0 NVA=     7 NVB=     9
 Leave Link  801 at Mon Mar 28 14:25:49 2022, MaxMem=  9663676416 cpu:               1.8 elap:               0.1
 (Enter /nopt/nrel/apps/gaussian/g16C_1/g16/l804.exe)
 Open-shell transformation, MDV=  9663676416 ITran=4 ISComp=2.
 Unit  1 TFree=         14304 TCopy=        117557.
 Semi-Direct transformation.
 ModeAB=           2 MOrb=             2 LenV=    9663552411
 LASXX=          158 LTotXX=         158 LenRXX=         158
 LTotAB=         269 MaxLAS=        1890 LenRXY=        1890
 NonZer=        2214 LenScr=      785920 LnRSAI=           0
 LnScr1=           0 LExtra=      220944 Total=      1008912
 MaxDsk= 34359738368 SrtSym=           F ITran=            4
 DoSDTr:  NPSUse= 36
 JobTyp=1 Pass  1:  I=   1 to   2.
 (rs|ai) integrals will be sorted in core.
 Complete sort for first half transformation.
 First half transformation complete.
 Complete sort for second half transformation.
 Second half transformation complete.
 Spin components of T(2) and E(2):
     alpha-alpha T2 =       0.2500232129D-04 E2=     -0.2334459239D-04
     alpha-beta  T2 =       0.0000000000D+00 E2=      0.0000000000D+00
     beta-beta   T2 =       0.0000000000D+00 E2=      0.0000000000D+00
 ANorm=    0.1000012501D+01
 E2 =    -0.2334459239D-04 EUMP2 =    -0.16230971977802D+03
 Leave Link  804 at Mon Mar 28 14:25:49 2022, MaxMem=  9663676416 cpu:               2.4 elap:               0.1
 (Enter /nopt/nrel/apps/gaussian/g16C_1/g16/l913.exe)
 CIDS:  MDV=  9663676416.
 Frozen-core window:  NFC=   5 NFV=   0.
 IFCWin=0 IBDFC=1 NFBD=     0     0 NFCmp=     0     0 NFFFC=     0     0
 Using original routines for 1st iteration.
 Using DD4UQ or CC4UQ for 2nd and later iterations.
 Keep R2 and R3 ints in memory in symmetry-blocked form, NReq=7225182.
 FoFCou: FMM=F IPFlag=           0 FMFlag=           0 FMFlg1=           0
         NFxFlg=           0 DoJE=F BraDBF=F KetDBF=F FulRan=T
         wScrn=  0.000000 ICntrl=       600 IOpCl=  0 I1Cent=           0 NGrid=           0
         NMat0=    1 NMatS0=    105 NMatT0=    0 NMatD0=    1 NMtDS0=    0 NMtDT0=    0
 Petite list used in FoFCou.
 CIDS: In Core Option IDoMem=           1.
 Coupled Cluster theory with single and double substitutions
 ===========================================================
 Iterations= 200 Convergence= 0.100D-06
 Produce multiple copies of IABC intergrals
 Iteration Nr.   1
 **********************
 DD1Dir will call FoFMem   1 times, MxPair=         2
 NAB=     0 NAA=     1 NBB=     0.
 MP4(R+Q)=  0.58366900D-09
 Maximum subspace dimension=  5
 A-vector RMS=  4.9134540D-04 Max=  1.6044265D-03 conv= 1.00D-05.
 RLE energy=       -0.0000363471
 E3=       -0.83515957D-05        EUMP3=      -0.16230972813D+03
 E4(DQ)=   -0.30241603D-05        UMP4(DQ)=   -0.16230973115D+03
 E4(SDQ)=  -0.31012843D-05        UMP4(SDQ)=  -0.16230973123D+03
 VARIATIONAL ENERGIES WITH THE FIRST-ORDER WAVEFUNCTION:
 DE(Corr)= -0.31695682E-04 E(Corr)=     -162.30972813    
 NORM(A)=   0.10000306D+01
 Iteration Nr.   2
 **********************
 DD1Dir will call FoFMem   1 times, MxPair=         2
 NAB=     0 NAA=     1 NBB=     0.
 A-vector RMS=  6.6029402D-05 Max=  9.4799784D-05 conv= 1.00D-05.
 RLE energy=       -0.0000367254
 DE(Corr)= -0.36524131E-04 E(CORR)=     -162.30973296     Delta=-4.83D-06
 NORM(A)=   0.10000314D+01
 Iteration Nr.   3
 **********************
 DD1Dir will call FoFMem   1 times, MxPair=         2
 NAB=     0 NAA=     1 NBB=     0.
 A-vector RMS=  1.2255356D-05 Max=  1.7999669D-05 conv= 1.00D-05.
 RLE energy=       -0.0000367377
 DE(Corr)= -0.36725614E-04 E(CORR)=     -162.30973316     Delta=-2.01D-07
 NORM(A)=   0.10000315D+01
 Iteration Nr.   4
 **********************
 DD1Dir will call FoFMem   1 times, MxPair=         2
 NAB=     0 NAA=     1 NBB=     0.
 A-vector RMS=  1.5650388D-06 Max=  3.0159051D-06 conv= 1.00D-05.
 RLE energy=       -0.0000367377
 DE(Corr)= -0.36737673E-04 E(CORR)=     -162.30973317     Delta=-1.21D-08
 NORM(A)=   0.10000315D+01
 CI/CC converged in    4 iterations to DelEn=-1.21D-08 Conv= 1.00D-07 ErrA1= 1.57D-06 Conv= 1.00D-05
 Wavefunction amplitudes converged. E(Corr)=     -162.30973317    
 Largest amplitude= 6.96D-03
 Discarding MO integrals.
 Leave Link  913 at Mon Mar 28 14:25:49 2022, MaxMem=  9663676416 cpu:               2.7 elap:               0.1
 (Enter /nopt/nrel/apps/gaussian/g16C_1/g16/l601.exe)
 Copying SCF densities to generalized density rwf, IOpCl= 1 IROHF=0.

 **********************************************************************

            Population analysis using the SCF Density.

 **********************************************************************

 Orbital symmetries:
 Alpha Orbitals:
       Occupied  (SG) (SG) (SG) (PI) (PI) (SG) (SG)
       Virtual   (PI) (PI) (SG) (SG) (SG) (PI) (PI)
 Beta  Orbitals:
       Occupied  (SG) (SG) (PI) (PI) (SG)
       Virtual   (SG) (SG) (PI) (PI) (SG) (SG) (PI) (PI) (SG)
 The electronic state is 3-SG.
 Alpha  occ. eigenvalues --  -40.49084  -2.80501  -1.52322  -1.52312  -1.52312
 Alpha  occ. eigenvalues --   -0.49540  -0.17566
 Alpha virt. eigenvalues --    0.02920   0.02920   0.06656   0.13997   0.19351
 Alpha virt. eigenvalues --    0.19727   0.19727
  Beta  occ. eigenvalues --  -40.48849  -2.79834  -1.52084  -1.52084  -1.52079
  Beta virt. eigenvalues --    0.01041   0.05012   0.05432   0.05432   0.16899
  Beta virt. eigenvalues --    0.23062   0.23070   0.23070   0.33321
          Condensed to atoms (all electrons):
               1          2
     1  H    0.904845   0.034366
     2  Na   0.034366  11.026423
          Atomic-Atomic Spin Densities.
               1          2
     1  H    0.904845   0.034368
     2  Na   0.034368   1.026420
 Mulliken charges and spin densities:
               1          2
     1  H    0.060789   0.939212
     2  Na  -0.060789   1.060788
 Sum of Mulliken charges =  -0.00000   2.00000
 Mulliken charges and spin densities with hydrogens summed into heavy atoms:
               1          2
     2  Na  -0.000000   2.000000
 N-N= 1.763924036400D+00 E-N=-3.941520474240D+02  KE= 1.623904917033D+02
 Symmetry A1   KE= 1.389204060559D+02
 Symmetry A2   KE= 0.000000000000D+00
 Symmetry B1   KE= 1.173504282369D+01
 Symmetry B2   KE= 1.173504282369D+01
 Symmetry A1   SP= 2.000000000000D+00
 Symmetry A2   SP= 0.000000000000D+00
 Symmetry B1   SP= 4.446971185419D-18
 Symmetry B2   SP=-8.372733854237D-16

 Atomic contributions to Alpha molecular orbitals:
 Alpha occ 1 OE=-40.491 is Na2-s=1.0000
 Alpha occ 2 OE=-2.805 is Na2-s=1.0000
 Alpha occ 3 OE=-1.523 is Na2-p=1.0000
 Alpha occ 4 OE=-1.523 is Na2-p=1.0000
 Alpha occ 5 OE=-1.523 is Na2-p=1.0000
 Alpha occ 6 OE=-0.495 is H1-s=0.9281
 Alpha occ 7 OE=-0.176 is Na2-s=0.9564
 Alpha vir 8 OE=0.029 is Na2-p=1.0000
 Alpha vir 9 OE=0.029 is Na2-p=1.0000
 Alpha vir 10 OE=0.067 is Na2-p=0.9059
 Alpha vir 11 OE=0.140 is Na2-s=0.9641
 Alpha vir 12 OE=0.194 is Na2-p=0.9935
 Alpha vir 13 OE=0.197 is Na2-p=1.0000
 Alpha vir 14 OE=0.197 is Na2-p=1.0000

 Atomic contributions to Beta  molecular orbitals:
 Beta  occ 1 OE=-40.488 is Na2-s=1.0000
 Beta  occ 2 OE=-2.798 is Na2-s=1.0000
 Beta  occ 3 OE=-1.521 is Na2-p=1.0000
 Beta  occ 4 OE=-1.521 is Na2-p=1.0000
 Beta  occ 5 OE=-1.521 is Na2-p=1.0000
 Beta  vir 6 OE=0.010 is Na2-s=0.7829 Na2-p=0.1662
 Beta  vir 7 OE=0.050 is Na2-p=0.7691 Na2-s=0.2010
 Beta  vir 8 OE=0.054 is Na2-p=1.0000
 Beta  vir 9 OE=0.054 is Na2-p=1.0000
 Beta  vir 10 OE=0.169 is Na2-s=0.9643
 Beta  vir 11 OE=0.231 is Na2-p=0.9644
 Beta  vir 12 OE=0.231 is Na2-p=1.0000
 Beta  vir 13 OE=0.231 is Na2-p=1.0000
 Beta  vir 14 OE=0.333 is H1-s=0.9017
 
 Leave Link  601 at Mon Mar 28 14:25:50 2022, MaxMem=  9663676416 cpu:               1.6 elap:               0.1
 (Enter /nopt/nrel/apps/gaussian/g16C_1/g16/l9999.exe)

 Test job not archived.
 1\1\GINC-R102U34\SP\UCCSD-FC\Gen\H1Na1(3)\USER\28-Mar-2022\0\\#P C
 CSD(MaxCyc=200,SaveAmplitudes,ReadAmplitudes)/GEN sp pop=AllOrbitals i
 op(3/33=1,3/36=-1)\\test\\0,3\H,0,0.,0.,0.\Na,0,0.,0.,3.3\\Version=ES6
 4L-G16RevC.01\State=3-SG\HF=-162.3096964\MP2=-162.3097198\MP3=-162.309
 7281\MP4D=-162.3097312\MP4DQ=-162.3097312\MP4SDQ=-162.3097312\CCSD=-16
 2.3097332\S2=2.00005\S2-1=0.\S2A=2.\RMSD=2.559e-09\PG=C*V [C*(H1Na1)]\
 \@


 CONFIDENCE: THAT QUIET ASSURED FEELING YOU HAVE
 JUST BEFORE YOU FALL FLAT ON YOUR FACE.
 Job cpu time:       0 days  0 hours  0 minutes 33.2 seconds.
 Elapsed time:       0 days  0 hours  0 minutes  1.3 seconds.
 File lengths (MBytes):  RWF=     13 Int=      0 D2E=      0 Chk=      1 Scr=      1
 Normal termination of Gaussian 16 at Mon Mar 28 14:25:50 2022.
