 Entering Gaussian System, Link 0=g16
 Initial command:
 /nopt/nrel/apps/gaussian/g16C_1/g16/l1.exe "/lustre/eaglefs/scratch/user/qc/lih-dissc/lih-3-ccsd-0.7-631g/Gau-6939.inp" -scrdir="/lustre/eaglefs/scratch/user/qc/lih-dissc/lih-3-ccsd-0.7-631g/"
 Default is to use a total of  36 processors:
                               36 via shared-memory
                                1 via Linda
 Entering Link 1 = /nopt/nrel/apps/gaussian/g16C_1/g16/l1.exe PID=      6940.
  
 Copyright (c) 1988-2019, Gaussian, Inc.  All Rights Reserved.
  
 This is part of the Gaussian(R) 16 program.  It is based on
 the Gaussian(R) 09 system (copyright 2009, Gaussian, Inc.),
 the Gaussian(R) 03 system (copyright 2003, Gaussian, Inc.),
 the Gaussian(R) 98 system (copyright 1998, Gaussian, Inc.),
 the Gaussian(R) 94 system (copyright 1995, Gaussian, Inc.),
 the Gaussian 92(TM) system (copyright 1992, Gaussian, Inc.),
 the Gaussian 90(TM) system (copyright 1990, Gaussian, Inc.),
 the Gaussian 88(TM) system (copyright 1988, Gaussian, Inc.),
 the Gaussian 86(TM) system (copyright 1986, Carnegie Mellon
 University), and the Gaussian 82(TM) system (copyright 1983,
 Carnegie Mellon University). Gaussian is a federally registered
 trademark of Gaussian, Inc.
  
 This software contains proprietary and confidential information,
 including trade secrets, belonging to Gaussian, Inc.
  
 This software is provided under written license and may be
 used, copied, transmitted, or stored only in accord with that
 written license.
  
 The following legend is applicable only to US Government
 contracts under FAR:
  
                    RESTRICTED RIGHTS LEGEND
  
 Use, reproduction and disclosure by the US Government is
 subject to restrictions as set forth in subparagraphs (a)
 and (c) of the Commercial Computer Software - Restricted
 Rights clause in FAR 52.227-19.
  
 Gaussian, Inc.
 340 Quinnipiac St., Bldg. 40, Wallingford CT 06492
  
  
 ---------------------------------------------------------------
 Warning -- This program may not be used in any manner that
 competes with the business of Gaussian, Inc. or will provide
 assistance to any competitor of Gaussian, Inc.  The licensee
 of this program is prohibited from giving any competitor of
 Gaussian, Inc. access to this program.  By using this program,
 the user acknowledges that Gaussian, Inc. is engaged in the
 business of creating and licensing software in the field of
 computational chemistry and represents and warrants to the
 licensee that it is not a competitor of Gaussian, Inc. and that
 it will not use this program in any manner prohibited above.
 ---------------------------------------------------------------
  

 Cite this work as:
 Gaussian 16, Revision C.01,
 M. J. Frisch, G. W. Trucks, H. B. Schlegel, G. E. Scuseria, 
 M. A. Robb, J. R. Cheeseman, G. Scalmani, V. Barone, 
 G. A. Petersson, H. Nakatsuji, X. Li, M. Caricato, A. V. Marenich, 
 J. Bloino, B. G. Janesko, R. Gomperts, B. Mennucci, H. P. Hratchian, 
 J. V. Ortiz, A. F. Izmaylov, J. L. Sonnenberg, D. Williams-Young, 
 F. Ding, F. Lipparini, F. Egidi, J. Goings, B. Peng, A. Petrone, 
 T. Henderson, D. Ranasinghe, V. G. Zakrzewski, J. Gao, N. Rega, 
 G. Zheng, W. Liang, M. Hada, M. Ehara, K. Toyota, R. Fukuda, 
 J. Hasegawa, M. Ishida, T. Nakajima, Y. Honda, O. Kitao, H. Nakai, 
 T. Vreven, K. Throssell, J. A. Montgomery, Jr., J. E. Peralta, 
 F. Ogliaro, M. J. Bearpark, J. J. Heyd, E. N. Brothers, K. N. Kudin, 
 V. N. Staroverov, T. A. Keith, R. Kobayashi, J. Normand, 
 K. Raghavachari, A. P. Rendell, J. C. Burant, S. S. Iyengar, 
 J. Tomasi, M. Cossi, J. M. Millam, M. Klene, C. Adamo, R. Cammi, 
 J. W. Ochterski, R. L. Martin, K. Morokuma, O. Farkas, 
 J. B. Foresman, and D. J. Fox, Gaussian, Inc., Wallingford CT, 2019.
 
 ******************************************
 Gaussian 16:  ES64L-G16RevC.01  3-Jul-2019
                28-Mar-2022 
 ******************************************
 %chk=molecule
 Default route: CacheSize=180224 MaxDisk=256GB
 ----------------------------------------------------------------------
 #P CCSD(MaxCyc=200,SaveAmplitudes,ReadAmplitudes)/GEN sp pop=AllOrbita
 ls iop(3/33=1,3/36=-1)
 ----------------------------------------------------------------------
 1/4=180224,38=1,172=1/1;
 2/4=180224,12=2,17=6,18=5,40=1/2;
 3/4=180224,5=7,11=9,25=1,30=1,33=1,36=-1/1,2,3;
 4/4=180224/1;
 5/4=180224,5=2,38=5/2;
 8/4=180224,6=4,9=120000,10=1,24=1/1,4;
 9/4=180224,5=7,6=200,77=1/13;
 6/4=180224,7=2,8=2,9=2,10=2,96=-1/1;
 99/4=180224,5=1,9=1/99;
 Leave Link    1 at Mon Mar 28 14:05:28 2022, MaxMem=           0 cpu:               2.2 elap:               0.1
 (Enter /nopt/nrel/apps/gaussian/g16C_1/g16/l101.exe)
 ----
 test
 ----
 Symbolic Z-matrix:
 Charge =  0 Multiplicity = 3
 H                     0.        0.        0. 
 Li                    0.        0.        0.7 
 
 ITRead=  0  0
 MicOpt= -1 -1
 NAtoms=      2 NQM=        2 NQMF=       0 NMMI=      0 NMMIF=      0
                NMic=       0 NMicF=      0.
                    Isotopes and Nuclear Properties:
 (Nuclear quadrupole moments (NQMom) in fm**2, nuclear magnetic moments (NMagM)
  in nuclear magnetons)

  Atom         1           2
 IAtWgt=           1           7
 AtmWgt=   1.0078250   7.0160045
 NucSpn=           1           3
 AtZEff=  -0.0000000  -0.0000000
 NQMom=    0.0000000  -4.0100000
 NMagM=    2.7928460   3.2564240
 AtZNuc=   1.0000000   3.0000000
 Leave Link  101 at Mon Mar 28 14:05:28 2022, MaxMem=  9663676416 cpu:               5.2 elap:               0.2
 (Enter /nopt/nrel/apps/gaussian/g16C_1/g16/l202.exe)
                          Input orientation:                          
 ---------------------------------------------------------------------
 Center     Atomic      Atomic             Coordinates (Angstroms)
 Number     Number       Type             X           Y           Z
 ---------------------------------------------------------------------
      1          1           0        0.000000    0.000000    0.000000
      2          3           0        0.000000    0.000000    0.700000
 ---------------------------------------------------------------------
 Stoichiometry    HLi(3)
 Framework group  C*V[C*(HLi)]
 Deg. of freedom     1
 Full point group                 C*V     NOp   4
 Largest Abelian subgroup         C2V     NOp   4
 Largest concise Abelian subgroup C1      NOp   1
                         Standard orientation:                         
 ---------------------------------------------------------------------
 Center     Atomic      Atomic             Coordinates (Angstroms)
 Number     Number       Type             X           Y           Z
 ---------------------------------------------------------------------
      1          1           0        0.000000    0.000000   -0.525000
      2          3           0        0.000000    0.000000    0.175000
 ---------------------------------------------------------------------
 Rotational constants (GHZ):           0.0000000        1170.3824780        1170.3824780
 Leave Link  202 at Mon Mar 28 14:05:28 2022, MaxMem=  9663676416 cpu:               0.9 elap:               0.1
 (Enter /nopt/nrel/apps/gaussian/g16C_1/g16/l301.exe)
 General basis read from cards:  (5D, 7F)
                         Coordinates in L301:                         
 ---------------------------------------------------------------------
 Center     Atomic      Atomic             Coordinates (Angstroms)
 Number     Number       Type             X           Y           Z
 ---------------------------------------------------------------------
      1          1           0        0.000000    0.000000   -0.525000
      2          3           0        0.000000    0.000000    0.175000
 ---------------------------------------------------------------------
 Centers:       1
 STO-3G
 ****
 Centers:       2
 6-31G
 ****
 FixB: optimizing general contractions.
 Ernie: Thresh=  0.10000D-02 Tol=  0.10000D-05 Strict=F.
 IA=     1 ShT= 0 ShC= 0 NL=   1 NS=   0.
 IA=     1 L=0 SC=0 ISt=    0 NBk=    0 NP=    0 IndPr=    0.
 IA=     2 ShT= 0 ShC= 0 NL=   1 NS=   0.
 IA=     2 L=0 SC=0 ISt=    0 NBk=    0 NP=    0 IndPr=    0.
 IA=     2 ShT= 1 ShC= 0 NL=   2 NS=   1.
 IA=     2 L=1 SC=0 ISt=    0 NBk=    0 NP=    0 IndPr=    0.
 LdAtmC:  AtmChg=     1.000000     3.000000
 AtZEff=     -1.0000000     -1.3500000
 NEqShl: 
              1            2            3            4
     1            1            1            1            1
     2            2            2            2            2
     3            3            3            3            3
     4            4            4            4            4
 NEqBas: 
              1            2            3            4
     1            1            1            1            1
     2            2            2            2            2
     3            3            3            3            3
     4            4           -4           -4            4
     5            5           -5            5           -5
     6            6            6            6            6
     7            7            7            7            7
     8            8           -8           -8            8
     9            9           -9            9           -9
    10           10           10           10           10
 There are     6 symmetry adapted cartesian basis functions of A1  symmetry.
   1         1   1   1   1
   2         2   2   2   2
   3         3   3   3   3
   4         6   6   6   6
   5         7   7   7   7
   6        10  10  10  10
 There are     0 symmetry adapted cartesian basis functions of A2  symmetry.
 There are     2 symmetry adapted cartesian basis functions of B1  symmetry.
   7         4   4   4   4
   8         8   8   8   8
 There are     2 symmetry adapted cartesian basis functions of B2  symmetry.
   9         5   5   5   5
  10         9   9   9   9
 Order= 1 2 4 3
 Reordered character table:
              1            2            3            4            5
     1            1            1            1            1            1
     2            2            1            1           -1           -1
     3            4            1           -1           -1            1
     4            3            1           -1            1           -1
 NEqShl: 
              1            2            3            4
     1            1            1            1            1
     2            2            2            2            2
     3            3            3            3            3
     4            4            4            4            4
 NEqBas: 
              1            2            3            4
     1            1            1            1            1
     2            2            2            2            2
     3            3            3            3            3
     4            4           -4           -4            4
     5            5           -5            5           -5
     6            6            6            6            6
     7            7            7            7            7
     8            8           -8           -8            8
     9            9           -9            9           -9
    10           10           10           10           10
 There are     6 symmetry adapted basis functions of A1  symmetry.
   1         1   1   1   1
   2         2   2   2   2
   3         3   3   3   3
   4         6   6   6   6
   5         7   7   7   7
   6        10  10  10  10
 There are     0 symmetry adapted basis functions of A2  symmetry.
 There are     2 symmetry adapted basis functions of B1  symmetry.
   7         4   4   4   4
   8         8   8   8   8
 There are     2 symmetry adapted basis functions of B2  symmetry.
   9         5   5   5   5
  10         9   9   9   9
 Order= 1 2 4 3
 Reordered character table:
              1            2            3            4            5
     1            1            1            1            1            1
     2            2            1            1           -1           -1
     3            4            1           -1           -1            1
     4            3            1           -1            1           -1
    10 basis functions,    25 primitive gaussians,    10 cartesian basis functions
     3 alpha electrons        1 beta electrons
       nuclear repulsion energy         2.2679023325 Hartrees.
 IS=     1 IAt=     1 ISR=     1 T=0 IP=      1 IndIP=      1 IndIPD=      0 C=  2.769344D-01  0.000000D+00                             NZ=T
 IS=     1 IAt=     1 ISR=     1 T=0 IP=      2 IndIP=      2 IndIPD=      1 C=  2.678389D-01  0.000000D+00                             NZ=T
 IS=     1 IAt=     1 ISR=     1 T=0 IP=      3 IndIP=      3 IndIPD=      2 C=  8.347367D-02  0.000000D+00                             NZ=T
 IS=     2 IAt=     2 ISR=     1 T=0 IP=      1 IndIP=      4 IndIPD=      0 C=  1.948572D-01  0.000000D+00                             NZ=T
 IS=     2 IAt=     2 ISR=     1 T=0 IP=      2 IndIP=      5 IndIPD=      1 C=  3.565040D-01  0.000000D+00                             NZ=T
 IS=     2 IAt=     2 ISR=     1 T=0 IP=      3 IndIP=      6 IndIPD=      2 C=  5.614879D-01  0.000000D+00                             NZ=T
 IS=     2 IAt=     2 ISR=     1 T=0 IP=      4 IndIP=      7 IndIPD=      3 C=  6.883627D-01  0.000000D+00                             NZ=T
 IS=     2 IAt=     2 ISR=     1 T=0 IP=      5 IndIP=      8 IndIPD=      4 C=  5.498106D-01  0.000000D+00                             NZ=T
 IS=     2 IAt=     2 ISR=     1 T=0 IP=      6 IndIP=      9 IndIPD=      5 C=  1.755056D-01  0.000000D+00                             NZ=T
 IS=     3 IAt=     2 ISR=     2 T=1 IP=      1 IndIP=     10 IndIPD=      0 C= -4.708915D-02  3.658984D-02                             NZ=T
 IS=     3 IAt=     2 ISR=     2 T=1 IP=      2 IndIP=     11 IndIPD=      1 C= -9.665673D-02  1.133585D-01                             NZ=T
 IS=     3 IAt=     2 ISR=     2 T=1 IP=      3 IndIP=     12 IndIPD=      2 C=  1.151795D-01  5.648589D-02                             NZ=T
 IS=     4 IAt=     2 ISR=     3 T=1 IP=      1 IndIP=     13 IndIPD=      0 C=  5.885627D-02  2.232258D-02                             NZ=T
 IExCor=    0 DFT=F Ex=HF Corr=None ExCW=0 ScaHFX=  1.000000
 ScaDFX=  1.000000  1.000000  1.000000  1.000000 ScalE2=  1.000000  1.000000
 IRadAn=      5 IRanWt=     -1 IRanGd=            0 ICorTp=0 IEmpDi=  4
 NAtoms=    2 NActive=    2 NUniq=    2 SFac= 1.00D+00 NAtFMM=   60 NAOKFM=F Big=F
 Integral buffers will be    131072 words long.
 Raffenetti 2 integral format.
 Two-electron integral symmetry is turned on.
 Leave Link  301 at Mon Mar 28 14:05:28 2022, MaxMem=  9663676416 cpu:               2.4 elap:               0.1
 (Enter /nopt/nrel/apps/gaussian/g16C_1/g16/l302.exe)
 NPDir=0 NMtPBC=     1 NCelOv=     1 NCel=       1 NClECP=     1 NCelD=      1
         NCelK=      1 NCelE2=     1 NClLst=     1 CellRange=     0.0.
 One-electron integrals computed using PRISM.
 One-electron integral symmetry used in STVInt
 Entering OneElI...
 Calculate overlap and kinetic energy integrals
    NBasis =  10  MinDer = 0  MaxDer = 0
 Requested accuracy = 0.1000D-12
 Symmetry will be used
 PrmmSu-InSpLW:  IPartL=    0 NPrtUS=   36 NPrtUL=    1 DoSpLW=F IThBeg=    0 IThEnd=   35 NThAct=   36.
 PrSmSu:  IncTry=   512 NBBP=             10 NTPThr=   100 NPartT=   36 Incr=           1 LDynOK=F GPUOK=F.
 PrsmSu:  NPrtUS=  36 ThrOK=T IAlg=1 LenDen=           0 ISkipM=0 DoSpLW=F IThBeg=    0 IThEnd=   35.
 Prism:   IPart=     0 DynPar=F LinDyn=F Incr=           1.
 PRISM was handed   268433743 working-precision words and    10 shell-pairs
 PRISM was handed   268433743 working-precision words and    10 shell-pairs
 PRISM was handed   268433743 working-precision words and    10 shell-pairs
 PRISM was handed   268433743 working-precision words and    10 shell-pairs
 PRISM was handed   268433743 working-precision words and    10 shell-pairs
 PRISM was handed   268433743 working-precision words and    10 shell-pairs
 PRISM was handed   268433743 working-precision words and    10 shell-pairs
 PRISM was handed   268433743 working-precision words and    10 shell-pairs
 PRISM was handed   268433743 working-precision words and    10 shell-pairs
 IPart= 24 NShTot=           0 NBatch=           0 AvBLen=         0.0
 IPart= 22 NShTot=           0 NBatch=           0 AvBLen=         0.0
 PRISM was handed   268433743 working-precision words and    10 shell-pairs
 IPart= 16 NShTot=           0 NBatch=           0 AvBLen=         0.0
 IPart= 10 NShTot=           0 NBatch=           0 AvBLen=         0.0
 IPart=  1 NShTot=           0 NBatch=           0 AvBLen=         0.0
 IPart= 15 NShTot=           0 NBatch=           0 AvBLen=         0.0
 IPart=  2 NShTot=           0 NBatch=           0 AvBLen=         0.0
 IPart= 17 NShTot=           0 NBatch=           0 AvBLen=         0.0
 PRISM was handed   268433743 working-precision words and    10 shell-pairs
 PRISM was handed   268433743 working-precision words and    10 shell-pairs
 PRISM was handed   268433743 working-precision words and    10 shell-pairs
 PRISM was handed   268433743 working-precision words and    10 shell-pairs
 PRISM was handed   268433743 working-precision words and    10 shell-pairs
 PRISM was handed   268433743 working-precision words and    10 shell-pairs
 PRISM was handed   268433743 working-precision words and    10 shell-pairs
 IPart= 34 NShTot=           0 NBatch=           0 AvBLen=         0.0
 PRISM was handed   268433743 working-precision words and    10 shell-pairs
 PRISM was handed   268433743 working-precision words and    10 shell-pairs
 PRISM was handed   268433743 working-precision words and    10 shell-pairs
 IPart= 11 NShTot=           0 NBatch=           0 AvBLen=         0.0
 IPart= 19 NShTot=           0 NBatch=           0 AvBLen=         0.0
 IPart=  8 NShTot=           0 NBatch=           0 AvBLen=         0.0
 IPart= 31 NShTot=           0 NBatch=           0 AvBLen=         0.0
 IPart=  6 NShTot=           0 NBatch=           0 AvBLen=         0.0
 IPart= 28 NShTot=           0 NBatch=           0 AvBLen=         0.0
 IPart= 29 NShTot=           0 NBatch=           0 AvBLen=         0.0
 IPart= 30 NShTot=           0 NBatch=           0 AvBLen=         0.0
 IPart= 14 NShTot=           0 NBatch=           0 AvBLen=         0.0
 IPart=  5 NShTot=           0 NBatch=           0 AvBLen=         0.0
 PRISM was handed   268433743 working-precision words and    10 shell-pairs
 PRISM was handed   268433743 working-precision words and    10 shell-pairs
 PRISM was handed   268433743 working-precision words and    10 shell-pairs
 PRISM was handed   268433743 working-precision words and    10 shell-pairs
 IPart= 26 NShTot=           0 NBatch=           0 AvBLen=         0.0
 IPart=  3 NShTot=           0 NBatch=           0 AvBLen=         0.0
 IPart= 20 NShTot=           0 NBatch=           0 AvBLen=         0.0
 IPart= 33 NShTot=           0 NBatch=           0 AvBLen=         0.0
 PRISM was handed   268433743 working-precision words and    10 shell-pairs
 PRISM was handed   268433743 working-precision words and    10 shell-pairs
 PRISM was handed   268433743 working-precision words and    10 shell-pairs
 PRISM was handed   268433743 working-precision words and    10 shell-pairs
 PRISM was handed   268433743 working-precision words and    10 shell-pairs
 IPart=  4 NShTot=           0 NBatch=           0 AvBLen=         0.0
 PRISM was handed   268433743 working-precision words and    10 shell-pairs
 PRISM was handed   268433743 working-precision words and    10 shell-pairs
 PRISM was handed   268433743 working-precision words and    10 shell-pairs
 PRISM was handed   268433743 working-precision words and    10 shell-pairs
 IPart= 25 NShTot=           0 NBatch=           0 AvBLen=         0.0
 IPart= 32 NShTot=           0 NBatch=           0 AvBLen=         0.0
 IPart= 12 NShTot=           0 NBatch=           0 AvBLen=         0.0
 PRISM was handed   268433743 working-precision words and    10 shell-pairs
 PRISM was handed   268433743 working-precision words and    10 shell-pairs
 IPart= 35 NShTot=           0 NBatch=           0 AvBLen=         0.0
 PRISM was handed   268433743 working-precision words and    10 shell-pairs
 IPart=  7 NShTot=           0 NBatch=           0 AvBLen=         0.0
 IPart=  9 NShTot=           0 NBatch=           0 AvBLen=         0.0
 IPart= 21 NShTot=           0 NBatch=           0 AvBLen=         0.0
 IPart= 27 NShTot=           0 NBatch=           0 AvBLen=         0.0
 IPart=  0 NShTot=          10 NBatch=          10 AvBLen=         1.0
 IPart= 18 NShTot=           0 NBatch=           0 AvBLen=         0.0
 IPart= 23 NShTot=           0 NBatch=           0 AvBLen=         0.0
 IPart= 13 NShTot=           0 NBatch=           0 AvBLen=         0.0
 PrSmSu:  NxtVal=             37.
 *** Overlap *** 
                1             2             3             4             5 
      1  0.100000D+01
      2  0.410103D+00  0.100000D+01
      3  0.549745D+00  0.145258D+00  0.100000D+01
      4  0.000000D+00  0.000000D+00  0.000000D+00  0.100000D+01
      5  0.000000D+00  0.000000D+00  0.000000D+00  0.000000D+00  0.100000D+01
      6 -0.410811D+00  0.000000D+00  0.000000D+00  0.000000D+00  0.000000D+00
      7  0.447753D+00  0.185742D+00  0.905515D+00  0.000000D+00  0.000000D+00
      8  0.000000D+00  0.000000D+00  0.000000D+00  0.802063D+00  0.000000D+00
      9  0.000000D+00  0.000000D+00  0.000000D+00  0.000000D+00  0.802063D+00
     10 -0.195668D+00  0.000000D+00  0.000000D+00  0.000000D+00  0.000000D+00
                6             7             8             9            10 
      6  0.100000D+01
      7  0.000000D+00  0.100000D+01
      8  0.000000D+00  0.000000D+00  0.100000D+01
      9  0.000000D+00  0.000000D+00  0.000000D+00  0.100000D+01
     10  0.802063D+00  0.000000D+00  0.000000D+00  0.000000D+00  0.100000D+01
 *** Kinetic Energy *** 
                1             2             3             4             5 
      1  0.760032D+00
      2  0.180874D+00  0.362575D+01
      3  0.540880D-01 -0.242849D+00  0.145919D+00
      4  0.000000D+00  0.000000D+00  0.000000D+00  0.242177D+00
      5  0.000000D+00  0.000000D+00  0.000000D+00  0.000000D+00  0.242177D+00
      6 -0.183761D+00  0.000000D+00  0.000000D+00  0.000000D+00  0.000000D+00
      7  0.405312D-01  0.193002D-01  0.653913D-01  0.000000D+00  0.000000D+00
      8  0.000000D+00  0.000000D+00  0.000000D+00  0.100038D+00  0.000000D+00
      9  0.000000D+00  0.000000D+00  0.000000D+00  0.000000D+00  0.100038D+00
     10 -0.301127D-01  0.000000D+00  0.000000D+00  0.000000D+00  0.000000D+00
                6             7             8             9            10 
      6  0.242177D+00
      7  0.000000D+00  0.539430D-01
      8  0.000000D+00  0.000000D+00  0.899049D-01
      9  0.000000D+00  0.000000D+00  0.000000D+00  0.899049D-01
     10  0.100038D+00  0.000000D+00  0.000000D+00  0.000000D+00  0.899049D-01
 Entering OneElI...
 Calculate potential energy integrals
    NBasis =  10  MinDer = 0  MaxDer = 0
 Requested accuracy = 0.1000D-12
 Symmetry will be used
 PrmmSu-InSpLW:  IPartL=    0 NPrtUS=   36 NPrtUL=    1 DoSpLW=F IThBeg=    0 IThEnd=   35 NThAct=   36.
 PrSmSu:  IncTry=   512 NBBP=             20 NTPThr=   100 NPartT=   36 Incr=           1 LDynOK=F GPUOK=F.
 PrsmSu:  NPrtUS=  36 ThrOK=T IAlg=1 LenDen=           0 ISkipM=0 DoSpLW=F IThBeg=    0 IThEnd=   35.
 Prism:   IPart=     0 DynPar=F LinDyn=F Incr=           1.
 PRISM was handed   268433784 working-precision words and    10 shell-pairs
 PRISM was handed   268433784 working-precision words and    10 shell-pairs
 PRISM was handed   268433784 working-precision words and    10 shell-pairs
 PRISM was handed   268433784 working-precision words and    10 shell-pairs
 PRISM was handed   268433784 working-precision words and    10 shell-pairs
 PRISM was handed   268433784 working-precision words and    10 shell-pairs
 PRISM was handed   268433784 working-precision words and    10 shell-pairs
 PRISM was handed   268433784 working-precision words and    10 shell-pairs
 PRISM was handed   268433784 working-precision words and    10 shell-pairs
 PRISM was handed   268433784 working-precision words and    10 shell-pairs
 PRISM was handed   268433784 working-precision words and    10 shell-pairs
 PRISM was handed   268433784 working-precision words and    10 shell-pairs
 PRISM was handed   268433784 working-precision words and    10 shell-pairs
 PRISM was handed   268433784 working-precision words and    10 shell-pairs
 PRISM was handed   268433784 working-precision words and    10 shell-pairs
 PRISM was handed   268433784 working-precision words and    10 shell-pairs
 PRISM was handed   268433784 working-precision words and    10 shell-pairs
 PRISM was handed   268433784 working-precision words and    10 shell-pairs
 PRISM was handed   268433784 working-precision words and    10 shell-pairs
 PRISM was handed   268433784 working-precision words and    10 shell-pairs
 PRISM was handed   268433784 working-precision words and    10 shell-pairs
 PRISM was handed   268433784 working-precision words and    10 shell-pairs
 PRISM was handed   268433784 working-precision words and    10 shell-pairs
 PRISM was handed   268433784 working-precision words and    10 shell-pairs
 PRISM was handed   268433784 working-precision words and    10 shell-pairs
 PRISM was handed   268433784 working-precision words and    10 shell-pairs
 PRISM was handed   268433784 working-precision words and    10 shell-pairs
 PRISM was handed   268433784 working-precision words and    10 shell-pairs
 PRISM was handed   268433784 working-precision words and    10 shell-pairs
 PRISM was handed   268433784 working-precision words and    10 shell-pairs
 PRISM was handed   268433784 working-precision words and    10 shell-pairs
 PRISM was handed   268433784 working-precision words and    10 shell-pairs
 PRISM was handed   268433784 working-precision words and    10 shell-pairs
 PRISM was handed   268433784 working-precision words and    10 shell-pairs
 PRISM was handed   268433784 working-precision words and    10 shell-pairs
 PRISM was handed   268433784 working-precision words and    10 shell-pairs
 IPart=  6 NShTot=           0 NBatch=           0 AvBLen=         0.0
 IPart= 25 NShTot=           0 NBatch=           0 AvBLen=         0.0
 IPart= 19 NShTot=           0 NBatch=           0 AvBLen=         0.0
 IPart= 24 NShTot=           0 NBatch=           0 AvBLen=         0.0
 IPart= 17 NShTot=           0 NBatch=           0 AvBLen=         0.0
 IPart= 21 NShTot=           0 NBatch=           0 AvBLen=         0.0
 IPart= 33 NShTot=           0 NBatch=           0 AvBLen=         0.0
 IPart= 12 NShTot=           0 NBatch=           0 AvBLen=         0.0
 IPart= 10 NShTot=           0 NBatch=           0 AvBLen=         0.0
 IPart= 30 NShTot=           0 NBatch=           0 AvBLen=         0.0
 IPart= 35 NShTot=           0 NBatch=           0 AvBLen=         0.0
 IPart=  9 NShTot=           0 NBatch=           0 AvBLen=         0.0
 IPart= 11 NShTot=           0 NBatch=           0 AvBLen=         0.0
 IPart=  1 NShTot=           0 NBatch=           0 AvBLen=         0.0
 IPart= 15 NShTot=           0 NBatch=           0 AvBLen=         0.0
 IPart= 32 NShTot=           0 NBatch=           0 AvBLen=         0.0
 IPart=  7 NShTot=           0 NBatch=           0 AvBLen=         0.0
 IPart= 13 NShTot=           0 NBatch=           0 AvBLen=         0.0
 IPart= 23 NShTot=           0 NBatch=           0 AvBLen=         0.0
 IPart= 27 NShTot=           0 NBatch=           0 AvBLen=         0.0
 IPart=  5 NShTot=           0 NBatch=           0 AvBLen=         0.0
 IPart= 18 NShTot=           0 NBatch=           0 AvBLen=         0.0
 IPart= 16 NShTot=           0 NBatch=           0 AvBLen=         0.0
 IPart= 29 NShTot=           0 NBatch=           0 AvBLen=         0.0
 IPart=  3 NShTot=           0 NBatch=           0 AvBLen=         0.0
 IPart=  8 NShTot=           0 NBatch=           0 AvBLen=         0.0
 IPart=  4 NShTot=           0 NBatch=           0 AvBLen=         0.0
 IPart= 20 NShTot=           0 NBatch=           0 AvBLen=         0.0
 IPart= 31 NShTot=           0 NBatch=           0 AvBLen=         0.0
 IPart= 22 NShTot=           0 NBatch=           0 AvBLen=         0.0
 IPart= 34 NShTot=           0 NBatch=           0 AvBLen=         0.0
 IPart= 26 NShTot=           0 NBatch=           0 AvBLen=         0.0
 IPart=  2 NShTot=           0 NBatch=           0 AvBLen=         0.0
 IPart=  0 NShTot=          20 NBatch=          10 AvBLen=         2.0
 IPart= 14 NShTot=           0 NBatch=           0 AvBLen=         0.0
 IPart= 28 NShTot=           0 NBatch=           0 AvBLen=         0.0
 PrSmSu:  NxtVal=             37.
 ***** Potential Energy ***** 
                1             2             3             4             5 
      1  0.326982D+01
      2  0.221331D+01  0.882328D+01
      3  0.120138D+01  0.381062D+00  0.147991D+01
      4  0.000000D+00  0.000000D+00  0.000000D+00  0.133205D+01
      5  0.000000D+00  0.000000D+00  0.000000D+00  0.000000D+00  0.133205D+01
      6 -0.102293D+01 -0.532917D-01 -0.103340D+00  0.000000D+00  0.000000D+00
      7  0.105311D+01  0.884062D+00  0.123386D+01  0.000000D+00  0.000000D+00
      8  0.000000D+00  0.000000D+00  0.000000D+00  0.837171D+00  0.000000D+00
      9  0.000000D+00  0.000000D+00  0.000000D+00  0.000000D+00  0.837171D+00
     10 -0.383587D+00 -0.119317D-01 -0.501252D-01  0.000000D+00  0.000000D+00
                6             7             8             9            10 
      6  0.139124D+01
      7 -0.858406D-01  0.119823D+01
      8  0.000000D+00  0.000000D+00  0.802032D+00
      9  0.000000D+00  0.000000D+00  0.000000D+00  0.802032D+00
     10  0.861863D+00 -0.469528D-01  0.000000D+00  0.000000D+00  0.815961D+00
 ****** Core Hamiltonian ****** 
                1             2             3             4             5 
      1 -0.250979D+01
      2 -0.203243D+01 -0.519753D+01
      3 -0.114729D+01 -0.623911D+00 -0.133399D+01
      4  0.000000D+00  0.000000D+00  0.000000D+00 -0.108987D+01
      5  0.000000D+00  0.000000D+00  0.000000D+00  0.000000D+00 -0.108987D+01
      6  0.839165D+00  0.532917D-01  0.103340D+00  0.000000D+00  0.000000D+00
      7 -0.101257D+01 -0.864762D+00 -0.116847D+01  0.000000D+00  0.000000D+00
      8  0.000000D+00  0.000000D+00  0.000000D+00 -0.737133D+00  0.000000D+00
      9  0.000000D+00  0.000000D+00  0.000000D+00  0.000000D+00 -0.737133D+00
     10  0.353475D+00  0.119317D-01  0.501252D-01  0.000000D+00  0.000000D+00
                6             7             8             9            10 
      6 -0.114906D+01
      7  0.858406D-01 -0.114429D+01
      8  0.000000D+00  0.000000D+00 -0.712127D+00
      9  0.000000D+00  0.000000D+00  0.000000D+00 -0.712127D+00
     10 -0.761825D+00  0.469528D-01  0.000000D+00  0.000000D+00 -0.726056D+00
 SVDSVc IOpt=   1 NormSV=T IR=1
 SVDSVc V= 2.49D+00 1.84D+00 1.01D+00 4.57D-01 1.48D-01 6.79D-02
 SVDSVc IOpt=   1 NormSV=T IR=3
 SVDSVc V= 1.80D+00 1.98D-01
 SVDSVc IOpt=   1 NormSV=T IR=4
 SVDSVc V= 1.80D+00 1.98D-01
 TstOVc:  Largest diagonal error= 3.11D-15 IB=1 I=    6.
 TstOVc:  Largest same sym error= 1.98D-15 IB=1 I=    6 J=    5.
 TstOVc:  Largest diff sym error= 0.00D+00 IB=0 JB=0 I=    0 J=    0.
 Orthogonalized basis functions: 
                 1             2             3             4             5 
      1   0.331679D+00 -0.513111D-01  0.253377D+00  0.104870D+01  0.723937D+00
      2   0.165497D+00  0.616067D-01  0.854942D+00 -0.600378D+00 -0.240291D+00
      3   0.338140D+00  0.216519D+00 -0.302736D+00 -0.111535D+00  0.598708D+00
      4   0.000000D+00  0.000000D+00  0.000000D+00  0.000000D+00  0.000000D+00
      5   0.000000D+00  0.000000D+00  0.000000D+00  0.000000D+00  0.000000D+00
      6  -0.162770D+00  0.473885D+00  0.628562D-01 -0.198784D+00  0.169056D+01
      7   0.326794D+00  0.220959D+00 -0.293120D+00 -0.473500D+00 -0.964320D+00
      8   0.000000D+00  0.000000D+00  0.000000D+00  0.000000D+00  0.000000D+00
      9   0.000000D+00  0.000000D+00  0.000000D+00  0.000000D+00  0.000000D+00
     10  -0.131576D+00  0.467142D+00  0.130281D+00  0.671684D+00 -0.142513D+01
                 6             7             8             9            10 
      1  -0.106384D+01  0.000000D+00  0.000000D+00  0.000000D+00  0.000000D+00
      2   0.485766D+00  0.000000D+00  0.000000D+00  0.000000D+00  0.000000D+00
      3   0.265556D+01  0.000000D+00  0.000000D+00  0.000000D+00  0.000000D+00
      4   0.000000D+00  0.526744D+00  0.158936D+01  0.000000D+00  0.000000D+00
      5   0.000000D+00  0.000000D+00  0.000000D+00  0.526744D+00  0.158936D+01
      6  -0.106608D+01  0.000000D+00  0.000000D+00  0.000000D+00  0.000000D+00
      7  -0.216558D+01  0.000000D+00  0.000000D+00  0.000000D+00  0.000000D+00
      8   0.000000D+00  0.526744D+00 -0.158936D+01  0.000000D+00  0.000000D+00
      9   0.000000D+00  0.000000D+00  0.000000D+00  0.526744D+00 -0.158936D+01
     10   0.694025D+00  0.000000D+00  0.000000D+00  0.000000D+00  0.000000D+00
 NBasis=    10 RedAO= T EigKep=  6.79D-02  NBF=     6     0     2     2
 NBsUse=    10 1.00D-06 EigRej= -1.00D+00 NBFU=     6     0     2     2
 Leave Link  302 at Mon Mar 28 14:05:29 2022, MaxMem=  9663676416 cpu:               3.2 elap:               0.1
 (Enter /nopt/nrel/apps/gaussian/g16C_1/g16/l303.exe)
 DipDrv will not compute anything.
 Fermi contact integrals: 
                 1             2 
      1   0.628247D+00  0.152706D+00
      2   0.762175D-01  0.252653D+01
      3   0.675327D-01 -0.285664D-01
      4   0.000000D+00  0.000000D+00
      5   0.000000D+00  0.000000D+00
      6  -0.115479D+00  0.000000D+00
      7   0.552667D-01  0.588563D-01
      8   0.000000D+00  0.000000D+00
      9   0.000000D+00  0.000000D+00
     10  -0.277276D-01  0.000000D+00
 Leave Link  303 at Mon Mar 28 14:05:29 2022, MaxMem=  9663676416 cpu:               0.8 elap:               0.0
 (Enter /nopt/nrel/apps/gaussian/g16C_1/g16/l401.exe)
 ExpMin= 3.60D-02 ExpMax= 6.42D+02 ExpMxC= 9.68D+01 IAcc=3 IRadAn=         5 AccDes= 0.00D+00
 Harris functional with IExCor=  205 and IRadAn=       5 diagonalized for initial guess.
 HarFok:  IExCor=  205 AccDes= 0.00D+00 IRadAn=         5 IDoV= 1 UseB2=F ITyADJ=14
 ICtDFT=  3500011 ScaDFX=  1.000000  1.000000  1.000000  1.000000
 FoFCou: FMM=F IPFlag=           0 FMFlag=      100000 FMFlg1=           0
         NFxFlg=           0 DoJE=T BraDBF=F KetDBF=T FulRan=T
         wScrn=  0.000000 ICntrl=       500 IOpCl=  0 I1Cent=   200000004 NGrid=           0
         NMat0=    1 NMatS0=      1 NMatT0=    0 NMatD0=    1 NMtDS0=    0 NMtDT0=    0
 Petite list used in FoFCou.
 Harris En= -7.46607045330066    
 JPrj=0 DoOrth=F DoCkMO=F.
 Initial guess orbital symmetries:
 Alpha Orbitals:
       Occupied  (SG) (SG) (SG)
       Virtual   (PI) (PI) (SG) (PI) (PI) (SG) (SG)
 Beta  Orbitals:
       Occupied  (SG)
       Virtual   (SG) (SG) (PI) (PI) (SG) (PI) (PI) (SG) (SG)
 The electronic state of the initial guess is 3-SG.
 Initial guess <Sx>= 0.0000 <Sy>= 0.0000 <Sz>= 1.0000 <S**2>= 2.0000 S= 1.0000
 Leave Link  401 at Mon Mar 28 14:05:29 2022, MaxMem=  9663676416 cpu:               4.1 elap:               0.2
 (Enter /nopt/nrel/apps/gaussian/g16C_1/g16/l502.exe)
 Keep R1 and R2 ints in memory in symmetry-blocked form, NReq=7210728.
 FoFCou: FMM=F IPFlag=           0 FMFlag=           0 FMFlg1=           0
         NFxFlg=           0 DoJE=F BraDBF=F KetDBF=F FulRan=T
         wScrn=  0.000000 ICntrl=       600 IOpCl=  0 I1Cent=           0 NGrid=           0
         NMat0=    1 NMatS0=     55 NMatT0=    0 NMatD0=    1 NMtDS0=    0 NMtDT0=    0
 Petite list used in FoFCou.
 UHF open shell SCF:
 Using DIIS extrapolation, IDIIS=  1040.
 NGot=  9663676416 LenX=  9663672766 LenY=  9663671884
 Requested convergence on RMS density matrix=1.00D-08 within 128 cycles.
 Requested convergence on MAX density matrix=1.00D-06.
 Requested convergence on             energy=1.00D-06.
 No special actions if energy rises.

 Cycle   1  Pass 1  IDiag  1:
 E= -7.50583748081911    
 DIIS: error= 2.65D-02 at cycle   1 NSaved=   1.
 NSaved= 1 IEnMin= 1 EnMin= -7.50583748081911     IErMin= 1 ErrMin= 2.65D-02
 ErrMax= 2.65D-02  0.00D+00 EMaxC= 1.00D-01 BMatC= 3.25D-02 BMatP= 3.25D-02
 IDIUse=3 WtCom= 7.35D-01 WtEn= 2.65D-01
 Coeff-Com:  0.100D+01
 Coeff-En:   0.100D+01
 Coeff:      0.100D+01
 Gap=     0.228 Goal=   None    Shift=    0.000
 Gap=     2.670 Goal=   None    Shift=    0.000
 GapD=    0.228 DampG=1.000 DampE=0.500 DampFc=0.5000 IDamp=-1.
 Damping current iteration by 5.00D-01
 RMSDP=1.74D-02 MaxDP=1.32D-01              OVMax= 3.04D-02

 Cycle   2  Pass 1  IDiag  1:
 E= -7.51058989826735     Delta-E=       -0.004752417448 Rises=F Damp=T
 DIIS: error= 1.60D-02 at cycle   2 NSaved=   2.
 NSaved= 2 IEnMin= 2 EnMin= -7.51058989826735     IErMin= 2 ErrMin= 1.60D-02
 ErrMax= 1.60D-02  0.00D+00 EMaxC= 1.00D-01 BMatC= 1.18D-02 BMatP= 3.25D-02
 IDIUse=3 WtCom= 8.40D-01 WtEn= 1.60D-01
 Coeff-Com: -0.145D+01 0.245D+01
 Coeff-En:   0.000D+00 0.100D+01
 Coeff:     -0.122D+01 0.222D+01
 Gap=     0.220 Goal=   None    Shift=    0.000
 Gap=     2.620 Goal=   None    Shift=    0.000
 RMSDP=1.37D-02 MaxDP=1.16D-01 DE=-4.75D-03 OVMax= 6.05D-03

 Cycle   3  Pass 1  IDiag  1:
 E= -7.51721926088485     Delta-E=       -0.006629362618 Rises=F Damp=F
 DIIS: error= 1.78D-03 at cycle   3 NSaved=   3.
 NSaved= 3 IEnMin= 3 EnMin= -7.51721926088485     IErMin= 3 ErrMin= 1.78D-03
 ErrMax= 1.78D-03  0.00D+00 EMaxC= 1.00D-01 BMatC= 8.79D-05 BMatP= 1.18D-02
 IDIUse=3 WtCom= 9.82D-01 WtEn= 1.78D-02
 Coeff-Com:  0.558D+00-0.101D+01 0.146D+01
 Coeff-En:   0.000D+00 0.000D+00 0.100D+01
 Coeff:      0.548D+00-0.996D+00 0.145D+01
 Gap=     0.220 Goal=   None    Shift=    0.000
 Gap=     2.614 Goal=   None    Shift=    0.000
 RMSDP=1.71D-03 MaxDP=1.71D-02 DE=-6.63D-03 OVMax= 1.21D-03

 Cycle   4  Pass 1  IDiag  1:
 E= -7.51728140523904     Delta-E=       -0.000062144354 Rises=F Damp=F
 DIIS: error= 1.40D-04 at cycle   4 NSaved=   4.
 NSaved= 4 IEnMin= 4 EnMin= -7.51728140523904     IErMin= 4 ErrMin= 1.40D-04
 ErrMax= 1.40D-04  0.00D+00 EMaxC= 1.00D-01 BMatC= 6.02D-07 BMatP= 8.79D-05
 IDIUse=3 WtCom= 9.99D-01 WtEn= 1.40D-03
 Coeff-Com: -0.192D+00 0.350D+00-0.556D+00 0.140D+01
 Coeff-En:   0.000D+00 0.000D+00 0.000D+00 0.100D+01
 Coeff:     -0.191D+00 0.350D+00-0.555D+00 0.140D+01
 Gap=     0.220 Goal=   None    Shift=    0.000
 Gap=     2.614 Goal=   None    Shift=    0.000
 RMSDP=3.42D-04 MaxDP=2.46D-03 DE=-6.21D-05 OVMax= 6.82D-05

 Cycle   5  Pass 1  IDiag  1:
 E= -7.51728236638808     Delta-E=       -0.000000961149 Rises=F Damp=F
 DIIS: error= 3.90D-05 at cycle   5 NSaved=   5.
 NSaved= 5 IEnMin= 5 EnMin= -7.51728236638808     IErMin= 5 ErrMin= 3.90D-05
 ErrMax= 3.90D-05  0.00D+00 EMaxC= 1.00D-01 BMatC= 2.71D-08 BMatP= 6.02D-07
 IDIUse=1 WtCom= 1.00D+00 WtEn= 0.00D+00
 Coeff-Com:  0.812D-01-0.149D+00 0.245D+00-0.739D+00 0.156D+01
 Coeff:      0.812D-01-0.149D+00 0.245D+00-0.739D+00 0.156D+01
 Gap=     0.220 Goal=   None    Shift=    0.000
 Gap=     2.614 Goal=   None    Shift=    0.000
 RMSDP=1.19D-04 MaxDP=8.41D-04 DE=-9.61D-07 OVMax= 9.12D-06

 Cycle   6  Pass 1  IDiag  1:
 E= -7.51728243740833     Delta-E=       -0.000000071020 Rises=F Damp=F
 DIIS: error= 5.43D-06 at cycle   6 NSaved=   6.
 NSaved= 6 IEnMin= 6 EnMin= -7.51728243740833     IErMin= 6 ErrMin= 5.43D-06
 ErrMax= 5.43D-06  0.00D+00 EMaxC= 1.00D-01 BMatC= 7.49D-10 BMatP= 2.71D-08
 IDIUse=1 WtCom= 1.00D+00 WtEn= 0.00D+00
 Coeff-Com: -0.935D-02 0.174D-01-0.307D-01 0.113D+00-0.399D+00 0.131D+01
 Coeff:     -0.935D-02 0.174D-01-0.307D-01 0.113D+00-0.399D+00 0.131D+01
 Gap=     0.220 Goal=   None    Shift=    0.000
 Gap=     2.614 Goal=   None    Shift=    0.000
 RMSDP=1.84D-05 MaxDP=9.48D-05 DE=-7.10D-08 OVMax= 1.94D-06

 Cycle   7  Pass 1  IDiag  1:
 E= -7.51728243939401     Delta-E=       -0.000000001986 Rises=F Damp=F
 DIIS: error= 1.11D-06 at cycle   7 NSaved=   7.
 NSaved= 7 IEnMin= 7 EnMin= -7.51728243939401     IErMin= 7 ErrMin= 1.11D-06
 ErrMax= 1.11D-06  0.00D+00 EMaxC= 1.00D-01 BMatC= 2.14D-11 BMatP= 7.49D-10
 IDIUse=1 WtCom= 1.00D+00 WtEn= 0.00D+00
 Coeff-Com:  0.186D-03-0.402D-03 0.135D-02-0.101D-01 0.553D-01-0.275D+00
 Coeff-Com:  0.123D+01
 Coeff:      0.186D-03-0.402D-03 0.135D-02-0.101D-01 0.553D-01-0.275D+00
 Coeff:      0.123D+01
 Gap=     0.220 Goal=   None    Shift=    0.000
 Gap=     2.614 Goal=   None    Shift=    0.000
 RMSDP=2.36D-06 MaxDP=1.63D-05 DE=-1.99D-09 OVMax= 1.36D-07

 Cycle   8  Pass 1  IDiag  1:
 E= -7.51728243946768     Delta-E=       -0.000000000074 Rises=F Damp=F
 DIIS: error= 4.45D-07 at cycle   8 NSaved=   8.
 NSaved= 8 IEnMin= 8 EnMin= -7.51728243946768     IErMin= 8 ErrMin= 4.45D-07
 ErrMax= 4.45D-07  0.00D+00 EMaxC= 1.00D-01 BMatC= 3.85D-12 BMatP= 2.14D-11
 IDIUse=1 WtCom= 1.00D+00 WtEn= 0.00D+00
 Coeff-Com: -0.312D-03 0.602D-03-0.128D-02 0.611D-02-0.247D-01 0.123D+00
 Coeff-Com: -0.991D+00 0.189D+01
 Coeff:     -0.312D-03 0.602D-03-0.128D-02 0.611D-02-0.247D-01 0.123D+00
 Coeff:     -0.991D+00 0.189D+01
 Gap=     0.220 Goal=   None    Shift=    0.000
 Gap=     2.614 Goal=   None    Shift=    0.000
 RMSDP=1.64D-06 MaxDP=1.55D-05 DE=-7.37D-11 OVMax= 1.45D-07

 Cycle   9  Pass 1  IDiag  1:
 E= -7.51728243948259     Delta-E=       -0.000000000015 Rises=F Damp=F
 DIIS: error= 2.10D-08 at cycle   9 NSaved=   9.
 NSaved= 9 IEnMin= 9 EnMin= -7.51728243948259     IErMin= 9 ErrMin= 2.10D-08
 ErrMax= 2.10D-08  0.00D+00 EMaxC= 1.00D-01 BMatC= 1.71D-14 BMatP= 3.85D-12
 IDIUse=1 WtCom= 1.00D+00 WtEn= 0.00D+00
 Coeff-Com:  0.231D-04-0.491D-04 0.152D-03-0.988D-03 0.433D-02-0.249D-01
 Coeff-Com:  0.256D+00-0.530D+00 0.130D+01
 Coeff:      0.231D-04-0.491D-04 0.152D-03-0.988D-03 0.433D-02-0.249D-01
 Coeff:      0.256D+00-0.530D+00 0.130D+01
 Gap=     0.220 Goal=   None    Shift=    0.000
 Gap=     2.614 Goal=   None    Shift=    0.000
 RMSDP=3.97D-08 MaxDP=2.40D-07 DE=-1.49D-11 OVMax= 9.92D-09

 Cycle  10  Pass 1  IDiag  1:
 E= -7.51728243948260     Delta-E=       -0.000000000000 Rises=F Damp=F
 DIIS: error= 7.20D-10 at cycle  10 NSaved=  10.
 NSaved=10 IEnMin=10 EnMin= -7.51728243948260     IErMin=10 ErrMin= 7.20D-10
 ErrMax= 7.20D-10  0.00D+00 EMaxC= 1.00D-01 BMatC= 2.77D-17 BMatP= 1.71D-14
 IDIUse=1 WtCom= 1.00D+00 WtEn= 0.00D+00
 Coeff-Com: -0.106D-05 0.241D-05-0.894D-05 0.638D-04-0.260D-03 0.164D-02
 Coeff-Com: -0.188D-01 0.408D-01-0.123D+00 0.110D+01
 Coeff:     -0.106D-05 0.241D-05-0.894D-05 0.638D-04-0.260D-03 0.164D-02
 Coeff:     -0.188D-01 0.408D-01-0.123D+00 0.110D+01
 Gap=     0.220 Goal=   None    Shift=    0.000
 Gap=     2.614 Goal=   None    Shift=    0.000
 RMSDP=2.65D-09 MaxDP=1.54D-08 DE=-1.78D-14 OVMax= 5.65D-10

 SCF Done:  E(UHF) =  -7.51728243948     A.U. after   10 cycles
            NFock= 10  Conv=0.27D-08     -V/T= 1.8974
 <Sx>= 0.0000 <Sy>= 0.0000 <Sz>= 1.0000 <S**2>= 2.0000 S= 1.0000
 <L.S>= 0.000000000000E+00
 KE= 8.376650346881D+00 PE=-2.179551190410D+01 EE= 3.633676785225D+00
 Annihilation of the first spin contaminant:
 S**2 before annihilation     2.0000,   after     2.0000
 Leave Link  502 at Mon Mar 28 14:05:29 2022, MaxMem=  9663676416 cpu:               3.2 elap:               0.1
 (Enter /nopt/nrel/apps/gaussian/g16C_1/g16/l801.exe)
 Windowed orbitals will be sorted by symmetry type.
 ExpMin= 3.60D-02 ExpMax= 6.42D+02 ExpMxC= 9.68D+01 IAcc=3 IRadAn=         5 AccDes= 0.00D+00
 HarFok:  IExCor=  205 AccDes= 0.00D+00 IRadAn=         5 IDoV=-2 UseB2=F ITyADJ=14
 ICtDFT= 12500011 ScaDFX=  1.000000  1.000000  1.000000  1.000000
 Largest valence mixing into a core orbital is  3.33D-03
 Largest core mixing into a valence orbital is  1.37D-03
 Range of M.O.s used for correlation:     2    10
 NBasis=    10 NAE=     3 NBE=     1 NFC=     1 NFV=     0
 NROrb=      9 NOA=     2 NOB=     0 NVA=     7 NVB=     9
 Leave Link  801 at Mon Mar 28 14:05:29 2022, MaxMem=  9663676416 cpu:               2.2 elap:               0.1
 (Enter /nopt/nrel/apps/gaussian/g16C_1/g16/l804.exe)
 Open-shell transformation, MDV=  9663676416 ITran=4 ISComp=2.
 Unit  1 TFree=          7995 TCopy=        115854.
 Semi-Direct transformation.
 ModeAB=           2 MOrb=             2 LenV=    9663554470
 LASXX=          158 LTotXX=         158 LenRXX=         158
 LTotAB=         269 MaxLAS=         990 LenRXY=         990
 NonZer=        1206 LenScr=      785920 LnRSAI=           0
 LnScr1=           0 LExtra=      219242 Total=      1006310
 MaxDsk= 34359738368 SrtSym=           F ITran=            4
 DoSDTr:  NPSUse= 36
 JobTyp=1 Pass  1:  I=   1 to   2.
 (rs|ai) integrals will be sorted in core.
 Complete sort for first half transformation.
 First half transformation complete.
 Complete sort for second half transformation.
 Second half transformation complete.
 Spin components of T(2) and E(2):
     alpha-alpha T2 =       0.1329546882D-03 E2=     -0.1658846218D-03
     alpha-beta  T2 =       0.0000000000D+00 E2=      0.0000000000D+00
     beta-beta   T2 =       0.0000000000D+00 E2=      0.0000000000D+00
 ANorm=    0.1000066475D+01
 E2 =    -0.1658846218D-03 EUMP2 =    -0.75174483241044D+01
 Leave Link  804 at Mon Mar 28 14:05:29 2022, MaxMem=  9663676416 cpu:               1.6 elap:               0.1
 (Enter /nopt/nrel/apps/gaussian/g16C_1/g16/l913.exe)
 CIDS:  MDV=  9663676416.
 Frozen-core window:  NFC=   1 NFV=   0.
 IFCWin=0 IBDFC=1 NFBD=     0     0 NFCmp=     0     0 NFFFC=     0     0
 Using original routines for 1st iteration.
 Using DD4UQ or CC4UQ for 2nd and later iterations.
 Keep R2 and R3 ints in memory in symmetry-blocked form, NReq=7213122.
 FoFCou: FMM=F IPFlag=           0 FMFlag=           0 FMFlg1=           0
         NFxFlg=           0 DoJE=F BraDBF=F KetDBF=F FulRan=T
         wScrn=  0.000000 ICntrl=       600 IOpCl=  0 I1Cent=           0 NGrid=           0
         NMat0=    1 NMatS0=     55 NMatT0=    0 NMatD0=    1 NMtDS0=    0 NMtDT0=    0
 Petite list used in FoFCou.
 CIDS: In Core Option IDoMem=           1.
 Coupled Cluster theory with single and double substitutions
 ===========================================================
 Iterations= 200 Convergence= 0.100D-06
 Produce multiple copies of IABC intergrals
 Iteration Nr.   1
 **********************
 DD1Dir will call FoFMem   1 times, MxPair=         2
 NAB=     0 NAA=     1 NBB=     0.
 MP4(R+Q)=  0.22055138D-07
 Maximum subspace dimension=  5
 A-vector RMS=  1.0763590D-03 Max=  2.4659222D-03 conv= 1.00D-05.
 RLE energy=       -0.0002621370
 E3=       -0.60932352D-04        EUMP3=      -0.75175092565D+01
 E4(DQ)=   -0.22579639D-04        UMP4(DQ)=   -0.75175318361D+01
 E4(SDQ)=  -0.22703366D-04        UMP4(SDQ)=  -0.75175319598D+01
 VARIATIONAL ENERGIES WITH THE FIRST-ORDER WAVEFUNCTION:
 DE(Corr)= -0.22679473E-03 E(Corr)=     -7.5175092342    
 NORM(A)=   0.10001691D+01
 Iteration Nr.   2
 **********************
 DD1Dir will call FoFMem   1 times, MxPair=         2
 NAB=     0 NAA=     1 NBB=     0.
 A-vector RMS=  1.3833908D-04 Max=  2.0725735D-04 conv= 1.00D-05.
 RLE energy=       -0.0002633915
 DE(Corr)= -0.26265957E-03 E(CORR)=     -7.5175450991     Delta=-3.59D-05
 NORM(A)=   0.10001729D+01
 Iteration Nr.   3
 **********************
 DD1Dir will call FoFMem   1 times, MxPair=         2
 NAB=     0 NAA=     1 NBB=     0.
 A-vector RMS=  2.6875401D-05 Max=  6.6182781D-05 conv= 1.00D-05.
 RLE energy=       -0.0002634453
 DE(Corr)= -0.26340169E-03 E(CORR)=     -7.5175458412     Delta=-7.42D-07
 NORM(A)=   0.10001732D+01
 Iteration Nr.   4
 **********************
 DD1Dir will call FoFMem   1 times, MxPair=         2
 NAB=     0 NAA=     1 NBB=     0.
 A-vector RMS=  5.3807563D-06 Max=  1.6021915D-05 conv= 1.00D-05.
 RLE energy=       -0.0002634321
 DE(Corr)= -0.26343963E-03 E(CORR)=     -7.5175458791     Delta=-3.79D-08
 NORM(A)=   0.10001732D+01
 Iteration Nr.   5
 **********************
 DD1Dir will call FoFMem   1 times, MxPair=         2
 NAB=     0 NAA=     1 NBB=     0.
 A-vector RMS=  8.7358543D-07 Max=  2.4208185D-06 conv= 1.00D-05.
 RLE energy=       -0.0002634408
 DE(Corr)= -0.26343530E-03 E(CORR)=     -7.5175458748     Delta= 4.33D-09
 NORM(A)=   0.10001732D+01
 CI/CC converged in    5 iterations to DelEn= 4.33D-09 Conv= 1.00D-07 ErrA1= 8.74D-07 Conv= 1.00D-05
 Wavefunction amplitudes converged. E(Corr)=     -7.5175458748    
 Largest amplitude= 1.11D-02
 Discarding MO integrals.
 Leave Link  913 at Mon Mar 28 14:05:29 2022, MaxMem=  9663676416 cpu:               3.9 elap:               0.1
 (Enter /nopt/nrel/apps/gaussian/g16C_1/g16/l601.exe)
 Copying SCF densities to generalized density rwf, IOpCl= 1 IROHF=0.

 **********************************************************************

            Population analysis using the SCF Density.

 **********************************************************************

 Orbital symmetries:
 Alpha Orbitals:
       Occupied  (SG) (SG) (SG)
       Virtual   (PI) (PI) (SG) (PI) (PI) (SG) (SG)
 Beta  Orbitals:
       Occupied  (SG)
       Virtual   (SG) (PI) (PI) (SG) (SG) (PI) (PI) (SG) (SG)
 The electronic state is 3-SG.
 Alpha  occ. eigenvalues --   -2.71445  -0.60658  -0.19078
 Alpha virt. eigenvalues --    0.02893   0.02893   0.06188   0.16769   0.16769
 Alpha virt. eigenvalues --    0.18537   0.59967
  Beta  occ. eigenvalues --   -2.63970
  Beta virt. eigenvalues --   -0.02571   0.06689   0.06689   0.08121   0.10324
  Beta virt. eigenvalues --    0.20171   0.20171   0.24371   0.77529
          Condensed to atoms (all electrons):
               1          2
     1  H    0.784567   0.016118
     2  Li   0.016118   3.183196
          Atomic-Atomic Spin Densities.
               1          2
     1  H    0.776826  -0.031927
     2  Li  -0.031927   1.287029
 Mulliken charges and spin densities:
               1          2
     1  H    0.199314   0.744899
     2  Li  -0.199314   1.255101
 Sum of Mulliken charges =  -0.00000   2.00000
 Mulliken charges and spin densities with hydrogens summed into heavy atoms:
               1          2
     2  Li  -0.000000   2.000000
 N-N= 2.267902332514D+00 E-N=-2.179551190672D+01  KE= 8.376650346881D+00
 Symmetry A1   KE= 8.376650346881D+00
 Symmetry A2   KE= 0.000000000000D+00
 Symmetry B1   KE= 0.000000000000D+00
 Symmetry B2   KE= 0.000000000000D+00
 Symmetry A1   SP= 2.000000000000D+00
 Symmetry A2   SP= 0.000000000000D+00
 Symmetry B1   SP= 0.000000000000D+00
 Symmetry B2   SP= 0.000000000000D+00

 Atomic contributions to Alpha molecular orbitals:
 Alpha occ 1 OE=-2.714 is Li2-s=0.9633
 Alpha occ 2 OE=-0.607 is H1-s=0.7469 Li2-p=0.1672
 Alpha occ 3 OE=-0.191 is Li2-s=0.7771 Li2-p=0.2338
 Alpha vir 4 OE=0.029 is Li2-p=1.0000
 Alpha vir 5 OE=0.029 is Li2-p=1.0000
 Alpha vir 6 OE=0.062 is Li2-p=0.8168 Li2-s=0.1734
 Alpha vir 7 OE=0.168 is Li2-p=1.0000
 Alpha vir 8 OE=0.168 is Li2-p=1.0000
 Alpha vir 9 OE=0.185 is Li2-s=0.6588 Li2-p=0.3326
 Alpha vir 10 OE=0.600 is Li2-p=0.4498 Li2-s=0.3414 H1-s=0.2088

 Atomic contributions to Beta  molecular orbitals:
 Beta  occ 1 OE=-2.640 is Li2-s=0.9722
 Beta  vir 2 OE=-0.026 is Li2-s=0.5489 Li2-p=0.2475 H1-s=0.2036
 Beta  vir 3 OE=0.067 is Li2-p=1.0000
 Beta  vir 4 OE=0.067 is Li2-p=1.0000
 Beta  vir 5 OE=0.081 is Li2-p=0.5743 Li2-s=0.3942
 Beta  vir 6 OE=0.103 is Li2-p=0.5863 Li2-s=0.2722 H1-s=0.1415
 Beta  vir 7 OE=0.202 is Li2-p=1.0000
 Beta  vir 8 OE=0.202 is Li2-p=1.0000
 Beta  vir 9 OE=0.244 is Li2-s=0.6285 Li2-p=0.3668
 Beta  vir 10 OE=0.775 is H1-s=0.5908 Li2-p=0.2251 Li2-s=0.1841
 
 Leave Link  601 at Mon Mar 28 14:05:29 2022, MaxMem=  9663676416 cpu:               2.3 elap:               0.1
 (Enter /nopt/nrel/apps/gaussian/g16C_1/g16/l9999.exe)

 Test job not archived.
 1\1\GINC-R102U34\SP\UCCSD-FC\Gen\H1Li1(3)\USER\28-Mar-2022\0\\#P C
 CSD(MaxCyc=200,SaveAmplitudes,ReadAmplitudes)/GEN sp pop=AllOrbitals i
 op(3/33=1,3/36=-1)\\test\\0,3\H,0,0.,0.,0.\Li,0,0.,0.,0.7\\Version=ES6
 4L-G16RevC.01\State=3-SG\HF=-7.5172824\MP2=-7.5174483\MP3=-7.5175093\M
 P4D=-7.5175319\MP4DQ=-7.5175318\MP4SDQ=-7.517532\CCSD=-7.5175459\S2=2.
 000023\S2-1=0.\S2A=2.\RMSD=2.651e-09\PG=C*V [C*(H1Li1)]\\@


 FESTINA LENTE!
     - IMPERATOR AUGUSTUS 
 Job cpu time:       0 days  0 hours  0 minutes 33.3 seconds.
 Elapsed time:       0 days  0 hours  0 minutes  1.3 seconds.
 File lengths (MBytes):  RWF=     13 Int=      0 D2E=      0 Chk=      1 Scr=      1
 Normal termination of Gaussian 16 at Mon Mar 28 14:05:29 2022.
