 Entering Gaussian System, Link 0=g16
 Initial command:
 /nopt/nrel/apps/gaussian/g16C_1/g16/l1.exe "/lustre/eaglefs/scratch/user/qc/nah-dissc/nah-3-ccsd-2.9-631g/Gau-22332.inp" -scrdir="/lustre/eaglefs/scratch/user/qc/nah-dissc/nah-3-ccsd-2.9-631g/"
 Default is to use a total of  36 processors:
                               36 via shared-memory
                                1 via Linda
 Entering Link 1 = /nopt/nrel/apps/gaussian/g16C_1/g16/l1.exe PID=     22333.
  
 Copyright (c) 1988-2019, Gaussian, Inc.  All Rights Reserved.
  
 This is part of the Gaussian(R) 16 program.  It is based on
 the Gaussian(R) 09 system (copyright 2009, Gaussian, Inc.),
 the Gaussian(R) 03 system (copyright 2003, Gaussian, Inc.),
 the Gaussian(R) 98 system (copyright 1998, Gaussian, Inc.),
 the Gaussian(R) 94 system (copyright 1995, Gaussian, Inc.),
 the Gaussian 92(TM) system (copyright 1992, Gaussian, Inc.),
 the Gaussian 90(TM) system (copyright 1990, Gaussian, Inc.),
 the Gaussian 88(TM) system (copyright 1988, Gaussian, Inc.),
 the Gaussian 86(TM) system (copyright 1986, Carnegie Mellon
 University), and the Gaussian 82(TM) system (copyright 1983,
 Carnegie Mellon University). Gaussian is a federally registered
 trademark of Gaussian, Inc.
  
 This software contains proprietary and confidential information,
 including trade secrets, belonging to Gaussian, Inc.
  
 This software is provided under written license and may be
 used, copied, transmitted, or stored only in accord with that
 written license.
  
 The following legend is applicable only to US Government
 contracts under FAR:
  
                    RESTRICTED RIGHTS LEGEND
  
 Use, reproduction and disclosure by the US Government is
 subject to restrictions as set forth in subparagraphs (a)
 and (c) of the Commercial Computer Software - Restricted
 Rights clause in FAR 52.227-19.
  
 Gaussian, Inc.
 340 Quinnipiac St., Bldg. 40, Wallingford CT 06492
  
  
 ---------------------------------------------------------------
 Warning -- This program may not be used in any manner that
 competes with the business of Gaussian, Inc. or will provide
 assistance to any competitor of Gaussian, Inc.  The licensee
 of this program is prohibited from giving any competitor of
 Gaussian, Inc. access to this program.  By using this program,
 the user acknowledges that Gaussian, Inc. is engaged in the
 business of creating and licensing software in the field of
 computational chemistry and represents and warrants to the
 licensee that it is not a competitor of Gaussian, Inc. and that
 it will not use this program in any manner prohibited above.
 ---------------------------------------------------------------
  

 Cite this work as:
 Gaussian 16, Revision C.01,
 M. J. Frisch, G. W. Trucks, H. B. Schlegel, G. E. Scuseria, 
 M. A. Robb, J. R. Cheeseman, G. Scalmani, V. Barone, 
 G. A. Petersson, H. Nakatsuji, X. Li, M. Caricato, A. V. Marenich, 
 J. Bloino, B. G. Janesko, R. Gomperts, B. Mennucci, H. P. Hratchian, 
 J. V. Ortiz, A. F. Izmaylov, J. L. Sonnenberg, D. Williams-Young, 
 F. Ding, F. Lipparini, F. Egidi, J. Goings, B. Peng, A. Petrone, 
 T. Henderson, D. Ranasinghe, V. G. Zakrzewski, J. Gao, N. Rega, 
 G. Zheng, W. Liang, M. Hada, M. Ehara, K. Toyota, R. Fukuda, 
 J. Hasegawa, M. Ishida, T. Nakajima, Y. Honda, O. Kitao, H. Nakai, 
 T. Vreven, K. Throssell, J. A. Montgomery, Jr., J. E. Peralta, 
 F. Ogliaro, M. J. Bearpark, J. J. Heyd, E. N. Brothers, K. N. Kudin, 
 V. N. Staroverov, T. A. Keith, R. Kobayashi, J. Normand, 
 K. Raghavachari, A. P. Rendell, J. C. Burant, S. S. Iyengar, 
 J. Tomasi, M. Cossi, J. M. Millam, M. Klene, C. Adamo, R. Cammi, 
 J. W. Ochterski, R. L. Martin, K. Morokuma, O. Farkas, 
 J. B. Foresman, and D. J. Fox, Gaussian, Inc., Wallingford CT, 2019.
 
 ******************************************
 Gaussian 16:  ES64L-G16RevC.01  3-Jul-2019
                28-Mar-2022 
 ******************************************
 %chk=molecule
 Default route: CacheSize=180224 MaxDisk=256GB
 ----------------------------------------------------------------------
 #P CCSD(MaxCyc=200,SaveAmplitudes,ReadAmplitudes)/GEN sp pop=AllOrbita
 ls iop(3/33=1,3/36=-1)
 ----------------------------------------------------------------------
 1/4=180224,38=1,172=1/1;
 2/4=180224,12=2,17=6,18=5,40=1/2;
 3/4=180224,5=7,11=9,25=1,30=1,33=1,36=-1/1,2,3;
 4/4=180224/1;
 5/4=180224,5=2,38=5/2;
 8/4=180224,6=4,9=120000,10=1,24=1/1,4;
 9/4=180224,5=7,6=200,77=1/13;
 6/4=180224,7=2,8=2,9=2,10=2,96=-1/1;
 99/4=180224,5=1,9=1/99;
 Leave Link    1 at Mon Mar 28 14:25:42 2022, MaxMem=           0 cpu:               2.6 elap:               0.1
 (Enter /nopt/nrel/apps/gaussian/g16C_1/g16/l101.exe)
 ----
 test
 ----
 Symbolic Z-matrix:
 Charge =  0 Multiplicity = 3
 H                     0.        0.        0. 
 Na                    0.        0.        2.9 
 
 ITRead=  0  0
 MicOpt= -1 -1
 NAtoms=      2 NQM=        2 NQMF=       0 NMMI=      0 NMMIF=      0
                NMic=       0 NMicF=      0.
                    Isotopes and Nuclear Properties:
 (Nuclear quadrupole moments (NQMom) in fm**2, nuclear magnetic moments (NMagM)
  in nuclear magnetons)

  Atom         1           2
 IAtWgt=           1          23
 AtmWgt=   1.0078250  22.9897697
 NucSpn=           1           3
 AtZEff=  -0.0000000  -0.0000000
 NQMom=    0.0000000  10.4000000
 NMagM=    2.7928460   2.2175200
 AtZNuc=   1.0000000  11.0000000
 Leave Link  101 at Mon Mar 28 14:25:42 2022, MaxMem=  9663676416 cpu:               2.7 elap:               0.1
 (Enter /nopt/nrel/apps/gaussian/g16C_1/g16/l202.exe)
                          Input orientation:                          
 ---------------------------------------------------------------------
 Center     Atomic      Atomic             Coordinates (Angstroms)
 Number     Number       Type             X           Y           Z
 ---------------------------------------------------------------------
      1          1           0        0.000000    0.000000    0.000000
      2         11           0        0.000000    0.000000    2.900000
 ---------------------------------------------------------------------
 Stoichiometry    HNa(3)
 Framework group  C*V[C*(HNa)]
 Deg. of freedom     1
 Full point group                 C*V     NOp   4
 Largest Abelian subgroup         C2V     NOp   4
 Largest concise Abelian subgroup C1      NOp   1
                         Standard orientation:                         
 ---------------------------------------------------------------------
 Center     Atomic      Atomic             Coordinates (Angstroms)
 Number     Number       Type             X           Y           Z
 ---------------------------------------------------------------------
      1          1           0        0.000000    0.000000   -2.658333
      2         11           0        0.000000    0.000000    0.241667
 ---------------------------------------------------------------------
 Rotational constants (GHZ):           0.0000000          62.2399385          62.2399385
 Leave Link  202 at Mon Mar 28 14:25:43 2022, MaxMem=  9663676416 cpu:               0.6 elap:               0.0
 (Enter /nopt/nrel/apps/gaussian/g16C_1/g16/l301.exe)
 General basis read from cards:  (5D, 7F)
                         Coordinates in L301:                         
 ---------------------------------------------------------------------
 Center     Atomic      Atomic             Coordinates (Angstroms)
 Number     Number       Type             X           Y           Z
 ---------------------------------------------------------------------
      1          1           0        0.000000    0.000000   -2.658333
      2         11           0        0.000000    0.000000    0.241667
 ---------------------------------------------------------------------
 Centers:       1
 STO-3G
 ****
 Centers:       2
 6-31G
 ****
 FixB: optimizing general contractions.
 Ernie: Thresh=  0.10000D-02 Tol=  0.10000D-05 Strict=F.
 IA=     1 ShT= 0 ShC= 0 NL=   1 NS=   0.
 IA=     1 L=0 SC=0 ISt=    0 NBk=    0 NP=    0 IndPr=    0.
 IA=     2 ShT= 0 ShC= 0 NL=   1 NS=   0.
 IA=     2 L=0 SC=0 ISt=    0 NBk=    0 NP=    0 IndPr=    0.
 IA=     2 ShT= 1 ShC= 0 NL=   3 NS=   1.
 IA=     2 L=1 SC=0 ISt=    1 NBk=    2 NP=    9 IndPr=    0.
 DoElim1:  L=1 select primitive    1 from    2 using    1 C=-3.54D-03
 DoElim2:  L=1 select primitive    9 from    1 using    2 C= 1.23D+00
 DoElim1:  L=1 select primitive    1 from    2 using    1 C= 5.00D-03
 DoElim2:  L=1 select primitive    8 from    1 using    2 C= 9.50D-01
 Delete L=1 primitive    7 from    2 C=  0.00D+00.
 Delete L=1 primitive    5 from    2 C=  0.00D+00.
 Delete L=1 primitive    4 from    2 C=  0.00D+00.
 Delete L=1 primitive    3 from    2 C=  0.00D+00.
 Delete L=1 primitive    2 from    2 C=  0.00D+00.
 Delete L=1 primitive    1 from    2 C=  0.00D+00.
 Delete L=1 primitive    9 from    1 C=  0.00D+00.
 Delete L=1 primitive    8 from    1 C=  0.00D+00.
 Delete L=1 primitive    6 from    1 C=  0.00D+00.
 IA=     2 L=1 SC=0 ISt=    0 NBk=    0 NP=    0 IndPr=    9.
 LdAtmC:  AtmChg=     1.000000    11.000000
 AtZEff=     -1.0000000    -10.0400000
 NEqShl: 
              1            2            3            4
     1            1            1            1            1
     2            2            2            2            2
     3            3            3            3            3
     4            4            4            4            4
     5            5            5            5            5
 NEqBas: 
              1            2            3            4
     1            1            1            1            1
     2            2            2            2            2
     3            3            3            3            3
     4            4           -4           -4            4
     5            5           -5            5           -5
     6            6            6            6            6
     7            7            7            7            7
     8            8           -8           -8            8
     9            9           -9            9           -9
    10           10           10           10           10
    11           11           11           11           11
    12           12          -12          -12           12
    13           13          -13           13          -13
    14           14           14           14           14
 There are     8 symmetry adapted cartesian basis functions of A1  symmetry.
   1         1   1   1   1
   2         2   2   2   2
   3         3   3   3   3
   4         6   6   6   6
   5         7   7   7   7
   6        10  10  10  10
   7        11  11  11  11
   8        14  14  14  14
 There are     0 symmetry adapted cartesian basis functions of A2  symmetry.
 There are     3 symmetry adapted cartesian basis functions of B1  symmetry.
   9         4   4   4   4
  10         8   8   8   8
  11        12  12  12  12
 There are     3 symmetry adapted cartesian basis functions of B2  symmetry.
  12         5   5   5   5
  13         9   9   9   9
  14        13  13  13  13
 Order= 1 2 4 3
 Reordered character table:
              1            2            3            4            5
     1            1            1            1            1            1
     2            2            1            1           -1           -1
     3            4            1           -1           -1            1
     4            3            1           -1            1           -1
 NEqShl: 
              1            2            3            4
     1            1            1            1            1
     2            2            2            2            2
     3            3            3            3            3
     4            4            4            4            4
     5            5            5            5            5
 NEqBas: 
              1            2            3            4
     1            1            1            1            1
     2            2            2            2            2
     3            3            3            3            3
     4            4           -4           -4            4
     5            5           -5            5           -5
     6            6            6            6            6
     7            7            7            7            7
     8            8           -8           -8            8
     9            9           -9            9           -9
    10           10           10           10           10
    11           11           11           11           11
    12           12          -12          -12           12
    13           13          -13           13          -13
    14           14           14           14           14
 There are     8 symmetry adapted basis functions of A1  symmetry.
   1         1   1   1   1
   2         2   2   2   2
   3         3   3   3   3
   4         6   6   6   6
   5         7   7   7   7
   6        10  10  10  10
   7        11  11  11  11
   8        14  14  14  14
 There are     0 symmetry adapted basis functions of A2  symmetry.
 There are     3 symmetry adapted basis functions of B1  symmetry.
   9         4   4   4   4
  10         8   8   8   8
  11        12  12  12  12
 There are     3 symmetry adapted basis functions of B2  symmetry.
  12         5   5   5   5
  13         9   9   9   9
  14        13  13  13  13
 Order= 1 2 4 3
 Reordered character table:
              1            2            3            4            5
     1            1            1            1            1            1
     2            2            1            1           -1           -1
     3            4            1           -1           -1            1
     4            3            1           -1            1           -1
    14 basis functions,    49 primitive gaussians,    14 cartesian basis functions
     7 alpha electrons        5 beta electrons
       nuclear repulsion energy         2.0072239035 Hartrees.
 IS=     1 IAt=     1 ISR=     1 T=0 IP=      1 IndIP=      1 IndIPD=      0 C=  2.769344D-01  0.000000D+00                             NZ=T
 IS=     1 IAt=     1 ISR=     1 T=0 IP=      2 IndIP=      2 IndIPD=      1 C=  2.678389D-01  0.000000D+00                             NZ=T
 IS=     1 IAt=     1 ISR=     1 T=0 IP=      3 IndIP=      3 IndIPD=      2 C=  8.347367D-02  0.000000D+00                             NZ=T
 IS=     2 IAt=     2 ISR=     1 T=0 IP=      1 IndIP=      4 IndIPD=      0 C=  1.380276D+00  0.000000D+00                             NZ=T
 IS=     2 IAt=     2 ISR=     1 T=0 IP=      2 IndIP=      5 IndIPD=      1 C=  2.543440D+00  0.000000D+00                             NZ=T
 IS=     2 IAt=     2 ISR=     1 T=0 IP=      3 IndIP=      6 IndIPD=      2 C=  4.120502D+00  0.000000D+00                             NZ=T
 IS=     2 IAt=     2 ISR=     1 T=0 IP=      4 IndIP=      7 IndIPD=      3 C=  5.464941D+00  0.000000D+00                             NZ=T
 IS=     2 IAt=     2 ISR=     1 T=0 IP=      5 IndIP=      8 IndIPD=      4 C=  4.476262D+00  0.000000D+00                             NZ=T
 IS=     2 IAt=     2 ISR=     1 T=0 IP=      6 IndIP=      9 IndIPD=      5 C=  1.255723D+00  0.000000D+00                             NZ=T
 IS=     3 IAt=     2 ISR=     2 T=1 IP=      1 IndIP=     10 IndIPD=      0 C= -1.087231D-01  3.772614D+00                             NZ=T
 IS=     3 IAt=     2 ISR=     2 T=1 IP=      2 IndIP=     11 IndIPD=      1 C= -4.564910D-01  4.399752D+00                             NZ=T
 IS=     3 IAt=     2 ISR=     2 T=1 IP=      3 IndIP=     12 IndIPD=      2 C= -4.778739D-01  4.156503D+00                             NZ=T
 IS=     3 IAt=     2 ISR=     2 T=1 IP=      4 IndIP=     13 IndIPD=      3 C=  3.708017D-01  2.647056D+00                             NZ=T
 IS=     3 IAt=     2 ISR=     2 T=1 IP=      5 IndIP=     14 IndIPD=      4 C=  5.874076D-01  9.643141D-01                             NZ=T
 IS=     3 IAt=     2 ISR=     2 T=1 IP=      6 IndIP=     15 IndIPD=      5 C=  1.231036D-01  1.501277D-01                             NZ=T
 IS=     4 IAt=     2 ISR=     3 T=1 IP=      1 IndIP=     16 IndIPD=      0 C= -1.049885D-01 -1.372752D-02                             NZ=T
 IS=     4 IAt=     2 ISR=     3 T=1 IP=      2 IndIP=     17 IndIPD=      1 C= -1.469212D-02  6.158186D-02                             NZ=T
 IS=     4 IAt=     2 ISR=     3 T=1 IP=      3 IndIP=     18 IndIPD=      2 C=  1.153011D-01  2.888614D-03                             NZ=T
 IS=     5 IAt=     2 ISR=     4 T=1 IP=      1 IndIP=     19 IndIPD=      0 C=  4.608593D-02  1.484923D-02                             NZ=T
 IExCor=    0 DFT=F Ex=HF Corr=None ExCW=0 ScaHFX=  1.000000
 ScaDFX=  1.000000  1.000000  1.000000  1.000000 ScalE2=  1.000000  1.000000
 IRadAn=      5 IRanWt=     -1 IRanGd=            0 ICorTp=0 IEmpDi=  4
 NAtoms=    2 NActive=    2 NUniq=    2 SFac= 1.00D+00 NAtFMM=   60 NAOKFM=F Big=F
 Integral buffers will be    131072 words long.
 Raffenetti 2 integral format.
 Two-electron integral symmetry is turned on.
 Leave Link  301 at Mon Mar 28 14:25:43 2022, MaxMem=  9663676416 cpu:               2.3 elap:               0.1
 (Enter /nopt/nrel/apps/gaussian/g16C_1/g16/l302.exe)
 NPDir=0 NMtPBC=     1 NCelOv=     1 NCel=       1 NClECP=     1 NCelD=      1
         NCelK=      1 NCelE2=     1 NClLst=     1 CellRange=     0.0.
 One-electron integrals computed using PRISM.
 One-electron integral symmetry used in STVInt
 Entering OneElI...
 Calculate overlap and kinetic energy integrals
    NBasis =  14  MinDer = 0  MaxDer = 0
 Requested accuracy = 0.1000D-12
 Symmetry will be used
 PrmmSu-InSpLW:  IPartL=    0 NPrtUS=   36 NPrtUL=    1 DoSpLW=F IThBeg=    0 IThEnd=   35 NThAct=   36.
 PrSmSu:  IncTry=   512 NBBP=             15 NTPThr=   100 NPartT=   36 Incr=           1 LDynOK=F GPUOK=F.
 PrsmSu:  NPrtUS=  36 ThrOK=T IAlg=1 LenDen=           0 ISkipM=0 DoSpLW=F IThBeg=    0 IThEnd=   35.
 Prism:   IPart=     0 DynPar=F LinDyn=F Incr=           1.
 PRISM was handed   268432554 working-precision words and    15 shell-pairs
 PRISM was handed   268432554 working-precision words and    15 shell-pairs
 PRISM was handed   268432554 working-precision words and    15 shell-pairs
 PRISM was handed   268432554 working-precision words and    15 shell-pairs
 PRISM was handed   268432554 working-precision words and    15 shell-pairs
 PRISM was handed   268432554 working-precision words and    15 shell-pairs
 PRISM was handed   268432554 working-precision words and    15 shell-pairs
 PRISM was handed   268432554 working-precision words and    15 shell-pairs
 PRISM was handed   268432554 working-precision words and    15 shell-pairs
 PRISM was handed   268432554 working-precision words and    15 shell-pairs
 PRISM was handed   268432554 working-precision words and    15 shell-pairs
 PRISM was handed   268432554 working-precision words and    15 shell-pairs
 IPart= 26 NShTot=           0 NBatch=           0 AvBLen=         0.0
 IPart= 15 NShTot=           0 NBatch=           0 AvBLen=         0.0
 IPart= 33 NShTot=           0 NBatch=           0 AvBLen=         0.0
 IPart=  2 NShTot=           0 NBatch=           0 AvBLen=         0.0
 IPart=  3 NShTot=           0 NBatch=           0 AvBLen=         0.0
 IPart= 21 NShTot=           0 NBatch=           0 AvBLen=         0.0
 IPart= 24 NShTot=           0 NBatch=           0 AvBLen=         0.0
 IPart= 32 NShTot=           0 NBatch=           0 AvBLen=         0.0
 IPart= 27 NShTot=           0 NBatch=           0 AvBLen=         0.0
 IPart= 35 NShTot=           0 NBatch=           0 AvBLen=         0.0
 IPart= 10 NShTot=           0 NBatch=           0 AvBLen=         0.0
 PRISM was handed   268432554 working-precision words and    15 shell-pairs
 PRISM was handed   268432554 working-precision words and    15 shell-pairs
 PRISM was handed   268432554 working-precision words and    15 shell-pairs
 PRISM was handed   268432554 working-precision words and    15 shell-pairs
 PRISM was handed   268432554 working-precision words and    15 shell-pairs
 PRISM was handed   268432554 working-precision words and    15 shell-pairs
 PRISM was handed   268432554 working-precision words and    15 shell-pairs
 PRISM was handed   268432554 working-precision words and    15 shell-pairs
 PRISM was handed   268432554 working-precision words and    15 shell-pairs
 IPart= 22 NShTot=           0 NBatch=           0 AvBLen=         0.0
 IPart= 29 NShTot=           0 NBatch=           0 AvBLen=         0.0
 IPart=  5 NShTot=           0 NBatch=           0 AvBLen=         0.0
 IPart=  9 NShTot=           0 NBatch=           0 AvBLen=         0.0
 PRISM was handed   268432554 working-precision words and    15 shell-pairs
 IPart= 34 NShTot=           0 NBatch=           0 AvBLen=         0.0
 PRISM was handed   268432554 working-precision words and    15 shell-pairs
 IPart= 19 NShTot=           0 NBatch=           0 AvBLen=         0.0
 IPart= 30 NShTot=           0 NBatch=           0 AvBLen=         0.0
 PRISM was handed   268432554 working-precision words and    15 shell-pairs
 IPart=  6 NShTot=           0 NBatch=           0 AvBLen=         0.0
 IPart= 16 NShTot=           0 NBatch=           0 AvBLen=         0.0
 PRISM was handed   268432554 working-precision words and    15 shell-pairs
 PRISM was handed   268432554 working-precision words and    15 shell-pairs
 PRISM was handed   268432554 working-precision words and    15 shell-pairs
 PRISM was handed   268432554 working-precision words and    15 shell-pairs
 IPart= 20 NShTot=           0 NBatch=           0 AvBLen=         0.0
 IPart= 28 NShTot=           0 NBatch=           0 AvBLen=         0.0
 IPart= 18 NShTot=           0 NBatch=           0 AvBLen=         0.0
 IPart= 25 NShTot=           0 NBatch=           0 AvBLen=         0.0
 IPart= 17 NShTot=           0 NBatch=           0 AvBLen=         0.0
 IPart=  1 NShTot=           0 NBatch=           0 AvBLen=         0.0
 PRISM was handed   268432554 working-precision words and    15 shell-pairs
 IPart= 13 NShTot=           0 NBatch=           0 AvBLen=         0.0
 PRISM was handed   268432554 working-precision words and    15 shell-pairs
 PRISM was handed   268432554 working-precision words and    15 shell-pairs
 PRISM was handed   268432554 working-precision words and    15 shell-pairs
 PRISM was handed   268432554 working-precision words and    15 shell-pairs
 PRISM was handed   268432554 working-precision words and    15 shell-pairs
 IPart=  8 NShTot=           0 NBatch=           0 AvBLen=         0.0
 PRISM was handed   268432554 working-precision words and    15 shell-pairs
 PRISM was handed   268432554 working-precision words and    15 shell-pairs
 IPart= 12 NShTot=           0 NBatch=           0 AvBLen=         0.0
 IPart=  4 NShTot=           0 NBatch=           0 AvBLen=         0.0
 IPart=  0 NShTot=          15 NBatch=          15 AvBLen=         1.0
 IPart= 31 NShTot=           0 NBatch=           0 AvBLen=         0.0
 IPart=  7 NShTot=           0 NBatch=           0 AvBLen=         0.0
 IPart= 23 NShTot=           0 NBatch=           0 AvBLen=         0.0
 IPart= 14 NShTot=           0 NBatch=           0 AvBLen=         0.0
 IPart= 11 NShTot=           0 NBatch=           0 AvBLen=         0.0
 PrSmSu:  NxtVal=             37.
 *** Overlap *** 
                1             2             3             4             5 
      1  0.100000D+01
      2  0.224360D-03  0.100000D+01
      3  0.444220D-02  0.230835D+00  0.100000D+01
      4  0.000000D+00  0.000000D+00  0.000000D+00  0.100000D+01
      5  0.000000D+00  0.000000D+00  0.000000D+00  0.000000D+00  0.100000D+01
      6 -0.685996D-02  0.000000D+00  0.000000D+00  0.000000D+00  0.000000D+00
      7  0.148440D+00 -0.127644D-04  0.161245D+00  0.000000D+00  0.000000D+00
      8  0.000000D+00  0.000000D+00  0.000000D+00  0.186871D+00  0.000000D+00
      9  0.000000D+00  0.000000D+00  0.000000D+00  0.000000D+00  0.186871D+00
     10 -0.255178D+00  0.000000D+00  0.000000D+00  0.000000D+00  0.000000D+00
     11  0.193956D+00  0.189170D-01  0.190082D+00  0.000000D+00  0.000000D+00
     12  0.000000D+00  0.000000D+00  0.000000D+00  0.574619D-01  0.000000D+00
     13  0.000000D+00  0.000000D+00  0.000000D+00  0.000000D+00  0.574619D-01
     14 -0.308213D+00  0.000000D+00  0.000000D+00  0.000000D+00  0.000000D+00
                6             7             8             9            10 
      6  0.100000D+01
      7  0.000000D+00  0.100000D+01
      8  0.000000D+00  0.000000D+00  0.100000D+01
      9  0.000000D+00  0.000000D+00  0.000000D+00  0.100000D+01
     10  0.186871D+00  0.000000D+00  0.000000D+00  0.000000D+00  0.100000D+01
     11  0.000000D+00  0.876272D+00  0.000000D+00  0.000000D+00  0.000000D+00
     12  0.000000D+00  0.000000D+00  0.672925D+00  0.000000D+00  0.000000D+00
     13  0.000000D+00  0.000000D+00  0.000000D+00  0.672925D+00  0.000000D+00
     14  0.574619D-01  0.000000D+00  0.000000D+00  0.000000D+00  0.672925D+00
               11            12            13            14 
     11  0.100000D+01
     12  0.000000D+00  0.100000D+01
     13  0.000000D+00  0.000000D+00  0.100000D+01
     14  0.000000D+00  0.000000D+00  0.000000D+00  0.100000D+01
 *** Kinetic Energy *** 
                1             2             3             4             5 
      1  0.760032D+00
      2 -0.263284D-03  0.565455D+02
      3 -0.322225D-02 -0.266647D+01  0.196759D+01
      4  0.000000D+00  0.000000D+00  0.000000D+00  0.588848D+01
      5  0.000000D+00  0.000000D+00  0.000000D+00  0.000000D+00  0.588848D+01
      6  0.323915D-02  0.000000D+00  0.000000D+00  0.000000D+00  0.000000D+00
      7  0.619567D-03 -0.516638D-01 -0.152029D+00  0.000000D+00  0.000000D+00
      8  0.000000D+00  0.000000D+00  0.000000D+00  0.478086D-01  0.000000D+00
      9  0.000000D+00  0.000000D+00  0.000000D+00  0.000000D+00  0.478086D-01
     10 -0.188623D-01  0.000000D+00  0.000000D+00  0.000000D+00  0.000000D+00
     11  0.721856D-02  0.147038D-02  0.142898D-01  0.000000D+00  0.000000D+00
     12  0.000000D+00  0.000000D+00  0.000000D+00  0.716353D-02  0.000000D+00
     13  0.000000D+00  0.000000D+00  0.000000D+00  0.000000D+00  0.716353D-02
     14 -0.259092D-01  0.000000D+00  0.000000D+00  0.000000D+00  0.000000D+00
                6             7             8             9            10 
      6  0.588848D+01
      7  0.000000D+00  0.116833D+00
      8  0.000000D+00  0.000000D+00  0.205703D+00
      9  0.000000D+00  0.000000D+00  0.000000D+00  0.205703D+00
     10  0.478086D-01  0.000000D+00  0.000000D+00  0.000000D+00  0.205703D+00
     11  0.000000D+00  0.474660D-01  0.000000D+00  0.000000D+00  0.000000D+00
     12  0.000000D+00  0.000000D+00  0.664432D-01  0.000000D+00  0.000000D+00
     13  0.000000D+00  0.000000D+00  0.000000D+00  0.664432D-01  0.000000D+00
     14  0.716353D-02  0.000000D+00  0.000000D+00  0.000000D+00  0.664432D-01
               11            12            13            14 
     11  0.389316D-01
     12  0.000000D+00  0.648860D-01
     13  0.000000D+00  0.000000D+00  0.648860D-01
     14  0.000000D+00  0.000000D+00  0.000000D+00  0.648860D-01
 Entering OneElI...
 Calculate potential energy integrals
    NBasis =  14  MinDer = 0  MaxDer = 0
 Requested accuracy = 0.1000D-12
 Symmetry will be used
 PrmmSu-InSpLW:  IPartL=    0 NPrtUS=   36 NPrtUL=    1 DoSpLW=F IThBeg=    0 IThEnd=   35 NThAct=   36.
 PrSmSu:  IncTry=   512 NBBP=             30 NTPThr=   100 NPartT=   36 Incr=           1 LDynOK=F GPUOK=F.
 PrsmSu:  NPrtUS=  36 ThrOK=T IAlg=1 LenDen=           0 ISkipM=0 DoSpLW=F IThBeg=    0 IThEnd=   35.
 Prism:   IPart=     0 DynPar=F LinDyn=F Incr=           1.
 PRISM was handed   268432644 working-precision words and    15 shell-pairs
 PRISM was handed   268432644 working-precision words and    15 shell-pairs
 PRISM was handed   268432644 working-precision words and    15 shell-pairs
 PRISM was handed   268432644 working-precision words and    15 shell-pairs
 PRISM was handed   268432644 working-precision words and    15 shell-pairs
 PRISM was handed   268432644 working-precision words and    15 shell-pairs
 PRISM was handed   268432644 working-precision words and    15 shell-pairs
 PRISM was handed   268432644 working-precision words and    15 shell-pairs
 PRISM was handed   268432644 working-precision words and    15 shell-pairs
 PRISM was handed   268432644 working-precision words and    15 shell-pairs
 PRISM was handed   268432644 working-precision words and    15 shell-pairs
 PRISM was handed   268432644 working-precision words and    15 shell-pairs
 PRISM was handed   268432644 working-precision words and    15 shell-pairs
 PRISM was handed   268432644 working-precision words and    15 shell-pairs
 PRISM was handed   268432644 working-precision words and    15 shell-pairs
 PRISM was handed   268432644 working-precision words and    15 shell-pairs
 PRISM was handed   268432644 working-precision words and    15 shell-pairs
 PRISM was handed   268432644 working-precision words and    15 shell-pairs
 PRISM was handed   268432644 working-precision words and    15 shell-pairs
 PRISM was handed   268432644 working-precision words and    15 shell-pairs
 PRISM was handed   268432644 working-precision words and    15 shell-pairs
 PRISM was handed   268432644 working-precision words and    15 shell-pairs
 PRISM was handed   268432644 working-precision words and    15 shell-pairs
 PRISM was handed   268432644 working-precision words and    15 shell-pairs
 PRISM was handed   268432644 working-precision words and    15 shell-pairs
 PRISM was handed   268432644 working-precision words and    15 shell-pairs
 PRISM was handed   268432644 working-precision words and    15 shell-pairs
 PRISM was handed   268432644 working-precision words and    15 shell-pairs
 PRISM was handed   268432644 working-precision words and    15 shell-pairs
 PRISM was handed   268432644 working-precision words and    15 shell-pairs
 PRISM was handed   268432644 working-precision words and    15 shell-pairs
 PRISM was handed   268432644 working-precision words and    15 shell-pairs
 PRISM was handed   268432644 working-precision words and    15 shell-pairs
 PRISM was handed   268432644 working-precision words and    15 shell-pairs
 PRISM was handed   268432644 working-precision words and    15 shell-pairs
 PRISM was handed   268432644 working-precision words and    15 shell-pairs
 IPart=  0 NShTot=          30 NBatch=          15 AvBLen=         2.0
 IPart= 30 NShTot=           0 NBatch=           0 AvBLen=         0.0
 IPart= 32 NShTot=           0 NBatch=           0 AvBLen=         0.0
 IPart= 26 NShTot=           0 NBatch=           0 AvBLen=         0.0
 IPart= 18 NShTot=           0 NBatch=           0 AvBLen=         0.0
 IPart= 33 NShTot=           0 NBatch=           0 AvBLen=         0.0
 IPart=  9 NShTot=           0 NBatch=           0 AvBLen=         0.0
 IPart= 29 NShTot=           0 NBatch=           0 AvBLen=         0.0
 IPart=  3 NShTot=           0 NBatch=           0 AvBLen=         0.0
 IPart= 14 NShTot=           0 NBatch=           0 AvBLen=         0.0
 IPart= 15 NShTot=           0 NBatch=           0 AvBLen=         0.0
 IPart= 19 NShTot=           0 NBatch=           0 AvBLen=         0.0
 IPart=  5 NShTot=           0 NBatch=           0 AvBLen=         0.0
 IPart= 17 NShTot=           0 NBatch=           0 AvBLen=         0.0
 IPart= 21 NShTot=           0 NBatch=           0 AvBLen=         0.0
 IPart= 24 NShTot=           0 NBatch=           0 AvBLen=         0.0
 IPart= 16 NShTot=           0 NBatch=           0 AvBLen=         0.0
 IPart= 22 NShTot=           0 NBatch=           0 AvBLen=         0.0
 IPart= 31 NShTot=           0 NBatch=           0 AvBLen=         0.0
 IPart= 12 NShTot=           0 NBatch=           0 AvBLen=         0.0
 IPart= 27 NShTot=           0 NBatch=           0 AvBLen=         0.0
 IPart=  4 NShTot=           0 NBatch=           0 AvBLen=         0.0
 IPart=  1 NShTot=           0 NBatch=           0 AvBLen=         0.0
 IPart= 13 NShTot=           0 NBatch=           0 AvBLen=         0.0
 IPart= 28 NShTot=           0 NBatch=           0 AvBLen=         0.0
 IPart= 20 NShTot=           0 NBatch=           0 AvBLen=         0.0
 IPart=  6 NShTot=           0 NBatch=           0 AvBLen=         0.0
 IPart= 11 NShTot=           0 NBatch=           0 AvBLen=         0.0
 IPart= 34 NShTot=           0 NBatch=           0 AvBLen=         0.0
 IPart=  2 NShTot=           0 NBatch=           0 AvBLen=         0.0
 IPart= 35 NShTot=           0 NBatch=           0 AvBLen=         0.0
 IPart=  7 NShTot=           0 NBatch=           0 AvBLen=         0.0
 IPart= 25 NShTot=           0 NBatch=           0 AvBLen=         0.0
 IPart= 23 NShTot=           0 NBatch=           0 AvBLen=         0.0
 IPart= 10 NShTot=           0 NBatch=           0 AvBLen=         0.0
 IPart=  8 NShTot=           0 NBatch=           0 AvBLen=         0.0
 PrSmSu:  NxtVal=             37.
 ***** Potential Energy ***** 
                1             2             3             4             5 
      1  0.323383D+01
      2  0.128940D-01  0.117143D+03
      3  0.415523D-01  0.106488D+02  0.180086D+02
      4  0.000000D+00  0.000000D+00  0.000000D+00  0.188388D+02
      5  0.000000D+00  0.000000D+00  0.000000D+00  0.000000D+00  0.188388D+02
      6 -0.470062D-01 -0.153106D-02 -0.148628D-01  0.000000D+00  0.000000D+00
      7  0.467538D+00 -0.498339D-01  0.131709D+01  0.000000D+00  0.000000D+00
      8  0.000000D+00  0.000000D+00  0.000000D+00  0.154805D+01  0.000000D+00
      9  0.000000D+00  0.000000D+00  0.000000D+00  0.000000D+00  0.154805D+01
     10 -0.791727D+00 -0.234206D-04 -0.435864D-02  0.000000D+00  0.000000D+00
     11  0.560397D+00  0.110925D+01  0.228183D+01  0.000000D+00  0.000000D+00
     12  0.000000D+00  0.000000D+00  0.000000D+00  0.459856D+00  0.000000D+00
     13  0.000000D+00  0.000000D+00  0.000000D+00  0.000000D+00  0.459856D+00
     14 -0.843287D+00 -0.678671D-05 -0.135532D-02  0.000000D+00  0.000000D+00
                6             7             8             9            10 
      6  0.188418D+02
      7 -0.702681D-02  0.378083D+01
      8  0.000000D+00  0.000000D+00  0.348787D+01
      9  0.000000D+00  0.000000D+00  0.000000D+00  0.348787D+01
     10  0.155039D+01 -0.664214D-01  0.000000D+00  0.000000D+00  0.353912D+01
     11 -0.593813D-02  0.306058D+01  0.000000D+00  0.000000D+00 -0.633784D-01
     12  0.000000D+00  0.000000D+00  0.193389D+01  0.000000D+00  0.000000D+00
     13  0.000000D+00  0.000000D+00  0.000000D+00  0.193389D+01  0.000000D+00
     14  0.460650D+00 -0.473239D-01  0.000000D+00  0.000000D+00  0.197581D+01
               11            12            13            14 
     11  0.299627D+01
     12  0.000000D+00  0.201698D+01
     13  0.000000D+00  0.000000D+00  0.201698D+01
     14 -0.647119D-01  0.000000D+00  0.000000D+00  0.207285D+01
 ****** Core Hamiltonian ****** 
                1             2             3             4             5 
      1 -0.247380D+01
      2 -0.131573D-01 -0.605977D+02
      3 -0.447745D-01 -0.133153D+02 -0.160410D+02
      4  0.000000D+00  0.000000D+00  0.000000D+00 -0.129504D+02
      5  0.000000D+00  0.000000D+00  0.000000D+00  0.000000D+00 -0.129504D+02
      6  0.502454D-01  0.153106D-02  0.148628D-01  0.000000D+00  0.000000D+00
      7 -0.466918D+00 -0.182985D-02 -0.146912D+01  0.000000D+00  0.000000D+00
      8  0.000000D+00  0.000000D+00  0.000000D+00 -0.150024D+01  0.000000D+00
      9  0.000000D+00  0.000000D+00  0.000000D+00  0.000000D+00 -0.150024D+01
     10  0.772865D+00  0.234206D-04  0.435864D-02  0.000000D+00  0.000000D+00
     11 -0.553178D+00 -0.110778D+01 -0.226754D+01  0.000000D+00  0.000000D+00
     12  0.000000D+00  0.000000D+00  0.000000D+00 -0.452692D+00  0.000000D+00
     13  0.000000D+00  0.000000D+00  0.000000D+00  0.000000D+00 -0.452692D+00
     14  0.817378D+00  0.678671D-05  0.135532D-02  0.000000D+00  0.000000D+00
                6             7             8             9            10 
      6 -0.129533D+02
      7  0.702681D-02 -0.366400D+01
      8  0.000000D+00  0.000000D+00 -0.328217D+01
      9  0.000000D+00  0.000000D+00  0.000000D+00 -0.328217D+01
     10 -0.150258D+01  0.664214D-01  0.000000D+00  0.000000D+00 -0.333341D+01
     11  0.593813D-02 -0.301311D+01  0.000000D+00  0.000000D+00  0.633784D-01
     12  0.000000D+00  0.000000D+00 -0.186745D+01  0.000000D+00  0.000000D+00
     13  0.000000D+00  0.000000D+00  0.000000D+00 -0.186745D+01  0.000000D+00
     14 -0.453486D+00  0.473239D-01  0.000000D+00  0.000000D+00 -0.190936D+01
               11            12            13            14 
     11 -0.295734D+01
     12  0.000000D+00 -0.195210D+01
     13  0.000000D+00  0.000000D+00 -0.195210D+01
     14  0.647119D-01  0.000000D+00  0.000000D+00 -0.200796D+01
 SVDSVc IOpt=   1 NormSV=T IR=1
 SVDSVc V= 2.04D+00 1.83D+00 1.19D+00 1.00D+00 7.78D-01 7.20D-01 3.13D-01 1.22D-01
 SVDSVc IOpt=   1 NormSV=T IR=3
 SVDSVc V= 1.72D+00 9.71D-01 3.14D-01
 SVDSVc IOpt=   1 NormSV=T IR=4
 SVDSVc V= 1.72D+00 9.71D-01 3.14D-01
 TstOVc:  Largest diagonal error= 3.11D-15 IB=1 I=    8.
 TstOVc:  Largest same sym error= 2.70D-15 IB=1 I=    8 J=    7.
 TstOVc:  Largest diff sym error= 0.00D+00 IB=0 JB=0 I=    0 J=    0.
 Orthogonalized basis functions: 
                 1             2             3             4             5 
      1   0.241629D+00 -0.184059D+00 -0.958390D-01  0.308697D+00  0.728001D+00
      2   0.397349D-01  0.373671D-01  0.677895D+00  0.877486D-01  0.527667D+00
      3   0.145920D+00  0.114559D+00  0.573026D+00  0.459918D-02 -0.507329D+00
      4   0.000000D+00  0.000000D+00  0.000000D+00  0.000000D+00  0.000000D+00
      5   0.000000D+00  0.000000D+00  0.000000D+00  0.000000D+00  0.000000D+00
      6  -0.481351D-01  0.125999D+00 -0.550288D-01  0.929504D+00 -0.272557D+00
      7   0.399599D+00  0.250449D+00 -0.144140D+00 -0.713061D-01 -0.586529D-01
      8   0.000000D+00  0.000000D+00  0.000000D+00  0.000000D+00  0.000000D+00
      9   0.000000D+00  0.000000D+00  0.000000D+00  0.000000D+00  0.000000D+00
     10  -0.197819D+00  0.424901D+00 -0.491912D-01  0.617213D-01  0.270013D+00
     11   0.407913D+00  0.247893D+00 -0.120737D+00 -0.532535D-01 -0.150896D-01
     12   0.000000D+00  0.000000D+00  0.000000D+00  0.000000D+00  0.000000D+00
     13   0.000000D+00  0.000000D+00  0.000000D+00  0.000000D+00  0.000000D+00
     14  -0.201656D+00  0.420552D+00 -0.350767D-01 -0.140933D+00  0.262607D+00
                 6             7             8             9            10 
      1   0.639894D+00  0.104304D+00 -0.128068D+00  0.000000D+00  0.000000D+00
      2  -0.555692D+00 -0.193418D-02 -0.265133D-01  0.000000D+00  0.000000D+00
      3   0.687765D+00  0.558625D-02 -0.665603D-01  0.000000D+00  0.000000D+00
      4   0.000000D+00  0.000000D+00  0.000000D+00  0.180764D+00  0.976429D+00
      5   0.000000D+00  0.000000D+00  0.000000D+00  0.000000D+00  0.000000D+00
      6  -0.175265D+00  0.236480D+00  0.325551D-02  0.000000D+00  0.000000D+00
      7  -0.226871D+00 -0.249313D-01 -0.200477D+01  0.000000D+00  0.000000D+00
      8   0.000000D+00  0.000000D+00  0.000000D+00  0.532957D+00 -0.716361D-01
      9   0.000000D+00  0.000000D+00  0.000000D+00  0.000000D+00  0.000000D+00
     10   0.225872D+00 -0.125087D+01 -0.800332D-02  0.000000D+00  0.000000D+00
     11  -0.162357D+00  0.859535D-03  0.204337D+01  0.000000D+00  0.000000D+00
     12   0.000000D+00  0.000000D+00  0.000000D+00  0.516103D+00 -0.268016D+00
     13   0.000000D+00  0.000000D+00  0.000000D+00  0.000000D+00  0.000000D+00
     14   0.197193D+00  0.125159D+01 -0.390224D-01  0.000000D+00  0.000000D+00
                11            12            13            14 
      1   0.000000D+00  0.000000D+00  0.000000D+00  0.000000D+00
      2   0.000000D+00  0.000000D+00  0.000000D+00  0.000000D+00
      3   0.000000D+00  0.000000D+00  0.000000D+00  0.000000D+00
      4  -0.243572D+00  0.000000D+00  0.000000D+00  0.000000D+00
      5   0.000000D+00  0.180764D+00  0.976429D+00 -0.243572D+00
      6   0.000000D+00  0.000000D+00  0.000000D+00  0.000000D+00
      7   0.000000D+00  0.000000D+00  0.000000D+00  0.000000D+00
      8   0.127086D+01  0.000000D+00  0.000000D+00  0.000000D+00
      9   0.000000D+00  0.532957D+00 -0.716361D-01  0.127086D+01
     10   0.000000D+00  0.000000D+00  0.000000D+00  0.000000D+00
     11   0.000000D+00  0.000000D+00  0.000000D+00  0.000000D+00
     12  -0.122706D+01  0.000000D+00  0.000000D+00  0.000000D+00
     13   0.000000D+00  0.516103D+00 -0.268016D+00 -0.122706D+01
     14   0.000000D+00  0.000000D+00  0.000000D+00  0.000000D+00
 NBasis=    14 RedAO= T EigKep=  1.22D-01  NBF=     8     0     3     3
 NBsUse=    14 1.00D-06 EigRej= -1.00D+00 NBFU=     8     0     3     3
 Leave Link  302 at Mon Mar 28 14:25:43 2022, MaxMem=  9663676416 cpu:               3.1 elap:               0.1
 (Enter /nopt/nrel/apps/gaussian/g16C_1/g16/l303.exe)
 DipDrv will not compute anything.
 Fermi contact integrals: 
                 1             2 
      1   0.628247D+00  0.523802D-03
      2   0.000000D+00  0.192411D+02
      3   0.000000D+00  0.382249D-01
      4   0.000000D+00  0.000000D+00
      5   0.000000D+00  0.000000D+00
      6   0.000000D+00  0.000000D+00
      7   0.144187D-01 -0.437955D-02
      8   0.000000D+00  0.000000D+00
      9   0.000000D+00  0.000000D+00
     10  -0.289335D-01  0.000000D+00
     11   0.211371D-01  0.460859D-01
     12   0.000000D+00  0.000000D+00
     13   0.000000D+00  0.000000D+00
     14  -0.373230D-01  0.000000D+00
 Leave Link  303 at Mon Mar 28 14:25:43 2022, MaxMem=  9663676416 cpu:               1.7 elap:               0.1
 (Enter /nopt/nrel/apps/gaussian/g16C_1/g16/l401.exe)
 ExpMin= 2.60D-02 ExpMax= 9.99D+03 ExpMxC= 1.50D+03 IAcc=3 IRadAn=         5 AccDes= 0.00D+00
 Harris functional with IExCor=  205 and IRadAn=       5 diagonalized for initial guess.
 HarFok:  IExCor=  205 AccDes= 0.00D+00 IRadAn=         5 IDoV= 1 UseB2=F ITyADJ=14
 ICtDFT=  3500011 ScaDFX=  1.000000  1.000000  1.000000  1.000000
 FoFCou: FMM=F IPFlag=           0 FMFlag=      100000 FMFlg1=           0
         NFxFlg=           0 DoJE=T BraDBF=F KetDBF=T FulRan=T
         wScrn=  0.000000 ICntrl=       500 IOpCl=  0 I1Cent=   200000004 NGrid=           0
         NMat0=    1 NMatS0=      1 NMatT0=    0 NMatD0=    1 NMtDS0=    0 NMtDT0=    0
 Petite list used in FoFCou.
 Harris En= -162.044131937166    
 JPrj=0 DoOrth=F DoCkMO=F.
 Initial guess orbital symmetries:
 Alpha Orbitals:
       Occupied  (SG) (SG) (SG) (PI) (PI) (SG) (SG)
       Virtual   (PI) (PI) (SG) (SG) (SG) (PI) (PI)
 Beta  Orbitals:
       Occupied  (SG) (SG) (SG) (PI) (PI)
       Virtual   (SG) (SG) (PI) (PI) (SG) (SG) (SG) (PI) (PI)
 The electronic state of the initial guess is 3-SG.
 Initial guess <Sx>= 0.0000 <Sy>= 0.0000 <Sz>= 1.0000 <S**2>= 2.0000 S= 1.0000
 Leave Link  401 at Mon Mar 28 14:25:43 2022, MaxMem=  9663676416 cpu:               3.5 elap:               0.1
 (Enter /nopt/nrel/apps/gaussian/g16C_1/g16/l502.exe)
 Keep R1 and R2 ints in memory in symmetry-blocked form, NReq=7222839.
 FoFCou: FMM=F IPFlag=           0 FMFlag=           0 FMFlg1=           0
         NFxFlg=           0 DoJE=F BraDBF=F KetDBF=F FulRan=T
         wScrn=  0.000000 ICntrl=       600 IOpCl=  0 I1Cent=           0 NGrid=           0
         NMat0=    1 NMatS0=    105 NMatT0=    0 NMatD0=    1 NMtDS0=    0 NMtDT0=    0
 Petite list used in FoFCou.
 UHF open shell SCF:
 Using DIIS extrapolation, IDIIS=  1040.
 NGot=  9663676416 LenX=  9663669932 LenY=  9663669050
 Requested convergence on RMS density matrix=1.00D-08 within 128 cycles.
 Requested convergence on MAX density matrix=1.00D-06.
 Requested convergence on             energy=1.00D-06.
 No special actions if energy rises.

 Cycle   1  Pass 1  IDiag  1:
 E= -162.286321729830    
 DIIS: error= 2.09D-02 at cycle   1 NSaved=   1.
 NSaved= 1 IEnMin= 1 EnMin= -162.286321729830     IErMin= 1 ErrMin= 2.09D-02
 ErrMax= 2.09D-02  0.00D+00 EMaxC= 1.00D-01 BMatC= 3.09D-02 BMatP= 3.09D-02
 IDIUse=3 WtCom= 7.91D-01 WtEn= 2.09D-01
 Coeff-Com:  0.100D+01
 Coeff-En:   0.100D+01
 Coeff:      0.100D+01
 Gap=     0.208 Goal=   None    Shift=    0.000
 Gap=     1.590 Goal=   None    Shift=    0.000
 GapD=    0.208 DampG=1.000 DampE=0.500 DampFc=0.5000 IDamp=-1.
 Damping current iteration by 5.00D-01
 RMSDP=1.18D-02 MaxDP=1.56D-01              OVMax= 1.10D-02

 Cycle   2  Pass 1  IDiag  1:
 E= -162.295156779175     Delta-E=       -0.008835049345 Rises=F Damp=T
 DIIS: error= 1.39D-02 at cycle   2 NSaved=   2.
 NSaved= 2 IEnMin= 2 EnMin= -162.295156779175     IErMin= 2 ErrMin= 1.39D-02
 ErrMax= 1.39D-02  0.00D+00 EMaxC= 1.00D-01 BMatC= 1.09D-02 BMatP= 3.09D-02
 IDIUse=3 WtCom= 8.61D-01 WtEn= 1.39D-01
 Coeff-Com: -0.138D+01 0.238D+01
 Coeff-En:   0.000D+00 0.100D+01
 Coeff:     -0.119D+01 0.219D+01
 Gap=     0.200 Goal=   None    Shift=    0.000
 Gap=     1.522 Goal=   None    Shift=    0.000
 RMSDP=9.57D-03 MaxDP=1.30D-01 DE=-8.84D-03 OVMax= 1.14D-03

 Cycle   3  Pass 1  IDiag  1:
 E= -162.307819937787     Delta-E=       -0.012663158612 Rises=F Damp=F
 DIIS: error= 1.84D-03 at cycle   3 NSaved=   3.
 NSaved= 3 IEnMin= 3 EnMin= -162.307819937787     IErMin= 3 ErrMin= 1.84D-03
 ErrMax= 1.84D-03  0.00D+00 EMaxC= 1.00D-01 BMatC= 1.11D-04 BMatP= 1.09D-02
 IDIUse=3 WtCom= 9.82D-01 WtEn= 1.84D-02
 Coeff-Com:  0.493D+00-0.929D+00 0.144D+01
 Coeff-En:   0.000D+00 0.000D+00 0.100D+01
 Coeff:      0.484D+00-0.912D+00 0.143D+01
 Gap=     0.200 Goal=   None    Shift=    0.000
 Gap=     1.524 Goal=   None    Shift=    0.000
 RMSDP=1.49D-03 MaxDP=1.82D-02 DE=-1.27D-02 OVMax= 1.39D-04

 Cycle   4  Pass 1  IDiag  1:
 E= -162.307961071220     Delta-E=       -0.000141133432 Rises=F Damp=F
 DIIS: error= 1.26D-04 at cycle   4 NSaved=   4.
 NSaved= 4 IEnMin= 4 EnMin= -162.307961071220     IErMin= 4 ErrMin= 1.26D-04
 ErrMax= 1.26D-04  0.00D+00 EMaxC= 1.00D-01 BMatC= 3.47D-07 BMatP= 1.11D-04
 IDIUse=3 WtCom= 9.99D-01 WtEn= 1.26D-03
 Coeff-Com: -0.651D-01 0.125D+00-0.226D+00 0.117D+01
 Coeff-En:   0.000D+00 0.000D+00 0.000D+00 0.100D+01
 Coeff:     -0.650D-01 0.125D+00-0.226D+00 0.117D+01
 Gap=     0.200 Goal=   None    Shift=    0.000
 Gap=     1.524 Goal=   None    Shift=    0.000
 RMSDP=1.35D-04 MaxDP=1.06D-03 DE=-1.41D-04 OVMax= 2.86D-05

 Cycle   5  Pass 1  IDiag  1:
 E= -162.307961898615     Delta-E=       -0.000000827395 Rises=F Damp=F
 DIIS: error= 3.56D-05 at cycle   5 NSaved=   5.
 NSaved= 5 IEnMin= 5 EnMin= -162.307961898615     IErMin= 5 ErrMin= 3.56D-05
 ErrMax= 3.56D-05  0.00D+00 EMaxC= 1.00D-01 BMatC= 3.61D-08 BMatP= 3.47D-07
 IDIUse=1 WtCom= 1.00D+00 WtEn= 0.00D+00
 Coeff-Com:  0.218D-01-0.422D-01 0.817D-01-0.642D+00 0.158D+01
 Coeff:      0.218D-01-0.422D-01 0.817D-01-0.642D+00 0.158D+01
 Gap=     0.200 Goal=   None    Shift=    0.000
 Gap=     1.524 Goal=   None    Shift=    0.000
 RMSDP=6.60D-05 MaxDP=5.18D-04 DE=-8.27D-07 OVMax= 2.09D-06

 Cycle   6  Pass 1  IDiag  1:
 E= -162.307962029921     Delta-E=       -0.000000131306 Rises=F Damp=F
 DIIS: error= 8.12D-06 at cycle   6 NSaved=   6.
 NSaved= 6 IEnMin= 6 EnMin= -162.307962029921     IErMin= 6 ErrMin= 8.12D-06
 ErrMax= 8.12D-06  0.00D+00 EMaxC= 1.00D-01 BMatC= 1.59D-09 BMatP= 3.61D-08
 IDIUse=1 WtCom= 1.00D+00 WtEn= 0.00D+00
 Coeff-Com: -0.452D-02 0.897D-02-0.197D-01 0.210D+00-0.660D+00 0.147D+01
 Coeff:     -0.452D-02 0.897D-02-0.197D-01 0.210D+00-0.660D+00 0.147D+01
 Gap=     0.200 Goal=   None    Shift=    0.000
 Gap=     1.524 Goal=   None    Shift=    0.000
 RMSDP=1.28D-05 MaxDP=1.21D-04 DE=-1.31D-07 OVMax= 1.21D-06

 Cycle   7  Pass 1  IDiag  1:
 E= -162.307962035928     Delta-E=       -0.000000006007 Rises=F Damp=F
 DIIS: error= 2.02D-06 at cycle   7 NSaved=   7.
 NSaved= 7 IEnMin= 7 EnMin= -162.307962035928     IErMin= 7 ErrMin= 2.02D-06
 ErrMax= 2.02D-06  0.00D+00 EMaxC= 1.00D-01 BMatC= 1.51D-10 BMatP= 1.59D-09
 IDIUse=1 WtCom= 1.00D+00 WtEn= 0.00D+00
 Coeff-Com:  0.243D-02-0.478D-02 0.100D-01-0.949D-01 0.316D+00-0.891D+00
 Coeff-Com:  0.166D+01
 Coeff:      0.243D-02-0.478D-02 0.100D-01-0.949D-01 0.316D+00-0.891D+00
 Coeff:      0.166D+01
 Gap=     0.200 Goal=   None    Shift=    0.000
 Gap=     1.524 Goal=   None    Shift=    0.000
 RMSDP=4.70D-06 MaxDP=5.55D-05 DE=-6.01D-09 OVMax= 6.80D-07

 Cycle   8  Pass 1  IDiag  1:
 E= -162.307962036439     Delta-E=       -0.000000000511 Rises=F Damp=F
 DIIS: error= 3.48D-07 at cycle   8 NSaved=   8.
 NSaved= 8 IEnMin= 8 EnMin= -162.307962036439     IErMin= 8 ErrMin= 3.48D-07
 ErrMax= 3.48D-07  0.00D+00 EMaxC= 1.00D-01 BMatC= 4.97D-12 BMatP= 1.51D-10
 IDIUse=1 WtCom= 1.00D+00 WtEn= 0.00D+00
 Coeff-Com: -0.510D-03 0.101D-02-0.215D-02 0.207D-01-0.780D-01 0.248D+00
 Coeff-Com: -0.657D+00 0.147D+01
 Coeff:     -0.510D-03 0.101D-02-0.215D-02 0.207D-01-0.780D-01 0.248D+00
 Coeff:     -0.657D+00 0.147D+01
 Gap=     0.200 Goal=   None    Shift=    0.000
 Gap=     1.524 Goal=   None    Shift=    0.000
 RMSDP=9.32D-07 MaxDP=9.58D-06 DE=-5.11D-10 OVMax= 1.43D-07

 Cycle   9  Pass 1  IDiag  1:
 E= -162.307962036454     Delta-E=       -0.000000000015 Rises=F Damp=F
 DIIS: error= 4.43D-08 at cycle   9 NSaved=   9.
 NSaved= 9 IEnMin= 9 EnMin= -162.307962036454     IErMin= 9 ErrMin= 4.43D-08
 ErrMax= 4.43D-08  0.00D+00 EMaxC= 1.00D-01 BMatC= 5.47D-14 BMatP= 4.97D-12
 IDIUse=1 WtCom= 1.00D+00 WtEn= 0.00D+00
 Coeff-Com:  0.734D-04-0.146D-03 0.301D-03-0.260D-02 0.105D-01-0.306D-01
 Coeff-Com:  0.102D+00-0.248D+00 0.117D+01
 Coeff:      0.734D-04-0.146D-03 0.301D-03-0.260D-02 0.105D-01-0.306D-01
 Coeff:      0.102D+00-0.248D+00 0.117D+01
 Gap=     0.200 Goal=   None    Shift=    0.000
 Gap=     1.524 Goal=   None    Shift=    0.000
 RMSDP=1.10D-07 MaxDP=1.30D-06 DE=-1.47D-11 OVMax= 1.69D-08

 Cycle  10  Pass 1  IDiag  1:
 E= -162.307962036454     Delta-E=       -0.000000000000 Rises=F Damp=F
 DIIS: error= 7.65D-09 at cycle  10 NSaved=  10.
 NSaved=10 IEnMin=10 EnMin= -162.307962036454     IErMin=10 ErrMin= 7.65D-09
 ErrMax= 7.65D-09  0.00D+00 EMaxC= 1.00D-01 BMatC= 1.80D-15 BMatP= 5.47D-14
 IDIUse=1 WtCom= 1.00D+00 WtEn= 0.00D+00
 Coeff-Com:  0.548D-05-0.107D-04 0.236D-04-0.271D-03 0.655D-03-0.244D-02
 Coeff-Com: -0.106D-02 0.621D-02-0.237D+00 0.123D+01
 Coeff:      0.548D-05-0.107D-04 0.236D-04-0.271D-03 0.655D-03-0.244D-02
 Coeff:     -0.106D-02 0.621D-02-0.237D+00 0.123D+01
 Gap=     0.200 Goal=   None    Shift=    0.000
 Gap=     1.524 Goal=   None    Shift=    0.000
 RMSDP=1.16D-08 MaxDP=1.04D-07 DE=-2.56D-13 OVMax= 1.86D-09

 Cycle  11  Pass 1  IDiag  1:
 E= -162.307962036454     Delta-E=        0.000000000000 Rises=F Damp=F
 DIIS: error= 2.12D-09 at cycle  11 NSaved=  11.
 NSaved=11 IEnMin=10 EnMin= -162.307962036454     IErMin=11 ErrMin= 2.12D-09
 ErrMax= 2.12D-09  0.00D+00 EMaxC= 1.00D-01 BMatC= 9.99D-17 BMatP= 1.80D-15
 IDIUse=1 WtCom= 1.00D+00 WtEn= 0.00D+00
 Coeff-Com:  0.193D-06-0.422D-06 0.604D-07 0.320D-04 0.249D-04 0.257D-03
 Coeff-Com:  0.276D-02-0.645D-02 0.122D+00-0.782D+00 0.166D+01
 Coeff:      0.193D-06-0.422D-06 0.604D-07 0.320D-04 0.249D-04 0.257D-03
 Coeff:      0.276D-02-0.645D-02 0.122D+00-0.782D+00 0.166D+01
 Gap=     0.200 Goal=   None    Shift=    0.000
 Gap=     1.524 Goal=   None    Shift=    0.000
 RMSDP=5.51D-09 MaxDP=6.62D-08 DE= 0.00D+00 OVMax= 4.75D-10

 SCF Done:  E(UHF) =  -162.307962036     A.U. after   11 cycles
            NFock= 11  Conv=0.55D-08     -V/T= 1.9996
 <Sx>= 0.0000 <Sy>= 0.0000 <Sz>= 1.0000 <S**2>= 2.0000 S= 1.0000
 <L.S>= 0.000000000000E+00
 KE= 1.623786123403D+02 PE=-3.945965859840D+02 EE= 6.790278770368D+01
 Annihilation of the first spin contaminant:
 S**2 before annihilation     2.0000,   after     2.0000
 Leave Link  502 at Mon Mar 28 14:25:43 2022, MaxMem=  9663676416 cpu:               3.6 elap:               0.1
 (Enter /nopt/nrel/apps/gaussian/g16C_1/g16/l801.exe)
 Windowed orbitals will be sorted by symmetry type.
 ExpMin= 2.60D-02 ExpMax= 9.99D+03 ExpMxC= 1.50D+03 IAcc=3 IRadAn=         5 AccDes= 0.00D+00
 HarFok:  IExCor=  205 AccDes= 0.00D+00 IRadAn=         5 IDoV=-2 UseB2=F ITyADJ=14
 ICtDFT= 12500011 ScaDFX=  1.000000  1.000000  1.000000  1.000000
 Largest valence mixing into a core orbital is  9.36D-05
 Largest core mixing into a valence orbital is  7.02D-05
 Range of M.O.s used for correlation:     6    14
 NBasis=    14 NAE=     7 NBE=     5 NFC=     5 NFV=     0
 NROrb=      9 NOA=     2 NOB=     0 NVA=     7 NVB=     9
 Leave Link  801 at Mon Mar 28 14:25:43 2022, MaxMem=  9663676416 cpu:               1.9 elap:               0.1
 (Enter /nopt/nrel/apps/gaussian/g16C_1/g16/l804.exe)
 Open-shell transformation, MDV=  9663676416 ITran=4 ISComp=2.
 Unit  1 TFree=         14304 TCopy=        117557.
 Semi-Direct transformation.
 ModeAB=           2 MOrb=             2 LenV=    9663552397
 LASXX=          158 LTotXX=         158 LenRXX=         158
 LTotAB=         269 MaxLAS=        1890 LenRXY=        1890
 NonZer=        2214 LenScr=      785920 LnRSAI=           0
 LnScr1=           0 LExtra=      220944 Total=      1008912
 MaxDsk= 34359738368 SrtSym=           F ITran=            4
 DoSDTr:  NPSUse= 36
 JobTyp=1 Pass  1:  I=   1 to   2.
 (rs|ai) integrals will be sorted in core.
 Complete sort for first half transformation.
 First half transformation complete.
 Complete sort for second half transformation.
 Second half transformation complete.
 Spin components of T(2) and E(2):
     alpha-alpha T2 =       0.3917255876D-04 E2=     -0.3749472719D-04
     alpha-beta  T2 =       0.0000000000D+00 E2=      0.0000000000D+00
     beta-beta   T2 =       0.0000000000D+00 E2=      0.0000000000D+00
 ANorm=    0.1000019586D+01
 E2 =    -0.3749472719D-04 EUMP2 =    -0.16230799953118D+03
 Leave Link  804 at Mon Mar 28 14:25:43 2022, MaxMem=  9663676416 cpu:               1.8 elap:               0.1
 (Enter /nopt/nrel/apps/gaussian/g16C_1/g16/l913.exe)
 CIDS:  MDV=  9663676416.
 Frozen-core window:  NFC=   5 NFV=   0.
 IFCWin=0 IBDFC=1 NFBD=     0     0 NFCmp=     0     0 NFFFC=     0     0
 Using original routines for 1st iteration.
 Using DD4UQ or CC4UQ for 2nd and later iterations.
 Keep R2 and R3 ints in memory in symmetry-blocked form, NReq=7225245.
 FoFCou: FMM=F IPFlag=           0 FMFlag=           0 FMFlg1=           0
         NFxFlg=           0 DoJE=F BraDBF=F KetDBF=F FulRan=T
         wScrn=  0.000000 ICntrl=       600 IOpCl=  0 I1Cent=           0 NGrid=           0
         NMat0=    1 NMatS0=    105 NMatT0=    0 NMatD0=    1 NMtDS0=    0 NMtDT0=    0
 Petite list used in FoFCou.
 CIDS: In Core Option IDoMem=           1.
 Coupled Cluster theory with single and double substitutions
 ===========================================================
 Iterations= 200 Convergence= 0.100D-06
 Produce multiple copies of IABC intergrals
 Iteration Nr.   1
 **********************
 DD1Dir will call FoFMem   1 times, MxPair=         2
 NAB=     0 NAA=     1 NBB=     0.
 MP4(R+Q)=  0.14687644D-08
 Maximum subspace dimension=  5
 A-vector RMS=  6.6925640D-04 Max=  1.9362989D-03 conv= 1.00D-05.
 RLE energy=       -0.0000606616
 E3=       -0.14320462D-04        EUMP3=      -0.16230801385D+03
 E4(DQ)=   -0.55239748D-05        UMP4(DQ)=   -0.16230801938D+03
 E4(SDQ)=  -0.56814326D-05        UMP4(SDQ)=  -0.16230801953D+03
 VARIATIONAL ENERGIES WITH THE FIRST-ORDER WAVEFUNCTION:
 DE(Corr)= -0.51814095E-04 E(Corr)=     -162.30801385    
 NORM(A)=   0.10000518D+01
 Iteration Nr.   2
 **********************
 DD1Dir will call FoFMem   1 times, MxPair=         2
 NAB=     0 NAA=     1 NBB=     0.
 A-vector RMS=  1.0685303D-04 Max=  1.4790067D-04 conv= 1.00D-05.
 RLE energy=       -0.0000614356
 DE(Corr)= -0.61005348E-04 E(CORR)=     -162.30802304     Delta=-9.19D-06
 NORM(A)=   0.10000537D+01
 Iteration Nr.   3
 **********************
 DD1Dir will call FoFMem   1 times, MxPair=         2
 NAB=     0 NAA=     1 NBB=     0.
 A-vector RMS=  2.4132416D-05 Max=  3.8909335D-05 conv= 1.00D-05.
 RLE energy=       -0.0000614678
 DE(Corr)= -0.61436191E-04 E(CORR)=     -162.30802347     Delta=-4.31D-07
 NORM(A)=   0.10000539D+01
 Iteration Nr.   4
 **********************
 DD1Dir will call FoFMem   1 times, MxPair=         2
 NAB=     0 NAA=     1 NBB=     0.
 A-vector RMS=  2.8215591D-06 Max=  5.2940152D-06 conv= 1.00D-05.
 RLE energy=       -0.0000614677
 DE(Corr)= -0.61467616E-04 E(CORR)=     -162.30802350     Delta=-3.14D-08
 NORM(A)=   0.10000539D+01
 CI/CC converged in    4 iterations to DelEn=-3.14D-08 Conv= 1.00D-07 ErrA1= 2.82D-06 Conv= 1.00D-05
 Wavefunction amplitudes converged. E(Corr)=     -162.30802350    
 Largest amplitude= 8.23D-03
 Discarding MO integrals.
 Leave Link  913 at Mon Mar 28 14:25:43 2022, MaxMem=  9663676416 cpu:               2.8 elap:               0.1
 (Enter /nopt/nrel/apps/gaussian/g16C_1/g16/l601.exe)
 Copying SCF densities to generalized density rwf, IOpCl= 1 IROHF=0.

 **********************************************************************

            Population analysis using the SCF Density.

 **********************************************************************

 Orbital symmetries:
 Alpha Orbitals:
       Occupied  (SG) (SG) (SG) (PI) (PI) (SG) (SG)
       Virtual   (PI) (PI) (SG) (SG) (SG) (PI) (PI)
 Beta  Orbitals:
       Occupied  (SG) (SG) (PI) (PI) (SG)
       Virtual   (SG) (SG) (PI) (PI) (SG) (SG) (PI) (PI) (SG)
 The electronic state is 3-SG.
 Alpha  occ. eigenvalues --  -40.49203  -2.80628  -1.52478  -1.52447  -1.52447
 Alpha  occ. eigenvalues --   -0.51308  -0.17144
 Alpha virt. eigenvalues --    0.02887   0.02887   0.07853   0.13212   0.19544
 Alpha virt. eigenvalues --    0.19696   0.19696
  Beta  occ. eigenvalues --  -40.48969  -2.79971  -1.52222  -1.52222  -1.52200
  Beta virt. eigenvalues --    0.00195   0.05357   0.05396   0.05396   0.16627
  Beta virt. eigenvalues --    0.22279   0.22976   0.22976   0.34225
          Condensed to atoms (all electrons):
               1          2
     1  H    0.885574   0.040105
     2  Na   0.040105  11.034215
          Atomic-Atomic Spin Densities.
               1          2
     1  H    0.885574   0.040107
     2  Na   0.040107   1.034212
 Mulliken charges and spin densities:
               1          2
     1  H    0.074320   0.925681
     2  Na  -0.074320   1.074319
 Sum of Mulliken charges =  -0.00000   2.00000
 Mulliken charges and spin densities with hydrogens summed into heavy atoms:
               1          2
     2  Na  -0.000000   2.000000
 N-N= 2.007223903490D+00 E-N=-3.945965859397D+02  KE= 1.623786123403D+02
 Symmetry A1   KE= 1.389081793398D+02
 Symmetry A2   KE= 0.000000000000D+00
 Symmetry B1   KE= 1.173521650028D+01
 Symmetry B2   KE= 1.173521650028D+01
 Symmetry A1   SP= 2.000000000000D+00
 Symmetry A2   SP= 0.000000000000D+00
 Symmetry B1   SP= 1.101065806190D-15
 Symmetry B2   SP= 1.094506383047D-15

 Atomic contributions to Alpha molecular orbitals:
 Alpha occ 1 OE=-40.492 is Na2-s=1.0000
 Alpha occ 2 OE=-2.806 is Na2-s=1.0000
 Alpha occ 3 OE=-1.525 is Na2-p=1.0000
 Alpha occ 4 OE=-1.524 is Na2-p=1.0000
 Alpha occ 5 OE=-1.524 is Na2-p=1.0000
 Alpha occ 6 OE=-0.513 is H1-s=0.9110
 Alpha occ 7 OE=-0.171 is Na2-s=0.9180
 Alpha vir 8 OE=0.029 is Na2-p=1.0000
 Alpha vir 9 OE=0.029 is Na2-p=1.0000
 Alpha vir 10 OE=0.079 is Na2-p=0.8869
 Alpha vir 11 OE=0.132 is Na2-s=0.9565
 Alpha vir 12 OE=0.195 is Na2-p=0.9519
 Alpha vir 13 OE=0.197 is Na2-p=1.0000
 Alpha vir 14 OE=0.197 is Na2-p=1.0000

 Atomic contributions to Beta  molecular orbitals:
 Beta  occ 1 OE=-40.490 is Na2-s=1.0000
 Beta  occ 2 OE=-2.800 is Na2-s=1.0000
 Beta  occ 3 OE=-1.522 is Na2-p=1.0000
 Beta  occ 4 OE=-1.522 is Na2-p=1.0000
 Beta  occ 5 OE=-1.522 is Na2-p=1.0000
 Beta  vir 6 OE=0.002 is Na2-s=0.6981 Na2-p=0.2242
 Beta  vir 7 OE=0.054 is Na2-p=0.7019 Na2-s=0.2734
 Beta  vir 8 OE=0.054 is Na2-p=1.0000
 Beta  vir 9 OE=0.054 is Na2-p=1.0000
 Beta  vir 10 OE=0.166 is Na2-s=0.9241
 Beta  vir 11 OE=0.223 is Na2-p=0.8182
 Beta  vir 12 OE=0.230 is Na2-p=1.0000
 Beta  vir 13 OE=0.230 is Na2-p=1.0000
 Beta  vir 14 OE=0.342 is H1-s=0.7995 Na2-p=0.1823
 
 Leave Link  601 at Mon Mar 28 14:25:43 2022, MaxMem=  9663676416 cpu:               0.9 elap:               0.0
 (Enter /nopt/nrel/apps/gaussian/g16C_1/g16/l9999.exe)

 Test job not archived.
 1\1\GINC-R102U34\SP\UCCSD-FC\Gen\H1Na1(3)\USER\28-Mar-2022\0\\#P C
 CSD(MaxCyc=200,SaveAmplitudes,ReadAmplitudes)/GEN sp pop=AllOrbitals i
 op(3/33=1,3/36=-1)\\test\\0,3\H,0,0.,0.,0.\Na,0,0.,0.,2.9\\Version=ES6
 4L-G16RevC.01\State=3-SG\HF=-162.307962\MP2=-162.3079995\MP3=-162.3080
 139\MP4D=-162.3080194\MP4DQ=-162.3080194\MP4SDQ=-162.3080195\CCSD=-162
 .3080235\S2=2.000046\S2-1=0.\S2A=2.\RMSD=5.510e-09\PG=C*V [C*(H1Na1)]\
 \@


     SCHOPENHAUER'S LAW OF ENTROPY
 IF YOU PUT A SPOONFUL OF WINE IN A BARREL FULL
 OF SEWAGE, YOU GET SEWAGE.
 IF YOU PUT A SPOONFUL OF SEWAGE IN A BARREL FULL
 OF WINE, YOU GET SEWAGE.
 Job cpu time:       0 days  0 hours  0 minutes 29.2 seconds.
 Elapsed time:       0 days  0 hours  0 minutes  1.1 seconds.
 File lengths (MBytes):  RWF=     13 Int=      0 D2E=      0 Chk=      1 Scr=      1
 Normal termination of Gaussian 16 at Mon Mar 28 14:25:43 2022.
