 Entering Gaussian System, Link 0=g16
 Initial command:
 /nopt/nrel/apps/gaussian/g16C_1/g16/l1.exe "/lustre/eaglefs/scratch/user/qc/kh-dissc/kh-1-ccsd-1.0-sto3g/Gau-21979.inp" -scrdir="/lustre/eaglefs/scratch/user/qc/kh-dissc/kh-1-ccsd-1.0-sto3g/"
 Default is to use a total of  36 processors:
                               36 via shared-memory
                                1 via Linda
 Entering Link 1 = /nopt/nrel/apps/gaussian/g16C_1/g16/l1.exe PID=     21980.
  
 Copyright (c) 1988-2019, Gaussian, Inc.  All Rights Reserved.
  
 This is part of the Gaussian(R) 16 program.  It is based on
 the Gaussian(R) 09 system (copyright 2009, Gaussian, Inc.),
 the Gaussian(R) 03 system (copyright 2003, Gaussian, Inc.),
 the Gaussian(R) 98 system (copyright 1998, Gaussian, Inc.),
 the Gaussian(R) 94 system (copyright 1995, Gaussian, Inc.),
 the Gaussian 92(TM) system (copyright 1992, Gaussian, Inc.),
 the Gaussian 90(TM) system (copyright 1990, Gaussian, Inc.),
 the Gaussian 88(TM) system (copyright 1988, Gaussian, Inc.),
 the Gaussian 86(TM) system (copyright 1986, Carnegie Mellon
 University), and the Gaussian 82(TM) system (copyright 1983,
 Carnegie Mellon University). Gaussian is a federally registered
 trademark of Gaussian, Inc.
  
 This software contains proprietary and confidential information,
 including trade secrets, belonging to Gaussian, Inc.
  
 This software is provided under written license and may be
 used, copied, transmitted, or stored only in accord with that
 written license.
  
 The following legend is applicable only to US Government
 contracts under FAR:
  
                    RESTRICTED RIGHTS LEGEND
  
 Use, reproduction and disclosure by the US Government is
 subject to restrictions as set forth in subparagraphs (a)
 and (c) of the Commercial Computer Software - Restricted
 Rights clause in FAR 52.227-19.
  
 Gaussian, Inc.
 340 Quinnipiac St., Bldg. 40, Wallingford CT 06492
  
  
 ---------------------------------------------------------------
 Warning -- This program may not be used in any manner that
 competes with the business of Gaussian, Inc. or will provide
 assistance to any competitor of Gaussian, Inc.  The licensee
 of this program is prohibited from giving any competitor of
 Gaussian, Inc. access to this program.  By using this program,
 the user acknowledges that Gaussian, Inc. is engaged in the
 business of creating and licensing software in the field of
 computational chemistry and represents and warrants to the
 licensee that it is not a competitor of Gaussian, Inc. and that
 it will not use this program in any manner prohibited above.
 ---------------------------------------------------------------
  

 Cite this work as:
 Gaussian 16, Revision C.01,
 M. J. Frisch, G. W. Trucks, H. B. Schlegel, G. E. Scuseria, 
 M. A. Robb, J. R. Cheeseman, G. Scalmani, V. Barone, 
 G. A. Petersson, H. Nakatsuji, X. Li, M. Caricato, A. V. Marenich, 
 J. Bloino, B. G. Janesko, R. Gomperts, B. Mennucci, H. P. Hratchian, 
 J. V. Ortiz, A. F. Izmaylov, J. L. Sonnenberg, D. Williams-Young, 
 F. Ding, F. Lipparini, F. Egidi, J. Goings, B. Peng, A. Petrone, 
 T. Henderson, D. Ranasinghe, V. G. Zakrzewski, J. Gao, N. Rega, 
 G. Zheng, W. Liang, M. Hada, M. Ehara, K. Toyota, R. Fukuda, 
 J. Hasegawa, M. Ishida, T. Nakajima, Y. Honda, O. Kitao, H. Nakai, 
 T. Vreven, K. Throssell, J. A. Montgomery, Jr., J. E. Peralta, 
 F. Ogliaro, M. J. Bearpark, J. J. Heyd, E. N. Brothers, K. N. Kudin, 
 V. N. Staroverov, T. A. Keith, R. Kobayashi, J. Normand, 
 K. Raghavachari, A. P. Rendell, J. C. Burant, S. S. Iyengar, 
 J. Tomasi, M. Cossi, J. M. Millam, M. Klene, C. Adamo, R. Cammi, 
 J. W. Ochterski, R. L. Martin, K. Morokuma, O. Farkas, 
 J. B. Foresman, and D. J. Fox, Gaussian, Inc., Wallingford CT, 2019.
 
 ******************************************
 Gaussian 16:  ES64L-G16RevC.01  3-Jul-2019
                28-Mar-2022 
 ******************************************
 %chk=molecule
 Default route: CacheSize=180224 MaxDisk=256GB
 ----------------------------------------------------------------------
 #P CCSD(MaxCyc=200,SaveAmplitudes,ReadAmplitudes)/GEN sp pop=AllOrbita
 ls iop(3/33=1,3/36=-1)
 ----------------------------------------------------------------------
 1/4=180224,38=1,172=1/1;
 2/4=180224,12=2,17=6,18=5,40=1/2;
 3/4=180224,5=7,11=9,25=1,30=1,33=1,36=-1/1,2,3;
 4/4=180224/1;
 5/4=180224,5=2,38=5/2;
 8/4=180224,6=4,9=120000,10=1,24=1/1,4;
 9/4=180224,5=7,6=200,77=1/13;
 6/4=180224,7=2,8=2,9=2,10=2,96=-1/1;
 99/4=180224,5=1,9=1/99;
 Leave Link    1 at Mon Mar 28 14:29:58 2022, MaxMem=           0 cpu:               2.3 elap:               0.1
 (Enter /nopt/nrel/apps/gaussian/g16C_1/g16/l101.exe)
 ----
 test
 ----
 Symbolic Z-matrix:
 Charge =  0 Multiplicity = 1
 H                     0.        0.        0. 
 K                     0.        0.        1. 
 
 ITRead=  0  0
 MicOpt= -1 -1
 NAtoms=      2 NQM=        2 NQMF=       0 NMMI=      0 NMMIF=      0
                NMic=       0 NMicF=      0.
                    Isotopes and Nuclear Properties:
 (Nuclear quadrupole moments (NQMom) in fm**2, nuclear magnetic moments (NMagM)
  in nuclear magnetons)

  Atom         1           2
 IAtWgt=           1          39
 AtmWgt=   1.0078250  38.9637079
 NucSpn=           1           3
 AtZEff=  -0.0000000  -0.0000000
 NQMom=    0.0000000   5.8500000
 NMagM=    2.7928460   0.3914660
 AtZNuc=   1.0000000  19.0000000
 Leave Link  101 at Mon Mar 28 14:29:58 2022, MaxMem=  9663676416 cpu:               3.2 elap:               0.1
 (Enter /nopt/nrel/apps/gaussian/g16C_1/g16/l202.exe)
                          Input orientation:                          
 ---------------------------------------------------------------------
 Center     Atomic      Atomic             Coordinates (Angstroms)
 Number     Number       Type             X           Y           Z
 ---------------------------------------------------------------------
      1          1           0        0.000000    0.000000    0.000000
      2         19           0        0.000000    0.000000    1.000000
 ---------------------------------------------------------------------
 Stoichiometry    HK
 Framework group  C*V[C*(HK)]
 Deg. of freedom     1
 Full point group                 C*V     NOp   4
 Largest Abelian subgroup         C2V     NOp   4
 Largest concise Abelian subgroup C1      NOp   1
                         Standard orientation:                         
 ---------------------------------------------------------------------
 Center     Atomic      Atomic             Coordinates (Angstroms)
 Number     Number       Type             X           Y           Z
 ---------------------------------------------------------------------
      1          1           0        0.000000    0.000000   -0.950000
      2         19           0        0.000000    0.000000    0.050000
 ---------------------------------------------------------------------
 Rotational constants (GHZ):           0.0000000         514.4256105         514.4256105
 Leave Link  202 at Mon Mar 28 14:29:58 2022, MaxMem=  9663676416 cpu:               1.0 elap:               0.1
 (Enter /nopt/nrel/apps/gaussian/g16C_1/g16/l301.exe)
 General basis read from cards:  (5D, 7F)
                         Coordinates in L301:                         
 ---------------------------------------------------------------------
 Center     Atomic      Atomic             Coordinates (Angstroms)
 Number     Number       Type             X           Y           Z
 ---------------------------------------------------------------------
      1          1           0        0.000000    0.000000   -0.950000
      2         19           0        0.000000    0.000000    0.050000
 ---------------------------------------------------------------------
 Centers:       1
 STO-3G
 ****
 Centers:       2
 STO-3G
 ****
 FixB: optimizing general contractions.
 Ernie: Thresh=  0.10000D-02 Tol=  0.10000D-05 Strict=F.
 IA=     1 ShT= 0 ShC= 0 NL=   1 NS=   0.
 IA=     1 L=0 SC=0 ISt=    0 NBk=    0 NP=    0 IndPr=    0.
 IA=     2 ShT= 0 ShC= 0 NL=   1 NS=   0.
 IA=     2 L=0 SC=0 ISt=    0 NBk=    0 NP=    0 IndPr=    0.
 IA=     2 ShT= 1 ShC= 0 NL=   3 NS=   0.
 IA=     2 L=1 SC=0 ISt=    1 NBk=    3 NP=    9 IndPr=    0.
 DoElim1:  L=1 select primitive    1 from    2 using    1 C=-1.00D-01
 DoElim1:  L=1 select primitive    1 from    3 using    1 C=-1.00D-01
 DoElim1:  L=1 select primitive    4 from    3 using    2 C=-2.20D-01
 DoElim2:  L=1 select primitive    9 from    2 using    3 C= 1.13D+00
 DoElim2:  L=1 select primitive    9 from    1 using    3 C= 1.13D+00
 DoElim2:  L=1 select primitive    7 from    1 using    2 C= 9.00D-01
 DoElim1:  L=1 select primitive    1 from    2 using    1 C= 1.56D-01
 DoElim1:  L=1 select primitive    1 from    3 using    1 C= 1.56D-01
 DoElim1:  L=1 select primitive    4 from    3 using    2 C= 1.06D-02
 DoElim2:  L=1 select primitive    8 from    2 using    3 C= 5.72D-01
 DoElim2:  L=1 select primitive    8 from    1 using    3 C= 5.72D-01
 DoElim2:  L=1 select primitive    5 from    1 using    2 C= 5.95D-01
 Delete L=1 primitive    7 from    3 C=  0.00D+00.
 Delete L=1 primitive    5 from    3 C=  0.00D+00.
 Delete L=1 primitive    4 from    3 C=  0.00D+00.
 Delete L=1 primitive    3 from    3 C=  0.00D+00.
 Delete L=1 primitive    2 from    3 C=  0.00D+00.
 Delete L=1 primitive    1 from    3 C=  0.00D+00.
 Delete L=1 primitive    9 from    2 C=  0.00D+00.
 Delete L=1 primitive    8 from    2 C=  0.00D+00.
 Delete L=1 primitive    6 from    2 C=  0.00D+00.
 Delete L=1 primitive    3 from    2 C=  0.00D+00.
 Delete L=1 primitive    2 from    2 C=  0.00D+00.
 Delete L=1 primitive    1 from    2 C=  0.00D+00.
 Delete L=1 primitive    9 from    1 C=  0.00D+00.
 Delete L=1 primitive    8 from    1 C=  0.00D+00.
 Delete L=1 primitive    7 from    1 C=  0.00D+00.
 Delete L=1 primitive    6 from    1 C=  0.00D+00.
 Delete L=1 primitive    5 from    1 C=  0.00D+00.
 Delete L=1 primitive    4 from    1 C=  0.00D+00.
 IA=     2 L=1 SC=0 ISt=    0 NBk=    0 NP=    0 IndPr=    9.
 LdAtmC:  AtmChg=     1.000000    19.000000
 AtZEff=     -1.0000000    -22.4200000
 NEqShl: 
              1            2            3            4
     1            1            1            1            1
     2            2            2            2            2
     3            3            3            3            3
     4            4            4            4            4
     5            5            5            5            5
 NEqBas: 
              1            2            3            4
     1            1            1            1            1
     2            2            2            2            2
     3            3            3            3            3
     4            4           -4           -4            4
     5            5           -5            5           -5
     6            6            6            6            6
     7            7            7            7            7
     8            8           -8           -8            8
     9            9           -9            9           -9
    10           10           10           10           10
    11           11           11           11           11
    12           12          -12          -12           12
    13           13          -13           13          -13
    14           14           14           14           14
 There are     8 symmetry adapted cartesian basis functions of A1  symmetry.
   1         1   1   1   1
   2         2   2   2   2
   3         3   3   3   3
   4         6   6   6   6
   5         7   7   7   7
   6        10  10  10  10
   7        11  11  11  11
   8        14  14  14  14
 There are     0 symmetry adapted cartesian basis functions of A2  symmetry.
 There are     3 symmetry adapted cartesian basis functions of B1  symmetry.
   9         4   4   4   4
  10         8   8   8   8
  11        12  12  12  12
 There are     3 symmetry adapted cartesian basis functions of B2  symmetry.
  12         5   5   5   5
  13         9   9   9   9
  14        13  13  13  13
 Order= 1 2 4 3
 Reordered character table:
              1            2            3            4            5
     1            1            1            1            1            1
     2            2            1            1           -1           -1
     3            4            1           -1           -1            1
     4            3            1           -1            1           -1
 NEqShl: 
              1            2            3            4
     1            1            1            1            1
     2            2            2            2            2
     3            3            3            3            3
     4            4            4            4            4
     5            5            5            5            5
 NEqBas: 
              1            2            3            4
     1            1            1            1            1
     2            2            2            2            2
     3            3            3            3            3
     4            4           -4           -4            4
     5            5           -5            5           -5
     6            6            6            6            6
     7            7            7            7            7
     8            8           -8           -8            8
     9            9           -9            9           -9
    10           10           10           10           10
    11           11           11           11           11
    12           12          -12          -12           12
    13           13          -13           13          -13
    14           14           14           14           14
 There are     8 symmetry adapted basis functions of A1  symmetry.
   1         1   1   1   1
   2         2   2   2   2
   3         3   3   3   3
   4         6   6   6   6
   5         7   7   7   7
   6        10  10  10  10
   7        11  11  11  11
   8        14  14  14  14
 There are     0 symmetry adapted basis functions of A2  symmetry.
 There are     3 symmetry adapted basis functions of B1  symmetry.
   9         4   4   4   4
  10         8   8   8   8
  11        12  12  12  12
 There are     3 symmetry adapted basis functions of B2  symmetry.
  12         5   5   5   5
  13         9   9   9   9
  14        13  13  13  13
 Order= 1 2 4 3
 Reordered character table:
              1            2            3            4            5
     1            1            1            1            1            1
     2            2            1            1           -1           -1
     3            4            1           -1           -1            1
     4            3            1           -1            1           -1
    14 basis functions,    42 primitive gaussians,    14 cartesian basis functions
    10 alpha electrons       10 beta electrons
       nuclear repulsion energy        10.0543670075 Hartrees.
 IS=     1 IAt=     1 ISR=     1 T=0 IP=      1 IndIP=      1 IndIPD=      0 C=  2.769344D-01  0.000000D+00                             NZ=T
 IS=     1 IAt=     1 ISR=     1 T=0 IP=      2 IndIP=      2 IndIPD=      1 C=  2.678389D-01  0.000000D+00                             NZ=T
 IS=     1 IAt=     1 ISR=     1 T=0 IP=      3 IndIP=      3 IndIPD=      2 C=  8.347367D-02  0.000000D+00                             NZ=T
 IS=     2 IAt=     2 ISR=     1 T=0 IP=      1 IndIP=      4 IndIPD=      0 C=  1.610141D+01  0.000000D+00                             NZ=T
 IS=     2 IAt=     2 ISR=     1 T=0 IP=      2 IndIP=      5 IndIPD=      1 C=  1.557258D+01  0.000000D+00                             NZ=T
 IS=     2 IAt=     2 ISR=     1 T=0 IP=      3 IndIP=      6 IndIPD=      2 C=  4.853293D+00  0.000000D+00                             NZ=T
 IS=     3 IAt=     2 ISR=     2 T=1 IP=      1 IndIP=      7 IndIPD=      0 C= -1.387647D+00  3.133407D+01                             NZ=T
 IS=     3 IAt=     2 ISR=     2 T=1 IP=      2 IndIP=      8 IndIPD=      1 C=  1.856089D+00  1.970370D+01                             NZ=T
 IS=     3 IAt=     2 ISR=     2 T=1 IP=      3 IndIP=      9 IndIPD=      2 C=  1.400818D+00  3.121398D+00                             NZ=T
 IS=     4 IAt=     2 ISR=     3 T=1 IP=      1 IndIP=     10 IndIPD=      0 C= -4.134697D-01  7.617973D-02                             NZ=T
 IS=     4 IAt=     2 ISR=     3 T=1 IP=      2 IndIP=     11 IndIPD=      1 C=  1.630428D-01  8.683221D-01                             NZ=T
 IS=     4 IAt=     2 ISR=     3 T=1 IP=      3 IndIP=     12 IndIPD=      2 C=  3.220075D-01  2.086659D-01                             NZ=T
 IS=     5 IAt=     2 ISR=     4 T=1 IP=      1 IndIP=     13 IndIPD=      0 C= -1.316621D-01 -7.357036D-02                             NZ=T
 IS=     5 IAt=     2 ISR=     4 T=1 IP=      2 IndIP=     14 IndIPD=      1 C=  3.957719D-03  9.951033D-02                             NZ=T
 IS=     5 IAt=     2 ISR=     4 T=1 IP=      3 IndIP=     15 IndIPD=      2 C=  1.236808D-01  3.446781D-02                             NZ=T
 IExCor=    0 DFT=F Ex=HF Corr=None ExCW=0 ScaHFX=  1.000000
 ScaDFX=  1.000000  1.000000  1.000000  1.000000 ScalE2=  1.000000  1.000000
 IRadAn=      5 IRanWt=     -1 IRanGd=            0 ICorTp=0 IEmpDi=  4
 NAtoms=    2 NActive=    2 NUniq=    2 SFac= 1.00D+00 NAtFMM=   60 NAOKFM=F Big=F
 Integral buffers will be    131072 words long.
 Raffenetti 1 integral format.
 Two-electron integral symmetry is turned on.
 Leave Link  301 at Mon Mar 28 14:29:58 2022, MaxMem=  9663676416 cpu:               2.1 elap:               0.1
 (Enter /nopt/nrel/apps/gaussian/g16C_1/g16/l302.exe)
 NPDir=0 NMtPBC=     1 NCelOv=     1 NCel=       1 NClECP=     1 NCelD=      1
         NCelK=      1 NCelE2=     1 NClLst=     1 CellRange=     0.0.
 One-electron integrals computed using PRISM.
 One-electron integral symmetry used in STVInt
 Entering OneElI...
 Calculate overlap and kinetic energy integrals
    NBasis =  14  MinDer = 0  MaxDer = 0
 Requested accuracy = 0.1000D-12
 Symmetry will be used
 PrmmSu-InSpLW:  IPartL=    0 NPrtUS=   36 NPrtUL=    1 DoSpLW=F IThBeg=    0 IThEnd=   35 NThAct=   36.
 PrSmSu:  IncTry=   512 NBBP=             15 NTPThr=   100 NPartT=   36 Incr=           1 LDynOK=F GPUOK=F.
 PrsmSu:  NPrtUS=  36 ThrOK=T IAlg=1 LenDen=           0 ISkipM=0 DoSpLW=F IThBeg=    0 IThEnd=   35.
 Prism:   IPart=     0 DynPar=F LinDyn=F Incr=           1.
 PRISM was handed   268433335 working-precision words and    15 shell-pairs
 PRISM was handed   268433335 working-precision words and    15 shell-pairs
 PRISM was handed   268433335 working-precision words and    15 shell-pairs
 PRISM was handed   268433335 working-precision words and    15 shell-pairs
 PRISM was handed   268433335 working-precision words and    15 shell-pairs
 PRISM was handed   268433335 working-precision words and    15 shell-pairs
 PRISM was handed   268433335 working-precision words and    15 shell-pairs
 PRISM was handed   268433335 working-precision words and    15 shell-pairs
 IPart= 16 NShTot=           0 NBatch=           0 AvBLen=         0.0
 IPart= 24 NShTot=           0 NBatch=           0 AvBLen=         0.0
 IPart= 28 NShTot=           0 NBatch=           0 AvBLen=         0.0
 IPart=  6 NShTot=           0 NBatch=           0 AvBLen=         0.0
 IPart= 14 NShTot=           0 NBatch=           0 AvBLen=         0.0
 IPart= 15 NShTot=           0 NBatch=           0 AvBLen=         0.0
 IPart= 25 NShTot=           0 NBatch=           0 AvBLen=         0.0
 PRISM was handed   268433335 working-precision words and    15 shell-pairs
 PRISM was handed   268433335 working-precision words and    15 shell-pairs
 IPart= 35 NShTot=           0 NBatch=           0 AvBLen=         0.0
 PRISM was handed   268433335 working-precision words and    15 shell-pairs
 PRISM was handed   268433335 working-precision words and    15 shell-pairs
 IPart= 17 NShTot=           0 NBatch=           0 AvBLen=         0.0
 PRISM was handed   268433335 working-precision words and    15 shell-pairs
 IPart= 34 NShTot=           0 NBatch=           0 AvBLen=         0.0
 PRISM was handed   268433335 working-precision words and    15 shell-pairs
 PRISM was handed   268433335 working-precision words and    15 shell-pairs
 IPart= 22 NShTot=           0 NBatch=           0 AvBLen=         0.0
 IPart=  8 NShTot=           0 NBatch=           0 AvBLen=         0.0
 PRISM was handed   268433335 working-precision words and    15 shell-pairs
 PRISM was handed   268433335 working-precision words and    15 shell-pairs
 IPart=  0 NShTot=           3 NBatch=           3 AvBLen=         1.0
 IPart= 18 NShTot=           0 NBatch=           0 AvBLen=         0.0
 PRISM was handed   268433335 working-precision words and    15 shell-pairs
 PRISM was handed   268433335 working-precision words and    15 shell-pairs
 IPart=  9 NShTot=           0 NBatch=           0 AvBLen=         0.0
 PRISM was handed   268433335 working-precision words and    15 shell-pairs
 PRISM was handed   268433335 working-precision words and    15 shell-pairs
 PRISM was handed   268433335 working-precision words and    15 shell-pairs
 PRISM was handed   268433335 working-precision words and    15 shell-pairs
 IPart=  7 NShTot=           0 NBatch=           0 AvBLen=         0.0
 IPart= 26 NShTot=           0 NBatch=           0 AvBLen=         0.0
 PRISM was handed   268433335 working-precision words and    15 shell-pairs
 PRISM was handed   268433335 working-precision words and    15 shell-pairs
 PRISM was handed   268433335 working-precision words and    15 shell-pairs
 PRISM was handed   268433335 working-precision words and    15 shell-pairs
 PRISM was handed   268433335 working-precision words and    15 shell-pairs
 IPart=  4 NShTot=           2 NBatch=           2 AvBLen=         1.0
 IPart=  3 NShTot=           2 NBatch=           2 AvBLen=         1.0
 PRISM was handed   268433335 working-precision words and    15 shell-pairs
 IPart=  2 NShTot=           3 NBatch=           3 AvBLen=         1.0
 PRISM was handed   268433335 working-precision words and    15 shell-pairs
 PRISM was handed   268433335 working-precision words and    15 shell-pairs
 IPart= 13 NShTot=           0 NBatch=           0 AvBLen=         0.0
 IPart= 21 NShTot=           0 NBatch=           0 AvBLen=         0.0
 IPart= 11 NShTot=           0 NBatch=           0 AvBLen=         0.0
 IPart= 32 NShTot=           0 NBatch=           0 AvBLen=         0.0
 PRISM was handed   268433335 working-precision words and    15 shell-pairs
 IPart= 12 NShTot=           0 NBatch=           0 AvBLen=         0.0
 PRISM was handed   268433335 working-precision words and    15 shell-pairs
 PRISM was handed   268433335 working-precision words and    15 shell-pairs
 IPart=  5 NShTot=           2 NBatch=           2 AvBLen=         1.0
 IPart= 31 NShTot=           0 NBatch=           0 AvBLen=         0.0
 IPart=  1 NShTot=           3 NBatch=           3 AvBLen=         1.0
 PRISM was handed   268433335 working-precision words and    15 shell-pairs
 IPart= 23 NShTot=           0 NBatch=           0 AvBLen=         0.0
 PRISM was handed   268433335 working-precision words and    15 shell-pairs
 IPart= 27 NShTot=           0 NBatch=           0 AvBLen=         0.0
 IPart= 33 NShTot=           0 NBatch=           0 AvBLen=         0.0
 IPart= 10 NShTot=           0 NBatch=           0 AvBLen=         0.0
 IPart= 29 NShTot=           0 NBatch=           0 AvBLen=         0.0
 IPart= 20 NShTot=           0 NBatch=           0 AvBLen=         0.0
 IPart= 30 NShTot=           0 NBatch=           0 AvBLen=         0.0
 IPart= 19 NShTot=           0 NBatch=           0 AvBLen=         0.0
 PrSmSu:  NxtVal=             37.
 *** Overlap *** 
                1             2             3             4             5 
      1  0.100000D+01
      2  0.127989D-01  0.100000D+01
      3  0.914415D-01  0.354956D+00  0.100000D+01
      4  0.000000D+00  0.000000D+00  0.000000D+00  0.100000D+01
      5  0.000000D+00  0.000000D+00  0.000000D+00  0.000000D+00  0.100000D+01
      6 -0.361364D-01  0.000000D+00  0.000000D+00  0.000000D+00  0.000000D+00
      7  0.483095D+00  0.177465D-01  0.276696D+00  0.000000D+00  0.000000D+00
      8  0.000000D+00  0.000000D+00  0.000000D+00  0.290978D+00  0.000000D+00
      9  0.000000D+00  0.000000D+00  0.000000D+00  0.000000D+00  0.290978D+00
     10 -0.423535D+00  0.000000D+00  0.000000D+00  0.000000D+00  0.000000D+00
     11  0.512109D+00 -0.411512D-03  0.141138D-01  0.000000D+00  0.000000D+00
     12  0.000000D+00  0.000000D+00  0.000000D+00  0.256077D-01  0.000000D+00
     13  0.000000D+00  0.000000D+00  0.000000D+00  0.000000D+00  0.256077D-01
     14 -0.539222D+00  0.000000D+00  0.000000D+00  0.000000D+00  0.000000D+00
                6             7             8             9            10 
      6  0.100000D+01
      7  0.000000D+00  0.100000D+01
      8  0.000000D+00  0.000000D+00  0.100000D+01
      9  0.000000D+00  0.000000D+00  0.000000D+00  0.100000D+01
     10  0.290978D+00  0.000000D+00  0.000000D+00  0.000000D+00  0.100000D+01
     11  0.000000D+00  0.437056D+00  0.000000D+00  0.000000D+00  0.000000D+00
     12  0.000000D+00  0.000000D+00  0.445695D+00  0.000000D+00  0.000000D+00
     13  0.000000D+00  0.000000D+00  0.000000D+00  0.445695D+00  0.000000D+00
     14  0.256077D-01  0.000000D+00  0.000000D+00  0.000000D+00  0.445695D+00
               11            12            13            14 
     11  0.100000D+01
     12  0.000000D+00  0.100000D+01
     13  0.000000D+00  0.000000D+00  0.100000D+01
     14  0.000000D+00  0.000000D+00  0.000000D+00  0.100000D+01
 *** Kinetic Energy *** 
                1             2             3             4             5 
      1  0.760032D+00
      2 -0.197876D-02  0.171191D+03
      3 -0.600032D-02  0.616344D+00  0.841372D+01
      4  0.000000D+00  0.000000D+00  0.000000D+00  0.263276D+02
      5  0.000000D+00  0.000000D+00  0.000000D+00  0.000000D+00  0.263276D+02
      6 -0.160071D-01  0.000000D+00  0.000000D+00  0.000000D+00  0.000000D+00
      7  0.131782D+00 -0.508771D+00 -0.622783D+00  0.000000D+00  0.000000D+00
      8  0.000000D+00  0.000000D+00  0.000000D+00  0.115183D+01  0.000000D+00
      9  0.000000D+00  0.000000D+00  0.000000D+00  0.000000D+00  0.115183D+01
     10 -0.293365D+00  0.000000D+00  0.000000D+00  0.000000D+00  0.000000D+00
     11  0.689155D-01 -0.277145D-01 -0.148074D+00  0.000000D+00  0.000000D+00
     12  0.000000D+00  0.000000D+00  0.000000D+00 -0.149366D-01  0.000000D+00
     13  0.000000D+00  0.000000D+00  0.000000D+00  0.000000D+00 -0.149366D-01
     14 -0.201463D+00  0.000000D+00  0.000000D+00  0.000000D+00  0.000000D+00
                6             7             8             9            10 
      6  0.263276D+02
      7  0.000000D+00  0.750794D+00
      8  0.000000D+00  0.000000D+00  0.175622D+01
      9  0.000000D+00  0.000000D+00  0.000000D+00  0.175622D+01
     10  0.115183D+01  0.000000D+00  0.000000D+00  0.000000D+00  0.175622D+01
     11  0.000000D+00 -0.454110D-01  0.000000D+00  0.000000D+00  0.000000D+00
     12  0.000000D+00  0.000000D+00  0.159934D+00  0.000000D+00  0.000000D+00
     13  0.000000D+00  0.000000D+00  0.000000D+00  0.159934D+00  0.000000D+00
     14 -0.149366D-01  0.000000D+00  0.000000D+00  0.000000D+00  0.159934D+00
               11            12            13            14 
     11  0.146782D+00
     12  0.000000D+00  0.289753D+00
     13  0.000000D+00  0.000000D+00  0.289753D+00
     14  0.000000D+00  0.000000D+00  0.000000D+00  0.289753D+00
 Entering OneElI...
 Calculate potential energy integrals
    NBasis =  14  MinDer = 0  MaxDer = 0
 Requested accuracy = 0.1000D-12
 Symmetry will be used
 PrmmSu-InSpLW:  IPartL=    0 NPrtUS=   36 NPrtUL=    1 DoSpLW=F IThBeg=    0 IThEnd=   35 NThAct=   36.
 PrSmSu:  IncTry=   512 NBBP=             30 NTPThr=   100 NPartT=   36 Incr=           1 LDynOK=F GPUOK=F.
 PrsmSu:  NPrtUS=  36 ThrOK=T IAlg=1 LenDen=           0 ISkipM=0 DoSpLW=F IThBeg=    0 IThEnd=   35.
 Prism:   IPart=     0 DynPar=F LinDyn=F Incr=           1.
 PRISM was handed   268433425 working-precision words and    15 shell-pairs
 PRISM was handed   268433425 working-precision words and    15 shell-pairs
 PRISM was handed   268433425 working-precision words and    15 shell-pairs
 PRISM was handed   268433425 working-precision words and    15 shell-pairs
 PRISM was handed   268433425 working-precision words and    15 shell-pairs
 PRISM was handed   268433425 working-precision words and    15 shell-pairs
 PRISM was handed   268433425 working-precision words and    15 shell-pairs
 PRISM was handed   268433425 working-precision words and    15 shell-pairs
 PRISM was handed   268433425 working-precision words and    15 shell-pairs
 PRISM was handed   268433425 working-precision words and    15 shell-pairs
 PRISM was handed   268433425 working-precision words and    15 shell-pairs
 PRISM was handed   268433425 working-precision words and    15 shell-pairs
 PRISM was handed   268433425 working-precision words and    15 shell-pairs
 PRISM was handed   268433425 working-precision words and    15 shell-pairs
 PRISM was handed   268433425 working-precision words and    15 shell-pairs
 PRISM was handed   268433425 working-precision words and    15 shell-pairs
 PRISM was handed   268433425 working-precision words and    15 shell-pairs
 PRISM was handed   268433425 working-precision words and    15 shell-pairs
 PRISM was handed   268433425 working-precision words and    15 shell-pairs
 PRISM was handed   268433425 working-precision words and    15 shell-pairs
 PRISM was handed   268433425 working-precision words and    15 shell-pairs
 PRISM was handed   268433425 working-precision words and    15 shell-pairs
 PRISM was handed   268433425 working-precision words and    15 shell-pairs
 PRISM was handed   268433425 working-precision words and    15 shell-pairs
 PRISM was handed   268433425 working-precision words and    15 shell-pairs
 PRISM was handed   268433425 working-precision words and    15 shell-pairs
 PRISM was handed   268433425 working-precision words and    15 shell-pairs
 PRISM was handed   268433425 working-precision words and    15 shell-pairs
 PRISM was handed   268433425 working-precision words and    15 shell-pairs
 PRISM was handed   268433425 working-precision words and    15 shell-pairs
 PRISM was handed   268433425 working-precision words and    15 shell-pairs
 PRISM was handed   268433425 working-precision words and    15 shell-pairs
 PRISM was handed   268433425 working-precision words and    15 shell-pairs
 PRISM was handed   268433425 working-precision words and    15 shell-pairs
 PRISM was handed   268433425 working-precision words and    15 shell-pairs
 PRISM was handed   268433425 working-precision words and    15 shell-pairs
 IPart=  4 NShTot=           4 NBatch=           2 AvBLen=         2.0
 IPart=  2 NShTot=           6 NBatch=           3 AvBLen=         2.0
 IPart=  3 NShTot=           4 NBatch=           2 AvBLen=         2.0
 IPart=  5 NShTot=           4 NBatch=           2 AvBLen=         2.0
 IPart=  1 NShTot=           6 NBatch=           3 AvBLen=         2.0
 IPart=  0 NShTot=           6 NBatch=           3 AvBLen=         2.0
 IPart= 23 NShTot=           0 NBatch=           0 AvBLen=         0.0
 IPart= 17 NShTot=           0 NBatch=           0 AvBLen=         0.0
 IPart=  9 NShTot=           0 NBatch=           0 AvBLen=         0.0
 IPart=  6 NShTot=           0 NBatch=           0 AvBLen=         0.0
 IPart=  7 NShTot=           0 NBatch=           0 AvBLen=         0.0
 IPart= 33 NShTot=           0 NBatch=           0 AvBLen=         0.0
 IPart= 21 NShTot=           0 NBatch=           0 AvBLen=         0.0
 IPart= 27 NShTot=           0 NBatch=           0 AvBLen=         0.0
 IPart= 13 NShTot=           0 NBatch=           0 AvBLen=         0.0
 IPart=  8 NShTot=           0 NBatch=           0 AvBLen=         0.0
 IPart= 15 NShTot=           0 NBatch=           0 AvBLen=         0.0
 IPart= 28 NShTot=           0 NBatch=           0 AvBLen=         0.0
 IPart= 24 NShTot=           0 NBatch=           0 AvBLen=         0.0
 IPart= 32 NShTot=           0 NBatch=           0 AvBLen=         0.0
 IPart= 16 NShTot=           0 NBatch=           0 AvBLen=         0.0
 IPart= 35 NShTot=           0 NBatch=           0 AvBLen=         0.0
 IPart= 31 NShTot=           0 NBatch=           0 AvBLen=         0.0
 IPart= 34 NShTot=           0 NBatch=           0 AvBLen=         0.0
 IPart= 19 NShTot=           0 NBatch=           0 AvBLen=         0.0
 IPart= 10 NShTot=           0 NBatch=           0 AvBLen=         0.0
 IPart= 30 NShTot=           0 NBatch=           0 AvBLen=         0.0
 IPart= 12 NShTot=           0 NBatch=           0 AvBLen=         0.0
 IPart= 29 NShTot=           0 NBatch=           0 AvBLen=         0.0
 IPart= 25 NShTot=           0 NBatch=           0 AvBLen=         0.0
 IPart= 18 NShTot=           0 NBatch=           0 AvBLen=         0.0
 IPart= 11 NShTot=           0 NBatch=           0 AvBLen=         0.0
 IPart= 22 NShTot=           0 NBatch=           0 AvBLen=         0.0
 IPart= 26 NShTot=           0 NBatch=           0 AvBLen=         0.0
 IPart= 20 NShTot=           0 NBatch=           0 AvBLen=         0.0
 IPart= 14 NShTot=           0 NBatch=           0 AvBLen=         0.0
 PrSmSu:  NxtVal=             37.
 ***** Potential Energy ***** 
                1             2             3             4             5 
      1  0.109720D+02
      2  0.231590D+01  0.350302D+03
      3  0.435561D+01  0.640781D+02  0.698970D+02
      4  0.000000D+00  0.000000D+00  0.000000D+00  0.693375D+02
      5  0.000000D+00  0.000000D+00  0.000000D+00  0.000000D+00  0.693375D+02
      6 -0.131678D+01 -0.848525D-02 -0.556446D-01  0.000000D+00  0.000000D+00
      7  0.741237D+01  0.277602D+01  0.112214D+02  0.000000D+00  0.000000D+00
      8  0.000000D+00  0.000000D+00  0.000000D+00  0.117140D+02  0.000000D+00
      9  0.000000D+00  0.000000D+00  0.000000D+00  0.000000D+00  0.117140D+02
     10 -0.592837D+01 -0.516218D-03 -0.259828D-01  0.000000D+00  0.000000D+00
     11  0.466597D+01 -0.975107D-01  0.366821D+00  0.000000D+00  0.000000D+00
     12  0.000000D+00  0.000000D+00  0.000000D+00  0.894844D+00  0.000000D+00
     13  0.000000D+00  0.000000D+00  0.000000D+00  0.000000D+00  0.894844D+00
     14 -0.485026D+01 -0.292350D-04 -0.251553D-02  0.000000D+00  0.000000D+00
                6             7             8             9            10 
      6  0.693502D+02
      7 -0.271876D-01  0.179436D+02
      8  0.000000D+00  0.000000D+00  0.179255D+02
      9  0.000000D+00  0.000000D+00  0.000000D+00  0.179255D+02
     10  0.117243D+02 -0.192124D+00  0.000000D+00  0.000000D+00  0.180650D+02
     11 -0.201701D-02  0.519589D+01  0.000000D+00  0.000000D+00 -0.944227D-01
     12  0.000000D+00  0.000000D+00  0.536142D+01  0.000000D+00  0.000000D+00
     13  0.000000D+00  0.000000D+00  0.000000D+00  0.536142D+01  0.000000D+00
     14  0.896039D+00 -0.937066D-01  0.000000D+00  0.000000D+00  0.543943D+01
               11            12            13            14 
     11  0.714186D+01
     12  0.000000D+00  0.710701D+01
     13  0.000000D+00  0.000000D+00  0.710701D+01
     14 -0.136443D+00  0.000000D+00  0.000000D+00  0.720976D+01
 ****** Core Hamiltonian ****** 
                1             2             3             4             5 
      1 -0.102120D+02
      2 -0.231788D+01 -0.179111D+03
      3 -0.436161D+01 -0.634617D+02 -0.614833D+02
      4  0.000000D+00  0.000000D+00  0.000000D+00 -0.430099D+02
      5  0.000000D+00  0.000000D+00  0.000000D+00  0.000000D+00 -0.430099D+02
      6  0.130077D+01  0.848525D-02  0.556446D-01  0.000000D+00  0.000000D+00
      7 -0.728058D+01 -0.328479D+01 -0.118442D+02  0.000000D+00  0.000000D+00
      8  0.000000D+00  0.000000D+00  0.000000D+00 -0.105622D+02  0.000000D+00
      9  0.000000D+00  0.000000D+00  0.000000D+00  0.000000D+00 -0.105622D+02
     10  0.563500D+01  0.516218D-03  0.259828D-01  0.000000D+00  0.000000D+00
     11 -0.459705D+01  0.697961D-01 -0.514895D+00  0.000000D+00  0.000000D+00
     12  0.000000D+00  0.000000D+00  0.000000D+00 -0.909780D+00  0.000000D+00
     13  0.000000D+00  0.000000D+00  0.000000D+00  0.000000D+00 -0.909780D+00
     14  0.464880D+01  0.292350D-04  0.251553D-02  0.000000D+00  0.000000D+00
                6             7             8             9            10 
      6 -0.430226D+02
      7  0.271876D-01 -0.171928D+02
      8  0.000000D+00  0.000000D+00 -0.161692D+02
      9  0.000000D+00  0.000000D+00  0.000000D+00 -0.161692D+02
     10 -0.105725D+02  0.192124D+00  0.000000D+00  0.000000D+00 -0.163087D+02
     11  0.201701D-02 -0.524130D+01  0.000000D+00  0.000000D+00  0.944227D-01
     12  0.000000D+00  0.000000D+00 -0.520148D+01  0.000000D+00  0.000000D+00
     13  0.000000D+00  0.000000D+00  0.000000D+00 -0.520148D+01  0.000000D+00
     14 -0.910975D+00  0.937066D-01  0.000000D+00  0.000000D+00 -0.527950D+01
               11            12            13            14 
     11 -0.699508D+01
     12  0.000000D+00 -0.681725D+01
     13  0.000000D+00  0.000000D+00 -0.681725D+01
     14  0.136443D+00  0.000000D+00  0.000000D+00 -0.692001D+01
 SVDSVc IOpt=   1 NormSV=T IR=1
 SVDSVc V= 2.27D+00 1.56D+00 1.31D+00 1.01D+00 7.14D-01 4.81D-01 4.51D-01 2.02D-01
 SVDSVc IOpt=   1 NormSV=T IR=3
 SVDSVc V= 1.54D+00 9.77D-01 4.79D-01
 SVDSVc IOpt=   1 NormSV=T IR=4
 SVDSVc V= 1.54D+00 9.77D-01 4.79D-01
 TstOVc:  Largest diagonal error= 1.78D-15 IB=1 I=    1.
 TstOVc:  Largest same sym error= 7.19D-16 IB=1 I=    8 J=    4.
 TstOVc:  Largest diff sym error= 0.00D+00 IB=0 JB=0 I=    0 J=    0.
 Orthogonalized basis functions: 
                 1             2             3             4             5 
      1   0.404422D+00 -0.155208D-01 -0.972631D-01  0.131158D+00  0.682795D-01
      2   0.355803D-01  0.205774D+00  0.564713D+00  0.968253D-01  0.759418D+00
      3   0.996273D-01  0.308905D+00  0.497410D+00  0.700863D-02 -0.592628D+00
      4   0.000000D+00  0.000000D+00  0.000000D+00  0.000000D+00  0.000000D+00
      5   0.000000D+00  0.000000D+00  0.000000D+00  0.000000D+00  0.000000D+00
      6  -0.723961D-01  0.215473D+00 -0.169428D+00  0.847497D+00 -0.418626D-01
      7   0.264325D+00  0.354775D+00 -0.124622D+00 -0.159096D+00 -0.412174D+00
      8   0.000000D+00  0.000000D+00  0.000000D+00  0.000000D+00  0.000000D+00
      9   0.000000D+00  0.000000D+00  0.000000D+00  0.000000D+00  0.000000D+00
     10  -0.242560D+00  0.385145D+00 -0.181316D+00  0.961007D-01  0.439580D-01
     11   0.255486D+00  0.269390D+00 -0.317797D+00 -0.158638D+00  0.538380D+00
     12   0.000000D+00  0.000000D+00  0.000000D+00  0.000000D+00  0.000000D+00
     13   0.000000D+00  0.000000D+00  0.000000D+00  0.000000D+00  0.000000D+00
     14  -0.258649D+00  0.330180D+00 -0.106610D+00 -0.425527D+00  0.640303D-01
                 6             7             8             9            10 
      1   0.839826D-01  0.382844D-01  0.170920D+01  0.000000D+00  0.000000D+00
      2   0.517338D-02  0.453009D+00 -0.399432D-01  0.000000D+00  0.000000D+00
      3  -0.100886D-01 -0.749850D+00  0.596315D-01  0.000000D+00  0.000000D+00
      4   0.000000D+00  0.000000D+00  0.000000D+00  0.323218D+00  0.847647D+00
      5   0.000000D+00  0.000000D+00  0.000000D+00  0.000000D+00  0.000000D+00
      6  -0.550166D+00  0.753563D-02 -0.111365D+00  0.000000D+00  0.000000D+00
      7  -0.117605D-01  0.933296D+00 -0.647557D+00  0.000000D+00  0.000000D+00
      8   0.000000D+00  0.000000D+00  0.000000D+00  0.562627D+00 -0.196580D-01
      9   0.000000D+00  0.000000D+00  0.000000D+00  0.000000D+00  0.000000D+00
     10   0.106189D+01 -0.137261D-01  0.436984D+00  0.000000D+00  0.000000D+00
     11  -0.726873D-01 -0.758791D+00 -0.743699D+00  0.000000D+00  0.000000D+00
     12   0.000000D+00  0.000000D+00  0.000000D+00  0.475981D+00 -0.552364D+00
     13   0.000000D+00  0.000000D+00  0.000000D+00  0.000000D+00  0.000000D+00
     14  -0.797526D+00  0.483754D-01  0.914963D+00  0.000000D+00  0.000000D+00
                11            12            13            14 
      1   0.000000D+00  0.000000D+00  0.000000D+00  0.000000D+00
      2   0.000000D+00  0.000000D+00  0.000000D+00  0.000000D+00
      3   0.000000D+00  0.000000D+00  0.000000D+00  0.000000D+00
      4  -0.534697D+00  0.000000D+00  0.000000D+00  0.000000D+00
      5   0.000000D+00  0.323218D+00  0.847647D+00 -0.534697D+00
      6   0.000000D+00  0.000000D+00  0.000000D+00  0.000000D+00
      7   0.000000D+00  0.000000D+00  0.000000D+00  0.000000D+00
      8   0.103243D+01  0.000000D+00  0.000000D+00  0.000000D+00
      9   0.000000D+00  0.562627D+00 -0.196580D-01  0.103243D+01
     10   0.000000D+00  0.000000D+00  0.000000D+00  0.000000D+00
     11   0.000000D+00  0.000000D+00  0.000000D+00  0.000000D+00
     12  -0.857278D+00  0.000000D+00  0.000000D+00  0.000000D+00
     13   0.000000D+00  0.475981D+00 -0.552364D+00 -0.857278D+00
     14   0.000000D+00  0.000000D+00  0.000000D+00  0.000000D+00
 NBasis=    14 RedAO= T EigKep=  2.02D-01  NBF=     8     0     3     3
 NBsUse=    14 1.00D-06 EigRej= -1.00D+00 NBFU=     8     0     3     3
 Leave Link  302 at Mon Mar 28 14:29:58 2022, MaxMem=  9663676416 cpu:               3.9 elap:               0.2
 (Enter /nopt/nrel/apps/gaussian/g16C_1/g16/l303.exe)
 DipDrv will not compute anything.
 Fermi contact integrals: 
                 1             2 
      1   0.628247D+00  0.745326D-01
      2   0.000000D+00  0.365273D+02
      3   0.100987D-05  0.186926D+01
      4   0.000000D+00  0.000000D+00
      5   0.000000D+00  0.000000D+00
      6  -0.425236D-05  0.000000D+00
      7   0.818148D-01  0.715806D-01
      8   0.000000D+00  0.000000D+00
      9   0.000000D+00  0.000000D+00
     10  -0.138096D+00  0.000000D+00
     11   0.725063D-01 -0.402363D-02
     12   0.000000D+00  0.000000D+00
     13   0.000000D+00  0.000000D+00
     14  -0.122372D+00  0.000000D+00
 Leave Link  303 at Mon Mar 28 14:29:58 2022, MaxMem=  9663676416 cpu:               0.8 elap:               0.0
 (Enter /nopt/nrel/apps/gaussian/g16C_1/g16/l401.exe)
 ExpMin= 8.21D-02 ExpMax= 7.72D+02 ExpMxC= 7.72D+02 IAcc=3 IRadAn=         5 AccDes= 0.00D+00
 Harris functional with IExCor=  205 and IRadAn=       5 diagonalized for initial guess.
 HarFok:  IExCor=  205 AccDes= 0.00D+00 IRadAn=         5 IDoV= 1 UseB2=F ITyADJ=14
 ICtDFT=  3500011 ScaDFX=  1.000000  1.000000  1.000000  1.000000
 FoFCou: FMM=F IPFlag=           0 FMFlag=      100000 FMFlg1=           0
         NFxFlg=           0 DoJE=T BraDBF=F KetDBF=T FulRan=T
         wScrn=  0.000000 ICntrl=       500 IOpCl=  0 I1Cent=   200000004 NGrid=           0
         NMat0=    1 NMatS0=      1 NMatT0=    0 NMatD0=    1 NMtDS0=    0 NMtDT0=    0
 Petite list used in FoFCou.
 Harris En= -592.432224031903    
 JPrj=0 DoOrth=F DoCkMO=F.
 Initial guess orbital symmetries:
       Occupied  (SG) (SG) (SG) (PI) (PI) (SG) (SG) (PI) (PI) (SG)
       Virtual   (SG) (PI) (PI) (SG)
 The electronic state of the initial guess is 1-SG.
 Leave Link  401 at Mon Mar 28 14:29:58 2022, MaxMem=  9663676416 cpu:               5.0 elap:               0.2
 (Enter /nopt/nrel/apps/gaussian/g16C_1/g16/l502.exe)
 Keep R1 ints in memory in symmetry-blocked form, NReq=7216806.
 FoFCou: FMM=F IPFlag=           0 FMFlag=           0 FMFlg1=           0
         NFxFlg=           0 DoJE=F BraDBF=F KetDBF=F FulRan=T
         wScrn=  0.000000 ICntrl=       600 IOpCl=  0 I1Cent=           0 NGrid=           0
         NMat0=    1 NMatS0=    105 NMatT0=    0 NMatD0=    1 NMtDS0=    0 NMtDT0=    0
 Petite list used in FoFCou.
 Closed shell SCF:
 Using DIIS extrapolation, IDIIS=  1040.
 NGot=  9663676416 LenX=  9663671753 LenY=  9663670871
 Requested convergence on RMS density matrix=1.00D-08 within 128 cycles.
 Requested convergence on MAX density matrix=1.00D-06.
 Requested convergence on             energy=1.00D-06.
 No special actions if energy rises.

 Cycle   1  Pass 1  IDiag  1:
 E= -593.074997269122    
 DIIS: error= 4.63D-02 at cycle   1 NSaved=   1.
 NSaved= 1 IEnMin= 1 EnMin= -593.074997269122     IErMin= 1 ErrMin= 4.63D-02
 ErrMax= 4.63D-02  0.00D+00 EMaxC= 1.00D-01 BMatC= 3.28D-02 BMatP= 3.28D-02
 IDIUse=3 WtCom= 5.37D-01 WtEn= 4.63D-01
 Coeff-Com:  0.100D+01
 Coeff-En:   0.100D+01
 Coeff:      0.100D+01
 Gap=     0.401 Goal=   None    Shift=    0.000
 GapD=    0.401 DampG=2.000 DampE=0.500 DampFc=1.0000 IDamp=-1.
 RMSDP=1.46D-02 MaxDP=7.09D-02              OVMax= 0.00D+00

 Cycle   2  Pass 1  IDiag  1:
 E= -593.095846062016     Delta-E=       -0.020848792894 Rises=F Damp=F
 DIIS: error= 2.23D-03 at cycle   2 NSaved=   2.
 NSaved= 2 IEnMin= 2 EnMin= -593.095846062016     IErMin= 2 ErrMin= 2.23D-03
 ErrMax= 2.23D-03  0.00D+00 EMaxC= 1.00D-01 BMatC= 8.69D-05 BMatP= 3.28D-02
 IDIUse=3 WtCom= 9.78D-01 WtEn= 2.23D-02
 Coeff-Com:  0.369D-01 0.963D+00
 Coeff-En:   0.000D+00 0.100D+01
 Coeff:      0.361D-01 0.964D+00
 Gap=     0.400 Goal=   None    Shift=    0.000
 RMSDP=1.74D-03 MaxDP=9.49D-03 DE=-2.08D-02 OVMax= 0.00D+00

 Cycle   3  Pass 1  IDiag  1:
 E= -593.096008364896     Delta-E=       -0.000162302880 Rises=F Damp=F
 DIIS: error= 4.74D-04 at cycle   3 NSaved=   3.
 NSaved= 3 IEnMin= 3 EnMin= -593.096008364896     IErMin= 3 ErrMin= 4.74D-04
 ErrMax= 4.74D-04  0.00D+00 EMaxC= 1.00D-01 BMatC= 2.89D-06 BMatP= 8.69D-05
 IDIUse=3 WtCom= 9.95D-01 WtEn= 4.74D-03
 Coeff-Com: -0.755D-02-0.132D+00 0.114D+01
 Coeff-En:   0.000D+00 0.000D+00 0.100D+01
 Coeff:     -0.751D-02-0.132D+00 0.114D+01
 Gap=     0.399 Goal=   None    Shift=    0.000
 RMSDP=5.71D-04 MaxDP=3.45D-03 DE=-1.62D-04 OVMax= 0.00D+00

 Cycle   4  Pass 1  IDiag  1:
 E= -593.096019473855     Delta-E=       -0.000011108959 Rises=F Damp=F
 DIIS: error= 1.22D-04 at cycle   4 NSaved=   4.
 NSaved= 4 IEnMin= 4 EnMin= -593.096019473855     IErMin= 4 ErrMin= 1.22D-04
 ErrMax= 1.22D-04  0.00D+00 EMaxC= 1.00D-01 BMatC= 2.30D-07 BMatP= 2.89D-06
 IDIUse=3 WtCom= 9.99D-01 WtEn= 1.22D-03
 Coeff-Com:  0.190D-02 0.273D-01-0.416D+00 0.139D+01
 Coeff-En:   0.000D+00 0.000D+00 0.000D+00 0.100D+01
 Coeff:      0.190D-02 0.272D-01-0.416D+00 0.139D+01
 Gap=     0.399 Goal=   None    Shift=    0.000
 RMSDP=2.31D-04 MaxDP=1.40D-03 DE=-1.11D-05 OVMax= 0.00D+00

 Cycle   5  Pass 1  IDiag  1:
 E= -593.096020598278     Delta-E=       -0.000001124423 Rises=F Damp=F
 DIIS: error= 1.67D-05 at cycle   5 NSaved=   5.
 NSaved= 5 IEnMin= 5 EnMin= -593.096020598278     IErMin= 5 ErrMin= 1.67D-05
 ErrMax= 1.67D-05  0.00D+00 EMaxC= 1.00D-01 BMatC= 7.49D-09 BMatP= 2.30D-07
 IDIUse=1 WtCom= 1.00D+00 WtEn= 0.00D+00
 Coeff-Com: -0.273D-03-0.880D-03 0.938D-01-0.486D+00 0.139D+01
 Coeff:     -0.273D-03-0.880D-03 0.938D-01-0.486D+00 0.139D+01
 Gap=     0.399 Goal=   None    Shift=    0.000
 RMSDP=3.84D-05 MaxDP=2.30D-04 DE=-1.12D-06 OVMax= 0.00D+00

 Cycle   6  Pass 1  IDiag  1:
 E= -593.096020626807     Delta-E=       -0.000000028529 Rises=F Damp=F
 DIIS: error= 1.21D-06 at cycle   6 NSaved=   6.
 NSaved= 6 IEnMin= 6 EnMin= -593.096020626807     IErMin= 6 ErrMin= 1.21D-06
 ErrMax= 1.21D-06  0.00D+00 EMaxC= 1.00D-01 BMatC= 2.79D-11 BMatP= 7.49D-09
 IDIUse=1 WtCom= 1.00D+00 WtEn= 0.00D+00
 Coeff-Com:  0.154D-04 0.512D-04-0.628D-02 0.451D-01-0.160D+00 0.112D+01
 Coeff:      0.154D-04 0.512D-04-0.628D-02 0.451D-01-0.160D+00 0.112D+01
 Gap=     0.399 Goal=   None    Shift=    0.000
 RMSDP=1.28D-06 MaxDP=6.01D-06 DE=-2.85D-08 OVMax= 0.00D+00

 Cycle   7  Pass 1  IDiag  1:
 E= -593.096020626859     Delta-E=       -0.000000000052 Rises=F Damp=F
 DIIS: error= 1.99D-07 at cycle   7 NSaved=   7.
 NSaved= 7 IEnMin= 7 EnMin= -593.096020626859     IErMin= 7 ErrMin= 1.99D-07
 ErrMax= 1.99D-07  0.00D+00 EMaxC= 1.00D-01 BMatC= 5.73D-13 BMatP= 2.79D-11
 IDIUse=1 WtCom= 1.00D+00 WtEn= 0.00D+00
 Coeff-Com:  0.289D-05 0.163D-04-0.653D-03 0.493D-03 0.135D-02-0.140D+00
 Coeff-Com:  0.114D+01
 Coeff:      0.289D-05 0.163D-04-0.653D-03 0.493D-03 0.135D-02-0.140D+00
 Coeff:      0.114D+01
 Gap=     0.399 Goal=   None    Shift=    0.000
 RMSDP=2.44D-07 MaxDP=1.34D-06 DE=-5.23D-11 OVMax= 0.00D+00

 Cycle   8  Pass 1  IDiag  1:
 E= -593.096020626861     Delta-E=       -0.000000000002 Rises=F Damp=F
 DIIS: error= 5.59D-08 at cycle   8 NSaved=   8.
 NSaved= 8 IEnMin= 8 EnMin= -593.096020626861     IErMin= 8 ErrMin= 5.59D-08
 ErrMax= 5.59D-08  0.00D+00 EMaxC= 1.00D-01 BMatC= 3.06D-14 BMatP= 5.73D-13
 IDIUse=1 WtCom= 1.00D+00 WtEn= 0.00D+00
 Coeff-Com: -0.116D-05-0.717D-05 0.249D-03 0.249D-03-0.148D-02 0.754D-01
 Coeff-Com: -0.735D+00 0.166D+01
 Coeff:     -0.116D-05-0.717D-05 0.249D-03 0.249D-03-0.148D-02 0.754D-01
 Coeff:     -0.735D+00 0.166D+01
 Gap=     0.399 Goal=   None    Shift=    0.000
 RMSDP=1.17D-07 MaxDP=6.16D-07 DE=-1.59D-12 OVMax= 0.00D+00

 Cycle   9  Pass 1  IDiag  1:
 E= -593.096020626861     Delta-E=        0.000000000000 Rises=F Damp=F
 DIIS: error= 1.37D-09 at cycle   9 NSaved=   9.
 NSaved= 9 IEnMin= 8 EnMin= -593.096020626861     IErMin= 9 ErrMin= 1.37D-09
 ErrMax= 1.37D-09  0.00D+00 EMaxC= 1.00D-01 BMatC= 2.71D-17 BMatP= 3.06D-14
 IDIUse=1 WtCom= 1.00D+00 WtEn= 0.00D+00
 Coeff-Com:  0.406D-07 0.473D-06-0.892D-05-0.617D-05 0.470D-04-0.218D-02
 Coeff-Com:  0.219D-01-0.772D-01 0.106D+01
 Coeff:      0.406D-07 0.473D-06-0.892D-05-0.617D-05 0.470D-04-0.218D-02
 Coeff:      0.219D-01-0.772D-01 0.106D+01
 Gap=     0.399 Goal=   None    Shift=    0.000
 RMSDP=3.26D-09 MaxDP=1.78D-08 DE= 0.00D+00 OVMax= 0.00D+00

 SCF Done:  E(RHF) =  -593.096020627     A.U. after    9 cycles
            NFock=  9  Conv=0.33D-08     -V/T= 1.9975
 KE= 5.946120815486D+02 PE=-1.430192066382D+03 EE= 2.324295971986D+02
 Leave Link  502 at Mon Mar 28 14:29:58 2022, MaxMem=  9663676416 cpu:               4.1 elap:               0.2
 (Enter /nopt/nrel/apps/gaussian/g16C_1/g16/l801.exe)
 Windowed orbitals will be sorted by symmetry type.
 ExpMin= 8.21D-02 ExpMax= 7.72D+02 ExpMxC= 7.72D+02 IAcc=3 IRadAn=         5 AccDes= 0.00D+00
 HarFok:  IExCor=  205 AccDes= 0.00D+00 IRadAn=         5 IDoV=-2 UseB2=F ITyADJ=14
 ICtDFT= 12500011 ScaDFX=  1.000000  1.000000  1.000000  1.000000
 Largest valence mixing into a core orbital is  4.52D-02
 Largest core mixing into a valence orbital is  4.88D-03
 Range of M.O.s used for correlation:    10    14
 NBasis=    14 NAE=    10 NBE=    10 NFC=     9 NFV=     0
 NROrb=      5 NOA=     1 NOB=     1 NVA=     4 NVB=     4
 Leave Link  801 at Mon Mar 28 14:29:59 2022, MaxMem=  9663676416 cpu:               2.7 elap:               0.1
 (Enter /nopt/nrel/apps/gaussian/g16C_1/g16/l804.exe)
 Closed-shell transformation, MDV=  9663676416 ITran=4 ISComp=2.
 Unit  1 TFree=          8174 TCopy=        219116.
 Semi-Direct transformation.
 ModeAB=           2 MOrb=             1 LenV=    9663555700
 LASXX=           12 LTotXX=          12 LenRXX=          12
 LTotAB=          28 MaxLAS=         525 LenRXY=         525
 NonZer=         615 LenScr=      785920 LnRSAI=           0
 LnScr1=           0 LExtra=      220081 Total=      1006538
 MaxDsk= 34359738368 SrtSym=           F ITran=            4
 DoSDTr:  NPSUse= 36
 JobTyp=0 Pass  1:  I=   1 to   1.
 (rs|ai) integrals will be sorted in core.
 Complete sort for first half transformation.
 First half transformation complete.
 Complete sort for second half transformation.
 Second half transformation complete.
 Spin components of T(2) and E(2):
     alpha-alpha T2 =       0.0000000000D+00 E2=      0.0000000000D+00
     alpha-beta  T2 =       0.1385541033D-01 E2=     -0.1248725321D-01
     beta-beta   T2 =       0.0000000000D+00 E2=      0.0000000000D+00
 ANorm=    0.1006903873D+01
 E2 =    -0.1248725321D-01 EUMP2 =    -0.59310850788007D+03
 Leave Link  804 at Mon Mar 28 14:29:59 2022, MaxMem=  9663676416 cpu:               1.3 elap:               0.1
 (Enter /nopt/nrel/apps/gaussian/g16C_1/g16/l913.exe)
 CIDS:  MDV=  9663676416.
 Frozen-core window:  NFC=   9 NFV=   0.
 IFCWin=0 IBDFC=1 NFBD=     0     0 NFCmp=     0     0 NFFFC=     0     0
 Using DD3R+UMP44R for 1st iteration.
 Using DD4RQ for 2nd and later iterations.
 Keep R2 and R3 ints in memory in symmetry-blocked form, NReq=7219192.
 FoFCou: FMM=F IPFlag=           0 FMFlag=           0 FMFlg1=           0
         NFxFlg=           0 DoJE=F BraDBF=F KetDBF=F FulRan=T
         wScrn=  0.000000 ICntrl=       600 IOpCl=  0 I1Cent=           0 NGrid=           0
         NMat0=    1 NMatS0=    105 NMatT0=    0 NMatD0=    1 NMtDS0=    0 NMtDT0=    0
 Petite list used in FoFCou.
 CIDS: In Core Option IDoMem=           1.
 Coupled Cluster theory with single and double substitutions
 ===========================================================
 Iterations= 200 Convergence= 0.100D-06
 Produce multiple copies of IABC intergrals
 Iteration Nr.   1
 **********************
 DD1Dir will call FoFMem   1 times, MxPair=         2
 NAB=     1 NAA=     0 NBB=     0.
 MP4(R+Q)=  0.17301602D-03
 Maximum subspace dimension=  5
 A-vector RMS=  2.2486045D-02 Max=  2.5268860D-02 conv= 1.00D-05.
 RLE energy=       -0.0201373636
 E3=       -0.49215890D-02        EUMP3=      -0.59311342947D+03
 E4(DQ)=   -0.17994026D-02        UMP4(DQ)=   -0.59311522887D+03
 E4(SDQ)=  -0.19076189D-02        UMP4(SDQ)=  -0.59311533709D+03
 VARIATIONAL ENERGIES WITH THE FIRST-ORDER WAVEFUNCTION:
 DE(Corr)= -0.17231118E-01 E(Corr)=     -593.11325174    
 NORM(A)=   0.10183378D+01
 Iteration Nr.   2
 **********************
 DD1Dir will call FoFMem   1 times, MxPair=         2
 NAB=     1 NAA=     0 NBB=     0.
 A-vector RMS=  8.4132724D-03 Max=  6.4525451D-03 conv= 1.00D-05.
 RLE energy=       -0.0203031500
 DE(Corr)= -0.20193202E-01 E(CORR)=     -593.11621383     Delta=-2.96D-03
 NORM(A)=   0.10194684D+01
 Iteration Nr.   3
 **********************
 DD1Dir will call FoFMem   1 times, MxPair=         2
 NAB=     1 NAA=     0 NBB=     0.
 A-vector RMS=  8.0639228D-04 Max=  2.0346652D-03 conv= 1.00D-05.
 RLE energy=       -0.0207020134
 DE(Corr)= -0.20424545E-01 E(CORR)=     -593.11644517     Delta=-2.31D-04
 NORM(A)=   0.10203713D+01
 Iteration Nr.   4
 **********************
 DD1Dir will call FoFMem   1 times, MxPair=         2
 NAB=     1 NAA=     0 NBB=     0.
 A-vector RMS=  3.5074503D-04 Max=  6.7702332D-04 conv= 1.00D-05.
 RLE energy=       -0.0204593670
 DE(Corr)= -0.20589844E-01 E(CORR)=     -593.11661047     Delta=-1.65D-04
 NORM(A)=   0.10198897D+01
 Iteration Nr.   5
 **********************
 DD1Dir will call FoFMem   1 times, MxPair=         2
 NAB=     1 NAA=     0 NBB=     0.
 A-vector RMS=  1.4308543D-04 Max=  2.0192945D-04 conv= 1.00D-05.
 RLE energy=       -0.0205101361
 DE(Corr)= -0.20499473E-01 E(CORR)=     -593.11652010     Delta= 9.04D-05
 NORM(A)=   0.10199904D+01
 Iteration Nr.   6
 **********************
 DD1Dir will call FoFMem   1 times, MxPair=         2
 NAB=     1 NAA=     0 NBB=     0.
 A-vector RMS=  3.8387631D-05 Max=  5.3843092D-05 conv= 1.00D-05.
 RLE energy=       -0.0205210662
 DE(Corr)= -0.20519110E-01 E(CORR)=     -593.11653974     Delta=-1.96D-05
 NORM(A)=   0.10200090D+01
 Iteration Nr.   7
 **********************
 DD1Dir will call FoFMem   1 times, MxPair=         2
 NAB=     1 NAA=     0 NBB=     0.
 A-vector RMS=  1.0108470D-05 Max=  8.9598070D-06 conv= 1.00D-05.
 RLE energy=       -0.0205235923
 DE(Corr)= -0.20522691E-01 E(CORR)=     -593.11654332     Delta=-3.58D-06
 NORM(A)=   0.10200148D+01
 Iteration Nr.   8
 **********************
 DD1Dir will call FoFMem   1 times, MxPair=         2
 NAB=     1 NAA=     0 NBB=     0.
 A-vector RMS=  9.0762375D-07 Max=  8.2305893D-07 conv= 1.00D-05.
 RLE energy=       -0.0205238695
 DE(Corr)= -0.20523750E-01 E(CORR)=     -593.11654438     Delta=-1.06D-06
 NORM(A)=   0.10200154D+01
 Iteration Nr.   9
 **********************
 DD1Dir will call FoFMem   1 times, MxPair=         2
 NAB=     1 NAA=     0 NBB=     0.
 A-vector RMS=  7.2882184D-08 Max=  4.7186899D-08 conv= 1.00D-05.
 RLE energy=       -0.0205238637
 DE(Corr)= -0.20523866E-01 E(CORR)=     -593.11654449     Delta=-1.16D-07
 NORM(A)=   0.10200154D+01
 Iteration Nr.  10
 **********************
 DD1Dir will call FoFMem   1 times, MxPair=         2
 NAB=     1 NAA=     0 NBB=     0.
 A-vector RMS=  6.0782968D-09 Max=  6.2092232D-09 conv= 1.00D-05.
 RLE energy=       -0.0205238636
 DE(Corr)= -0.20523864E-01 E(CORR)=     -593.11654449     Delta= 2.38D-09
 NORM(A)=   0.10200154D+01
 CI/CC converged in   10 iterations to DelEn= 2.38D-09 Conv= 1.00D-07 ErrA1= 6.08D-09 Conv= 1.00D-05
 Wavefunction amplitudes converged. E(Corr)=     -593.11654449    
 Dominant configurations:
 ***********************
 Spin Case        I    J    A    B          Value
   ABAB          10   10   11   11      -0.114552D+00
 Largest amplitude= 1.15D-01
 Discarding MO integrals.
 Leave Link  913 at Mon Mar 28 14:29:59 2022, MaxMem=  9663676416 cpu:               4.2 elap:               0.1
 (Enter /nopt/nrel/apps/gaussian/g16C_1/g16/l601.exe)
 Copying SCF densities to generalized density rwf, IOpCl= 0 IROHF=0.

 **********************************************************************

            Population analysis using the SCF Density.

 **********************************************************************

 Orbital symmetries:
       Occupied  (SG) (SG) (SG) (PI) (PI) (SG) (SG) (PI) (PI) (SG)
       Virtual   (SG) (PI) (PI) (SG)
 The electronic state is 1-SG.
 Alpha  occ. eigenvalues -- -132.02866 -14.26326 -11.36803 -11.35821 -11.35821
 Alpha  occ. eigenvalues --   -1.81723  -1.11433  -0.95973  -0.95973  -0.13301
 Alpha virt. eigenvalues --    0.26628   0.30634   0.30634   0.46789
          Condensed to atoms (all electrons):
               1          2
     1  H    0.473755   0.325667
     2  K    0.325667  18.874911
 Mulliken charges:
               1
     1  H    0.200578
     2  K   -0.200578
 Sum of Mulliken charges =  -0.00000
 Mulliken charges with hydrogens summed into heavy atoms:
               1
     2  K   -0.000000
 N-N= 1.005436700748D+01 E-N=-1.430192066443D+03  KE= 5.946120815486D+02
 Symmetry A1   KE= 4.771623689941D+02
 Symmetry A2   KE= 0.000000000000D+00
 Symmetry B1   KE= 5.872485627727D+01
 Symmetry B2   KE= 5.872485627727D+01

 Atomic contributions to Alpha molecular orbitals:
 Alpha occ 1 OE=-132.029 is K2-s=1.0000
 Alpha occ 2 OE=-14.263 is K2-s=1.0012
 Alpha occ 3 OE=-11.368 is K2-p=1.0004
 Alpha occ 4 OE=-11.358 is K2-p=1.0000
 Alpha occ 5 OE=-11.358 is K2-p=1.0000
 Alpha occ 6 OE=-1.817 is K2-s=0.9030
 Alpha occ 7 OE=-1.114 is K2-p=0.7536 H1-s=0.1890
 Alpha occ 8 OE=-0.960 is K2-p=1.0000
 Alpha occ 9 OE=-0.960 is K2-p=1.0000
 Alpha occ 10 OE=-0.133 is K2-s=0.8127 H1-s=0.1301
 Alpha vir 11 OE=0.266 is K2-p=0.9541
 Alpha vir 12 OE=0.306 is K2-p=1.0000
 Alpha vir 13 OE=0.306 is K2-p=1.0000
 Alpha vir 14 OE=0.468 is H1-s=0.6148 K2-p=0.2198 K2-s=0.1654
 
 Leave Link  601 at Mon Mar 28 14:29:59 2022, MaxMem=  9663676416 cpu:               3.2 elap:               0.1
 (Enter /nopt/nrel/apps/gaussian/g16C_1/g16/l9999.exe)

 Test job not archived.
 1\1\GINC-R102U34\SP\RCCSD-FC\Gen\H1K1\USER\28-Mar-2022\0\\#P CCSD(
 MaxCyc=200,SaveAmplitudes,ReadAmplitudes)/GEN sp pop=AllOrbitals iop(3
 /33=1,3/36=-1)\\test\\0,1\H,0,0.,0.,0.\K,0,0.,0.,1.\\Version=ES64L-G16
 RevC.01\State=1-SG\HF=-593.0960206\MP2=-593.1085079\MP3=-593.1134295\M
 P4D=-593.1154019\MP4DQ=-593.1152289\MP4SDQ=-593.1153371\CCSD=-593.1165
 445\RMSD=3.259e-09\PG=C*V [C*(H1K1)]\\@


 KNOWLEDGE IS EXPERIMENT'S DAUGHTER.
 -- LEONARDO DA VINCI, IN "PENSIERI" CA. 1492
 Job cpu time:       0 days  0 hours  0 minutes 35.3 seconds.
 Elapsed time:       0 days  0 hours  0 minutes  1.4 seconds.
 File lengths (MBytes):  RWF=     13 Int=      0 D2E=      0 Chk=      1 Scr=      1
 Normal termination of Gaussian 16 at Mon Mar 28 14:29:59 2022.
