 Entering Gaussian System, Link 0=g16
 Initial command:
 /nopt/nrel/apps/gaussian/g16C_1/g16/l1.exe "/lustre/eaglefs/scratch/user/qc/kh-dissc/kh-1-ccsd-1.2-631g/Gau-16374.inp" -scrdir="/lustre/eaglefs/scratch/user/qc/kh-dissc/kh-1-ccsd-1.2-631g/"
 Default is to use a total of  36 processors:
                               36 via shared-memory
                                1 via Linda
 Entering Link 1 = /nopt/nrel/apps/gaussian/g16C_1/g16/l1.exe PID=     16375.
  
 Copyright (c) 1988-2019, Gaussian, Inc.  All Rights Reserved.
  
 This is part of the Gaussian(R) 16 program.  It is based on
 the Gaussian(R) 09 system (copyright 2009, Gaussian, Inc.),
 the Gaussian(R) 03 system (copyright 2003, Gaussian, Inc.),
 the Gaussian(R) 98 system (copyright 1998, Gaussian, Inc.),
 the Gaussian(R) 94 system (copyright 1995, Gaussian, Inc.),
 the Gaussian 92(TM) system (copyright 1992, Gaussian, Inc.),
 the Gaussian 90(TM) system (copyright 1990, Gaussian, Inc.),
 the Gaussian 88(TM) system (copyright 1988, Gaussian, Inc.),
 the Gaussian 86(TM) system (copyright 1986, Carnegie Mellon
 University), and the Gaussian 82(TM) system (copyright 1983,
 Carnegie Mellon University). Gaussian is a federally registered
 trademark of Gaussian, Inc.
  
 This software contains proprietary and confidential information,
 including trade secrets, belonging to Gaussian, Inc.
  
 This software is provided under written license and may be
 used, copied, transmitted, or stored only in accord with that
 written license.
  
 The following legend is applicable only to US Government
 contracts under FAR:
  
                    RESTRICTED RIGHTS LEGEND
  
 Use, reproduction and disclosure by the US Government is
 subject to restrictions as set forth in subparagraphs (a)
 and (c) of the Commercial Computer Software - Restricted
 Rights clause in FAR 52.227-19.
  
 Gaussian, Inc.
 340 Quinnipiac St., Bldg. 40, Wallingford CT 06492
  
  
 ---------------------------------------------------------------
 Warning -- This program may not be used in any manner that
 competes with the business of Gaussian, Inc. or will provide
 assistance to any competitor of Gaussian, Inc.  The licensee
 of this program is prohibited from giving any competitor of
 Gaussian, Inc. access to this program.  By using this program,
 the user acknowledges that Gaussian, Inc. is engaged in the
 business of creating and licensing software in the field of
 computational chemistry and represents and warrants to the
 licensee that it is not a competitor of Gaussian, Inc. and that
 it will not use this program in any manner prohibited above.
 ---------------------------------------------------------------
  

 Cite this work as:
 Gaussian 16, Revision C.01,
 M. J. Frisch, G. W. Trucks, H. B. Schlegel, G. E. Scuseria, 
 M. A. Robb, J. R. Cheeseman, G. Scalmani, V. Barone, 
 G. A. Petersson, H. Nakatsuji, X. Li, M. Caricato, A. V. Marenich, 
 J. Bloino, B. G. Janesko, R. Gomperts, B. Mennucci, H. P. Hratchian, 
 J. V. Ortiz, A. F. Izmaylov, J. L. Sonnenberg, D. Williams-Young, 
 F. Ding, F. Lipparini, F. Egidi, J. Goings, B. Peng, A. Petrone, 
 T. Henderson, D. Ranasinghe, V. G. Zakrzewski, J. Gao, N. Rega, 
 G. Zheng, W. Liang, M. Hada, M. Ehara, K. Toyota, R. Fukuda, 
 J. Hasegawa, M. Ishida, T. Nakajima, Y. Honda, O. Kitao, H. Nakai, 
 T. Vreven, K. Throssell, J. A. Montgomery, Jr., J. E. Peralta, 
 F. Ogliaro, M. J. Bearpark, J. J. Heyd, E. N. Brothers, K. N. Kudin, 
 V. N. Staroverov, T. A. Keith, R. Kobayashi, J. Normand, 
 K. Raghavachari, A. P. Rendell, J. C. Burant, S. S. Iyengar, 
 J. Tomasi, M. Cossi, J. M. Millam, M. Klene, C. Adamo, R. Cammi, 
 J. W. Ochterski, R. L. Martin, K. Morokuma, O. Farkas, 
 J. B. Foresman, and D. J. Fox, Gaussian, Inc., Wallingford CT, 2019.
 
 ******************************************
 Gaussian 16:  ES64L-G16RevC.01  3-Jul-2019
                28-Mar-2022 
 ******************************************
 %chk=molecule
 Default route: CacheSize=180224 MaxDisk=256GB
 ----------------------------------------------------------------------
 #P CCSD(MaxCyc=200,SaveAmplitudes,ReadAmplitudes)/GEN sp pop=AllOrbita
 ls iop(3/33=1,3/36=-1)
 ----------------------------------------------------------------------
 1/4=180224,38=1,172=1/1;
 2/4=180224,12=2,17=6,18=5,40=1/2;
 3/4=180224,5=7,11=9,25=1,30=1,33=1,36=-1/1,2,3;
 4/4=180224/1;
 5/4=180224,5=2,38=5/2;
 8/4=180224,6=4,9=120000,10=1,24=1/1,4;
 9/4=180224,5=7,6=200,77=1/13;
 6/4=180224,7=2,8=2,9=2,10=2,96=-1/1;
 99/4=180224,5=1,9=1/99;
 Leave Link    1 at Mon Mar 28 14:31:34 2022, MaxMem=           0 cpu:               2.3 elap:               0.1
 (Enter /nopt/nrel/apps/gaussian/g16C_1/g16/l101.exe)
 ----
 test
 ----
 Symbolic Z-matrix:
 Charge =  0 Multiplicity = 1
 H                     0.        0.        0. 
 K                     0.        0.        1.2 
 
 ITRead=  0  0
 MicOpt= -1 -1
 NAtoms=      2 NQM=        2 NQMF=       0 NMMI=      0 NMMIF=      0
                NMic=       0 NMicF=      0.
                    Isotopes and Nuclear Properties:
 (Nuclear quadrupole moments (NQMom) in fm**2, nuclear magnetic moments (NMagM)
  in nuclear magnetons)

  Atom         1           2
 IAtWgt=           1          39
 AtmWgt=   1.0078250  38.9637079
 NucSpn=           1           3
 AtZEff=  -0.0000000  -0.0000000
 NQMom=    0.0000000   5.8500000
 NMagM=    2.7928460   0.3914660
 AtZNuc=   1.0000000  19.0000000
 Leave Link  101 at Mon Mar 28 14:31:34 2022, MaxMem=  9663676416 cpu:               3.0 elap:               0.1
 (Enter /nopt/nrel/apps/gaussian/g16C_1/g16/l202.exe)
                          Input orientation:                          
 ---------------------------------------------------------------------
 Center     Atomic      Atomic             Coordinates (Angstroms)
 Number     Number       Type             X           Y           Z
 ---------------------------------------------------------------------
      1          1           0        0.000000    0.000000    0.000000
      2         19           0        0.000000    0.000000    1.200000
 ---------------------------------------------------------------------
 Stoichiometry    HK
 Framework group  C*V[C*(HK)]
 Deg. of freedom     1
 Full point group                 C*V     NOp   4
 Largest Abelian subgroup         C2V     NOp   4
 Largest concise Abelian subgroup C1      NOp   1
                         Standard orientation:                         
 ---------------------------------------------------------------------
 Center     Atomic      Atomic             Coordinates (Angstroms)
 Number     Number       Type             X           Y           Z
 ---------------------------------------------------------------------
      1          1           0        0.000000    0.000000   -1.140000
      2         19           0        0.000000    0.000000    0.060000
 ---------------------------------------------------------------------
 Rotational constants (GHZ):           0.0000000         357.2400073         357.2400073
 Leave Link  202 at Mon Mar 28 14:31:34 2022, MaxMem=  9663676416 cpu:               0.9 elap:               0.0
 (Enter /nopt/nrel/apps/gaussian/g16C_1/g16/l301.exe)
 General basis read from cards:  (5D, 7F)
                         Coordinates in L301:                         
 ---------------------------------------------------------------------
 Center     Atomic      Atomic             Coordinates (Angstroms)
 Number     Number       Type             X           Y           Z
 ---------------------------------------------------------------------
      1          1           0        0.000000    0.000000   -1.140000
      2         19           0        0.000000    0.000000    0.060000
 ---------------------------------------------------------------------
 Centers:       1
 STO-3G
 ****
 Centers:       2
 6-31G
 ****
 FixB: optimizing general contractions.
 Ernie: Thresh=  0.10000D-02 Tol=  0.10000D-05 Strict=F.
 IA=     1 ShT= 0 ShC= 0 NL=   1 NS=   0.
 IA=     1 L=0 SC=0 ISt=    0 NBk=    0 NP=    0 IndPr=    0.
 IA=     2 ShT= 0 ShC= 0 NL=   1 NS=   0.
 IA=     2 L=0 SC=0 ISt=    0 NBk=    0 NP=    0 IndPr=    0.
 IA=     2 ShT= 1 ShC= 0 NL=   4 NS=   1.
 IA=     2 L=1 SC=0 ISt=    1 NBk=    3 NP=   15 IndPr=    0.
 DoElim1:  L=1 select primitive    1 from    2 using    1 C=-2.50D-03
 DoElim1:  L=1 select primitive    1 from    3 using    1 C=-2.50D-03
 DoElim1:  L=1 select primitive    5 from    3 using    2 C= 1.28D-02
 DoElim2:  L=1 select primitive   15 from    2 using    3 C= 1.14D+00
 DoElim2:  L=1 select primitive   15 from    1 using    3 C= 1.14D+00
 DoElim2:  L=1 select primitive   10 from    1 using    2 C=-5.59D-01
 DoElim1:  L=1 select primitive    1 from    2 using    1 C= 4.09D-03
 DoElim1:  L=1 select primitive    1 from    3 using    1 C= 4.09D-03
 DoElim1:  L=1 select primitive    5 from    3 using    2 C=-1.22D-02
 DoElim2:  L=1 select primitive   15 from    2 using    3 C= 1.01D+00
 DoElim2:  L=1 select primitive   15 from    1 using    3 C= 1.01D+00
 DoElim2:  L=1 select primitive   10 from    1 using    2 C= 4.28D-01
 Delete L=1 primitive   14 from    3 C=  0.00D+00.
 Delete L=1 primitive   12 from    3 C=  0.00D+00.
 Delete L=1 primitive   10 from    3 C=  0.00D+00.
 Delete L=1 primitive    9 from    3 C=  0.00D+00.
 Delete L=1 primitive    8 from    3 C=  0.00D+00.
 Delete L=1 primitive    7 from    3 C=  0.00D+00.
 Delete L=1 primitive    6 from    3 C=  0.00D+00.
 Delete L=1 primitive    5 from    3 C=  0.00D+00.
 Delete L=1 primitive    4 from    3 C=  0.00D+00.
 Delete L=1 primitive    3 from    3 C=  0.00D+00.
 Delete L=1 primitive    2 from    3 C=  0.00D+00.
 Delete L=1 primitive    1 from    3 C=  0.00D+00.
 Delete L=1 primitive   15 from    2 C=  0.00D+00.
 Delete L=1 primitive   13 from    2 C=  0.00D+00.
 Delete L=1 primitive   11 from    2 C=  0.00D+00.
 Delete L=1 primitive    8 from    2 C=  0.00D+00.
 Delete L=1 primitive    6 from    2 C=  0.00D+00.
 Delete L=1 primitive    4 from    2 C=  0.00D+00.
 Delete L=1 primitive    3 from    2 C=  0.00D+00.
 Delete L=1 primitive    2 from    2 C=  0.00D+00.
 Delete L=1 primitive    1 from    2 C=  0.00D+00.
 Delete L=1 primitive   15 from    1 C=  0.00D+00.
 Delete L=1 primitive   14 from    1 C=  0.00D+00.
 Delete L=1 primitive   13 from    1 C=  0.00D+00.
 Delete L=1 primitive   12 from    1 C=  0.00D+00.
 Delete L=1 primitive   11 from    1 C=  0.00D+00.
 Delete L=1 primitive   10 from    1 C=  0.00D+00.
 Delete L=1 primitive    9 from    1 C=  0.00D+00.
 Delete L=1 primitive    7 from    1 C=  0.00D+00.
 Delete L=1 primitive    5 from    1 C=  0.00D+00.
 IA=     2 L=1 SC=0 ISt=    0 NBk=    0 NP=    0 IndPr=   15.
 LdAtmC:  AtmChg=     1.000000    19.000000
 AtZEff=     -1.0000000    -22.4200000
 NEqShl: 
              1            2            3            4
     1            1            1            1            1
     2            2            2            2            2
     3            3            3            3            3
     4            4            4            4            4
     5            5            5            5            5
     6            6            6            6            6
 NEqBas: 
              1            2            3            4
     1            1            1            1            1
     2            2            2            2            2
     3            3            3            3            3
     4            4           -4           -4            4
     5            5           -5            5           -5
     6            6            6            6            6
     7            7            7            7            7
     8            8           -8           -8            8
     9            9           -9            9           -9
    10           10           10           10           10
    11           11           11           11           11
    12           12          -12          -12           12
    13           13          -13           13          -13
    14           14           14           14           14
    15           15           15           15           15
    16           16          -16          -16           16
    17           17          -17           17          -17
    18           18           18           18           18
 There are    10 symmetry adapted cartesian basis functions of A1  symmetry.
   1         1   1   1   1
   2         2   2   2   2
   3         3   3   3   3
   4         6   6   6   6
   5         7   7   7   7
   6        10  10  10  10
   7        11  11  11  11
   8        14  14  14  14
   9        15  15  15  15
  10        18  18  18  18
 There are     0 symmetry adapted cartesian basis functions of A2  symmetry.
 There are     4 symmetry adapted cartesian basis functions of B1  symmetry.
  11         4   4   4   4
  12         8   8   8   8
  13        12  12  12  12
  14        16  16  16  16
 There are     4 symmetry adapted cartesian basis functions of B2  symmetry.
  15         5   5   5   5
  16         9   9   9   9
  17        13  13  13  13
  18        17  17  17  17
 Order= 1 2 4 3
 Reordered character table:
              1            2            3            4            5
     1            1            1            1            1            1
     2            2            1            1           -1           -1
     3            4            1           -1           -1            1
     4            3            1           -1            1           -1
 NEqShl: 
              1            2            3            4
     1            1            1            1            1
     2            2            2            2            2
     3            3            3            3            3
     4            4            4            4            4
     5            5            5            5            5
     6            6            6            6            6
 NEqBas: 
              1            2            3            4
     1            1            1            1            1
     2            2            2            2            2
     3            3            3            3            3
     4            4           -4           -4            4
     5            5           -5            5           -5
     6            6            6            6            6
     7            7            7            7            7
     8            8           -8           -8            8
     9            9           -9            9           -9
    10           10           10           10           10
    11           11           11           11           11
    12           12          -12          -12           12
    13           13          -13           13          -13
    14           14           14           14           14
    15           15           15           15           15
    16           16          -16          -16           16
    17           17          -17           17          -17
    18           18           18           18           18
 There are    10 symmetry adapted basis functions of A1  symmetry.
   1         1   1   1   1
   2         2   2   2   2
   3         3   3   3   3
   4         6   6   6   6
   5         7   7   7   7
   6        10  10  10  10
   7        11  11  11  11
   8        14  14  14  14
   9        15  15  15  15
  10        18  18  18  18
 There are     0 symmetry adapted basis functions of A2  symmetry.
 There are     4 symmetry adapted basis functions of B1  symmetry.
  11         4   4   4   4
  12         8   8   8   8
  13        12  12  12  12
  14        16  16  16  16
 There are     4 symmetry adapted basis functions of B2  symmetry.
  15         5   5   5   5
  16         9   9   9   9
  17        13  13  13  13
  18        17  17  17  17
 Order= 1 2 4 3
 Reordered character table:
              1            2            3            4            5
     1            1            1            1            1            1
     2            2            1            1           -1           -1
     3            4            1           -1           -1            1
     4            3            1           -1            1           -1
    18 basis functions,    73 primitive gaussians,    18 cartesian basis functions
    10 alpha electrons       10 beta electrons
       nuclear repulsion energy         8.3786391729 Hartrees.
 IS=     1 IAt=     1 ISR=     1 T=0 IP=      1 IndIP=      1 IndIPD=      0 C=  2.769344D-01  0.000000D+00                             NZ=T
 IS=     1 IAt=     1 ISR=     1 T=0 IP=      2 IndIP=      2 IndIPD=      1 C=  2.678389D-01  0.000000D+00                             NZ=T
 IS=     1 IAt=     1 ISR=     1 T=0 IP=      3 IndIP=      3 IndIPD=      2 C=  8.347367D-02  0.000000D+00                             NZ=T
 IS=     2 IAt=     2 ISR=     1 T=0 IP=      1 IndIP=      4 IndIPD=      0 C=  3.087425D+00  0.000000D+00                             NZ=T
 IS=     2 IAt=     2 ISR=     1 T=0 IP=      2 IndIP=      5 IndIPD=      1 C=  5.701433D+00  0.000000D+00                             NZ=T
 IS=     2 IAt=     2 ISR=     1 T=0 IP=      3 IndIP=      6 IndIPD=      2 C=  9.250015D+00  0.000000D+00                             NZ=T
 IS=     2 IAt=     2 ISR=     1 T=0 IP=      4 IndIP=      7 IndIPD=      3 C=  1.230326D+01  0.000000D+00                             NZ=T
 IS=     2 IAt=     2 ISR=     1 T=0 IP=      5 IndIP=      8 IndIPD=      4 C=  1.065796D+01  0.000000D+00                             NZ=T
 IS=     2 IAt=     2 ISR=     1 T=0 IP=      6 IndIP=      9 IndIPD=      5 C=  3.342971D+00  0.000000D+00                             NZ=T
 IS=     3 IAt=     2 ISR=     2 T=1 IP=      1 IndIP=     10 IndIPD=      0 C= -2.223866D-01  1.815760D+01                             NZ=T
 IS=     3 IAt=     2 ISR=     2 T=1 IP=      2 IndIP=     11 IndIPD=      1 C= -1.002089D+00  2.312008D+01                             NZ=T
 IS=     3 IAt=     2 ISR=     2 T=1 IP=      3 IndIP=     12 IndIPD=      2 C= -1.577145D+00  2.391470D+01                             NZ=T
 IS=     3 IAt=     2 ISR=     2 T=1 IP=      4 IndIP=     13 IndIPD=      3 C=  3.266752D-01  1.731669D+01                             NZ=T
 IS=     3 IAt=     2 ISR=     2 T=1 IP=      5 IndIP=     14 IndIPD=      4 C=  1.883992D+00  7.409963D+00                             NZ=T
 IS=     3 IAt=     2 ISR=     2 T=1 IP=      6 IndIP=     15 IndIPD=      5 C=  6.647292D-01  1.141461D+00                             NZ=T
 IS=     4 IAt=     2 ISR=     3 T=1 IP=      1 IndIP=     16 IndIPD=      0 C=  5.815266D-02 -3.826900D-01                             NZ=T
 IS=     4 IAt=     2 ISR=     3 T=1 IP=      2 IndIP=     17 IndIPD=      1 C=  4.293450D-01 -5.702211D-02                             NZ=T
 IS=     4 IAt=     2 ISR=     3 T=1 IP=      3 IndIP=     18 IndIPD=      2 C= -3.375882D-03  5.815028D-01                             NZ=T
 IS=     4 IAt=     2 ISR=     3 T=1 IP=      4 IndIP=     19 IndIPD=      3 C= -3.337346D-01  4.537484D-01                             NZ=T
 IS=     4 IAt=     2 ISR=     3 T=1 IP=      5 IndIP=     20 IndIPD=      4 C= -1.666638D-01  1.525572D-01                             NZ=T
 IS=     4 IAt=     2 ISR=     3 T=1 IP=      6 IndIP=     21 IndIPD=      5 C= -1.112643D-02  1.425313D-02                             NZ=T
 IS=     5 IAt=     2 ISR=     4 T=1 IP=      1 IndIP=     22 IndIPD=      0 C= -2.908072D-02  2.974856D-02                             NZ=T
 IS=     5 IAt=     2 ISR=     4 T=1 IP=      2 IndIP=     23 IndIPD=      1 C= -6.704811D-02 -9.373500D-03                             NZ=T
 IS=     5 IAt=     2 ISR=     4 T=1 IP=      3 IndIP=     24 IndIPD=      2 C=  7.095388D-02  2.474121D-02                             NZ=T
 IS=     6 IAt=     2 ISR=     5 T=1 IP=      1 IndIP=     25 IndIPD=      0 C=  3.284259D-02  8.442781D-03                             NZ=T
 IExCor=    0 DFT=F Ex=HF Corr=None ExCW=0 ScaHFX=  1.000000
 ScaDFX=  1.000000  1.000000  1.000000  1.000000 ScalE2=  1.000000  1.000000
 IRadAn=      5 IRanWt=     -1 IRanGd=            0 ICorTp=0 IEmpDi=  4
 NAtoms=    2 NActive=    2 NUniq=    2 SFac= 1.00D+00 NAtFMM=   60 NAOKFM=F Big=F
 Integral buffers will be    131072 words long.
 Raffenetti 1 integral format.
 Two-electron integral symmetry is turned on.
 Leave Link  301 at Mon Mar 28 14:31:34 2022, MaxMem=  9663676416 cpu:               2.2 elap:               0.1
 (Enter /nopt/nrel/apps/gaussian/g16C_1/g16/l302.exe)
 NPDir=0 NMtPBC=     1 NCelOv=     1 NCel=       1 NClECP=     1 NCelD=      1
         NCelK=      1 NCelE2=     1 NClLst=     1 CellRange=     0.0.
 One-electron integrals computed using PRISM.
 One-electron integral symmetry used in STVInt
 Entering OneElI...
 Calculate overlap and kinetic energy integrals
    NBasis =  18  MinDer = 0  MaxDer = 0
 Requested accuracy = 0.1000D-12
 Symmetry will be used
 PrmmSu-InSpLW:  IPartL=    0 NPrtUS=   36 NPrtUL=    1 DoSpLW=F IThBeg=    0 IThEnd=   35 NThAct=   36.
 PrSmSu:  IncTry=   512 NBBP=             21 NTPThr=   100 NPartT=   36 Incr=           1 LDynOK=F GPUOK=F.
 PrsmSu:  NPrtUS=  36 ThrOK=T IAlg=1 LenDen=           0 ISkipM=0 DoSpLW=F IThBeg=    0 IThEnd=   35.
 Prism:   IPart=     0 DynPar=F LinDyn=F Incr=           1.
 PRISM was handed   268430758 working-precision words and    21 shell-pairs
 PRISM was handed   268430758 working-precision words and    21 shell-pairs
 PRISM was handed   268430758 working-precision words and    21 shell-pairs
 PRISM was handed   268430758 working-precision words and    21 shell-pairs
 PRISM was handed   268430758 working-precision words and    21 shell-pairs
 PRISM was handed   268430758 working-precision words and    21 shell-pairs
 PRISM was handed   268430758 working-precision words and    21 shell-pairs
 PRISM was handed   268430758 working-precision words and    21 shell-pairs
 PRISM was handed   268430758 working-precision words and    21 shell-pairs
 IPart= 24 NShTot=           0 NBatch=           0 AvBLen=         0.0
 IPart= 27 NShTot=           0 NBatch=           0 AvBLen=         0.0
 IPart= 16 NShTot=           0 NBatch=           0 AvBLen=         0.0
 IPart= 26 NShTot=           0 NBatch=           0 AvBLen=         0.0
 IPart= 25 NShTot=           0 NBatch=           0 AvBLen=         0.0
 IPart= 21 NShTot=           0 NBatch=           0 AvBLen=         0.0
 PRISM was handed   268430758 working-precision words and    21 shell-pairs
 IPart= 35 NShTot=           0 NBatch=           0 AvBLen=         0.0
 IPart=  3 NShTot=           0 NBatch=           0 AvBLen=         0.0
 PRISM was handed   268430758 working-precision words and    21 shell-pairs
 PRISM was handed   268430758 working-precision words and    21 shell-pairs
 PRISM was handed   268430758 working-precision words and    21 shell-pairs
 PRISM was handed   268430758 working-precision words and    21 shell-pairs
 PRISM was handed   268430758 working-precision words and    21 shell-pairs
 IPart= 34 NShTot=           0 NBatch=           0 AvBLen=         0.0
 PRISM was handed   268430758 working-precision words and    21 shell-pairs
 PRISM was handed   268430758 working-precision words and    21 shell-pairs
 PRISM was handed   268430758 working-precision words and    21 shell-pairs
 IPart= 29 NShTot=           0 NBatch=           0 AvBLen=         0.0
 IPart=  6 NShTot=           0 NBatch=           0 AvBLen=         0.0
 IPart=  9 NShTot=           0 NBatch=           0 AvBLen=         0.0
 IPart= 22 NShTot=           0 NBatch=           0 AvBLen=         0.0
 PRISM was handed   268430758 working-precision words and    21 shell-pairs
 IPart= 33 NShTot=           0 NBatch=           0 AvBLen=         0.0
 IPart= 28 NShTot=           0 NBatch=           0 AvBLen=         0.0
 PRISM was handed   268430758 working-precision words and    21 shell-pairs
 IPart=  7 NShTot=           0 NBatch=           0 AvBLen=         0.0
 IPart= 11 NShTot=           0 NBatch=           0 AvBLen=         0.0
 IPart= 12 NShTot=           0 NBatch=           0 AvBLen=         0.0
 IPart= 13 NShTot=           0 NBatch=           0 AvBLen=         0.0
 PRISM was handed   268430758 working-precision words and    21 shell-pairs
 PRISM was handed   268430758 working-precision words and    21 shell-pairs
 PRISM was handed   268430758 working-precision words and    21 shell-pairs
 PRISM was handed   268430758 working-precision words and    21 shell-pairs
 PRISM was handed   268430758 working-precision words and    21 shell-pairs
 PRISM was handed   268430758 working-precision words and    21 shell-pairs
 PRISM was handed   268430758 working-precision words and    21 shell-pairs
 IPart= 23 NShTot=           0 NBatch=           0 AvBLen=         0.0
 IPart=  5 NShTot=           0 NBatch=           0 AvBLen=         0.0
 IPart= 18 NShTot=           0 NBatch=           0 AvBLen=         0.0
 PRISM was handed   268430758 working-precision words and    21 shell-pairs
 IPart= 30 NShTot=           0 NBatch=           0 AvBLen=         0.0
 PRISM was handed   268430758 working-precision words and    21 shell-pairs
 IPart=  1 NShTot=           5 NBatch=           5 AvBLen=         1.0
 PRISM was handed   268430758 working-precision words and    21 shell-pairs
 PRISM was handed   268430758 working-precision words and    21 shell-pairs
 PRISM was handed   268430758 working-precision words and    21 shell-pairs
 PRISM was handed   268430758 working-precision words and    21 shell-pairs
 PRISM was handed   268430758 working-precision words and    21 shell-pairs
 PRISM was handed   268430758 working-precision words and    21 shell-pairs
 IPart= 17 NShTot=           0 NBatch=           0 AvBLen=         0.0
 IPart= 10 NShTot=           0 NBatch=           0 AvBLen=         0.0
 PRISM was handed   268430758 working-precision words and    21 shell-pairs
 IPart= 31 NShTot=           0 NBatch=           0 AvBLen=         0.0
 IPart=  2 NShTot=           2 NBatch=           2 AvBLen=         1.0
 IPart=  0 NShTot=          14 NBatch=          14 AvBLen=         1.0
 IPart= 20 NShTot=           0 NBatch=           0 AvBLen=         0.0
 IPart= 32 NShTot=           0 NBatch=           0 AvBLen=         0.0
 IPart= 19 NShTot=           0 NBatch=           0 AvBLen=         0.0
 IPart= 14 NShTot=           0 NBatch=           0 AvBLen=         0.0
 IPart= 15 NShTot=           0 NBatch=           0 AvBLen=         0.0
 IPart=  4 NShTot=           0 NBatch=           0 AvBLen=         0.0
 IPart=  8 NShTot=           0 NBatch=           0 AvBLen=         0.0
 PrSmSu:  NxtVal=             37.
 *** Overlap *** 
                1             2             3             4             5 
      1  0.100000D+01
      2  0.802695D-02  0.100000D+01
      3  0.654463D-01  0.267715D+00  0.100000D+01
      4  0.000000D+00  0.000000D+00  0.000000D+00  0.100000D+01
      5  0.000000D+00  0.000000D+00  0.000000D+00  0.000000D+00  0.100000D+01
      6 -0.263243D-01  0.000000D+00  0.000000D+00  0.000000D+00  0.000000D+00
      7 -0.356486D+00 -0.141866D-01 -0.343708D+00  0.000000D+00  0.000000D+00
      8  0.000000D+00  0.000000D+00  0.000000D+00  0.295021D+00  0.000000D+00
      9  0.000000D+00  0.000000D+00  0.000000D+00  0.000000D+00  0.295021D+00
     10 -0.402964D+00  0.000000D+00  0.000000D+00  0.000000D+00  0.000000D+00
     11  0.329052D+00 -0.420963D-02 -0.188996D-01  0.000000D+00  0.000000D+00
     12  0.000000D+00  0.000000D+00  0.000000D+00  0.163990D-01  0.000000D+00
     13  0.000000D+00  0.000000D+00  0.000000D+00  0.000000D+00  0.163990D-01
     14 -0.309071D+00  0.000000D+00  0.000000D+00  0.000000D+00  0.000000D+00
     15  0.272288D+00  0.572576D-02  0.448310D-01  0.000000D+00  0.000000D+00
     16  0.000000D+00  0.000000D+00  0.000000D+00  0.380126D-02  0.000000D+00
     17  0.000000D+00  0.000000D+00  0.000000D+00  0.000000D+00  0.380126D-02
     18 -0.148189D+00  0.000000D+00  0.000000D+00  0.000000D+00  0.000000D+00
                6             7             8             9            10 
      6  0.100000D+01
      7  0.000000D+00  0.100000D+01
      8  0.000000D+00  0.000000D+00  0.100000D+01
      9  0.000000D+00  0.000000D+00  0.000000D+00  0.100000D+01
     10  0.295021D+00  0.000000D+00  0.000000D+00  0.000000D+00  0.100000D+01
     11  0.000000D+00 -0.172500D+00  0.000000D+00  0.000000D+00  0.000000D+00
     12  0.000000D+00  0.000000D+00  0.234662D+00  0.000000D+00  0.000000D+00
     13  0.000000D+00  0.000000D+00  0.000000D+00  0.234662D+00  0.000000D+00
     14  0.163990D-01  0.000000D+00  0.000000D+00  0.000000D+00  0.234662D+00
     15  0.000000D+00 -0.243058D+00  0.000000D+00  0.000000D+00  0.000000D+00
     16  0.000000D+00  0.000000D+00  0.967693D-01  0.000000D+00  0.000000D+00
     17  0.000000D+00  0.000000D+00  0.000000D+00  0.967693D-01  0.000000D+00
     18  0.380126D-02  0.000000D+00  0.000000D+00  0.000000D+00  0.967693D-01
               11            12            13            14            15 
     11  0.100000D+01
     12  0.000000D+00  0.100000D+01
     13  0.000000D+00  0.000000D+00  0.100000D+01
     14  0.000000D+00  0.000000D+00  0.000000D+00  0.100000D+01
     15  0.894230D+00  0.000000D+00  0.000000D+00  0.000000D+00  0.100000D+01
     16  0.000000D+00  0.807003D+00  0.000000D+00  0.000000D+00  0.000000D+00
     17  0.000000D+00  0.000000D+00  0.807003D+00  0.000000D+00  0.000000D+00
     18  0.000000D+00  0.000000D+00  0.000000D+00  0.807003D+00  0.000000D+00
               16            17            18 
     16  0.100000D+01
     17  0.000000D+00  0.100000D+01
     18  0.000000D+00  0.000000D+00  0.100000D+01
 *** Kinetic Energy *** 
                1             2             3             4             5 
      1  0.760032D+00
      2 -0.266141D-02  0.173384D+03
      3 -0.152584D-01 -0.928634D+01  0.818361D+01
      4  0.000000D+00  0.000000D+00  0.000000D+00  0.275843D+02
      5  0.000000D+00  0.000000D+00  0.000000D+00  0.000000D+00  0.275843D+02
      6 -0.535496D-03  0.000000D+00  0.000000D+00  0.000000D+00  0.000000D+00
      7 -0.484679D-01  0.803816D+00  0.546853D+00  0.000000D+00  0.000000D+00
      8  0.000000D+00  0.000000D+00  0.000000D+00  0.918943D+00  0.000000D+00
      9  0.000000D+00  0.000000D+00  0.000000D+00  0.000000D+00  0.918943D+00
     10 -0.185669D+00  0.000000D+00  0.000000D+00  0.000000D+00  0.000000D+00
     11  0.150227D-01 -0.171808D-01 -0.100476D+00  0.000000D+00  0.000000D+00
     12  0.000000D+00  0.000000D+00  0.000000D+00  0.261790D-01  0.000000D+00
     13  0.000000D+00  0.000000D+00  0.000000D+00  0.000000D+00  0.261790D-01
     14 -0.433027D-01  0.000000D+00  0.000000D+00  0.000000D+00  0.000000D+00
     15  0.119323D-01  0.283688D-03  0.221202D-02  0.000000D+00  0.000000D+00
     16  0.000000D+00  0.000000D+00  0.000000D+00  0.312691D-03  0.000000D+00
     17  0.000000D+00  0.000000D+00  0.000000D+00  0.000000D+00  0.312691D-03
     18 -0.110772D-01  0.000000D+00  0.000000D+00  0.000000D+00  0.000000D+00
                6             7             8             9            10 
      6  0.275843D+02
      7  0.000000D+00  0.837208D+00
      8  0.000000D+00  0.000000D+00  0.154401D+01
      9  0.000000D+00  0.000000D+00  0.000000D+00  0.154401D+01
     10  0.918943D+00  0.000000D+00  0.000000D+00  0.000000D+00  0.154401D+01
     11  0.000000D+00  0.104916D+00  0.000000D+00  0.000000D+00  0.000000D+00
     12  0.000000D+00  0.000000D+00  0.663770D-01  0.000000D+00  0.000000D+00
     13  0.000000D+00  0.000000D+00  0.000000D+00  0.663770D-01  0.000000D+00
     14  0.261790D-01  0.000000D+00  0.000000D+00  0.000000D+00  0.663770D-01
     15  0.000000D+00 -0.115010D-01  0.000000D+00  0.000000D+00  0.000000D+00
     16  0.000000D+00  0.000000D+00  0.753429D-02  0.000000D+00  0.000000D+00
     17  0.000000D+00  0.000000D+00  0.000000D+00  0.753429D-02  0.000000D+00
     18  0.312691D-03  0.000000D+00  0.000000D+00  0.000000D+00  0.753429D-02
               11            12            13            14            15 
     11  0.774479D-01
     12  0.000000D+00  0.962091D-01
     13  0.000000D+00  0.000000D+00  0.962091D-01
     14  0.000000D+00  0.000000D+00  0.000000D+00  0.962091D-01
     15  0.298062D-01  0.000000D+00  0.000000D+00  0.000000D+00  0.247815D-01
     16  0.000000D+00  0.466086D-01  0.000000D+00  0.000000D+00  0.000000D+00
     17  0.000000D+00  0.000000D+00  0.466086D-01  0.000000D+00  0.000000D+00
     18  0.000000D+00  0.000000D+00  0.000000D+00  0.466086D-01  0.000000D+00
               16            17            18 
     16  0.413025D-01
     17  0.000000D+00  0.413025D-01
     18  0.000000D+00  0.000000D+00  0.413025D-01
 Entering OneElI...
 Calculate potential energy integrals
    NBasis =  18  MinDer = 0  MaxDer = 0
 Requested accuracy = 0.1000D-12
 Symmetry will be used
 PrmmSu-InSpLW:  IPartL=    0 NPrtUS=   36 NPrtUL=    1 DoSpLW=F IThBeg=    0 IThEnd=   35 NThAct=   36.
 PrSmSu:  IncTry=   512 NBBP=             42 NTPThr=   100 NPartT=   36 Incr=           1 LDynOK=F GPUOK=F.
 PrsmSu:  NPrtUS=  36 ThrOK=T IAlg=1 LenDen=           0 ISkipM=0 DoSpLW=F IThBeg=    0 IThEnd=   35.
 Prism:   IPart=     0 DynPar=F LinDyn=F Incr=           1.
 PRISM was handed   268430912 working-precision words and    21 shell-pairs
 PRISM was handed   268430912 working-precision words and    21 shell-pairs
 PRISM was handed   268430912 working-precision words and    21 shell-pairs
 PRISM was handed   268430912 working-precision words and    21 shell-pairs
 PRISM was handed   268430912 working-precision words and    21 shell-pairs
 PRISM was handed   268430912 working-precision words and    21 shell-pairs
 PRISM was handed   268430912 working-precision words and    21 shell-pairs
 PRISM was handed   268430912 working-precision words and    21 shell-pairs
 PRISM was handed   268430912 working-precision words and    21 shell-pairs
 PRISM was handed   268430912 working-precision words and    21 shell-pairs
 PRISM was handed   268430912 working-precision words and    21 shell-pairs
 PRISM was handed   268430912 working-precision words and    21 shell-pairs
 PRISM was handed   268430912 working-precision words and    21 shell-pairs
 PRISM was handed   268430912 working-precision words and    21 shell-pairs
 PRISM was handed   268430912 working-precision words and    21 shell-pairs
 PRISM was handed   268430912 working-precision words and    21 shell-pairs
 PRISM was handed   268430912 working-precision words and    21 shell-pairs
 PRISM was handed   268430912 working-precision words and    21 shell-pairs
 PRISM was handed   268430912 working-precision words and    21 shell-pairs
 PRISM was handed   268430912 working-precision words and    21 shell-pairs
 PRISM was handed   268430912 working-precision words and    21 shell-pairs
 PRISM was handed   268430912 working-precision words and    21 shell-pairs
 PRISM was handed   268430912 working-precision words and    21 shell-pairs
 PRISM was handed   268430912 working-precision words and    21 shell-pairs
 PRISM was handed   268430912 working-precision words and    21 shell-pairs
 PRISM was handed   268430912 working-precision words and    21 shell-pairs
 PRISM was handed   268430912 working-precision words and    21 shell-pairs
 PRISM was handed   268430912 working-precision words and    21 shell-pairs
 PRISM was handed   268430912 working-precision words and    21 shell-pairs
 PRISM was handed   268430912 working-precision words and    21 shell-pairs
 PRISM was handed   268430912 working-precision words and    21 shell-pairs
 PRISM was handed   268430912 working-precision words and    21 shell-pairs
 PRISM was handed   268430912 working-precision words and    21 shell-pairs
 PRISM was handed   268430912 working-precision words and    21 shell-pairs
 PRISM was handed   268430912 working-precision words and    21 shell-pairs
 PRISM was handed   268430912 working-precision words and    21 shell-pairs
 IPart=  1 NShTot=          10 NBatch=           5 AvBLen=         2.0
 IPart=  0 NShTot=          28 NBatch=          14 AvBLen=         2.0
 IPart= 17 NShTot=           0 NBatch=           0 AvBLen=         0.0
 IPart= 14 NShTot=           0 NBatch=           0 AvBLen=         0.0
 IPart= 23 NShTot=           0 NBatch=           0 AvBLen=         0.0
 IPart= 27 NShTot=           0 NBatch=           0 AvBLen=         0.0
 IPart= 32 NShTot=           0 NBatch=           0 AvBLen=         0.0
 IPart=  8 NShTot=           0 NBatch=           0 AvBLen=         0.0
 IPart= 24 NShTot=           0 NBatch=           0 AvBLen=         0.0
 IPart=  2 NShTot=           4 NBatch=           2 AvBLen=         2.0
 IPart= 12 NShTot=           0 NBatch=           0 AvBLen=         0.0
 IPart= 29 NShTot=           0 NBatch=           0 AvBLen=         0.0
 IPart= 15 NShTot=           0 NBatch=           0 AvBLen=         0.0
 IPart=  4 NShTot=           0 NBatch=           0 AvBLen=         0.0
 IPart= 10 NShTot=           0 NBatch=           0 AvBLen=         0.0
 IPart=  9 NShTot=           0 NBatch=           0 AvBLen=         0.0
 IPart=  6 NShTot=           0 NBatch=           0 AvBLen=         0.0
 IPart= 13 NShTot=           0 NBatch=           0 AvBLen=         0.0
 IPart= 33 NShTot=           0 NBatch=           0 AvBLen=         0.0
 IPart= 25 NShTot=           0 NBatch=           0 AvBLen=         0.0
 IPart= 35 NShTot=           0 NBatch=           0 AvBLen=         0.0
 IPart= 28 NShTot=           0 NBatch=           0 AvBLen=         0.0
 IPart= 30 NShTot=           0 NBatch=           0 AvBLen=         0.0
 IPart=  3 NShTot=           0 NBatch=           0 AvBLen=         0.0
 IPart= 11 NShTot=           0 NBatch=           0 AvBLen=         0.0
 IPart= 21 NShTot=           0 NBatch=           0 AvBLen=         0.0
 IPart= 20 NShTot=           0 NBatch=           0 AvBLen=         0.0
 IPart= 18 NShTot=           0 NBatch=           0 AvBLen=         0.0
 IPart= 16 NShTot=           0 NBatch=           0 AvBLen=         0.0
 IPart= 26 NShTot=           0 NBatch=           0 AvBLen=         0.0
 IPart= 31 NShTot=           0 NBatch=           0 AvBLen=         0.0
 IPart= 34 NShTot=           0 NBatch=           0 AvBLen=         0.0
 IPart=  7 NShTot=           0 NBatch=           0 AvBLen=         0.0
 IPart=  5 NShTot=           0 NBatch=           0 AvBLen=         0.0
 IPart= 22 NShTot=           0 NBatch=           0 AvBLen=         0.0
 IPart= 19 NShTot=           0 NBatch=           0 AvBLen=         0.0
 PrSmSu:  NxtVal=             37.
 ***** Potential Energy ***** 
                1             2             3             4             5 
      1  0.948842D+01
      2  0.143574D+01  0.354222D+03
      3  0.278475D+01  0.380863D+02  0.613814D+02
      4  0.000000D+00  0.000000D+00  0.000000D+00  0.708391D+02
      5  0.000000D+00  0.000000D+00  0.000000D+00  0.000000D+00  0.708391D+02
      6 -0.873584D+00 -0.624345D-02 -0.404432D-01  0.000000D+00  0.000000D+00
      7 -0.520104D+01 -0.179814D+01 -0.127185D+02  0.000000D+00  0.000000D+00
      8  0.000000D+00  0.000000D+00  0.000000D+00  0.110713D+02  0.000000D+00
      9  0.000000D+00  0.000000D+00  0.000000D+00  0.000000D+00  0.110713D+02
     10 -0.484979D+01 -0.308840D-03 -0.211859D-01  0.000000D+00  0.000000D+00
     11  0.234117D+01 -0.769397D+00 -0.104113D+01  0.000000D+00  0.000000D+00
     12  0.000000D+00  0.000000D+00  0.000000D+00  0.577878D+00  0.000000D+00
     13  0.000000D+00  0.000000D+00  0.000000D+00  0.000000D+00  0.577878D+00
     14 -0.222478D+01 -0.155575D-04 -0.124970D-02  0.000000D+00  0.000000D+00
     15  0.227788D+01  0.102605D+01  0.193462D+01  0.000000D+00  0.000000D+00
     16  0.000000D+00  0.000000D+00  0.000000D+00  0.125670D+00  0.000000D+00
     17  0.000000D+00  0.000000D+00  0.000000D+00  0.000000D+00  0.125670D+00
     18 -0.998911D+00 -0.299317D-05 -0.303358D-03  0.000000D+00  0.000000D+00
                6             7             8             9            10 
      6  0.708467D+02
      7  0.232682D-01  0.186204D+02
      8  0.000000D+00  0.000000D+00  0.168731D+02
      9  0.000000D+00  0.000000D+00  0.000000D+00  0.168731D+02
     10  0.110783D+02  0.138390D+00  0.000000D+00  0.000000D+00  0.169725D+02
     11  0.756032D-03 -0.136993D+01  0.000000D+00  0.000000D+00 -0.450465D-01
     12  0.000000D+00  0.000000D+00  0.241054D+01  0.000000D+00  0.000000D+00
     13  0.000000D+00  0.000000D+00  0.000000D+00  0.241054D+01  0.000000D+00
     14  0.578348D+00  0.277752D-01  0.000000D+00  0.000000D+00  0.243934D+01
     15 -0.287553D-02 -0.335180D+01  0.000000D+00  0.000000D+00 -0.478819D-01
     16  0.000000D+00  0.000000D+00  0.887158D+00  0.000000D+00  0.000000D+00
     17  0.000000D+00  0.000000D+00  0.000000D+00  0.887158D+00  0.000000D+00
     18  0.125793D+00  0.108194D-01  0.000000D+00  0.000000D+00  0.899008D+00
               11            12            13            14            15 
     11  0.489807D+01
     12  0.000000D+00  0.412556D+01
     13  0.000000D+00  0.000000D+00  0.412556D+01
     14 -0.687016D-01  0.000000D+00  0.000000D+00  0.416124D+01
     15  0.403416D+01  0.000000D+00  0.000000D+00 -0.573563D-01  0.409117D+01
     16  0.000000D+00  0.283106D+01  0.000000D+00  0.000000D+00  0.000000D+00
     17  0.000000D+00  0.000000D+00  0.283106D+01  0.000000D+00  0.000000D+00
     18 -0.380613D-01  0.000000D+00  0.000000D+00  0.285043D+01 -0.360290D-01
               16            17            18 
     16  0.273033D+01
     17  0.000000D+00  0.273033D+01
     18  0.000000D+00  0.000000D+00  0.274268D+01
 ****** Core Hamiltonian ****** 
                1             2             3             4             5 
      1 -0.872839D+01
      2 -0.143840D+01 -0.180838D+03
      3 -0.280001D+01 -0.473727D+02 -0.531978D+02
      4  0.000000D+00  0.000000D+00  0.000000D+00 -0.432548D+02
      5  0.000000D+00  0.000000D+00  0.000000D+00  0.000000D+00 -0.432548D+02
      6  0.873049D+00  0.624345D-02  0.404432D-01  0.000000D+00  0.000000D+00
      7  0.515257D+01  0.260196D+01  0.132654D+02  0.000000D+00  0.000000D+00
      8  0.000000D+00  0.000000D+00  0.000000D+00 -0.101524D+02  0.000000D+00
      9  0.000000D+00  0.000000D+00  0.000000D+00  0.000000D+00 -0.101524D+02
     10  0.466412D+01  0.308840D-03  0.211859D-01  0.000000D+00  0.000000D+00
     11 -0.232614D+01  0.752217D+00  0.940653D+00  0.000000D+00  0.000000D+00
     12  0.000000D+00  0.000000D+00  0.000000D+00 -0.551699D+00  0.000000D+00
     13  0.000000D+00  0.000000D+00  0.000000D+00  0.000000D+00 -0.551699D+00
     14  0.218148D+01  0.155575D-04  0.124970D-02  0.000000D+00  0.000000D+00
     15 -0.226594D+01 -0.102577D+01 -0.193240D+01  0.000000D+00  0.000000D+00
     16  0.000000D+00  0.000000D+00  0.000000D+00 -0.125357D+00  0.000000D+00
     17  0.000000D+00  0.000000D+00  0.000000D+00  0.000000D+00 -0.125357D+00
     18  0.987834D+00  0.299317D-05  0.303358D-03  0.000000D+00  0.000000D+00
                6             7             8             9            10 
      6 -0.432625D+02
      7 -0.232682D-01 -0.177832D+02
      8  0.000000D+00  0.000000D+00 -0.153291D+02
      9  0.000000D+00  0.000000D+00  0.000000D+00 -0.153291D+02
     10 -0.101594D+02 -0.138390D+00  0.000000D+00  0.000000D+00 -0.154285D+02
     11 -0.756032D-03  0.147485D+01  0.000000D+00  0.000000D+00  0.450465D-01
     12  0.000000D+00  0.000000D+00 -0.234416D+01  0.000000D+00  0.000000D+00
     13  0.000000D+00  0.000000D+00  0.000000D+00 -0.234416D+01  0.000000D+00
     14 -0.552169D+00 -0.277752D-01  0.000000D+00  0.000000D+00 -0.237296D+01
     15  0.287553D-02  0.334030D+01  0.000000D+00  0.000000D+00  0.478819D-01
     16  0.000000D+00  0.000000D+00 -0.879624D+00  0.000000D+00  0.000000D+00
     17  0.000000D+00  0.000000D+00  0.000000D+00 -0.879624D+00  0.000000D+00
     18 -0.125481D+00 -0.108194D-01  0.000000D+00  0.000000D+00 -0.891474D+00
               11            12            13            14            15 
     11 -0.482062D+01
     12  0.000000D+00 -0.402935D+01
     13  0.000000D+00  0.000000D+00 -0.402935D+01
     14  0.687016D-01  0.000000D+00  0.000000D+00 -0.406503D+01
     15 -0.400436D+01  0.000000D+00  0.000000D+00  0.573563D-01 -0.406638D+01
     16  0.000000D+00 -0.278445D+01  0.000000D+00  0.000000D+00  0.000000D+00
     17  0.000000D+00  0.000000D+00 -0.278445D+01  0.000000D+00  0.000000D+00
     18  0.380613D-01  0.000000D+00  0.000000D+00 -0.280382D+01  0.360290D-01
               16            17            18 
     16 -0.268902D+01
     17  0.000000D+00 -0.268902D+01
     18  0.000000D+00  0.000000D+00 -0.270138D+01
 SVDSVc IOpt=   1 NormSV=T IR=1
 SVDSVc V= 2.33D+00 1.92D+00 1.40D+00 1.29D+00 9.96D-01 8.29D-01 5.80D-01 3.88D-01 1.70D-01 9.49D-02
 SVDSVc IOpt=   1 NormSV=T IR=3
 SVDSVc V= 1.88D+00 1.25D+00 6.91D-01 1.80D-01
 SVDSVc IOpt=   1 NormSV=T IR=4
 SVDSVc V= 1.88D+00 1.25D+00 6.91D-01 1.80D-01
 TstOVc:  Largest diagonal error= 1.55D-15 IB=1 I=    9.
 TstOVc:  Largest same sym error= 8.03D-16 IB=1 I=   10 J=    5.
 TstOVc:  Largest diff sym error= 0.00D+00 IB=0 JB=0 I=    0 J=    0.
 Orthogonalized basis functions: 
                 1             2             3             4             5 
      1   0.309955D+00 -0.585199D-01  0.785283D-01 -0.176291D+00 -0.286348D+00
      2   0.198725D-01  0.171499D-01  0.392413D+00  0.116444D+00  0.687753D+00
      3   0.770863D-01  0.529176D-01  0.567483D+00  0.127696D+00  0.226737D-01
      4   0.000000D+00  0.000000D+00  0.000000D+00  0.000000D+00  0.000000D+00
      5   0.000000D+00  0.000000D+00  0.000000D+00  0.000000D+00  0.000000D+00
      6  -0.425180D-01  0.717879D-01 -0.442421D-01  0.538677D+00 -0.320128D+00
      7  -0.200387D+00 -0.118837D+00 -0.353693D+00 -0.429888D-01  0.496180D+00
      8   0.000000D+00  0.000000D+00  0.000000D+00  0.000000D+00  0.000000D+00
      9   0.000000D+00  0.000000D+00  0.000000D+00  0.000000D+00  0.000000D+00
     10  -0.150814D+00  0.191914D+00 -0.575163D-01  0.526281D+00 -0.168443D-01
     11   0.310893D+00  0.264946D+00 -0.235898D+00  0.604249D-01  0.215520D+00
     12   0.000000D+00  0.000000D+00  0.000000D+00  0.000000D+00  0.000000D+00
     13   0.000000D+00  0.000000D+00  0.000000D+00  0.000000D+00  0.000000D+00
     14  -0.200528D+00  0.405729D+00  0.601110D-01 -0.207202D+00 -0.485228D-01
     15   0.311637D+00  0.273337D+00 -0.189151D+00  0.793113D-01  0.203746D+00
     16   0.000000D+00  0.000000D+00  0.000000D+00  0.000000D+00  0.000000D+00
     17   0.000000D+00  0.000000D+00  0.000000D+00  0.000000D+00  0.000000D+00
     18  -0.167221D+00  0.384469D+00  0.775917D-01 -0.305541D+00 -0.980012D-01
                 6             7             8             9            10 
      1   0.452540D+00 -0.262884D+00  0.100319D+01  0.370964D+00 -0.411169D+00
      2   0.407270D+00 -0.503607D+00 -0.158495D+00 -0.148412D-01  0.134291D-02
      3  -0.258448D+00  0.827233D+00  0.375851D+00  0.504849D-01  0.756053D-01
      4   0.000000D+00  0.000000D+00  0.000000D+00  0.000000D+00  0.000000D+00
      5   0.000000D+00  0.000000D+00  0.000000D+00  0.000000D+00  0.000000D+00
      6   0.694028D+00  0.320169D+00 -0.353051D+00  0.330401D-01  0.393929D-01
      7   0.261749D+00  0.583642D+00  0.701628D+00  0.137247D+00 -0.292924D+00
      8   0.000000D+00  0.000000D+00  0.000000D+00  0.000000D+00  0.000000D+00
      9   0.000000D+00  0.000000D+00  0.000000D+00  0.000000D+00  0.000000D+00
     10  -0.369812D+00 -0.479068D+00  0.823560D+00 -0.135857D+00 -0.144553D+00
     11  -0.346654D-01  0.121921D+00  0.426117D-01  0.167890D+00  0.228521D+01
     12   0.000000D+00  0.000000D+00  0.000000D+00  0.000000D+00  0.000000D+00
     13   0.000000D+00  0.000000D+00  0.000000D+00  0.000000D+00  0.000000D+00
     14   0.707357D-01 -0.124127D-01 -0.664394D-01  0.173970D+01 -0.279297D+00
     15  -0.112934D+00  0.167170D+00 -0.255789D+00 -0.264918D+00 -0.221654D+01
     16   0.000000D+00  0.000000D+00  0.000000D+00  0.000000D+00  0.000000D+00
     17   0.000000D+00  0.000000D+00  0.000000D+00  0.000000D+00  0.000000D+00
     18   0.251732D+00  0.385776D-01  0.202332D+00 -0.160900D+01  0.197001D+00
                11            12            13            14            15 
      1   0.000000D+00  0.000000D+00  0.000000D+00  0.000000D+00  0.000000D+00
      2   0.000000D+00  0.000000D+00  0.000000D+00  0.000000D+00  0.000000D+00
      3   0.000000D+00  0.000000D+00  0.000000D+00  0.000000D+00  0.000000D+00
      4   0.827827D-01  0.650522D+00 -0.813669D+00  0.900001D-01  0.000000D+00
      5   0.000000D+00  0.000000D+00  0.000000D+00  0.000000D+00  0.827827D-01
      6   0.000000D+00  0.000000D+00  0.000000D+00  0.000000D+00  0.000000D+00
      7   0.000000D+00  0.000000D+00  0.000000D+00  0.000000D+00  0.000000D+00
      8   0.213287D+00  0.558240D+00  0.856396D+00 -0.322873D+00  0.000000D+00
      9   0.000000D+00  0.000000D+00  0.000000D+00  0.000000D+00  0.213287D+00
     10   0.000000D+00  0.000000D+00  0.000000D+00  0.000000D+00  0.000000D+00
     11   0.000000D+00  0.000000D+00  0.000000D+00  0.000000D+00  0.000000D+00
     12   0.498483D+00 -0.137035D+00 -0.114594D-01  0.168244D+01  0.000000D+00
     13   0.000000D+00  0.000000D+00  0.000000D+00  0.000000D+00  0.498483D+00
     14   0.000000D+00  0.000000D+00  0.000000D+00  0.000000D+00  0.000000D+00
     15   0.000000D+00  0.000000D+00  0.000000D+00  0.000000D+00  0.000000D+00
     16   0.480441D+00 -0.217733D+00 -0.228099D+00 -0.161779D+01  0.000000D+00
     17   0.000000D+00  0.000000D+00  0.000000D+00  0.000000D+00  0.480441D+00
     18   0.000000D+00  0.000000D+00  0.000000D+00  0.000000D+00  0.000000D+00
                16            17            18 
      1   0.000000D+00  0.000000D+00  0.000000D+00
      2   0.000000D+00  0.000000D+00  0.000000D+00
      3   0.000000D+00  0.000000D+00  0.000000D+00
      4   0.000000D+00  0.000000D+00  0.000000D+00
      5   0.650522D+00 -0.813669D+00  0.900001D-01
      6   0.000000D+00  0.000000D+00  0.000000D+00
      7   0.000000D+00  0.000000D+00  0.000000D+00
      8   0.000000D+00  0.000000D+00  0.000000D+00
      9   0.558240D+00  0.856396D+00 -0.322873D+00
     10   0.000000D+00  0.000000D+00  0.000000D+00
     11   0.000000D+00  0.000000D+00  0.000000D+00
     12   0.000000D+00  0.000000D+00  0.000000D+00
     13  -0.137035D+00 -0.114594D-01  0.168244D+01
     14   0.000000D+00  0.000000D+00  0.000000D+00
     15   0.000000D+00  0.000000D+00  0.000000D+00
     16   0.000000D+00  0.000000D+00  0.000000D+00
     17  -0.217733D+00 -0.228099D+00 -0.161779D+01
     18   0.000000D+00  0.000000D+00  0.000000D+00
 NBasis=    18 RedAO= T EigKep=  9.49D-02  NBF=    10     0     4     4
 NBsUse=    18 1.00D-06 EigRej= -1.00D+00 NBFU=    10     0     4     4
 Leave Link  302 at Mon Mar 28 14:31:34 2022, MaxMem=  9663676416 cpu:               3.2 elap:               0.1
 (Enter /nopt/nrel/apps/gaussian/g16C_1/g16/l303.exe)
 DipDrv will not compute anything.
 Fermi contact integrals: 
                 1             2 
      1   0.628247D+00  0.458572D-01
      2   0.000000D+00  0.443431D+02
      3   0.000000D+00  0.737756D-01
      4   0.000000D+00  0.000000D+00
      5   0.000000D+00  0.000000D+00
      6  -0.170092D-05  0.000000D+00
      7  -0.385167D-01 -0.274029D-01
      8   0.000000D+00  0.000000D+00
      9   0.000000D+00  0.000000D+00
     10  -0.902656D-01  0.000000D+00
     11   0.372735D-01 -0.251750D-01
     12   0.000000D+00  0.000000D+00
     13   0.000000D+00  0.000000D+00
     14  -0.412881D-01  0.000000D+00
     15   0.301676D-01  0.328426D-01
     16   0.000000D+00  0.000000D+00
     17   0.000000D+00  0.000000D+00
     18  -0.175861D-01  0.000000D+00
 Leave Link  303 at Mon Mar 28 14:31:35 2022, MaxMem=  9663676416 cpu:               1.1 elap:               0.1
 (Enter /nopt/nrel/apps/gaussian/g16C_1/g16/l401.exe)
 ExpMin= 1.65D-02 ExpMax= 3.16D+04 ExpMxC= 4.74D+03 IAcc=3 IRadAn=         5 AccDes= 0.00D+00
 Harris functional with IExCor=  205 and IRadAn=       5 diagonalized for initial guess.
 HarFok:  IExCor=  205 AccDes= 0.00D+00 IRadAn=         5 IDoV= 1 UseB2=F ITyADJ=14
 ICtDFT=  3500011 ScaDFX=  1.000000  1.000000  1.000000  1.000000
 FoFCou: FMM=F IPFlag=           0 FMFlag=      100000 FMFlg1=           0
         NFxFlg=           0 DoJE=T BraDBF=F KetDBF=T FulRan=T
         wScrn=  0.000000 ICntrl=       500 IOpCl=  0 I1Cent=   200000004 NGrid=           0
         NMat0=    1 NMatS0=      1 NMatT0=    0 NMatD0=    1 NMtDS0=    0 NMtDT0=    0
 Petite list used in FoFCou.
 Harris En= -598.767179924344    
 JPrj=0 DoOrth=F DoCkMO=F.
 Initial guess orbital symmetries:
       Occupied  (SG) (SG) (SG) (PI) (PI) (SG) (SG) (PI) (PI) (SG)
       Virtual   (SG) (PI) (PI) (SG) (SG) (PI) (PI) (SG)
 The electronic state of the initial guess is 1-SG.
 Leave Link  401 at Mon Mar 28 14:31:35 2022, MaxMem=  9663676416 cpu:               3.3 elap:               0.1
 (Enter /nopt/nrel/apps/gaussian/g16C_1/g16/l502.exe)
 Keep R1 ints in memory in symmetry-blocked form, NReq=7244180.
 FoFCou: FMM=F IPFlag=           0 FMFlag=           0 FMFlg1=           0
         NFxFlg=           0 DoJE=F BraDBF=F KetDBF=F FulRan=T
         wScrn=  0.000000 ICntrl=       600 IOpCl=  0 I1Cent=           0 NGrid=           0
         NMat0=    1 NMatS0=    171 NMatT0=    0 NMatD0=    1 NMtDS0=    0 NMtDT0=    0
 Petite list used in FoFCou.
 Closed shell SCF:
 Using DIIS extrapolation, IDIIS=  1040.
 NGot=  9663676416 LenX=  9663668636 LenY=  9663667754
 Requested convergence on RMS density matrix=1.00D-08 within 128 cycles.
 Requested convergence on MAX density matrix=1.00D-06.
 Requested convergence on             energy=1.00D-06.
 No special actions if energy rises.

 Cycle   1  Pass 1  IDiag  1:
 E= -599.307197035450    
 DIIS: error= 2.35D-02 at cycle   1 NSaved=   1.
 NSaved= 1 IEnMin= 1 EnMin= -599.307197035450     IErMin= 1 ErrMin= 2.35D-02
 ErrMax= 2.35D-02  0.00D+00 EMaxC= 1.00D-01 BMatC= 8.67D-03 BMatP= 8.67D-03
 IDIUse=3 WtCom= 7.65D-01 WtEn= 2.35D-01
 Coeff-Com:  0.100D+01
 Coeff-En:   0.100D+01
 Coeff:      0.100D+01
 Gap=     0.240 Goal=   None    Shift=    0.000
 GapD=    0.240 DampG=1.000 DampE=0.500 DampFc=0.5000 IDamp=-1.
 Damping current iteration by 5.00D-01
 RMSDP=8.75D-03 MaxDP=8.03D-02              OVMax= 0.00D+00

 Cycle   2  Pass 1  IDiag  1:
 E= -599.311891365024     Delta-E=       -0.004694329575 Rises=F Damp=T
 DIIS: error= 1.20D-02 at cycle   2 NSaved=   2.
 NSaved= 2 IEnMin= 2 EnMin= -599.311891365024     IErMin= 2 ErrMin= 1.20D-02
 ErrMax= 1.20D-02  0.00D+00 EMaxC= 1.00D-01 BMatC= 2.31D-03 BMatP= 8.67D-03
 IDIUse=3 WtCom= 8.80D-01 WtEn= 1.20D-01
 Coeff-Com: -0.106D+01 0.206D+01
 Coeff-En:   0.000D+00 0.100D+01
 Coeff:     -0.930D+00 0.193D+01
 Gap=     0.229 Goal=   None    Shift=    0.000
 RMSDP=4.79D-03 MaxDP=3.80D-02 DE=-4.69D-03 OVMax= 0.00D+00

 Cycle   3  Pass 1  IDiag  1:
 E= -599.316840166484     Delta-E=       -0.004948801459 Rises=F Damp=F
 DIIS: error= 2.04D-04 at cycle   3 NSaved=   3.
 NSaved= 3 IEnMin= 3 EnMin= -599.316840166484     IErMin= 3 ErrMin= 2.04D-04
 ErrMax= 2.04D-04  0.00D+00 EMaxC= 1.00D-01 BMatC= 1.60D-06 BMatP= 2.31D-03
 IDIUse=3 WtCom= 9.98D-01 WtEn= 2.04D-03
 Coeff-Com:  0.158D+00-0.321D+00 0.116D+01
 Coeff-En:   0.000D+00 0.000D+00 0.100D+01
 Coeff:      0.158D+00-0.321D+00 0.116D+01
 Gap=     0.228 Goal=   None    Shift=    0.000
 RMSDP=6.03D-04 MaxDP=5.66D-03 DE=-4.95D-03 OVMax= 0.00D+00

 Cycle   4  Pass 1  IDiag  1:
 E= -599.316849348685     Delta-E=       -0.000009182201 Rises=F Damp=F
 DIIS: error= 6.98D-05 at cycle   4 NSaved=   4.
 NSaved= 4 IEnMin= 4 EnMin= -599.316849348685     IErMin= 4 ErrMin= 6.98D-05
 ErrMax= 6.98D-05  0.00D+00 EMaxC= 1.00D-01 BMatC= 1.06D-07 BMatP= 1.60D-06
 IDIUse=1 WtCom= 1.00D+00 WtEn= 0.00D+00
 Coeff-Com: -0.404D-01 0.818D-01-0.444D+00 0.140D+01
 Coeff:     -0.404D-01 0.818D-01-0.444D+00 0.140D+01
 Gap=     0.228 Goal=   None    Shift=    0.000
 RMSDP=2.40D-04 MaxDP=2.43D-03 DE=-9.18D-06 OVMax= 0.00D+00

 Cycle   5  Pass 1  IDiag  1:
 E= -599.316850498359     Delta-E=       -0.000001149674 Rises=F Damp=F
 DIIS: error= 1.67D-05 at cycle   5 NSaved=   5.
 NSaved= 5 IEnMin= 5 EnMin= -599.316850498359     IErMin= 5 ErrMin= 1.67D-05
 ErrMax= 1.67D-05  0.00D+00 EMaxC= 1.00D-01 BMatC= 5.50D-09 BMatP= 1.06D-07
 IDIUse=1 WtCom= 1.00D+00 WtEn= 0.00D+00
 Coeff-Com: -0.626D-02 0.120D-01 0.178D-02-0.278D+00 0.127D+01
 Coeff:     -0.626D-02 0.120D-01 0.178D-02-0.278D+00 0.127D+01
 Gap=     0.228 Goal=   None    Shift=    0.000
 RMSDP=4.50D-05 MaxDP=4.49D-04 DE=-1.15D-06 OVMax= 0.00D+00

 Cycle   6  Pass 1  IDiag  1:
 E= -599.316850552838     Delta-E=       -0.000000054479 Rises=F Damp=F
 DIIS: error= 1.98D-06 at cycle   6 NSaved=   6.
 NSaved= 6 IEnMin= 6 EnMin= -599.316850552838     IErMin= 6 ErrMin= 1.98D-06
 ErrMax= 1.98D-06  0.00D+00 EMaxC= 1.00D-01 BMatC= 1.20D-10 BMatP= 5.50D-09
 IDIUse=1 WtCom= 1.00D+00 WtEn= 0.00D+00
 Coeff-Com:  0.115D-02-0.221D-02-0.155D-02 0.937D-01-0.479D+00 0.139D+01
 Coeff:      0.115D-02-0.221D-02-0.155D-02 0.937D-01-0.479D+00 0.139D+01
 Gap=     0.228 Goal=   None    Shift=    0.000
 RMSDP=7.07D-06 MaxDP=3.91D-05 DE=-5.45D-08 OVMax= 0.00D+00

 Cycle   7  Pass 1  IDiag  1:
 E= -599.316850553828     Delta-E=       -0.000000000990 Rises=F Damp=F
 DIIS: error= 2.72D-07 at cycle   7 NSaved=   7.
 NSaved= 7 IEnMin= 7 EnMin= -599.316850553828     IErMin= 7 ErrMin= 2.72D-07
 ErrMax= 2.72D-07  0.00D+00 EMaxC= 1.00D-01 BMatC= 1.19D-12 BMatP= 1.20D-10
 IDIUse=1 WtCom= 1.00D+00 WtEn= 0.00D+00
 Coeff-Com: -0.347D-03 0.676D-03-0.316D-03-0.198D-01 0.108D+00-0.367D+00
 Coeff-Com:  0.128D+01
 Coeff:     -0.347D-03 0.676D-03-0.316D-03-0.198D-01 0.108D+00-0.367D+00
 Coeff:      0.128D+01
 Gap=     0.228 Goal=   None    Shift=    0.000
 RMSDP=1.08D-06 MaxDP=9.16D-06 DE=-9.90D-10 OVMax= 0.00D+00

 Cycle   8  Pass 1  IDiag  1:
 E= -599.316850553841     Delta-E=       -0.000000000014 Rises=F Damp=F
 DIIS: error= 3.90D-08 at cycle   8 NSaved=   8.
 NSaved= 8 IEnMin= 8 EnMin= -599.316850553841     IErMin= 8 ErrMin= 3.90D-08
 ErrMax= 3.90D-08  0.00D+00 EMaxC= 1.00D-01 BMatC= 3.00D-14 BMatP= 1.19D-12
 IDIUse=1 WtCom= 1.00D+00 WtEn= 0.00D+00
 Coeff-Com:  0.585D-04-0.114D-03 0.118D-03 0.262D-02-0.160D-01 0.624D-01
 Coeff-Com: -0.361D+00 0.131D+01
 Coeff:      0.585D-04-0.114D-03 0.118D-03 0.262D-02-0.160D-01 0.624D-01
 Coeff:     -0.361D+00 0.131D+01
 Gap=     0.228 Goal=   None    Shift=    0.000
 RMSDP=1.72D-07 MaxDP=1.47D-06 DE=-1.38D-11 OVMax= 0.00D+00

 Cycle   9  Pass 1  IDiag  1:
 E= -599.316850553841     Delta-E=        0.000000000000 Rises=F Damp=F
 DIIS: error= 3.78D-09 at cycle   9 NSaved=   9.
 NSaved= 9 IEnMin= 8 EnMin= -599.316850553841     IErMin= 9 ErrMin= 3.78D-09
 ErrMax= 3.78D-09  0.00D+00 EMaxC= 1.00D-01 BMatC= 1.96D-16 BMatP= 3.00D-14
 IDIUse=1 WtCom= 1.00D+00 WtEn= 0.00D+00
 Coeff-Com: -0.901D-05 0.177D-04-0.282D-04-0.252D-03 0.186D-02-0.796D-02
 Coeff-Com:  0.542D-01-0.220D+00 0.117D+01
 Coeff:     -0.901D-05 0.177D-04-0.282D-04-0.252D-03 0.186D-02-0.796D-02
 Coeff:      0.542D-01-0.220D+00 0.117D+01
 Gap=     0.228 Goal=   None    Shift=    0.000
 RMSDP=1.40D-08 MaxDP=1.31D-07 DE= 0.00D+00 OVMax= 0.00D+00

 Cycle  10  Pass 1  IDiag  1:
 E= -599.316850553841     Delta-E=        0.000000000000 Rises=F Damp=F
 DIIS: error= 7.96D-10 at cycle  10 NSaved=  10.
 NSaved=10 IEnMin= 8 EnMin= -599.316850553841     IErMin=10 ErrMin= 7.96D-10
 ErrMax= 7.96D-10  0.00D+00 EMaxC= 1.00D-01 BMatC= 9.47D-18 BMatP= 1.96D-16
 IDIUse=1 WtCom= 1.00D+00 WtEn= 0.00D+00
 Coeff-Com:  0.924D-06-0.182D-05 0.299D-05 0.197D-04-0.198D-03 0.990D-03
 Coeff-Com: -0.898D-02 0.394D-01-0.391D+00 0.136D+01
 Coeff:      0.924D-06-0.182D-05 0.299D-05 0.197D-04-0.198D-03 0.990D-03
 Coeff:     -0.898D-02 0.394D-01-0.391D+00 0.136D+01
 Gap=     0.228 Goal=   None    Shift=    0.000
 RMSDP=3.21D-09 MaxDP=2.11D-08 DE= 0.00D+00 OVMax= 0.00D+00

 SCF Done:  E(RHF) =  -599.316850554     A.U. after   10 cycles
            NFock= 10  Conv=0.32D-08     -V/T= 1.9988
 KE= 6.000547035058D+02 PE=-1.439477463883D+03 EE= 2.317272706505D+02
 Leave Link  502 at Mon Mar 28 14:31:35 2022, MaxMem=  9663676416 cpu:               3.5 elap:               0.1
 (Enter /nopt/nrel/apps/gaussian/g16C_1/g16/l801.exe)
 Windowed orbitals will be sorted by symmetry type.
 ExpMin= 1.65D-02 ExpMax= 3.16D+04 ExpMxC= 4.74D+03 IAcc=3 IRadAn=         5 AccDes= 0.00D+00
 HarFok:  IExCor=  205 AccDes= 0.00D+00 IRadAn=         5 IDoV=-2 UseB2=F ITyADJ=14
 ICtDFT= 12500011 ScaDFX=  1.000000  1.000000  1.000000  1.000000
 Largest valence mixing into a core orbital is  2.42D-02
 Largest core mixing into a valence orbital is  1.03D-02
 Range of M.O.s used for correlation:    10    18
 NBasis=    18 NAE=    10 NBE=    10 NFC=     9 NFV=     0
 NROrb=      9 NOA=     1 NOB=     1 NVA=     8 NVB=     8
 Leave Link  801 at Mon Mar 28 14:31:35 2022, MaxMem=  9663676416 cpu:               2.2 elap:               0.1
 (Enter /nopt/nrel/apps/gaussian/g16C_1/g16/l804.exe)
 Closed-shell transformation, MDV=  9663676416 ITran=4 ISComp=2.
 Unit  1 TFree=         12474 TCopy=        221008.
 Semi-Direct transformation.
 ModeAB=           2 MOrb=             1 LenV=    9663549955
 LASXX=           88 LTotXX=          88 LenRXX=          88
 LTotAB=         141 MaxLAS=        1539 LenRXY=        1539
 NonZer=        1755 LenScr=      785920 LnRSAI=           0
 LnScr1=           0 LExtra=      222029 Total=      1009576
 MaxDsk= 34359738368 SrtSym=           F ITran=            4
 DoSDTr:  NPSUse= 36
 JobTyp=0 Pass  1:  I=   1 to   1.
 (rs|ai) integrals will be sorted in core.
 Complete sort for first half transformation.
 First half transformation complete.
 Complete sort for second half transformation.
 Second half transformation complete.
 Spin components of T(2) and E(2):
     alpha-alpha T2 =       0.0000000000D+00 E2=      0.0000000000D+00
     alpha-beta  T2 =       0.2040349819D-01 E2=     -0.1597629419D-01
     beta-beta   T2 =       0.0000000000D+00 E2=      0.0000000000D+00
 ANorm=    0.1010150235D+01
 E2 =    -0.1597629419D-01 EUMP2 =    -0.59933282684803D+03
 Leave Link  804 at Mon Mar 28 14:31:35 2022, MaxMem=  9663676416 cpu:               1.8 elap:               0.1
 (Enter /nopt/nrel/apps/gaussian/g16C_1/g16/l913.exe)
 CIDS:  MDV=  9663676416.
 Frozen-core window:  NFC=   9 NFV=   0.
 IFCWin=0 IBDFC=1 NFBD=     0     0 NFCmp=     0     0 NFFFC=     0     0
 Using DD3R+UMP44R for 1st iteration.
 Using DD4RQ for 2nd and later iterations.
 Keep R2 and R3 ints in memory in symmetry-blocked form, NReq=7246586.
 FoFCou: FMM=F IPFlag=           0 FMFlag=           0 FMFlg1=           0
         NFxFlg=           0 DoJE=F BraDBF=F KetDBF=F FulRan=T
         wScrn=  0.000000 ICntrl=       600 IOpCl=  0 I1Cent=           0 NGrid=           0
         NMat0=    1 NMatS0=    171 NMatT0=    0 NMatD0=    1 NMtDS0=    0 NMtDT0=    0
 Petite list used in FoFCou.
 CIDS: In Core Option IDoMem=           1.
 Coupled Cluster theory with single and double substitutions
 ===========================================================
 Iterations= 200 Convergence= 0.100D-06
 Produce multiple copies of IABC intergrals
 Iteration Nr.   1
 **********************
 DD1Dir will call FoFMem   1 times, MxPair=         2
 NAB=     1 NAA=     0 NBB=     0.
 MP4(R+Q)=  0.32597229D-03
 Maximum subspace dimension=  5
 A-vector RMS=  2.0909155D-02 Max=  3.4288454D-02 conv= 1.00D-05.
 RLE energy=       -0.0267872041
 E3=       -0.67831555D-02        EUMP3=      -0.59933961000D+03
 E4(DQ)=   -0.28057154D-02        UMP4(DQ)=   -0.59934241572D+03
 E4(SDQ)=  -0.30749915D-02        UMP4(SDQ)=  -0.59934268500D+03
 VARIATIONAL ENERGIES WITH THE FIRST-ORDER WAVEFUNCTION:
 DE(Corr)= -0.22424094E-01 E(Corr)=     -599.33927465    
 NORM(A)=   0.10291883D+01
 Iteration Nr.   2
 **********************
 DD1Dir will call FoFMem   1 times, MxPair=         2
 NAB=     1 NAA=     0 NBB=     0.
 A-vector RMS=  1.0973175D-02 Max=  8.9776162D-03 conv= 1.00D-05.
 RLE energy=       -0.0283538848
 DE(Corr)= -0.27317181E-01 E(CORR)=     -599.34416773     Delta=-4.89D-03
 NORM(A)=   0.10361011D+01
 Iteration Nr.   3
 **********************
 DD1Dir will call FoFMem   1 times, MxPair=         2
 NAB=     1 NAA=     0 NBB=     0.
 A-vector RMS=  4.4067245D-03 Max=  4.5860387D-03 conv= 1.00D-05.
 RLE energy=       -0.0291444775
 DE(Corr)= -0.28558180E-01 E(CORR)=     -599.34540873     Delta=-1.24D-03
 NORM(A)=   0.10403114D+01
 Iteration Nr.   4
 **********************
 DD1Dir will call FoFMem   1 times, MxPair=         2
 NAB=     1 NAA=     0 NBB=     0.
 A-vector RMS=  2.2298670D-03 Max=  2.3031886D-03 conv= 1.00D-05.
 RLE energy=       -0.0290211077
 DE(Corr)= -0.29049833E-01 E(CORR)=     -599.34590039     Delta=-4.92D-04
 NORM(A)=   0.10411833D+01
 Iteration Nr.   5
 **********************
 DD1Dir will call FoFMem   1 times, MxPair=         2
 NAB=     1 NAA=     0 NBB=     0.
 A-vector RMS=  8.5466736D-04 Max=  8.7555178D-04 conv= 1.00D-05.
 RLE energy=       -0.0290394419
 DE(Corr)= -0.29032360E-01 E(CORR)=     -599.34588291     Delta= 1.75D-05
 NORM(A)=   0.10416181D+01
 Iteration Nr.   6
 **********************
 DD1Dir will call FoFMem   1 times, MxPair=         2
 NAB=     1 NAA=     0 NBB=     0.
 A-vector RMS=  3.1083481D-04 Max=  3.4515737D-04 conv= 1.00D-05.
 RLE energy=       -0.0290658539
 DE(Corr)= -0.29051385E-01 E(CORR)=     -599.34590194     Delta=-1.90D-05
 NORM(A)=   0.10417429D+01
 Iteration Nr.   7
 **********************
 DD1Dir will call FoFMem   1 times, MxPair=         2
 NAB=     1 NAA=     0 NBB=     0.
 A-vector RMS=  1.1073606D-04 Max=  1.1886207D-04 conv= 1.00D-05.
 RLE energy=       -0.0290578851
 DE(Corr)= -0.29062564E-01 E(CORR)=     -599.34591312     Delta=-1.12D-05
 NORM(A)=   0.10417093D+01
 Iteration Nr.   8
 **********************
 DD1Dir will call FoFMem   1 times, MxPair=         2
 NAB=     1 NAA=     0 NBB=     0.
 A-vector RMS=  1.4625559D-05 Max=  1.4964341D-05 conv= 1.00D-05.
 RLE energy=       -0.0290605462
 DE(Corr)= -0.29059081E-01 E(CORR)=     -599.34590963     Delta= 3.48D-06
 NORM(A)=   0.10417211D+01
 Iteration Nr.   9
 **********************
 DD1Dir will call FoFMem   1 times, MxPair=         2
 NAB=     1 NAA=     0 NBB=     0.
 A-vector RMS=  6.7948843D-06 Max=  5.7366986D-06 conv= 1.00D-05.
 RLE energy=       -0.0290599433
 DE(Corr)= -0.29060301E-01 E(CORR)=     -599.34591085     Delta=-1.22D-06
 NORM(A)=   0.10417185D+01
 Iteration Nr.  10
 **********************
 DD1Dir will call FoFMem   1 times, MxPair=         2
 NAB=     1 NAA=     0 NBB=     0.
 A-vector RMS=  3.3030410D-06 Max=  3.1011245D-06 conv= 1.00D-05.
 RLE energy=       -0.0290599330
 DE(Corr)= -0.29059983E-01 E(CORR)=     -599.34591054     Delta= 3.17D-07
 NORM(A)=   0.10417176D+01
 Iteration Nr.  11
 **********************
 DD1Dir will call FoFMem   1 times, MxPair=         2
 NAB=     1 NAA=     0 NBB=     0.
 A-vector RMS=  4.5810531D-07 Max=  5.2442102D-07 conv= 1.00D-05.
 RLE energy=       -0.0290598951
 DE(Corr)= -0.29059919E-01 E(CORR)=     -599.34591047     Delta= 6.44D-08
 NORM(A)=   0.10417174D+01
 CI/CC converged in   11 iterations to DelEn= 6.44D-08 Conv= 1.00D-07 ErrA1= 4.58D-07 Conv= 1.00D-05
 Wavefunction amplitudes converged. E(Corr)=     -599.34591047    
 Dominant configurations:
 ***********************
 Spin Case        I    J    A    B          Value
   ABAB          10   10   18   18      -0.140644D+00
 Largest amplitude= 1.41D-01
 Discarding MO integrals.
 Leave Link  913 at Mon Mar 28 14:31:35 2022, MaxMem=  9663676416 cpu:               3.7 elap:               0.1
 (Enter /nopt/nrel/apps/gaussian/g16C_1/g16/l601.exe)
 Copying SCF densities to generalized density rwf, IOpCl= 0 IROHF=0.

 **********************************************************************

            Population analysis using the SCF Density.

 **********************************************************************

 Orbital symmetries:
       Occupied  (SG) (SG) (SG) (PI) (PI) (SG) (SG) (PI) (PI) (SG)
       Virtual   (SG) (PI) (PI) (SG) (SG) (PI) (PI) (SG)
 The electronic state is 1-SG.
 Alpha  occ. eigenvalues -- -133.57261 -14.54977 -11.58037 -11.57569 -11.57569
 Alpha  occ. eigenvalues --   -1.82598  -1.08500  -1.00156  -1.00156  -0.21587
 Alpha virt. eigenvalues --    0.01200   0.02813   0.02813   0.05943   0.09258
 Alpha virt. eigenvalues --    0.10958   0.10958   0.29759
          Condensed to atoms (all electrons):
               1          2
     1  H    0.743055   0.177937
     2  K    0.177937  18.901072
 Mulliken charges:
               1
     1  H    0.079009
     2  K   -0.079009
 Sum of Mulliken charges =  -0.00000
 Mulliken charges with hydrogens summed into heavy atoms:
               1
     2  K   -0.000000
 N-N= 8.378639172900D+00 E-N=-1.439477463915D+03  KE= 6.000547035058D+02
 Symmetry A1   KE= 4.747815642036D+02
 Symmetry A2   KE= 0.000000000000D+00
 Symmetry B1   KE= 6.263656965110D+01
 Symmetry B2   KE= 6.263656965110D+01

 Atomic contributions to Alpha molecular orbitals:
 Alpha occ 1 OE=-133.573 is K2-s=1.0000
 Alpha occ 2 OE=-14.550 is K2-s=1.0000
 Alpha occ 3 OE=-11.580 is K2-p=1.0000
 Alpha occ 4 OE=-11.576 is K2-p=1.0000
 Alpha occ 5 OE=-11.576 is K2-p=1.0000
 Alpha occ 6 OE=-1.826 is K2-s=0.9735
 Alpha occ 7 OE=-1.085 is K2-p=0.8889 H1-s=0.1009
 Alpha occ 8 OE=-1.002 is K2-p=1.0000
 Alpha occ 9 OE=-1.002 is K2-p=1.0000
 Alpha occ 10 OE=-0.216 is K2-s=0.5611 H1-s=0.3364 K2-p=0.1024
 Alpha vir 11 OE=0.012 is K2-p=0.6335 K2-s=0.3417
 Alpha vir 12 OE=0.028 is K2-p=1.0000
 Alpha vir 13 OE=0.028 is K2-p=1.0000
 Alpha vir 14 OE=0.059 is K2-s=0.5168 K2-p=0.4448
 Alpha vir 15 OE=0.093 is K2-p=0.6638 K2-s=0.3253
 Alpha vir 16 OE=0.110 is K2-p=1.0000
 Alpha vir 17 OE=0.110 is K2-p=1.0000
 Alpha vir 18 OE=0.298 is H1-s=0.4655 K2-s=0.2712 K2-p=0.2633
 
 Leave Link  601 at Mon Mar 28 14:31:35 2022, MaxMem=  9663676416 cpu:               0.8 elap:               0.0
 (Enter /nopt/nrel/apps/gaussian/g16C_1/g16/l9999.exe)

 Test job not archived.
 1\1\GINC-R102U34\SP\RCCSD-FC\Gen\H1K1\USER\28-Mar-2022\0\\#P CCSD(
 MaxCyc=200,SaveAmplitudes,ReadAmplitudes)/GEN sp pop=AllOrbitals iop(3
 /33=1,3/36=-1)\\test\\0,1\H,0,0.,0.,0.\K,0,0.,0.,1.2\\Version=ES64L-G1
 6RevC.01\State=1-SG\HF=-599.3168506\MP2=-599.3328268\MP3=-599.33961\MP
 4D=-599.3427417\MP4DQ=-599.3424157\MP4SDQ=-599.342685\CCSD=-599.345910
 5\RMSD=3.212e-09\PG=C*V [C*(H1K1)]\\@


 WE THE UNWILLING
 LED BY THE UNQUALIFIED
 HAVE BEEN DOING THE UNBELIEVABLE SO LONG WITH SO LITTLE
 THAT WE NOW ATTEMPT THE IMPOSSIBLE WITH NOTHING.

                                    -- ANONYMOUS
 Job cpu time:       0 days  0 hours  0 minutes 29.4 seconds.
 Elapsed time:       0 days  0 hours  0 minutes  1.1 seconds.
 File lengths (MBytes):  RWF=     13 Int=      0 D2E=      0 Chk=      1 Scr=      1
 Normal termination of Gaussian 16 at Mon Mar 28 14:31:35 2022.
