 Entering Gaussian System, Link 0=g16
 Initial command:
 /nopt/nrel/apps/gaussian/g16C_1/g16/l1.exe "/lustre/eaglefs/scratch/user/qc/nah-dissc/nah-1-ccsd-1.6-631g/Gau-13902.inp" -scrdir="/lustre/eaglefs/scratch/user/qc/nah-dissc/nah-1-ccsd-1.6-631g/"
 Default is to use a total of  36 processors:
                               36 via shared-memory
                                1 via Linda
 Entering Link 1 = /nopt/nrel/apps/gaussian/g16C_1/g16/l1.exe PID=     13903.
  
 Copyright (c) 1988-2019, Gaussian, Inc.  All Rights Reserved.
  
 This is part of the Gaussian(R) 16 program.  It is based on
 the Gaussian(R) 09 system (copyright 2009, Gaussian, Inc.),
 the Gaussian(R) 03 system (copyright 2003, Gaussian, Inc.),
 the Gaussian(R) 98 system (copyright 1998, Gaussian, Inc.),
 the Gaussian(R) 94 system (copyright 1995, Gaussian, Inc.),
 the Gaussian 92(TM) system (copyright 1992, Gaussian, Inc.),
 the Gaussian 90(TM) system (copyright 1990, Gaussian, Inc.),
 the Gaussian 88(TM) system (copyright 1988, Gaussian, Inc.),
 the Gaussian 86(TM) system (copyright 1986, Carnegie Mellon
 University), and the Gaussian 82(TM) system (copyright 1983,
 Carnegie Mellon University). Gaussian is a federally registered
 trademark of Gaussian, Inc.
  
 This software contains proprietary and confidential information,
 including trade secrets, belonging to Gaussian, Inc.
  
 This software is provided under written license and may be
 used, copied, transmitted, or stored only in accord with that
 written license.
  
 The following legend is applicable only to US Government
 contracts under FAR:
  
                    RESTRICTED RIGHTS LEGEND
  
 Use, reproduction and disclosure by the US Government is
 subject to restrictions as set forth in subparagraphs (a)
 and (c) of the Commercial Computer Software - Restricted
 Rights clause in FAR 52.227-19.
  
 Gaussian, Inc.
 340 Quinnipiac St., Bldg. 40, Wallingford CT 06492
  
  
 ---------------------------------------------------------------
 Warning -- This program may not be used in any manner that
 competes with the business of Gaussian, Inc. or will provide
 assistance to any competitor of Gaussian, Inc.  The licensee
 of this program is prohibited from giving any competitor of
 Gaussian, Inc. access to this program.  By using this program,
 the user acknowledges that Gaussian, Inc. is engaged in the
 business of creating and licensing software in the field of
 computational chemistry and represents and warrants to the
 licensee that it is not a competitor of Gaussian, Inc. and that
 it will not use this program in any manner prohibited above.
 ---------------------------------------------------------------
  

 Cite this work as:
 Gaussian 16, Revision C.01,
 M. J. Frisch, G. W. Trucks, H. B. Schlegel, G. E. Scuseria, 
 M. A. Robb, J. R. Cheeseman, G. Scalmani, V. Barone, 
 G. A. Petersson, H. Nakatsuji, X. Li, M. Caricato, A. V. Marenich, 
 J. Bloino, B. G. Janesko, R. Gomperts, B. Mennucci, H. P. Hratchian, 
 J. V. Ortiz, A. F. Izmaylov, J. L. Sonnenberg, D. Williams-Young, 
 F. Ding, F. Lipparini, F. Egidi, J. Goings, B. Peng, A. Petrone, 
 T. Henderson, D. Ranasinghe, V. G. Zakrzewski, J. Gao, N. Rega, 
 G. Zheng, W. Liang, M. Hada, M. Ehara, K. Toyota, R. Fukuda, 
 J. Hasegawa, M. Ishida, T. Nakajima, Y. Honda, O. Kitao, H. Nakai, 
 T. Vreven, K. Throssell, J. A. Montgomery, Jr., J. E. Peralta, 
 F. Ogliaro, M. J. Bearpark, J. J. Heyd, E. N. Brothers, K. N. Kudin, 
 V. N. Staroverov, T. A. Keith, R. Kobayashi, J. Normand, 
 K. Raghavachari, A. P. Rendell, J. C. Burant, S. S. Iyengar, 
 J. Tomasi, M. Cossi, J. M. Millam, M. Klene, C. Adamo, R. Cammi, 
 J. W. Ochterski, R. L. Martin, K. Morokuma, O. Farkas, 
 J. B. Foresman, and D. J. Fox, Gaussian, Inc., Wallingford CT, 2019.
 
 ******************************************
 Gaussian 16:  ES64L-G16RevC.01  3-Jul-2019
                28-Mar-2022 
 ******************************************
 %chk=molecule
 Default route: CacheSize=180224 MaxDisk=256GB
 ----------------------------------------------------------------------
 #P CCSD(MaxCyc=200,SaveAmplitudes,ReadAmplitudes)/GEN sp pop=AllOrbita
 ls iop(3/33=1,3/36=-1)
 ----------------------------------------------------------------------
 1/4=180224,38=1,172=1/1;
 2/4=180224,12=2,17=6,18=5,40=1/2;
 3/4=180224,5=7,11=9,25=1,30=1,33=1,36=-1/1,2,3;
 4/4=180224/1;
 5/4=180224,5=2,38=5/2;
 8/4=180224,6=4,9=120000,10=1,24=1/1,4;
 9/4=180224,5=7,6=200,77=1/13;
 6/4=180224,7=2,8=2,9=2,10=2,96=-1/1;
 99/4=180224,5=1,9=1/99;
 Leave Link    1 at Mon Mar 28 14:20:06 2022, MaxMem=           0 cpu:               2.4 elap:               0.1
 (Enter /nopt/nrel/apps/gaussian/g16C_1/g16/l101.exe)
 ----
 test
 ----
 Symbolic Z-matrix:
 Charge =  0 Multiplicity = 1
 H                     0.        0.        0. 
 Na                    0.        0.        1.6 
 
 ITRead=  0  0
 MicOpt= -1 -1
 NAtoms=      2 NQM=        2 NQMF=       0 NMMI=      0 NMMIF=      0
                NMic=       0 NMicF=      0.
                    Isotopes and Nuclear Properties:
 (Nuclear quadrupole moments (NQMom) in fm**2, nuclear magnetic moments (NMagM)
  in nuclear magnetons)

  Atom         1           2
 IAtWgt=           1          23
 AtmWgt=   1.0078250  22.9897697
 NucSpn=           1           3
 AtZEff=  -0.0000000  -0.0000000
 NQMom=    0.0000000  10.4000000
 NMagM=    2.7928460   2.2175200
 AtZNuc=   1.0000000  11.0000000
 Leave Link  101 at Mon Mar 28 14:20:07 2022, MaxMem=  9663676416 cpu:               3.2 elap:               0.1
 (Enter /nopt/nrel/apps/gaussian/g16C_1/g16/l202.exe)
                          Input orientation:                          
 ---------------------------------------------------------------------
 Center     Atomic      Atomic             Coordinates (Angstroms)
 Number     Number       Type             X           Y           Z
 ---------------------------------------------------------------------
      1          1           0        0.000000    0.000000    0.000000
      2         11           0        0.000000    0.000000    1.600000
 ---------------------------------------------------------------------
 Stoichiometry    HNa
 Framework group  C*V[C*(HNa)]
 Deg. of freedom     1
 Full point group                 C*V     NOp   4
 Largest Abelian subgroup         C2V     NOp   4
 Largest concise Abelian subgroup C1      NOp   1
                         Standard orientation:                         
 ---------------------------------------------------------------------
 Center     Atomic      Atomic             Coordinates (Angstroms)
 Number     Number       Type             X           Y           Z
 ---------------------------------------------------------------------
      1          1           0        0.000000    0.000000   -1.466667
      2         11           0        0.000000    0.000000    0.133333
 ---------------------------------------------------------------------
 Rotational constants (GHZ):           0.0000000         204.4679229         204.4679229
 Leave Link  202 at Mon Mar 28 14:20:07 2022, MaxMem=  9663676416 cpu:               0.9 elap:               0.0
 (Enter /nopt/nrel/apps/gaussian/g16C_1/g16/l301.exe)
 General basis read from cards:  (5D, 7F)
                         Coordinates in L301:                         
 ---------------------------------------------------------------------
 Center     Atomic      Atomic             Coordinates (Angstroms)
 Number     Number       Type             X           Y           Z
 ---------------------------------------------------------------------
      1          1           0        0.000000    0.000000   -1.466667
      2         11           0        0.000000    0.000000    0.133333
 ---------------------------------------------------------------------
 Centers:       1
 STO-3G
 ****
 Centers:       2
 6-31G
 ****
 FixB: optimizing general contractions.
 Ernie: Thresh=  0.10000D-02 Tol=  0.10000D-05 Strict=F.
 IA=     1 ShT= 0 ShC= 0 NL=   1 NS=   0.
 IA=     1 L=0 SC=0 ISt=    0 NBk=    0 NP=    0 IndPr=    0.
 IA=     2 ShT= 0 ShC= 0 NL=   1 NS=   0.
 IA=     2 L=0 SC=0 ISt=    0 NBk=    0 NP=    0 IndPr=    0.
 IA=     2 ShT= 1 ShC= 0 NL=   3 NS=   1.
 IA=     2 L=1 SC=0 ISt=    1 NBk=    2 NP=    9 IndPr=    0.
 DoElim1:  L=1 select primitive    1 from    2 using    1 C=-3.54D-03
 DoElim2:  L=1 select primitive    9 from    1 using    2 C= 1.23D+00
 DoElim1:  L=1 select primitive    1 from    2 using    1 C= 5.00D-03
 DoElim2:  L=1 select primitive    8 from    1 using    2 C= 9.50D-01
 Delete L=1 primitive    7 from    2 C=  0.00D+00.
 Delete L=1 primitive    5 from    2 C=  0.00D+00.
 Delete L=1 primitive    4 from    2 C=  0.00D+00.
 Delete L=1 primitive    3 from    2 C=  0.00D+00.
 Delete L=1 primitive    2 from    2 C=  0.00D+00.
 Delete L=1 primitive    1 from    2 C=  0.00D+00.
 Delete L=1 primitive    9 from    1 C=  0.00D+00.
 Delete L=1 primitive    8 from    1 C=  0.00D+00.
 Delete L=1 primitive    6 from    1 C=  0.00D+00.
 IA=     2 L=1 SC=0 ISt=    0 NBk=    0 NP=    0 IndPr=    9.
 LdAtmC:  AtmChg=     1.000000    11.000000
 AtZEff=     -1.0000000    -10.0400000
 NEqShl: 
              1            2            3            4
     1            1            1            1            1
     2            2            2            2            2
     3            3            3            3            3
     4            4            4            4            4
     5            5            5            5            5
 NEqBas: 
              1            2            3            4
     1            1            1            1            1
     2            2            2            2            2
     3            3            3            3            3
     4            4           -4           -4            4
     5            5           -5            5           -5
     6            6            6            6            6
     7            7            7            7            7
     8            8           -8           -8            8
     9            9           -9            9           -9
    10           10           10           10           10
    11           11           11           11           11
    12           12          -12          -12           12
    13           13          -13           13          -13
    14           14           14           14           14
 There are     8 symmetry adapted cartesian basis functions of A1  symmetry.
   1         1   1   1   1
   2         2   2   2   2
   3         3   3   3   3
   4         6   6   6   6
   5         7   7   7   7
   6        10  10  10  10
   7        11  11  11  11
   8        14  14  14  14
 There are     0 symmetry adapted cartesian basis functions of A2  symmetry.
 There are     3 symmetry adapted cartesian basis functions of B1  symmetry.
   9         4   4   4   4
  10         8   8   8   8
  11        12  12  12  12
 There are     3 symmetry adapted cartesian basis functions of B2  symmetry.
  12         5   5   5   5
  13         9   9   9   9
  14        13  13  13  13
 Order= 1 2 4 3
 Reordered character table:
              1            2            3            4            5
     1            1            1            1            1            1
     2            2            1            1           -1           -1
     3            4            1           -1           -1            1
     4            3            1           -1            1           -1
 NEqShl: 
              1            2            3            4
     1            1            1            1            1
     2            2            2            2            2
     3            3            3            3            3
     4            4            4            4            4
     5            5            5            5            5
 NEqBas: 
              1            2            3            4
     1            1            1            1            1
     2            2            2            2            2
     3            3            3            3            3
     4            4           -4           -4            4
     5            5           -5            5           -5
     6            6            6            6            6
     7            7            7            7            7
     8            8           -8           -8            8
     9            9           -9            9           -9
    10           10           10           10           10
    11           11           11           11           11
    12           12          -12          -12           12
    13           13          -13           13          -13
    14           14           14           14           14
 There are     8 symmetry adapted basis functions of A1  symmetry.
   1         1   1   1   1
   2         2   2   2   2
   3         3   3   3   3
   4         6   6   6   6
   5         7   7   7   7
   6        10  10  10  10
   7        11  11  11  11
   8        14  14  14  14
 There are     0 symmetry adapted basis functions of A2  symmetry.
 There are     3 symmetry adapted basis functions of B1  symmetry.
   9         4   4   4   4
  10         8   8   8   8
  11        12  12  12  12
 There are     3 symmetry adapted basis functions of B2  symmetry.
  12         5   5   5   5
  13         9   9   9   9
  14        13  13  13  13
 Order= 1 2 4 3
 Reordered character table:
              1            2            3            4            5
     1            1            1            1            1            1
     2            2            1            1           -1           -1
     3            4            1           -1           -1            1
     4            3            1           -1            1           -1
    14 basis functions,    49 primitive gaussians,    14 cartesian basis functions
     6 alpha electrons        6 beta electrons
       nuclear repulsion energy         3.6380933251 Hartrees.
 IS=     1 IAt=     1 ISR=     1 T=0 IP=      1 IndIP=      1 IndIPD=      0 C=  2.769344D-01  0.000000D+00                             NZ=T
 IS=     1 IAt=     1 ISR=     1 T=0 IP=      2 IndIP=      2 IndIPD=      1 C=  2.678389D-01  0.000000D+00                             NZ=T
 IS=     1 IAt=     1 ISR=     1 T=0 IP=      3 IndIP=      3 IndIPD=      2 C=  8.347367D-02  0.000000D+00                             NZ=T
 IS=     2 IAt=     2 ISR=     1 T=0 IP=      1 IndIP=      4 IndIPD=      0 C=  1.380276D+00  0.000000D+00                             NZ=T
 IS=     2 IAt=     2 ISR=     1 T=0 IP=      2 IndIP=      5 IndIPD=      1 C=  2.543440D+00  0.000000D+00                             NZ=T
 IS=     2 IAt=     2 ISR=     1 T=0 IP=      3 IndIP=      6 IndIPD=      2 C=  4.120502D+00  0.000000D+00                             NZ=T
 IS=     2 IAt=     2 ISR=     1 T=0 IP=      4 IndIP=      7 IndIPD=      3 C=  5.464941D+00  0.000000D+00                             NZ=T
 IS=     2 IAt=     2 ISR=     1 T=0 IP=      5 IndIP=      8 IndIPD=      4 C=  4.476262D+00  0.000000D+00                             NZ=T
 IS=     2 IAt=     2 ISR=     1 T=0 IP=      6 IndIP=      9 IndIPD=      5 C=  1.255723D+00  0.000000D+00                             NZ=T
 IS=     3 IAt=     2 ISR=     2 T=1 IP=      1 IndIP=     10 IndIPD=      0 C= -1.087231D-01  3.772614D+00                             NZ=T
 IS=     3 IAt=     2 ISR=     2 T=1 IP=      2 IndIP=     11 IndIPD=      1 C= -4.564910D-01  4.399752D+00                             NZ=T
 IS=     3 IAt=     2 ISR=     2 T=1 IP=      3 IndIP=     12 IndIPD=      2 C= -4.778739D-01  4.156503D+00                             NZ=T
 IS=     3 IAt=     2 ISR=     2 T=1 IP=      4 IndIP=     13 IndIPD=      3 C=  3.708017D-01  2.647056D+00                             NZ=T
 IS=     3 IAt=     2 ISR=     2 T=1 IP=      5 IndIP=     14 IndIPD=      4 C=  5.874076D-01  9.643141D-01                             NZ=T
 IS=     3 IAt=     2 ISR=     2 T=1 IP=      6 IndIP=     15 IndIPD=      5 C=  1.231036D-01  1.501277D-01                             NZ=T
 IS=     4 IAt=     2 ISR=     3 T=1 IP=      1 IndIP=     16 IndIPD=      0 C= -1.049885D-01 -1.372752D-02                             NZ=T
 IS=     4 IAt=     2 ISR=     3 T=1 IP=      2 IndIP=     17 IndIPD=      1 C= -1.469212D-02  6.158186D-02                             NZ=T
 IS=     4 IAt=     2 ISR=     3 T=1 IP=      3 IndIP=     18 IndIPD=      2 C=  1.153011D-01  2.888614D-03                             NZ=T
 IS=     5 IAt=     2 ISR=     4 T=1 IP=      1 IndIP=     19 IndIPD=      0 C=  4.608593D-02  1.484923D-02                             NZ=T
 IExCor=    0 DFT=F Ex=HF Corr=None ExCW=0 ScaHFX=  1.000000
 ScaDFX=  1.000000  1.000000  1.000000  1.000000 ScalE2=  1.000000  1.000000
 IRadAn=      5 IRanWt=     -1 IRanGd=            0 ICorTp=0 IEmpDi=  4
 NAtoms=    2 NActive=    2 NUniq=    2 SFac= 1.00D+00 NAtFMM=   60 NAOKFM=F Big=F
 Integral buffers will be    131072 words long.
 Raffenetti 1 integral format.
 Two-electron integral symmetry is turned on.
 Leave Link  301 at Mon Mar 28 14:20:07 2022, MaxMem=  9663676416 cpu:               2.1 elap:               0.1
 (Enter /nopt/nrel/apps/gaussian/g16C_1/g16/l302.exe)
 NPDir=0 NMtPBC=     1 NCelOv=     1 NCel=       1 NClECP=     1 NCelD=      1
         NCelK=      1 NCelE2=     1 NClLst=     1 CellRange=     0.0.
 One-electron integrals computed using PRISM.
 One-electron integral symmetry used in STVInt
 Entering OneElI...
 Calculate overlap and kinetic energy integrals
    NBasis =  14  MinDer = 0  MaxDer = 0
 Requested accuracy = 0.1000D-12
 Symmetry will be used
 PrmmSu-InSpLW:  IPartL=    0 NPrtUS=   36 NPrtUL=    1 DoSpLW=F IThBeg=    0 IThEnd=   35 NThAct=   36.
 PrSmSu:  IncTry=   512 NBBP=             15 NTPThr=   100 NPartT=   36 Incr=           1 LDynOK=F GPUOK=F.
 PrsmSu:  NPrtUS=  36 ThrOK=T IAlg=1 LenDen=           0 ISkipM=0 DoSpLW=F IThBeg=    0 IThEnd=   35.
 Prism:   IPart=     0 DynPar=F LinDyn=F Incr=           1.
 PRISM was handed   268432468 working-precision words and    15 shell-pairs
 PRISM was handed   268432468 working-precision words and    15 shell-pairs
 PRISM was handed   268432468 working-precision words and    15 shell-pairs
 PRISM was handed   268432468 working-precision words and    15 shell-pairs
 PRISM was handed   268432468 working-precision words and    15 shell-pairs
 PRISM was handed   268432468 working-precision words and    15 shell-pairs
 PRISM was handed   268432468 working-precision words and    15 shell-pairs
 IPart= 14 NShTot=           0 NBatch=           0 AvBLen=         0.0
 IPart=  3 NShTot=           0 NBatch=           0 AvBLen=         0.0
 PRISM was handed   268432468 working-precision words and    15 shell-pairs
 IPart= 32 NShTot=           0 NBatch=           0 AvBLen=         0.0
 IPart= 20 NShTot=           0 NBatch=           0 AvBLen=         0.0
 PRISM was handed   268432468 working-precision words and    15 shell-pairs
 PRISM was handed   268432468 working-precision words and    15 shell-pairs
 PRISM was handed   268432468 working-precision words and    15 shell-pairs
 PRISM was handed   268432468 working-precision words and    15 shell-pairs
 PRISM was handed   268432468 working-precision words and    15 shell-pairs
 IPart= 19 NShTot=           0 NBatch=           0 AvBLen=         0.0
 PRISM was handed   268432468 working-precision words and    15 shell-pairs
 IPart=  2 NShTot=           0 NBatch=           0 AvBLen=         0.0
 PRISM was handed   268432468 working-precision words and    15 shell-pairs
 PRISM was handed   268432468 working-precision words and    15 shell-pairs
 IPart= 31 NShTot=           0 NBatch=           0 AvBLen=         0.0
 IPart= 24 NShTot=           0 NBatch=           0 AvBLen=         0.0
 IPart=  4 NShTot=           0 NBatch=           0 AvBLen=         0.0
 IPart= 27 NShTot=           0 NBatch=           0 AvBLen=         0.0
 IPart=  6 NShTot=           0 NBatch=           0 AvBLen=         0.0
 IPart=  5 NShTot=           0 NBatch=           0 AvBLen=         0.0
 PRISM was handed   268432468 working-precision words and    15 shell-pairs
 PRISM was handed   268432468 working-precision words and    15 shell-pairs
 PRISM was handed   268432468 working-precision words and    15 shell-pairs
 IPart= 29 NShTot=           0 NBatch=           0 AvBLen=         0.0
 IPart= 21 NShTot=           0 NBatch=           0 AvBLen=         0.0
 IPart= 18 NShTot=           0 NBatch=           0 AvBLen=         0.0
 PRISM was handed   268432468 working-precision words and    15 shell-pairs
 IPart= 16 NShTot=           0 NBatch=           0 AvBLen=         0.0
 PRISM was handed   268432468 working-precision words and    15 shell-pairs
 IPart=  0 NShTot=          14 NBatch=          14 AvBLen=         1.0
 IPart= 12 NShTot=           0 NBatch=           0 AvBLen=         0.0
 IPart=  8 NShTot=           0 NBatch=           0 AvBLen=         0.0
 IPart= 34 NShTot=           0 NBatch=           0 AvBLen=         0.0
 IPart= 10 NShTot=           0 NBatch=           0 AvBLen=         0.0
 PRISM was handed   268432468 working-precision words and    15 shell-pairs
 PRISM was handed   268432468 working-precision words and    15 shell-pairs
 PRISM was handed   268432468 working-precision words and    15 shell-pairs
 PRISM was handed   268432468 working-precision words and    15 shell-pairs
 PRISM was handed   268432468 working-precision words and    15 shell-pairs
 PRISM was handed   268432468 working-precision words and    15 shell-pairs
 PRISM was handed   268432468 working-precision words and    15 shell-pairs
 PRISM was handed   268432468 working-precision words and    15 shell-pairs
 PRISM was handed   268432468 working-precision words and    15 shell-pairs
 IPart= 17 NShTot=           0 NBatch=           0 AvBLen=         0.0
 PRISM was handed   268432468 working-precision words and    15 shell-pairs
 PRISM was handed   268432468 working-precision words and    15 shell-pairs
 IPart= 35 NShTot=           0 NBatch=           0 AvBLen=         0.0
 IPart=  9 NShTot=           0 NBatch=           0 AvBLen=         0.0
 IPart= 13 NShTot=           0 NBatch=           0 AvBLen=         0.0
 IPart= 33 NShTot=           0 NBatch=           0 AvBLen=         0.0
 IPart=  7 NShTot=           0 NBatch=           0 AvBLen=         0.0
 IPart= 30 NShTot=           0 NBatch=           0 AvBLen=         0.0
 IPart= 23 NShTot=           0 NBatch=           0 AvBLen=         0.0
 PRISM was handed   268432468 working-precision words and    15 shell-pairs
 PRISM was handed   268432468 working-precision words and    15 shell-pairs
 PRISM was handed   268432468 working-precision words and    15 shell-pairs
 PRISM was handed   268432468 working-precision words and    15 shell-pairs
 IPart= 11 NShTot=           0 NBatch=           0 AvBLen=         0.0
 IPart= 28 NShTot=           0 NBatch=           0 AvBLen=         0.0
 IPart=  1 NShTot=           1 NBatch=           1 AvBLen=         1.0
 IPart= 26 NShTot=           0 NBatch=           0 AvBLen=         0.0
 IPart= 25 NShTot=           0 NBatch=           0 AvBLen=         0.0
 IPart= 15 NShTot=           0 NBatch=           0 AvBLen=         0.0
 IPart= 22 NShTot=           0 NBatch=           0 AvBLen=         0.0
 PrSmSu:  NxtVal=             37.
 *** Overlap *** 
                1             2             3             4             5 
      1  0.100000D+01
      2  0.777554D-02  0.100000D+01
      3  0.964456D-01  0.230835D+00  0.100000D+01
      4  0.000000D+00  0.000000D+00  0.000000D+00  0.100000D+01
      5  0.000000D+00  0.000000D+00  0.000000D+00  0.000000D+00  0.100000D+01
      6 -0.102094D+00  0.000000D+00  0.000000D+00  0.000000D+00  0.000000D+00
      7  0.399344D+00 -0.127644D-04  0.161245D+00  0.000000D+00  0.000000D+00
      8  0.000000D+00  0.000000D+00  0.000000D+00  0.186871D+00  0.000000D+00
      9  0.000000D+00  0.000000D+00  0.000000D+00  0.000000D+00  0.186871D+00
     10 -0.523116D+00  0.000000D+00  0.000000D+00  0.000000D+00  0.000000D+00
     11  0.316049D+00  0.189170D-01  0.190082D+00  0.000000D+00  0.000000D+00
     12  0.000000D+00  0.000000D+00  0.000000D+00  0.574619D-01  0.000000D+00
     13  0.000000D+00  0.000000D+00  0.000000D+00  0.000000D+00  0.574619D-01
     14 -0.277446D+00  0.000000D+00  0.000000D+00  0.000000D+00  0.000000D+00
                6             7             8             9            10 
      6  0.100000D+01
      7  0.000000D+00  0.100000D+01
      8  0.000000D+00  0.000000D+00  0.100000D+01
      9  0.000000D+00  0.000000D+00  0.000000D+00  0.100000D+01
     10  0.186871D+00  0.000000D+00  0.000000D+00  0.000000D+00  0.100000D+01
     11  0.000000D+00  0.876272D+00  0.000000D+00  0.000000D+00  0.000000D+00
     12  0.000000D+00  0.000000D+00  0.672925D+00  0.000000D+00  0.000000D+00
     13  0.000000D+00  0.000000D+00  0.000000D+00  0.672925D+00  0.000000D+00
     14  0.574619D-01  0.000000D+00  0.000000D+00  0.000000D+00  0.672925D+00
               11            12            13            14 
     11  0.100000D+01
     12  0.000000D+00  0.100000D+01
     13  0.000000D+00  0.000000D+00  0.100000D+01
     14  0.000000D+00  0.000000D+00  0.000000D+00  0.100000D+01
 *** Kinetic Energy *** 
                1             2             3             4             5 
      1  0.760032D+00
      2 -0.213084D-02  0.565455D+02
      3 -0.173728D-01 -0.266647D+01  0.196759D+01
      4  0.000000D+00  0.000000D+00  0.000000D+00  0.588848D+01
      5  0.000000D+00  0.000000D+00  0.000000D+00  0.000000D+00  0.588848D+01
      6 -0.358654D-02  0.000000D+00  0.000000D+00  0.000000D+00  0.000000D+00
      7  0.506400D-01 -0.516638D-01 -0.152029D+00  0.000000D+00  0.000000D+00
      8  0.000000D+00  0.000000D+00  0.000000D+00  0.478086D-01  0.000000D+00
      9  0.000000D+00  0.000000D+00  0.000000D+00  0.000000D+00  0.478086D-01
     10 -0.128132D+00  0.000000D+00  0.000000D+00  0.000000D+00  0.000000D+00
     11  0.190056D-01  0.147038D-02  0.142898D-01  0.000000D+00  0.000000D+00
     12  0.000000D+00  0.000000D+00  0.000000D+00  0.716353D-02  0.000000D+00
     13  0.000000D+00  0.000000D+00  0.000000D+00  0.000000D+00  0.716353D-02
     14 -0.297322D-01  0.000000D+00  0.000000D+00  0.000000D+00  0.000000D+00
                6             7             8             9            10 
      6  0.588848D+01
      7  0.000000D+00  0.116833D+00
      8  0.000000D+00  0.000000D+00  0.205703D+00
      9  0.000000D+00  0.000000D+00  0.000000D+00  0.205703D+00
     10  0.478086D-01  0.000000D+00  0.000000D+00  0.000000D+00  0.205703D+00
     11  0.000000D+00  0.474660D-01  0.000000D+00  0.000000D+00  0.000000D+00
     12  0.000000D+00  0.000000D+00  0.664432D-01  0.000000D+00  0.000000D+00
     13  0.000000D+00  0.000000D+00  0.000000D+00  0.664432D-01  0.000000D+00
     14  0.716353D-02  0.000000D+00  0.000000D+00  0.000000D+00  0.664432D-01
               11            12            13            14 
     11  0.389316D-01
     12  0.000000D+00  0.648860D-01
     13  0.000000D+00  0.000000D+00  0.648860D-01
     14  0.000000D+00  0.000000D+00  0.000000D+00  0.648860D-01
 Entering OneElI...
 Calculate potential energy integrals
    NBasis =  14  MinDer = 0  MaxDer = 0
 Requested accuracy = 0.1000D-12
 Symmetry will be used
 PrmmSu-InSpLW:  IPartL=    0 NPrtUS=   36 NPrtUL=    1 DoSpLW=F IThBeg=    0 IThEnd=   35 NThAct=   36.
 PrSmSu:  IncTry=   512 NBBP=             30 NTPThr=   100 NPartT=   36 Incr=           1 LDynOK=F GPUOK=F.
 PrsmSu:  NPrtUS=  36 ThrOK=T IAlg=1 LenDen=           0 ISkipM=0 DoSpLW=F IThBeg=    0 IThEnd=   35.
 Prism:   IPart=     0 DynPar=F LinDyn=F Incr=           1.
 PRISM was handed   268432600 working-precision words and    15 shell-pairs
 PRISM was handed   268432600 working-precision words and    15 shell-pairs
 PRISM was handed   268432600 working-precision words and    15 shell-pairs
 PRISM was handed   268432600 working-precision words and    15 shell-pairs
 PRISM was handed   268432600 working-precision words and    15 shell-pairs
 PRISM was handed   268432600 working-precision words and    15 shell-pairs
 PRISM was handed   268432600 working-precision words and    15 shell-pairs
 PRISM was handed   268432600 working-precision words and    15 shell-pairs
 PRISM was handed   268432600 working-precision words and    15 shell-pairs
 PRISM was handed   268432600 working-precision words and    15 shell-pairs
 PRISM was handed   268432600 working-precision words and    15 shell-pairs
 PRISM was handed   268432600 working-precision words and    15 shell-pairs
 PRISM was handed   268432600 working-precision words and    15 shell-pairs
 PRISM was handed   268432600 working-precision words and    15 shell-pairs
 PRISM was handed   268432600 working-precision words and    15 shell-pairs
 PRISM was handed   268432600 working-precision words and    15 shell-pairs
 PRISM was handed   268432600 working-precision words and    15 shell-pairs
 PRISM was handed   268432600 working-precision words and    15 shell-pairs
 PRISM was handed   268432600 working-precision words and    15 shell-pairs
 PRISM was handed   268432600 working-precision words and    15 shell-pairs
 PRISM was handed   268432600 working-precision words and    15 shell-pairs
 PRISM was handed   268432600 working-precision words and    15 shell-pairs
 PRISM was handed   268432600 working-precision words and    15 shell-pairs
 PRISM was handed   268432600 working-precision words and    15 shell-pairs
 PRISM was handed   268432600 working-precision words and    15 shell-pairs
 PRISM was handed   268432600 working-precision words and    15 shell-pairs
 PRISM was handed   268432600 working-precision words and    15 shell-pairs
 PRISM was handed   268432600 working-precision words and    15 shell-pairs
 PRISM was handed   268432600 working-precision words and    15 shell-pairs
 PRISM was handed   268432600 working-precision words and    15 shell-pairs
 PRISM was handed   268432600 working-precision words and    15 shell-pairs
 PRISM was handed   268432600 working-precision words and    15 shell-pairs
 PRISM was handed   268432600 working-precision words and    15 shell-pairs
 PRISM was handed   268432600 working-precision words and    15 shell-pairs
 PRISM was handed   268432600 working-precision words and    15 shell-pairs
 PRISM was handed   268432600 working-precision words and    15 shell-pairs
 IPart=  1 NShTot=           0 NBatch=           0 AvBLen=         0.0
 IPart=  0 NShTot=          30 NBatch=          15 AvBLen=         2.0
 IPart=  8 NShTot=           0 NBatch=           0 AvBLen=         0.0
 IPart= 25 NShTot=           0 NBatch=           0 AvBLen=         0.0
 IPart=  7 NShTot=           0 NBatch=           0 AvBLen=         0.0
 IPart= 34 NShTot=           0 NBatch=           0 AvBLen=         0.0
 IPart= 26 NShTot=           0 NBatch=           0 AvBLen=         0.0
 IPart= 12 NShTot=           0 NBatch=           0 AvBLen=         0.0
 IPart= 21 NShTot=           0 NBatch=           0 AvBLen=         0.0
 IPart= 15 NShTot=           0 NBatch=           0 AvBLen=         0.0
 IPart=  6 NShTot=           0 NBatch=           0 AvBLen=         0.0
 IPart=  2 NShTot=           0 NBatch=           0 AvBLen=         0.0
 IPart=  5 NShTot=           0 NBatch=           0 AvBLen=         0.0
 IPart= 10 NShTot=           0 NBatch=           0 AvBLen=         0.0
 IPart= 22 NShTot=           0 NBatch=           0 AvBLen=         0.0
 IPart= 18 NShTot=           0 NBatch=           0 AvBLen=         0.0
 IPart= 28 NShTot=           0 NBatch=           0 AvBLen=         0.0
 IPart= 20 NShTot=           0 NBatch=           0 AvBLen=         0.0
 IPart= 31 NShTot=           0 NBatch=           0 AvBLen=         0.0
 IPart= 32 NShTot=           0 NBatch=           0 AvBLen=         0.0
 IPart= 35 NShTot=           0 NBatch=           0 AvBLen=         0.0
 IPart= 27 NShTot=           0 NBatch=           0 AvBLen=         0.0
 IPart= 11 NShTot=           0 NBatch=           0 AvBLen=         0.0
 IPart= 19 NShTot=           0 NBatch=           0 AvBLen=         0.0
 IPart=  9 NShTot=           0 NBatch=           0 AvBLen=         0.0
 IPart= 13 NShTot=           0 NBatch=           0 AvBLen=         0.0
 IPart= 14 NShTot=           0 NBatch=           0 AvBLen=         0.0
 IPart= 24 NShTot=           0 NBatch=           0 AvBLen=         0.0
 IPart= 30 NShTot=           0 NBatch=           0 AvBLen=         0.0
 IPart= 33 NShTot=           0 NBatch=           0 AvBLen=         0.0
 IPart= 17 NShTot=           0 NBatch=           0 AvBLen=         0.0
 IPart=  3 NShTot=           0 NBatch=           0 AvBLen=         0.0
 IPart= 23 NShTot=           0 NBatch=           0 AvBLen=         0.0
 IPart=  4 NShTot=           0 NBatch=           0 AvBLen=         0.0
 IPart= 29 NShTot=           0 NBatch=           0 AvBLen=         0.0
 IPart= 16 NShTot=           0 NBatch=           0 AvBLen=         0.0
 PrSmSu:  NxtVal=             37.
 ***** Potential Energy ***** 
                1             2             3             4             5 
      1  0.485520D+01
      2  0.454580D+00  0.117291D+03
      3  0.109417D+01  0.106830D+02  0.181569D+02
      4  0.000000D+00  0.000000D+00  0.000000D+00  0.189822D+02
      5  0.000000D+00  0.000000D+00  0.000000D+00  0.000000D+00  0.189822D+02
      6 -0.836646D+00 -0.502976D-02 -0.488221D-01  0.000000D+00  0.000000D+00
      7  0.181289D+01 -0.498358D-01  0.134089D+01  0.000000D+00  0.000000D+00
      8  0.000000D+00  0.000000D+00  0.000000D+00  0.157190D+01  0.000000D+00
      9  0.000000D+00  0.000000D+00  0.000000D+00  0.000000D+00  0.157190D+01
     10 -0.228195D+01 -0.769402D-04 -0.141237D-01  0.000000D+00  0.000000D+00
     11  0.140523D+01  0.111206D+01  0.230993D+01  0.000000D+00  0.000000D+00
     12  0.000000D+00  0.000000D+00  0.000000D+00  0.467071D+00  0.000000D+00
     13  0.000000D+00  0.000000D+00  0.000000D+00  0.000000D+00  0.467071D+00
     14 -0.105973D+01 -0.222954D-04 -0.435664D-02  0.000000D+00  0.000000D+00
                6             7             8             9            10 
      6  0.189999D+02
      7 -0.226104D-01  0.388053D+01
      8  0.000000D+00  0.000000D+00  0.355979D+01
      9  0.000000D+00  0.000000D+00  0.000000D+00  0.355979D+01
     10  0.158496D+01 -0.122505D+00  0.000000D+00  0.000000D+00  0.365998D+01
     11 -0.191451D-01  0.313205D+01  0.000000D+00  0.000000D+00 -0.968695D-01
     12  0.000000D+00  0.000000D+00  0.196912D+01  0.000000D+00  0.000000D+00
     13  0.000000D+00  0.000000D+00  0.000000D+00  0.196912D+01  0.000000D+00
     14  0.471360D+00 -0.628337D-01  0.000000D+00  0.000000D+00  0.201929D+01
               11            12            13            14 
     11  0.304954D+01
     12  0.000000D+00  0.204193D+01
     13  0.000000D+00  0.000000D+00  0.204193D+01
     14 -0.632920D-01  0.000000D+00  0.000000D+00  0.207688D+01
 ****** Core Hamiltonian ****** 
                1             2             3             4             5 
      1 -0.409517D+01
      2 -0.456711D+00 -0.607459D+02
      3 -0.111154D+01 -0.133495D+02 -0.161893D+02
      4  0.000000D+00  0.000000D+00  0.000000D+00 -0.130937D+02
      5  0.000000D+00  0.000000D+00  0.000000D+00  0.000000D+00 -0.130937D+02
      6  0.833060D+00  0.502976D-02  0.488221D-01  0.000000D+00  0.000000D+00
      7 -0.176225D+01 -0.182796D-02 -0.149292D+01  0.000000D+00  0.000000D+00
      8  0.000000D+00  0.000000D+00  0.000000D+00 -0.152409D+01  0.000000D+00
      9  0.000000D+00  0.000000D+00  0.000000D+00  0.000000D+00 -0.152409D+01
     10  0.215382D+01  0.769402D-04  0.141237D-01  0.000000D+00  0.000000D+00
     11 -0.138623D+01 -0.111059D+01 -0.229564D+01  0.000000D+00  0.000000D+00
     12  0.000000D+00  0.000000D+00  0.000000D+00 -0.459907D+00  0.000000D+00
     13  0.000000D+00  0.000000D+00  0.000000D+00  0.000000D+00 -0.459907D+00
     14  0.102999D+01  0.222954D-04  0.435664D-02  0.000000D+00  0.000000D+00
                6             7             8             9            10 
      6 -0.131114D+02
      7  0.226104D-01 -0.376370D+01
      8  0.000000D+00  0.000000D+00 -0.335409D+01
      9  0.000000D+00  0.000000D+00  0.000000D+00 -0.335409D+01
     10 -0.153715D+01  0.122505D+00  0.000000D+00  0.000000D+00 -0.345428D+01
     11  0.191451D-01 -0.308459D+01  0.000000D+00  0.000000D+00  0.968695D-01
     12  0.000000D+00  0.000000D+00 -0.190268D+01  0.000000D+00  0.000000D+00
     13  0.000000D+00  0.000000D+00  0.000000D+00 -0.190268D+01  0.000000D+00
     14 -0.464196D+00  0.628337D-01  0.000000D+00  0.000000D+00 -0.195284D+01
               11            12            13            14 
     11 -0.301061D+01
     12  0.000000D+00 -0.197704D+01
     13  0.000000D+00  0.000000D+00 -0.197704D+01
     14  0.632920D-01  0.000000D+00  0.000000D+00 -0.201199D+01
 SVDSVc IOpt=   1 NormSV=T IR=1
 SVDSVc V= 2.31D+00 1.83D+00 1.19D+00 9.71D-01 7.44D-01 6.04D-01 2.44D-01 1.14D-01
 SVDSVc IOpt=   1 NormSV=T IR=3
 SVDSVc V= 1.72D+00 9.71D-01 3.14D-01
 SVDSVc IOpt=   1 NormSV=T IR=4
 SVDSVc V= 1.72D+00 9.71D-01 3.14D-01
 TstOVc:  Largest diagonal error= 2.44D-15 IB=1 I=    8.
 TstOVc:  Largest same sym error= 1.14D-15 IB=1 I=    8 J=    7.
 TstOVc:  Largest diff sym error= 0.00D+00 IB=0 JB=0 I=    0 J=    0.
 Orthogonalized basis functions: 
                 1             2             3             4             5 
      1   0.330047D+00 -0.109572D+00 -0.450021D-01  0.186086D-01 -0.600019D-01
      2   0.268769D-01  0.432758D-01  0.687348D+00  0.351109D-02 -0.762964D+00
      3   0.115272D+00  0.132702D+00  0.573237D+00 -0.400931D-03  0.856348D+00
      4   0.000000D+00  0.000000D+00  0.000000D+00  0.000000D+00  0.000000D+00
      5   0.000000D+00  0.000000D+00  0.000000D+00  0.000000D+00  0.000000D+00
      6  -0.694080D-01  0.130552D+00 -0.152307D-01  0.980052D+00 -0.859423D-02
      7   0.326636D+00  0.309620D+00 -0.148136D+00 -0.642691D-02 -0.119815D+00
      8   0.000000D+00  0.000000D+00  0.000000D+00  0.000000D+00  0.000000D+00
      9   0.000000D+00  0.000000D+00  0.000000D+00  0.000000D+00  0.000000D+00
     10  -0.244244D+00  0.402937D+00 -0.280930D-01 -0.649322D-01 -0.837318D-02
     11   0.315803D+00  0.317706D+00 -0.116879D+00 -0.819206D-02 -0.952251D-01
     12   0.000000D+00  0.000000D+00  0.000000D+00  0.000000D+00  0.000000D+00
     13   0.000000D+00  0.000000D+00  0.000000D+00  0.000000D+00  0.000000D+00
     14  -0.198770D+00  0.373726D+00 -0.386355D-01 -0.254871D+00 -0.410706D-01
                 6             7             8             9            10 
      1   0.963290D+00  0.754278D+00 -0.440376D+00  0.000000D+00  0.000000D+00
      2  -0.155501D-01  0.656720D-02  0.262464D-01  0.000000D+00  0.000000D+00
      3   0.234983D-01 -0.120101D-01  0.753499D-01  0.000000D+00  0.000000D+00
      4   0.000000D+00  0.000000D+00  0.000000D+00  0.180764D+00  0.976429D+00
      5   0.000000D+00  0.000000D+00  0.000000D+00  0.000000D+00  0.000000D+00
      6   0.164516D+00 -0.188089D+00  0.187839D-01  0.000000D+00  0.000000D+00
      7  -0.190721D+00  0.976992D-01  0.212960D+01  0.000000D+00  0.000000D+00
      8   0.000000D+00  0.000000D+00  0.000000D+00  0.532957D+00 -0.716361D-01
      9   0.000000D+00  0.000000D+00  0.000000D+00  0.000000D+00  0.000000D+00
     10  -0.473726D-01  0.149168D+01 -0.374277D+00  0.000000D+00  0.000000D+00
     11  -0.357079D+00 -0.425809D+00 -0.196612D+01  0.000000D+00  0.000000D+00
     12   0.000000D+00  0.000000D+00  0.000000D+00  0.516103D+00 -0.268016D+00
     13   0.000000D+00  0.000000D+00  0.000000D+00  0.000000D+00  0.000000D+00
     14   0.731049D+00 -0.103688D+01  0.145167D+00  0.000000D+00  0.000000D+00
                11            12            13            14 
      1   0.000000D+00  0.000000D+00  0.000000D+00  0.000000D+00
      2   0.000000D+00  0.000000D+00  0.000000D+00  0.000000D+00
      3   0.000000D+00  0.000000D+00  0.000000D+00  0.000000D+00
      4  -0.243572D+00  0.000000D+00  0.000000D+00  0.000000D+00
      5   0.000000D+00  0.180764D+00  0.976429D+00 -0.243572D+00
      6   0.000000D+00  0.000000D+00  0.000000D+00  0.000000D+00
      7   0.000000D+00  0.000000D+00  0.000000D+00  0.000000D+00
      8   0.127086D+01  0.000000D+00  0.000000D+00  0.000000D+00
      9   0.000000D+00  0.532957D+00 -0.716361D-01  0.127086D+01
     10   0.000000D+00  0.000000D+00  0.000000D+00  0.000000D+00
     11   0.000000D+00  0.000000D+00  0.000000D+00  0.000000D+00
     12  -0.122706D+01  0.000000D+00  0.000000D+00  0.000000D+00
     13   0.000000D+00  0.516103D+00 -0.268016D+00 -0.122706D+01
     14   0.000000D+00  0.000000D+00  0.000000D+00  0.000000D+00
 NBasis=    14 RedAO= T EigKep=  1.14D-01  NBF=     8     0     3     3
 NBsUse=    14 1.00D-06 EigRej= -1.00D+00 NBFU=     8     0     3     3
 Leave Link  302 at Mon Mar 28 14:20:07 2022, MaxMem=  9663676416 cpu:               3.0 elap:               0.1
 (Enter /nopt/nrel/apps/gaussian/g16C_1/g16/l303.exe)
 DipDrv will not compute anything.
 Fermi contact integrals: 
                 1             2 
      1   0.628247D+00  0.187225D-01
      2   0.000000D+00  0.192411D+02
      3   0.173413D-02  0.382249D-01
      4   0.000000D+00  0.000000D+00
      5   0.000000D+00  0.000000D+00
      6  -0.639670D-02  0.000000D+00
      7   0.547992D-01 -0.437955D-02
      8   0.000000D+00  0.000000D+00
      9   0.000000D+00  0.000000D+00
     10  -0.904245D-01  0.000000D+00
     11   0.363515D-01  0.460859D-01
     12   0.000000D+00  0.000000D+00
     13   0.000000D+00  0.000000D+00
     14  -0.354141D-01  0.000000D+00
 Leave Link  303 at Mon Mar 28 14:20:07 2022, MaxMem=  9663676416 cpu:               1.1 elap:               0.1
 (Enter /nopt/nrel/apps/gaussian/g16C_1/g16/l401.exe)
 ExpMin= 2.60D-02 ExpMax= 9.99D+03 ExpMxC= 1.50D+03 IAcc=3 IRadAn=         5 AccDes= 0.00D+00
 Harris functional with IExCor=  205 and IRadAn=       5 diagonalized for initial guess.
 HarFok:  IExCor=  205 AccDes= 0.00D+00 IRadAn=         5 IDoV= 1 UseB2=F ITyADJ=14
 ICtDFT=  3500011 ScaDFX=  1.000000  1.000000  1.000000  1.000000
 FoFCou: FMM=F IPFlag=           0 FMFlag=      100000 FMFlg1=           0
         NFxFlg=           0 DoJE=T BraDBF=F KetDBF=T FulRan=T
         wScrn=  0.000000 ICntrl=       500 IOpCl=  0 I1Cent=   200000004 NGrid=           0
         NMat0=    1 NMatS0=      1 NMatT0=    0 NMatD0=    1 NMtDS0=    0 NMtDT0=    0
 Petite list used in FoFCou.
 Harris En= -162.214940370181    
 JPrj=0 DoOrth=F DoCkMO=F.
 Initial guess orbital symmetries:
       Occupied  (SG) (SG) (SG) (PI) (PI) (SG)
       Virtual   (SG) (PI) (PI) (SG) (SG) (PI) (PI) (SG)
 The electronic state of the initial guess is 1-SG.
 Leave Link  401 at Mon Mar 28 14:20:07 2022, MaxMem=  9663676416 cpu:               3.4 elap:               0.1
 (Enter /nopt/nrel/apps/gaussian/g16C_1/g16/l502.exe)
 Keep R1 ints in memory in symmetry-blocked form, NReq=7223361.
 FoFCou: FMM=F IPFlag=           0 FMFlag=           0 FMFlg1=           0
         NFxFlg=           0 DoJE=F BraDBF=F KetDBF=F FulRan=T
         wScrn=  0.000000 ICntrl=       600 IOpCl=  0 I1Cent=           0 NGrid=           0
         NMat0=    1 NMatS0=    105 NMatT0=    0 NMatD0=    1 NMtDS0=    0 NMtDT0=    0
 Petite list used in FoFCou.
 Closed shell SCF:
 Using DIIS extrapolation, IDIIS=  1040.
 NGot=  9663676416 LenX=  9663671753 LenY=  9663670871
 Requested convergence on RMS density matrix=1.00D-08 within 128 cycles.
 Requested convergence on MAX density matrix=1.00D-06.
 Requested convergence on             energy=1.00D-06.
 No special actions if energy rises.

 Cycle   1  Pass 1  IDiag  1:
 E= -162.309551727968    
 DIIS: error= 3.51D-02 at cycle   1 NSaved=   1.
 NSaved= 1 IEnMin= 1 EnMin= -162.309551727968     IErMin= 1 ErrMin= 3.51D-02
 ErrMax= 3.51D-02  0.00D+00 EMaxC= 1.00D-01 BMatC= 1.24D-02 BMatP= 1.24D-02
 IDIUse=3 WtCom= 6.49D-01 WtEn= 3.51D-01
 Coeff-Com:  0.100D+01
 Coeff-En:   0.100D+01
 Coeff:      0.100D+01
 Gap=     0.246 Goal=   None    Shift=    0.000
 GapD=    0.246 DampG=1.000 DampE=0.500 DampFc=0.5000 IDamp=-1.
 Damping current iteration by 5.00D-01
 RMSDP=1.73D-02 MaxDP=1.93D-01              OVMax= 1.04D-02

 Cycle   2  Pass 1  IDiag  1:
 E= -162.325309207185     Delta-E=       -0.015757479218 Rises=F Damp=T
 DIIS: error= 1.85D-02 at cycle   2 NSaved=   2.
 NSaved= 2 IEnMin= 2 EnMin= -162.325309207185     IErMin= 2 ErrMin= 1.85D-02
 ErrMax= 1.85D-02  0.00D+00 EMaxC= 1.00D-01 BMatC= 3.40D-03 BMatP= 1.24D-02
 IDIUse=3 WtCom= 8.15D-01 WtEn= 1.85D-01
 Coeff-Com: -0.109D+01 0.209D+01
 Coeff-En:   0.000D+00 0.100D+01
 Coeff:     -0.891D+00 0.189D+01
 Gap=     0.287 Goal=   None    Shift=    0.000
 RMSDP=9.33D-03 MaxDP=1.02D-01 DE=-1.58D-02 OVMax= 6.89D-04

 Cycle   3  Pass 1  IDiag  1:
 E= -162.342185142530     Delta-E=       -0.016875935344 Rises=F Damp=F
 DIIS: error= 4.20D-04 at cycle   3 NSaved=   3.
 NSaved= 3 IEnMin= 3 EnMin= -162.342185142530     IErMin= 3 ErrMin= 4.20D-04
 ErrMax= 4.20D-04  0.00D+00 EMaxC= 1.00D-01 BMatC= 2.95D-06 BMatP= 3.40D-03
 IDIUse=3 WtCom= 9.96D-01 WtEn= 4.20D-03
 Coeff-Com:  0.360D+00-0.694D+00 0.133D+01
 Coeff-En:   0.000D+00 0.000D+00 0.100D+01
 Coeff:      0.358D+00-0.691D+00 0.133D+01
 Gap=     0.293 Goal=   None    Shift=    0.000
 RMSDP=4.58D-04 MaxDP=2.37D-03 DE=-1.69D-02 OVMax= 1.66D-04

 Cycle   4  Pass 1  IDiag  1:
 E= -162.342202450236     Delta-E=       -0.000017307706 Rises=F Damp=F
 DIIS: error= 1.29D-04 at cycle   4 NSaved=   4.
 NSaved= 4 IEnMin= 4 EnMin= -162.342202450236     IErMin= 4 ErrMin= 1.29D-04
 ErrMax= 1.29D-04  0.00D+00 EMaxC= 1.00D-01 BMatC= 1.32D-07 BMatP= 2.95D-06
 IDIUse=3 WtCom= 9.99D-01 WtEn= 1.29D-03
 Coeff-Com:  0.232D-01-0.422D-01-0.111D+00 0.113D+01
 Coeff-En:   0.000D+00 0.000D+00 0.000D+00 0.100D+01
 Coeff:      0.231D-01-0.421D-01-0.111D+00 0.113D+01
 Gap=     0.293 Goal=   None    Shift=    0.000
 RMSDP=9.94D-05 MaxDP=5.38D-04 DE=-1.73D-05 OVMax= 2.33D-06

 Cycle   5  Pass 1  IDiag  1:
 E= -162.342203582662     Delta-E=       -0.000001132426 Rises=F Damp=F
 DIIS: error= 3.87D-05 at cycle   5 NSaved=   5.
 NSaved= 5 IEnMin= 5 EnMin= -162.342203582662     IErMin= 5 ErrMin= 3.87D-05
 ErrMax= 3.87D-05  0.00D+00 EMaxC= 1.00D-01 BMatC= 9.84D-09 BMatP= 1.32D-07
 IDIUse=1 WtCom= 1.00D+00 WtEn= 0.00D+00
 Coeff-Com: -0.915D-02 0.173D-01 0.133D-01-0.541D+00 0.152D+01
 Coeff:     -0.915D-02 0.173D-01 0.133D-01-0.541D+00 0.152D+01
 Gap=     0.293 Goal=   None    Shift=    0.000
 RMSDP=3.33D-05 MaxDP=1.54D-04 DE=-1.13D-06 OVMax= 4.51D-06

 Cycle   6  Pass 1  IDiag  1:
 E= -162.342203684548     Delta-E=       -0.000000101886 Rises=F Damp=F
 DIIS: error= 4.15D-06 at cycle   6 NSaved=   6.
 NSaved= 6 IEnMin= 6 EnMin= -162.342203684548     IErMin= 6 ErrMin= 4.15D-06
 ErrMax= 4.15D-06  0.00D+00 EMaxC= 1.00D-01 BMatC= 1.85D-10 BMatP= 9.84D-09
 IDIUse=1 WtCom= 1.00D+00 WtEn= 0.00D+00
 Coeff-Com: -0.114D-02 0.229D-02-0.181D-01 0.238D+00-0.665D+00 0.144D+01
 Coeff:     -0.114D-02 0.229D-02-0.181D-01 0.238D+00-0.665D+00 0.144D+01
 Gap=     0.293 Goal=   None    Shift=    0.000
 RMSDP=7.51D-06 MaxDP=4.03D-05 DE=-1.02D-07 OVMax= 1.91D-07

 Cycle   7  Pass 1  IDiag  1:
 E= -162.342203685759     Delta-E=       -0.000000001211 Rises=F Damp=F
 DIIS: error= 2.71D-07 at cycle   7 NSaved=   7.
 NSaved= 7 IEnMin= 7 EnMin= -162.342203685759     IErMin= 7 ErrMin= 2.71D-07
 ErrMax= 2.71D-07  0.00D+00 EMaxC= 1.00D-01 BMatC= 9.12D-13 BMatP= 1.85D-10
 IDIUse=1 WtCom= 1.00D+00 WtEn= 0.00D+00
 Coeff-Com:  0.373D-04-0.872D-04 0.246D-02-0.373D-01 0.112D+00-0.264D+00
 Coeff-Com:  0.119D+01
 Coeff:      0.373D-04-0.872D-04 0.246D-02-0.373D-01 0.112D+00-0.264D+00
 Coeff:      0.119D+01
 Gap=     0.293 Goal=   None    Shift=    0.000
 RMSDP=4.37D-07 MaxDP=2.30D-06 DE=-1.21D-09 OVMax= 4.24D-08

 Cycle   8  Pass 1  IDiag  1:
 E= -162.342203685765     Delta-E=       -0.000000000007 Rises=F Damp=F
 DIIS: error= 1.94D-08 at cycle   8 NSaved=   8.
 NSaved= 8 IEnMin= 8 EnMin= -162.342203685765     IErMin= 8 ErrMin= 1.94D-08
 ErrMax= 1.94D-08  0.00D+00 EMaxC= 1.00D-01 BMatC= 3.14D-15 BMatP= 9.12D-13
 IDIUse=1 WtCom= 1.00D+00 WtEn= 0.00D+00
 Coeff-Com: -0.204D-04 0.417D-04-0.419D-03 0.542D-02-0.166D-01 0.417D-01
 Coeff-Com: -0.218D+00 0.119D+01
 Coeff:     -0.204D-04 0.417D-04-0.419D-03 0.542D-02-0.166D-01 0.417D-01
 Coeff:     -0.218D+00 0.119D+01
 Gap=     0.293 Goal=   None    Shift=    0.000
 RMSDP=2.69D-08 MaxDP=1.43D-07 DE=-6.71D-12 OVMax= 1.09D-09

 Cycle   9  Pass 1  IDiag  1:
 E= -162.342203685765     Delta-E=       -0.000000000000 Rises=F Damp=F
 DIIS: error= 5.37D-09 at cycle   9 NSaved=   9.
 NSaved= 9 IEnMin= 9 EnMin= -162.342203685765     IErMin= 9 ErrMin= 5.37D-09
 ErrMax= 5.37D-09  0.00D+00 EMaxC= 1.00D-01 BMatC= 3.21D-16 BMatP= 3.14D-15
 IDIUse=1 WtCom= 1.00D+00 WtEn= 0.00D+00
 Coeff-Com:  0.408D-05-0.828D-05 0.728D-04-0.848D-03 0.272D-02-0.731D-02
 Coeff-Com:  0.325D-01-0.307D+00 0.128D+01
 Coeff:      0.408D-05-0.828D-05 0.728D-04-0.848D-03 0.272D-02-0.731D-02
 Coeff:      0.325D-01-0.307D+00 0.128D+01
 Gap=     0.293 Goal=   None    Shift=    0.000
 RMSDP=1.06D-08 MaxDP=6.01D-08 DE=-5.68D-14 OVMax= 2.52D-11

 Cycle  10  Pass 1  IDiag  1:
 E= -162.342203685765     Delta-E=        0.000000000000 Rises=F Damp=F
 DIIS: error= 9.80D-10 at cycle  10 NSaved=  10.
 NSaved=10 IEnMin= 9 EnMin= -162.342203685765     IErMin=10 ErrMin= 9.80D-10
 ErrMax= 9.80D-10  0.00D+00 EMaxC= 1.00D-01 BMatC= 1.06D-17 BMatP= 3.21D-16
 IDIUse=1 WtCom= 1.00D+00 WtEn= 0.00D+00
 Coeff-Com: -0.107D-06 0.219D-06-0.176D-05 0.546D-05-0.528D-04 0.255D-03
 Coeff-Com:  0.387D-03 0.250D-01-0.147D+00 0.112D+01
 Coeff:     -0.107D-06 0.219D-06-0.176D-05 0.546D-05-0.528D-04 0.255D-03
 Coeff:      0.387D-03 0.250D-01-0.147D+00 0.112D+01
 Gap=     0.293 Goal=   None    Shift=    0.000
 RMSDP=1.38D-09 MaxDP=6.61D-09 DE= 0.00D+00 OVMax= 1.92D-11

 SCF Done:  E(RHF) =  -162.342203686     A.U. after   10 cycles
            NFock= 10  Conv=0.14D-08     -V/T= 1.9993
 KE= 1.624483086213D+02 PE=-3.983585803794D+02 EE= 6.992997474731D+01
 Leave Link  502 at Mon Mar 28 14:20:07 2022, MaxMem=  9663676416 cpu:               3.7 elap:               0.1
 (Enter /nopt/nrel/apps/gaussian/g16C_1/g16/l801.exe)
 Windowed orbitals will be sorted by symmetry type.
 ExpMin= 2.60D-02 ExpMax= 9.99D+03 ExpMxC= 1.50D+03 IAcc=3 IRadAn=         5 AccDes= 0.00D+00
 HarFok:  IExCor=  205 AccDes= 0.00D+00 IRadAn=         5 IDoV=-2 UseB2=F ITyADJ=14
 ICtDFT= 12500011 ScaDFX=  1.000000  1.000000  1.000000  1.000000
 Largest valence mixing into a core orbital is  1.68D-04
 Largest core mixing into a valence orbital is  4.17D-05
 Range of M.O.s used for correlation:     6    14
 NBasis=    14 NAE=     6 NBE=     6 NFC=     5 NFV=     0
 NROrb=      9 NOA=     1 NOB=     1 NVA=     8 NVB=     8
 Leave Link  801 at Mon Mar 28 14:20:07 2022, MaxMem=  9663676416 cpu:               2.2 elap:               0.1
 (Enter /nopt/nrel/apps/gaussian/g16C_1/g16/l804.exe)
 Closed-shell transformation, MDV=  9663676416 ITran=4 ISComp=2.
 Unit  1 TFree=          8118 TCopy=        116807.
 Semi-Direct transformation.
 ModeAB=           2 MOrb=             1 LenV=    9663552847
 LASXX=           88 LTotXX=          88 LenRXX=          88
 LTotAB=         141 MaxLAS=         945 LenRXY=         945
 NonZer=        1107 LenScr=      785920 LnRSAI=           0
 LnScr1=           0 LExtra=      220231 Total=      1007184
 MaxDsk= 34359738368 SrtSym=           F ITran=            4
 DoSDTr:  NPSUse= 36
 JobTyp=0 Pass  1:  I=   1 to   1.
 (rs|ai) integrals will be sorted in core.
 Complete sort for first half transformation.
 First half transformation complete.
 Complete sort for second half transformation.
 Second half transformation complete.
 Spin components of T(2) and E(2):
     alpha-alpha T2 =       0.0000000000D+00 E2=      0.0000000000D+00
     alpha-beta  T2 =       0.1305600130D-01 E2=     -0.1544362209D-01
     beta-beta   T2 =       0.0000000000D+00 E2=      0.0000000000D+00
 ANorm=    0.1006506831D+01
 E2 =    -0.1544362209D-01 EUMP2 =    -0.16235764730785D+03
 Leave Link  804 at Mon Mar 28 14:20:07 2022, MaxMem=  9663676416 cpu:               2.1 elap:               0.1
 (Enter /nopt/nrel/apps/gaussian/g16C_1/g16/l913.exe)
 CIDS:  MDV=  9663676416.
 Frozen-core window:  NFC=   5 NFV=   0.
 IFCWin=0 IBDFC=1 NFBD=     0     0 NFCmp=     0     0 NFFFC=     0     0
 Using DD3R+UMP44R for 1st iteration.
 Using DD4RQ for 2nd and later iterations.
 Keep R2 and R3 ints in memory in symmetry-blocked form, NReq=7225755.
 FoFCou: FMM=F IPFlag=           0 FMFlag=           0 FMFlg1=           0
         NFxFlg=           0 DoJE=F BraDBF=F KetDBF=F FulRan=T
         wScrn=  0.000000 ICntrl=       600 IOpCl=  0 I1Cent=           0 NGrid=           0
         NMat0=    1 NMatS0=    105 NMatT0=    0 NMatD0=    1 NMtDS0=    0 NMtDT0=    0
 Petite list used in FoFCou.
 CIDS: In Core Option IDoMem=           1.
 Coupled Cluster theory with single and double substitutions
 ===========================================================
 Iterations= 200 Convergence= 0.100D-06
 Produce multiple copies of IABC intergrals
 Iteration Nr.   1
 **********************
 DD1Dir will call FoFMem   1 times, MxPair=         2
 NAB=     1 NAA=     0 NBB=     0.
 MP4(R+Q)=  0.20163195D-03
 Maximum subspace dimension=  5
 A-vector RMS=  1.6725042D-02 Max=  2.2824648D-02 conv= 1.00D-05.
 RLE energy=       -0.0239780027
 E3=       -0.57032469D-02        EUMP3=      -0.16236335055D+03
 E4(DQ)=   -0.21669093D-02        UMP4(DQ)=   -0.16236551746D+03
 E4(SDQ)=  -0.23421860D-02        UMP4(SDQ)=  -0.16236569274D+03
 VARIATIONAL ENERGIES WITH THE FIRST-ORDER WAVEFUNCTION:
 DE(Corr)= -0.20940402E-01 E(Corr)=     -162.36314409    
 NORM(A)=   0.10161832D+01
 Iteration Nr.   2
 **********************
 DD1Dir will call FoFMem   1 times, MxPair=         2
 NAB=     1 NAA=     0 NBB=     0.
 A-vector RMS=  7.8494115D-03 Max=  7.4614381D-03 conv= 1.00D-05.
 RLE energy=       -0.0250740359
 DE(Corr)= -0.24500645E-01 E(CORR)=     -162.36670433     Delta=-3.56D-03
 NORM(A)=   0.10191200D+01
 Iteration Nr.   3
 **********************
 DD1Dir will call FoFMem   1 times, MxPair=         2
 NAB=     1 NAA=     0 NBB=     0.
 A-vector RMS=  5.0098686D-03 Max=  5.7583570D-03 conv= 1.00D-05.
 RLE energy=       -0.0254023839
 DE(Corr)= -0.25099938E-01 E(CORR)=     -162.36730362     Delta=-5.99D-04
 NORM(A)=   0.10215396D+01
 Iteration Nr.   4
 **********************
 DD1Dir will call FoFMem   1 times, MxPair=         2
 NAB=     1 NAA=     0 NBB=     0.
 A-vector RMS=  1.4925188D-03 Max=  1.8239634D-03 conv= 1.00D-05.
 RLE energy=       -0.0255095681
 DE(Corr)= -0.25425386E-01 E(CORR)=     -162.36762907     Delta=-3.25D-04
 NORM(A)=   0.10224306D+01
 Iteration Nr.   5
 **********************
 DD1Dir will call FoFMem   1 times, MxPair=         2
 NAB=     1 NAA=     0 NBB=     0.
 A-vector RMS=  5.3432213D-04 Max=  4.6869051D-04 conv= 1.00D-05.
 RLE energy=       -0.0254931507
 DE(Corr)= -0.25496977E-01 E(CORR)=     -162.36770066     Delta=-7.16D-05
 NORM(A)=   0.10225000D+01
 Iteration Nr.   6
 **********************
 DD1Dir will call FoFMem   1 times, MxPair=         2
 NAB=     1 NAA=     0 NBB=     0.
 A-vector RMS=  1.9524428D-04 Max=  2.0863343D-04 conv= 1.00D-05.
 RLE energy=       -0.0254917003
 DE(Corr)= -0.25493868E-01 E(CORR)=     -162.36769755     Delta= 3.11D-06
 NORM(A)=   0.10225073D+01
 Iteration Nr.   7
 **********************
 DD1Dir will call FoFMem   1 times, MxPair=         2
 NAB=     1 NAA=     0 NBB=     0.
 A-vector RMS=  4.5537914D-05 Max=  4.9237279D-05 conv= 1.00D-05.
 RLE energy=       -0.0254955286
 DE(Corr)= -0.25493654E-01 E(CORR)=     -162.36769734     Delta= 2.15D-07
 NORM(A)=   0.10225160D+01
 Iteration Nr.   8
 **********************
 DD1Dir will call FoFMem   1 times, MxPair=         2
 NAB=     1 NAA=     0 NBB=     0.
 A-vector RMS=  7.0541842D-06 Max=  4.8113962D-06 conv= 1.00D-05.
 RLE energy=       -0.0254947449
 DE(Corr)= -0.25495080E-01 E(CORR)=     -162.36769877     Delta=-1.43D-06
 NORM(A)=   0.10225132D+01
 Iteration Nr.   9
 **********************
 DD1Dir will call FoFMem   1 times, MxPair=         2
 NAB=     1 NAA=     0 NBB=     0.
 A-vector RMS=  2.7483944D-06 Max=  3.0516236D-06 conv= 1.00D-05.
 RLE energy=       -0.0254949539
 DE(Corr)= -0.25494840E-01 E(CORR)=     -162.36769853     Delta= 2.40D-07
 NORM(A)=   0.10225136D+01
 Iteration Nr.  10
 **********************
 DD1Dir will call FoFMem   1 times, MxPair=         2
 NAB=     1 NAA=     0 NBB=     0.
 A-vector RMS=  1.2846786D-06 Max=  1.4484729D-06 conv= 1.00D-05.
 RLE energy=       -0.0254949055
 DE(Corr)= -0.25494916E-01 E(CORR)=     -162.36769860     Delta=-7.63D-08
 NORM(A)=   0.10225137D+01
 CI/CC converged in   10 iterations to DelEn=-7.63D-08 Conv= 1.00D-07 ErrA1= 1.28D-06 Conv= 1.00D-05
 Wavefunction amplitudes converged. E(Corr)=     -162.36769860    
 Largest amplitude= 9.70D-02
 Discarding MO integrals.
 Leave Link  913 at Mon Mar 28 14:20:07 2022, MaxMem=  9663676416 cpu:               4.9 elap:               0.2
 (Enter /nopt/nrel/apps/gaussian/g16C_1/g16/l601.exe)
 Copying SCF densities to generalized density rwf, IOpCl= 0 IROHF=0.

 **********************************************************************

            Population analysis using the SCF Density.

 **********************************************************************

 Orbital symmetries:
       Occupied  (SG) (SG) (SG) (PI) (PI) (SG)
       Virtual   (SG) (PI) (PI) (SG) (SG) (PI) (PI) (SG)
 The electronic state is 1-SG.
 Alpha  occ. eigenvalues --  -40.45678  -2.78102  -1.50382  -1.49981  -1.49981
 Alpha  occ. eigenvalues --   -0.28393
 Alpha virt. eigenvalues --    0.00927   0.04705   0.04705   0.11929   0.15670
 Alpha virt. eigenvalues --    0.21700   0.21700   0.51840
          Condensed to atoms (all electrons):
               1          2
     1  H    0.610341   0.355661
     2  Na   0.355661  10.678336
 Mulliken charges:
               1
     1  H    0.033998
     2  Na  -0.033998
 Sum of Mulliken charges =   0.00000
 Mulliken charges with hydrogens summed into heavy atoms:
               1
     2  Na   0.000000
 N-N= 3.638093325075D+00 E-N=-3.983585803703D+02  KE= 1.624483086213D+02
 Symmetry A1   KE= 1.389910606645D+02
 Symmetry A2   KE= 0.000000000000D+00
 Symmetry B1   KE= 1.172862397841D+01
 Symmetry B2   KE= 1.172862397841D+01

 Atomic contributions to Alpha molecular orbitals:
 Alpha occ 1 OE=-40.457 is Na2-s=1.0000
 Alpha occ 2 OE=-2.781 is Na2-s=0.9995
 Alpha occ 3 OE=-1.504 is Na2-p=0.9977
 Alpha occ 4 OE=-1.500 is Na2-p=1.0000
 Alpha occ 5 OE=-1.500 is Na2-p=1.0000
 Alpha occ 6 OE=-0.284 is H1-s=0.4807 Na2-s=0.3548 Na2-p=0.1645
 Alpha vir 7 OE=0.009 is Na2-p=0.5169 Na2-s=0.4646
 Alpha vir 8 OE=0.047 is Na2-p=1.0000
 Alpha vir 9 OE=0.047 is Na2-p=1.0000
 Alpha vir 10 OE=0.119 is Na2-p=0.5798 Na2-s=0.3663
 Alpha vir 11 OE=0.157 is Na2-s=0.6397 Na2-p=0.3508
 Alpha vir 12 OE=0.217 is Na2-p=1.0000
 Alpha vir 13 OE=0.217 is Na2-p=1.0000
 Alpha vir 14 OE=0.518 is H1-s=0.4351 Na2-p=0.3900 Na2-s=0.1749
 
 Leave Link  601 at Mon Mar 28 14:20:08 2022, MaxMem=  9663676416 cpu:               1.0 elap:               0.0
 (Enter /nopt/nrel/apps/gaussian/g16C_1/g16/l9999.exe)

 Test job not archived.
 1\1\GINC-R102U34\SP\RCCSD-FC\Gen\H1Na1\USER\28-Mar-2022\0\\#P CCSD
 (MaxCyc=200,SaveAmplitudes,ReadAmplitudes)/GEN sp pop=AllOrbitals iop(
 3/33=1,3/36=-1)\\test\\0,1\H,0,0.,0.,0.\Na,0,0.,0.,1.6\\Version=ES64L-
 G16RevC.01\State=1-SG\HF=-162.3422037\MP2=-162.3576473\MP3=-162.363350
 6\MP4D=-162.3657191\MP4DQ=-162.3655175\MP4SDQ=-162.3656927\CCSD=-162.3
 676986\RMSD=1.378e-09\PG=C*V [C*(H1Na1)]\\@


 SIC AS THE CAWSE OF EWERY THING IS, SIC WILBE THE EFFECT.
 -- PROVERBS AND REASONS OF THE YEAR 1585
           AS REPRINTED IN PAISLEY MAGAZINE 1828.
 Job cpu time:       0 days  0 hours  0 minutes 31.4 seconds.
 Elapsed time:       0 days  0 hours  0 minutes  1.2 seconds.
 File lengths (MBytes):  RWF=     13 Int=      0 D2E=      0 Chk=      1 Scr=      1
 Normal termination of Gaussian 16 at Mon Mar 28 14:20:08 2022.
