 Entering Gaussian System, Link 0=g16
 Initial command:
 /nopt/nrel/apps/gaussian/g16C_1/g16/l1.exe "/lustre/eaglefs/scratch/user/qc/tih-dissc-sto3g/tih-6-ccsd-3.0-sto3g/Gau-251527.inp" -scrdir="/lustre/eaglefs/scratch/user/qc/tih-dissc-sto3g/tih-6-ccsd-3.0-sto3g/"
 Default is to use a total of  36 processors:
                               36 via shared-memory
                                1 via Linda
 Entering Link 1 = /nopt/nrel/apps/gaussian/g16C_1/g16/l1.exe PID=    251528.
  
 Copyright (c) 1988-2019, Gaussian, Inc.  All Rights Reserved.
  
 This is part of the Gaussian(R) 16 program.  It is based on
 the Gaussian(R) 09 system (copyright 2009, Gaussian, Inc.),
 the Gaussian(R) 03 system (copyright 2003, Gaussian, Inc.),
 the Gaussian(R) 98 system (copyright 1998, Gaussian, Inc.),
 the Gaussian(R) 94 system (copyright 1995, Gaussian, Inc.),
 the Gaussian 92(TM) system (copyright 1992, Gaussian, Inc.),
 the Gaussian 90(TM) system (copyright 1990, Gaussian, Inc.),
 the Gaussian 88(TM) system (copyright 1988, Gaussian, Inc.),
 the Gaussian 86(TM) system (copyright 1986, Carnegie Mellon
 University), and the Gaussian 82(TM) system (copyright 1983,
 Carnegie Mellon University). Gaussian is a federally registered
 trademark of Gaussian, Inc.
  
 This software contains proprietary and confidential information,
 including trade secrets, belonging to Gaussian, Inc.
  
 This software is provided under written license and may be
 used, copied, transmitted, or stored only in accord with that
 written license.
  
 The following legend is applicable only to US Government
 contracts under FAR:
  
                    RESTRICTED RIGHTS LEGEND
  
 Use, reproduction and disclosure by the US Government is
 subject to restrictions as set forth in subparagraphs (a)
 and (c) of the Commercial Computer Software - Restricted
 Rights clause in FAR 52.227-19.
  
 Gaussian, Inc.
 340 Quinnipiac St., Bldg. 40, Wallingford CT 06492
  
  
 ---------------------------------------------------------------
 Warning -- This program may not be used in any manner that
 competes with the business of Gaussian, Inc. or will provide
 assistance to any competitor of Gaussian, Inc.  The licensee
 of this program is prohibited from giving any competitor of
 Gaussian, Inc. access to this program.  By using this program,
 the user acknowledges that Gaussian, Inc. is engaged in the
 business of creating and licensing software in the field of
 computational chemistry and represents and warrants to the
 licensee that it is not a competitor of Gaussian, Inc. and that
 it will not use this program in any manner prohibited above.
 ---------------------------------------------------------------
  

 Cite this work as:
 Gaussian 16, Revision C.01,
 M. J. Frisch, G. W. Trucks, H. B. Schlegel, G. E. Scuseria, 
 M. A. Robb, J. R. Cheeseman, G. Scalmani, V. Barone, 
 G. A. Petersson, H. Nakatsuji, X. Li, M. Caricato, A. V. Marenich, 
 J. Bloino, B. G. Janesko, R. Gomperts, B. Mennucci, H. P. Hratchian, 
 J. V. Ortiz, A. F. Izmaylov, J. L. Sonnenberg, D. Williams-Young, 
 F. Ding, F. Lipparini, F. Egidi, J. Goings, B. Peng, A. Petrone, 
 T. Henderson, D. Ranasinghe, V. G. Zakrzewski, J. Gao, N. Rega, 
 G. Zheng, W. Liang, M. Hada, M. Ehara, K. Toyota, R. Fukuda, 
 J. Hasegawa, M. Ishida, T. Nakajima, Y. Honda, O. Kitao, H. Nakai, 
 T. Vreven, K. Throssell, J. A. Montgomery, Jr., J. E. Peralta, 
 F. Ogliaro, M. J. Bearpark, J. J. Heyd, E. N. Brothers, K. N. Kudin, 
 V. N. Staroverov, T. A. Keith, R. Kobayashi, J. Normand, 
 K. Raghavachari, A. P. Rendell, J. C. Burant, S. S. Iyengar, 
 J. Tomasi, M. Cossi, J. M. Millam, M. Klene, C. Adamo, R. Cammi, 
 J. W. Ochterski, R. L. Martin, K. Morokuma, O. Farkas, 
 J. B. Foresman, and D. J. Fox, Gaussian, Inc., Wallingford CT, 2019.
 
 ******************************************
 Gaussian 16:  ES64L-G16RevC.01  3-Jul-2019
                28-Mar-2022 
 ******************************************
 %chk=molecule
 Default route: CacheSize=180224 MaxDisk=256GB
 ----------------------------------------------------------------------
 #P CCSD(MaxCyc=300,SaveAmplitudes,ReadAmplitudes)/GEN sp pop=AllOrbita
 ls iop(3/33=1,3/36=-1)
 ----------------------------------------------------------------------
 1/4=180224,38=1,172=1/1;
 2/4=180224,12=2,17=6,18=5,40=1/2;
 3/4=180224,5=7,11=9,25=1,30=1,33=1,36=-1/1,2,3;
 4/4=180224/1;
 5/4=180224,5=2,38=5/2;
 8/4=180224,6=4,9=120000,10=1,24=1/1,4;
 9/4=180224,5=7,6=300,77=1/13;
 6/4=180224,7=2,8=2,9=2,10=2,96=-1/1;
 99/4=180224,5=1,9=1/99;
 Leave Link    1 at Mon Mar 28 12:46:13 2022, MaxMem=           0 cpu:               2.0 elap:               0.1
 (Enter /nopt/nrel/apps/gaussian/g16C_1/g16/l101.exe)
 ----
 test
 ----
 Symbolic Z-matrix:
 Charge =  0 Multiplicity = 6
 H                     0.        0.        0. 
 Ti                    0.        0.        3. 
 
 ITRead=  0  0
 MicOpt= -1 -1
 NAtoms=      2 NQM=        2 NQMF=       0 NMMI=      0 NMMIF=      0
                NMic=       0 NMicF=      0.
                    Isotopes and Nuclear Properties:
 (Nuclear quadrupole moments (NQMom) in fm**2, nuclear magnetic moments (NMagM)
  in nuclear magnetons)

  Atom         1           2
 IAtWgt=           1          48
 AtmWgt=   1.0078250  47.9479467
 NucSpn=           1           0
 AtZEff=  -0.0000000  -0.0000000
 NQMom=    0.0000000   0.0000000
 NMagM=    2.7928460   0.0000000
 AtZNuc=   1.0000000  22.0000000
 Leave Link  101 at Mon Mar 28 12:46:13 2022, MaxMem=  9663676416 cpu:               3.9 elap:               0.1
 (Enter /nopt/nrel/apps/gaussian/g16C_1/g16/l202.exe)
                          Input orientation:                          
 ---------------------------------------------------------------------
 Center     Atomic      Atomic             Coordinates (Angstroms)
 Number     Number       Type             X           Y           Z
 ---------------------------------------------------------------------
      1          1           0        0.000000    0.000000    0.000000
      2         22           0        0.000000    0.000000    3.000000
 ---------------------------------------------------------------------
 Stoichiometry    HTi(6)
 Framework group  C*V[C*(HTi)]
 Deg. of freedom     1
 Full point group                 C*V     NOp   4
 Largest Abelian subgroup         C2V     NOp   4
 Largest concise Abelian subgroup C1      NOp   1
                         Standard orientation:                         
 ---------------------------------------------------------------------
 Center     Atomic      Atomic             Coordinates (Angstroms)
 Number     Number       Type             X           Y           Z
 ---------------------------------------------------------------------
      1          1           0        0.000000    0.000000   -2.869565
      2         22           0        0.000000    0.000000    0.130435
 ---------------------------------------------------------------------
 Rotational constants (GHZ):           0.0000000          56.8883627          56.8883627
 Leave Link  202 at Mon Mar 28 12:46:13 2022, MaxMem=  9663676416 cpu:               0.5 elap:               0.0
 (Enter /nopt/nrel/apps/gaussian/g16C_1/g16/l301.exe)
 General basis read from cards:  (5D, 7F)
                         Coordinates in L301:                         
 ---------------------------------------------------------------------
 Center     Atomic      Atomic             Coordinates (Angstroms)
 Number     Number       Type             X           Y           Z
 ---------------------------------------------------------------------
      1          1           0        0.000000    0.000000   -2.869565
      2         22           0        0.000000    0.000000    0.130435
 ---------------------------------------------------------------------
 Centers:       1
 STO-3G
 ****
 Centers:       2
 STO-3G
 ****
 FixB: optimizing general contractions.
 Ernie: Thresh=  0.10000D-02 Tol=  0.10000D-05 Strict=F.
 IA=     1 ShT= 0 ShC= 0 NL=   1 NS=   0.
 IA=     1 L=0 SC=0 ISt=    0 NBk=    0 NP=    0 IndPr=    0.
 IA=     2 ShT= 0 ShC= 0 NL=   1 NS=   0.
 IA=     2 L=0 SC=0 ISt=    0 NBk=    0 NP=    0 IndPr=    0.
 IA=     2 ShT= 1 ShC= 0 NL=   3 NS=   0.
 IA=     2 L=1 SC=0 ISt=    1 NBk=    3 NP=    9 IndPr=    0.
 DoElim1:  L=1 select primitive    1 from    2 using    1 C=-1.00D-01
 DoElim1:  L=1 select primitive    1 from    3 using    1 C=-1.00D-01
 DoElim1:  L=1 select primitive    4 from    3 using    2 C=-2.28D-01
 DoElim2:  L=1 select primitive    9 from    2 using    3 C= 1.13D+00
 DoElim2:  L=1 select primitive    9 from    1 using    3 C= 1.13D+00
 DoElim2:  L=1 select primitive    7 from    1 using    2 C= 9.17D-01
 DoElim1:  L=1 select primitive    1 from    2 using    1 C= 1.56D-01
 DoElim1:  L=1 select primitive    1 from    3 using    1 C= 1.56D-01
 DoElim1:  L=1 select primitive    4 from    3 using    2 C= 4.95D-03
 DoElim2:  L=1 select primitive    8 from    2 using    3 C= 5.72D-01
 DoElim2:  L=1 select primitive    8 from    1 using    3 C= 5.72D-01
 DoElim2:  L=1 select primitive    5 from    1 using    2 C= 5.78D-01
 Delete L=1 primitive    7 from    3 C=  0.00D+00.
 Delete L=1 primitive    5 from    3 C=  0.00D+00.
 Delete L=1 primitive    4 from    3 C=  0.00D+00.
 Delete L=1 primitive    3 from    3 C=  0.00D+00.
 Delete L=1 primitive    2 from    3 C=  0.00D+00.
 Delete L=1 primitive    1 from    3 C=  0.00D+00.
 Delete L=1 primitive    9 from    2 C=  0.00D+00.
 Delete L=1 primitive    8 from    2 C=  0.00D+00.
 Delete L=1 primitive    6 from    2 C=  0.00D+00.
 Delete L=1 primitive    3 from    2 C=  0.00D+00.
 Delete L=1 primitive    2 from    2 C=  0.00D+00.
 Delete L=1 primitive    1 from    2 C=  0.00D+00.
 Delete L=1 primitive    9 from    1 C=  0.00D+00.
 Delete L=1 primitive    8 from    1 C=  0.00D+00.
 Delete L=1 primitive    7 from    1 C=  0.00D+00.
 Delete L=1 primitive    6 from    1 C=  0.00D+00.
 Delete L=1 primitive    5 from    1 C=  0.00D+00.
 Delete L=1 primitive    4 from    1 C=  0.00D+00.
 IA=     2 L=1 SC=0 ISt=    0 NBk=    0 NP=    0 IndPr=    9.
 IA=     2 ShT= 2 ShC= 2 NL=   1 NS=   0.
 IA=     2 L=2 SC=2 ISt=    0 NBk=    0 NP=    0 IndPr=    0.
 LdAtmC:  AtmChg=     1.000000    22.000000
 AtZEff=     -1.0000000    -23.9800000
 NEqShl: 
              1            2            3            4
     1            1            1            1            1
     2            2            2            2            2
     3            3            3            3            3
     4            4            4            4            4
     5            5            5            5            5
     6            6            6            6            6
 NEqBas: 
              1            2            3            4
     1            1            1            1            1
     2            2            2            2            2
     3            3            3            3            3
     4            4           -4           -4            4
     5            5           -5            5           -5
     6            6            6            6            6
     7            7            7            7            7
     8            8           -8           -8            8
     9            9           -9            9           -9
    10           10           10           10           10
    11           11           11           11           11
    12           12          -12          -12           12
    13           13          -13           13          -13
    14           14           14           14           14
    15           15           15           15           15
    16           16           16           16           16
    17           17           17           17           17
    18           18           18          -18          -18
    19           19          -19          -19           19
    20           20          -20           20          -20
 There are    11 symmetry adapted cartesian basis functions of A1  symmetry.
   1         1   1   1   1
   2         2   2   2   2
   3         3   3   3   3
   4         6   6   6   6
   5         7   7   7   7
   6        10  10  10  10
   7        11  11  11  11
   8        14  14  14  14
   9        15  15  15  15
  10        16  16  16  16
  11        17  17  17  17
 There are     1 symmetry adapted cartesian basis functions of A2  symmetry.
  12        18  18  18  18
 There are     4 symmetry adapted cartesian basis functions of B1  symmetry.
  13         4   4   4   4
  14         8   8   8   8
  15        12  12  12  12
  16        19  19  19  19
 There are     4 symmetry adapted cartesian basis functions of B2  symmetry.
  17         5   5   5   5
  18         9   9   9   9
  19        13  13  13  13
  20        20  20  20  20
 Order= 1 2 4 3
 Reordered character table:
              1            2            3            4            5
     1            1            1            1            1            1
     2            2            1            1           -1           -1
     3            4            1           -1           -1            1
     4            3            1           -1            1           -1
 NEqShl: 
              1            2            3            4
     1            1            1            1            1
     2            2            2            2            2
     3            3            3            3            3
     4            4            4            4            4
     5            5            5            5            5
     6            6            6            6            6
 NEqBas: 
              1            2            3            4
     1            1            1            1            1
     2            2            2            2            2
     3            3            3            3            3
     4            4           -4           -4            4
     5            5           -5            5           -5
     6            6            6            6            6
     7            7            7            7            7
     8            8           -8           -8            8
     9            9           -9            9           -9
    10           10           10           10           10
    11           11           11           11           11
    12           12          -12          -12           12
    13           13          -13           13          -13
    14           14           14           14           14
    15           15           15           15           15
    16           16          -16          -16           16
    17           17          -17           17          -17
    18           18           18           18           18
    19           19           19          -19          -19
 There are    10 symmetry adapted basis functions of A1  symmetry.
   1         1   1   1   1
   2         2   2   2   2
   3         3   3   3   3
   4         6   6   6   6
   5         7   7   7   7
   6        10  10  10  10
   7        11  11  11  11
   8        14  14  14  14
   9        15  15  15  15
  10        18  18  18  18
 There are     1 symmetry adapted basis functions of A2  symmetry.
  11        19  19  19  19
 There are     4 symmetry adapted basis functions of B1  symmetry.
  12         4   4   4   4
  13         8   8   8   8
  14        12  12  12  12
  15        16  16  16  16
 There are     4 symmetry adapted basis functions of B2  symmetry.
  16         5   5   5   5
  17         9   9   9   9
  18        13  13  13  13
  19        17  17  17  17
 Order= 1 2 4 3
 Reordered character table:
              1            2            3            4            5
     1            1            1            1            1            1
     2            2            1            1           -1           -1
     3            4            1           -1           -1            1
     4            3            1           -1            1           -1
    19 basis functions,    60 primitive gaussians,    20 cartesian basis functions
    14 alpha electrons        9 beta electrons
       nuclear repulsion energy         3.8806328801 Hartrees.
 IS=     1 IAt=     1 ISR=     1 T=0 IP=      1 IndIP=      1 IndIPD=      0 C=  2.769344D-01  0.000000D+00                             NZ=T
 IS=     1 IAt=     1 ISR=     1 T=0 IP=      2 IndIP=      2 IndIPD=      1 C=  2.678389D-01  0.000000D+00                             NZ=T
 IS=     1 IAt=     1 ISR=     1 T=0 IP=      3 IndIP=      3 IndIPD=      2 C=  8.347367D-02  0.000000D+00                             NZ=T
 IS=     2 IAt=     2 ISR=     1 T=0 IP=      1 IndIP=      4 IndIPD=      0 C=  2.004993D+01  0.000000D+00                             NZ=T
 IS=     2 IAt=     2 ISR=     1 T=0 IP=      2 IndIP=      5 IndIPD=      1 C=  1.939142D+01  0.000000D+00                             NZ=T
 IS=     2 IAt=     2 ISR=     1 T=0 IP=      3 IndIP=      6 IndIPD=      2 C=  6.043458D+00  0.000000D+00                             NZ=T
 IS=     3 IAt=     2 ISR=     2 T=1 IP=      1 IndIP=      7 IndIPD=      0 C= -1.820341D+00  4.925761D+01                             NZ=T
 IS=     3 IAt=     2 ISR=     2 T=1 IP=      2 IndIP=      8 IndIPD=      1 C=  2.434854D+00  3.097451D+01                             NZ=T
 IS=     3 IAt=     2 ISR=     2 T=1 IP=      3 IndIP=      9 IndIPD=      2 C=  1.837620D+00  4.906883D+00                             NZ=T
 IS=     4 IAt=     2 ISR=     3 T=1 IP=      1 IndIP=     10 IndIPD=      0 C= -5.746721D-01  5.803915D-02                             NZ=T
 IS=     4 IAt=     2 ISR=     3 T=1 IP=      2 IndIP=     11 IndIPD=      1 C=  2.252897D-01  1.535208D+00                             NZ=T
 IS=     4 IAt=     2 ISR=     3 T=1 IP=      3 IndIP=     12 IndIPD=      2 C=  4.647390D-01  3.915940D-01                             NZ=T
 IS=     5 IAt=     2 ISR=     4 T=1 IP=      1 IndIP=     13 IndIPD=      0 C= -1.706594D-01 -1.133666D-01                             NZ=T
 IS=     5 IAt=     2 ISR=     4 T=1 IP=      2 IndIP=     14 IndIPD=      1 C=  5.129963D-03  1.533382D-01                             NZ=T
 IS=     5 IAt=     2 ISR=     4 T=1 IP=      3 IndIP=     15 IndIPD=      2 C=  1.603140D-01  5.311239D-02                             NZ=T
 IS=     6 IAt=     2 ISR=     5 T=2 IP=      1 IndIP=     16 IndIPD=      1 C=  0.000000D+00  0.000000D+00  8.652016D-01  0.000000D+00 NZ=T
 IS=     6 IAt=     2 ISR=     5 T=2 IP=      2 IndIP=     17 IndIPD=      2 C=  0.000000D+00  0.000000D+00  3.231180D-01  0.000000D+00 NZ=T
 IS=     6 IAt=     2 ISR=     5 T=2 IP=      3 IndIP=     18 IndIPD=      3 C=  0.000000D+00  0.000000D+00  2.668013D-02  0.000000D+00 NZ=T
 IExCor=    0 DFT=F Ex=HF Corr=None ExCW=0 ScaHFX=  1.000000
 ScaDFX=  1.000000  1.000000  1.000000  1.000000 ScalE2=  1.000000  1.000000
 IRadAn=      5 IRanWt=     -1 IRanGd=            0 ICorTp=0 IEmpDi=  4
 NAtoms=    2 NActive=    2 NUniq=    2 SFac= 1.00D+00 NAtFMM=   60 NAOKFM=F Big=F
 Integral buffers will be    131072 words long.
 Raffenetti 2 integral format.
 Two-electron integral symmetry is turned on.
 Leave Link  301 at Mon Mar 28 12:46:13 2022, MaxMem=  9663676416 cpu:               2.2 elap:               0.1
 (Enter /nopt/nrel/apps/gaussian/g16C_1/g16/l302.exe)
 NPDir=0 NMtPBC=     1 NCelOv=     1 NCel=       1 NClECP=     1 NCelD=      1
         NCelK=      1 NCelE2=     1 NClLst=     1 CellRange=     0.0.
 One-electron integrals computed using PRISM.
 One-electron integral symmetry used in STVInt
 Entering OneElI...
 Calculate overlap and kinetic energy integrals
    NBasis =  19  MinDer = 0  MaxDer = 0
 Requested accuracy = 0.1000D-12
 Symmetry will be used
 PrmmSu-InSpLW:  IPartL=    0 NPrtUS=   36 NPrtUL=    1 DoSpLW=F IThBeg=    0 IThEnd=   35 NThAct=   36.
 PrSmSu:  IncTry=   512 NBBP=             21 NTPThr=   100 NPartT=   36 Incr=           1 LDynOK=F GPUOK=F.
 PrsmSu:  NPrtUS=  36 ThrOK=T IAlg=1 LenDen=           0 ISkipM=0 DoSpLW=F IThBeg=    0 IThEnd=   35.
 Prism:   IPart=     0 DynPar=F LinDyn=F Incr=           1.
 PRISM was handed   268432696 working-precision words and    21 shell-pairs
 PRISM was handed   268432696 working-precision words and    21 shell-pairs
 PRISM was handed   268432696 working-precision words and    21 shell-pairs
 PRISM was handed   268432696 working-precision words and    21 shell-pairs
 PRISM was handed   268432696 working-precision words and    21 shell-pairs
 PRISM was handed   268432696 working-precision words and    21 shell-pairs
 PRISM was handed   268432696 working-precision words and    21 shell-pairs
 PRISM was handed   268432696 working-precision words and    21 shell-pairs
 PRISM was handed   268432696 working-precision words and    21 shell-pairs
 PRISM was handed   268432696 working-precision words and    21 shell-pairs
 PRISM was handed   268432696 working-precision words and    21 shell-pairs
 IPart=  9 NShTot=           0 NBatch=           0 AvBLen=         0.0
 IPart= 16 NShTot=           0 NBatch=           0 AvBLen=         0.0
 IPart= 20 NShTot=           0 NBatch=           0 AvBLen=         0.0
 IPart= 14 NShTot=           0 NBatch=           0 AvBLen=         0.0
 IPart= 12 NShTot=           0 NBatch=           0 AvBLen=         0.0
 IPart= 21 NShTot=           0 NBatch=           0 AvBLen=         0.0
 IPart= 10 NShTot=           0 NBatch=           0 AvBLen=         0.0
 IPart=  6 NShTot=           0 NBatch=           0 AvBLen=         0.0
 PRISM was handed   268432696 working-precision words and    21 shell-pairs
 PRISM was handed   268432696 working-precision words and    21 shell-pairs
 PRISM was handed   268432696 working-precision words and    21 shell-pairs
 IPart= 28 NShTot=           0 NBatch=           0 AvBLen=         0.0
 IPart= 13 NShTot=           0 NBatch=           0 AvBLen=         0.0
 PRISM was handed   268432696 working-precision words and    21 shell-pairs
 IPart=  3 NShTot=           2 NBatch=           2 AvBLen=         1.0
 IPart=  5 NShTot=           1 NBatch=           1 AvBLen=         1.0
 IPart=  2 NShTot=           3 NBatch=           3 AvBLen=         1.0
 PRISM was handed   268432696 working-precision words and    21 shell-pairs
 PRISM was handed   268432696 working-precision words and    21 shell-pairs
 PRISM was handed   268432696 working-precision words and    21 shell-pairs
 PRISM was handed   268432696 working-precision words and    21 shell-pairs
 IPart= 27 NShTot=           0 NBatch=           0 AvBLen=         0.0
 IPart= 33 NShTot=           0 NBatch=           0 AvBLen=         0.0
 IPart=  1 NShTot=           5 NBatch=           5 AvBLen=         1.0
 PRISM was handed   268432696 working-precision words and    21 shell-pairs
 PRISM was handed   268432696 working-precision words and    21 shell-pairs
 PRISM was handed   268432696 working-precision words and    21 shell-pairs
 PRISM was handed   268432696 working-precision words and    21 shell-pairs
 PRISM was handed   268432696 working-precision words and    21 shell-pairs
 PRISM was handed   268432696 working-precision words and    21 shell-pairs
 PRISM was handed   268432696 working-precision words and    21 shell-pairs
 IPart= 26 NShTot=           0 NBatch=           0 AvBLen=         0.0
 IPart= 32 NShTot=           0 NBatch=           0 AvBLen=         0.0
 PRISM was handed   268432696 working-precision words and    21 shell-pairs
 IPart= 23 NShTot=           0 NBatch=           0 AvBLen=         0.0
 PRISM was handed   268432696 working-precision words and    21 shell-pairs
 PRISM was handed   268432696 working-precision words and    21 shell-pairs
 PRISM was handed   268432696 working-precision words and    21 shell-pairs
 PRISM was handed   268432696 working-precision words and    21 shell-pairs
 IPart= 29 NShTot=           0 NBatch=           0 AvBLen=         0.0
 IPart= 25 NShTot=           0 NBatch=           0 AvBLen=         0.0
 IPart=  8 NShTot=           0 NBatch=           0 AvBLen=         0.0
 IPart= 24 NShTot=           0 NBatch=           0 AvBLen=         0.0
 IPart= 15 NShTot=           0 NBatch=           0 AvBLen=         0.0
 IPart= 22 NShTot=           0 NBatch=           0 AvBLen=         0.0
 PRISM was handed   268432696 working-precision words and    21 shell-pairs
 IPart=  0 NShTot=           9 NBatch=           9 AvBLen=         1.0
 IPart= 19 NShTot=           0 NBatch=           0 AvBLen=         0.0
 IPart= 35 NShTot=           0 NBatch=           0 AvBLen=         0.0
 PRISM was handed   268432696 working-precision words and    21 shell-pairs
 PRISM was handed   268432696 working-precision words and    21 shell-pairs
 PRISM was handed   268432696 working-precision words and    21 shell-pairs
 PRISM was handed   268432696 working-precision words and    21 shell-pairs
 IPart= 17 NShTot=           0 NBatch=           0 AvBLen=         0.0
 IPart= 11 NShTot=           0 NBatch=           0 AvBLen=         0.0
 IPart= 34 NShTot=           0 NBatch=           0 AvBLen=         0.0
 IPart= 18 NShTot=           0 NBatch=           0 AvBLen=         0.0
 IPart= 30 NShTot=           0 NBatch=           0 AvBLen=         0.0
 IPart= 31 NShTot=           0 NBatch=           0 AvBLen=         0.0
 IPart=  7 NShTot=           0 NBatch=           0 AvBLen=         0.0
 IPart=  4 NShTot=           1 NBatch=           1 AvBLen=         1.0
 PrSmSu:  NxtVal=             37.
 *** Overlap *** 
                1             2             3             4             5 
      1  0.100000D+01
      2  0.510279D-04  0.100000D+01
      3  0.374772D-03  0.371775D+00  0.100000D+01
      4  0.000000D+00  0.000000D+00  0.000000D+00  0.100000D+01
      5  0.000000D+00  0.000000D+00  0.000000D+00  0.000000D+00  0.100000D+01
      6 -0.185962D-03  0.000000D+00  0.000000D+00  0.000000D+00  0.000000D+00
      7  0.434652D-02  0.223608D-01  0.300384D+00  0.000000D+00  0.000000D+00
      8  0.000000D+00  0.000000D+00  0.000000D+00  0.313309D+00  0.000000D+00
      9  0.000000D+00  0.000000D+00  0.000000D+00  0.000000D+00  0.313309D+00
     10 -0.530526D-02  0.000000D+00  0.000000D+00  0.000000D+00  0.000000D+00
     11  0.699977D-01 -0.412730D-03  0.136941D-01  0.000000D+00  0.000000D+00
     12  0.000000D+00  0.000000D+00  0.000000D+00  0.250808D-01  0.000000D+00
     13  0.000000D+00  0.000000D+00  0.000000D+00  0.000000D+00  0.250808D-01
     14 -0.109706D+00  0.000000D+00  0.000000D+00  0.000000D+00  0.000000D+00
     15  0.414196D-01  0.000000D+00  0.000000D+00  0.000000D+00  0.000000D+00
     16  0.000000D+00  0.000000D+00  0.000000D+00  0.000000D+00  0.000000D+00
     17  0.000000D+00  0.000000D+00  0.000000D+00  0.000000D+00  0.000000D+00
     18  0.000000D+00  0.000000D+00  0.000000D+00  0.000000D+00  0.000000D+00
     19  0.000000D+00  0.000000D+00  0.000000D+00  0.000000D+00  0.000000D+00
                6             7             8             9            10 
      6  0.100000D+01
      7  0.000000D+00  0.100000D+01
      8  0.000000D+00  0.000000D+00  0.100000D+01
      9  0.000000D+00  0.000000D+00  0.000000D+00  0.100000D+01
     10  0.313309D+00  0.000000D+00  0.000000D+00  0.000000D+00  0.100000D+01
     11  0.000000D+00  0.395149D+00  0.000000D+00  0.000000D+00  0.000000D+00
     12  0.000000D+00  0.000000D+00  0.407435D+00  0.000000D+00  0.000000D+00
     13  0.000000D+00  0.000000D+00  0.000000D+00  0.407435D+00  0.000000D+00
     14  0.250808D-01  0.000000D+00  0.000000D+00  0.000000D+00  0.407435D+00
     15  0.000000D+00  0.000000D+00  0.000000D+00  0.000000D+00  0.000000D+00
     16  0.000000D+00  0.000000D+00  0.000000D+00  0.000000D+00  0.000000D+00
     17  0.000000D+00  0.000000D+00  0.000000D+00  0.000000D+00  0.000000D+00
     18  0.000000D+00  0.000000D+00  0.000000D+00  0.000000D+00  0.000000D+00
     19  0.000000D+00  0.000000D+00  0.000000D+00  0.000000D+00  0.000000D+00
               11            12            13            14            15 
     11  0.100000D+01
     12  0.000000D+00  0.100000D+01
     13  0.000000D+00  0.000000D+00  0.100000D+01
     14  0.000000D+00  0.000000D+00  0.000000D+00  0.100000D+01
     15  0.000000D+00  0.000000D+00  0.000000D+00  0.000000D+00  0.100000D+01
     16  0.000000D+00  0.000000D+00  0.000000D+00  0.000000D+00  0.000000D+00
     17  0.000000D+00  0.000000D+00  0.000000D+00  0.000000D+00  0.000000D+00
     18  0.000000D+00  0.000000D+00  0.000000D+00  0.000000D+00  0.000000D+00
     19  0.000000D+00  0.000000D+00  0.000000D+00  0.000000D+00  0.000000D+00
               16            17            18            19 
     16  0.100000D+01
     17  0.000000D+00  0.100000D+01
     18  0.000000D+00  0.000000D+00  0.100000D+01
     19  0.000000D+00  0.000000D+00  0.000000D+00  0.100000D+01
 *** Kinetic Energy *** 
                1             2             3             4             5 
      1  0.760032D+00
      2 -0.672712D-04  0.229340D+03
      3 -0.467223D-03  0.137973D+01  0.120824D+02
      4  0.000000D+00  0.000000D+00  0.000000D+00  0.378073D+02
      5  0.000000D+00  0.000000D+00  0.000000D+00  0.000000D+00  0.378073D+02
      6  0.171770D-03  0.000000D+00  0.000000D+00  0.000000D+00  0.000000D+00
      7 -0.336863D-02 -0.798994D+00 -0.840664D+00  0.000000D+00  0.000000D+00
      8  0.000000D+00  0.000000D+00  0.000000D+00  0.187471D+01  0.000000D+00
      9  0.000000D+00  0.000000D+00  0.000000D+00  0.000000D+00  0.187471D+01
     10  0.303572D-02  0.000000D+00  0.000000D+00  0.000000D+00  0.000000D+00
     11 -0.101273D-01 -0.407071D-01 -0.207745D+00  0.000000D+00  0.000000D+00
     12  0.000000D+00  0.000000D+00  0.000000D+00 -0.209473D-01  0.000000D+00
     13  0.000000D+00  0.000000D+00  0.000000D+00  0.000000D+00 -0.209473D-01
     14  0.804471D-02  0.000000D+00  0.000000D+00  0.000000D+00  0.000000D+00
     15 -0.437177D-02  0.000000D+00  0.000000D+00  0.000000D+00  0.000000D+00
     16  0.000000D+00  0.000000D+00  0.000000D+00  0.000000D+00  0.000000D+00
     17  0.000000D+00  0.000000D+00  0.000000D+00  0.000000D+00  0.000000D+00
     18  0.000000D+00  0.000000D+00  0.000000D+00  0.000000D+00  0.000000D+00
     19  0.000000D+00  0.000000D+00  0.000000D+00  0.000000D+00  0.000000D+00
                6             7             8             9            10 
      6  0.378073D+02
      7  0.000000D+00  0.116813D+01
      8  0.000000D+00  0.000000D+00  0.275070D+01
      9  0.000000D+00  0.000000D+00  0.000000D+00  0.275070D+01
     10  0.187471D+01  0.000000D+00  0.000000D+00  0.000000D+00  0.275070D+01
     11  0.000000D+00 -0.927537D-01  0.000000D+00  0.000000D+00  0.000000D+00
     12  0.000000D+00  0.000000D+00  0.199329D+00  0.000000D+00  0.000000D+00
     13  0.000000D+00  0.000000D+00  0.000000D+00  0.199329D+00  0.000000D+00
     14 -0.209473D-01  0.000000D+00  0.000000D+00  0.000000D+00  0.199329D+00
     15  0.000000D+00  0.000000D+00  0.000000D+00  0.000000D+00  0.000000D+00
     16  0.000000D+00  0.000000D+00  0.000000D+00  0.000000D+00  0.000000D+00
     17  0.000000D+00  0.000000D+00  0.000000D+00  0.000000D+00  0.000000D+00
     18  0.000000D+00  0.000000D+00  0.000000D+00  0.000000D+00  0.000000D+00
     19  0.000000D+00  0.000000D+00  0.000000D+00  0.000000D+00  0.000000D+00
               11            12            13            14            15 
     11  0.207443D+00
     12  0.000000D+00  0.409500D+00
     13  0.000000D+00  0.000000D+00  0.409500D+00
     14  0.000000D+00  0.000000D+00  0.000000D+00  0.409500D+00
     15  0.000000D+00  0.000000D+00  0.000000D+00  0.000000D+00  0.180044D+01
     16  0.000000D+00  0.000000D+00  0.000000D+00  0.000000D+00  0.000000D+00
     17  0.000000D+00  0.000000D+00  0.000000D+00  0.000000D+00  0.000000D+00
     18  0.000000D+00  0.000000D+00  0.000000D+00  0.000000D+00  0.000000D+00
     19  0.000000D+00  0.000000D+00  0.000000D+00  0.000000D+00  0.000000D+00
               16            17            18            19 
     16  0.180044D+01
     17  0.000000D+00  0.180044D+01
     18  0.000000D+00  0.000000D+00  0.180044D+01
     19  0.000000D+00  0.000000D+00  0.000000D+00  0.180044D+01
 Entering OneElI...
 Calculate potential energy integrals
    NBasis =  19  MinDer = 0  MaxDer = 0
 Requested accuracy = 0.1000D-12
 Symmetry will be used
 PrmmSu-InSpLW:  IPartL=    0 NPrtUS=   36 NPrtUL=    1 DoSpLW=F IThBeg=    0 IThEnd=   35 NThAct=   36.
 PrSmSu:  IncTry=   512 NBBP=             42 NTPThr=   100 NPartT=   36 Incr=           1 LDynOK=F GPUOK=F.
 PrsmSu:  NPrtUS=  36 ThrOK=T IAlg=1 LenDen=           0 ISkipM=0 DoSpLW=F IThBeg=    0 IThEnd=   35.
 Prism:   IPart=     0 DynPar=F LinDyn=F Incr=           1.
 PRISM was handed   268432905 working-precision words and    21 shell-pairs
 PRISM was handed   268432905 working-precision words and    21 shell-pairs
 PRISM was handed   268432905 working-precision words and    21 shell-pairs
 PRISM was handed   268432905 working-precision words and    21 shell-pairs
 PRISM was handed   268432905 working-precision words and    21 shell-pairs
 PRISM was handed   268432905 working-precision words and    21 shell-pairs
 PRISM was handed   268432905 working-precision words and    21 shell-pairs
 PRISM was handed   268432905 working-precision words and    21 shell-pairs
 PRISM was handed   268432905 working-precision words and    21 shell-pairs
 PRISM was handed   268432905 working-precision words and    21 shell-pairs
 PRISM was handed   268432905 working-precision words and    21 shell-pairs
 PRISM was handed   268432905 working-precision words and    21 shell-pairs
 PRISM was handed   268432905 working-precision words and    21 shell-pairs
 PRISM was handed   268432905 working-precision words and    21 shell-pairs
 PRISM was handed   268432905 working-precision words and    21 shell-pairs
 PRISM was handed   268432905 working-precision words and    21 shell-pairs
 PRISM was handed   268432905 working-precision words and    21 shell-pairs
 PRISM was handed   268432905 working-precision words and    21 shell-pairs
 PRISM was handed   268432905 working-precision words and    21 shell-pairs
 PRISM was handed   268432905 working-precision words and    21 shell-pairs
 PRISM was handed   268432905 working-precision words and    21 shell-pairs
 PRISM was handed   268432905 working-precision words and    21 shell-pairs
 PRISM was handed   268432905 working-precision words and    21 shell-pairs
 PRISM was handed   268432905 working-precision words and    21 shell-pairs
 PRISM was handed   268432905 working-precision words and    21 shell-pairs
 PRISM was handed   268432905 working-precision words and    21 shell-pairs
 PRISM was handed   268432905 working-precision words and    21 shell-pairs
 PRISM was handed   268432905 working-precision words and    21 shell-pairs
 PRISM was handed   268432905 working-precision words and    21 shell-pairs
 PRISM was handed   268432905 working-precision words and    21 shell-pairs
 PRISM was handed   268432905 working-precision words and    21 shell-pairs
 PRISM was handed   268432905 working-precision words and    21 shell-pairs
 PRISM was handed   268432905 working-precision words and    21 shell-pairs
 PRISM was handed   268432905 working-precision words and    21 shell-pairs
 PRISM was handed   268432905 working-precision words and    21 shell-pairs
 PRISM was handed   268432905 working-precision words and    21 shell-pairs
 IPart=  1 NShTot=           8 NBatch=           4 AvBLen=         2.0
 IPart=  4 NShTot=           2 NBatch=           1 AvBLen=         2.0
 IPart=  0 NShTot=          20 NBatch=          10 AvBLen=         2.0
 IPart=  2 NShTot=           6 NBatch=           3 AvBLen=         2.0
 IPart=  3 NShTot=           4 NBatch=           2 AvBLen=         2.0
 IPart=  5 NShTot=           2 NBatch=           1 AvBLen=         2.0
 IPart= 16 NShTot=           0 NBatch=           0 AvBLen=         0.0
 IPart= 22 NShTot=           0 NBatch=           0 AvBLen=         0.0
 IPart= 19 NShTot=           0 NBatch=           0 AvBLen=         0.0
 IPart= 32 NShTot=           0 NBatch=           0 AvBLen=         0.0
 IPart= 29 NShTot=           0 NBatch=           0 AvBLen=         0.0
 IPart= 11 NShTot=           0 NBatch=           0 AvBLen=         0.0
 IPart= 17 NShTot=           0 NBatch=           0 AvBLen=         0.0
 IPart=  8 NShTot=           0 NBatch=           0 AvBLen=         0.0
 IPart= 33 NShTot=           0 NBatch=           0 AvBLen=         0.0
 IPart= 14 NShTot=           0 NBatch=           0 AvBLen=         0.0
 IPart=  9 NShTot=           0 NBatch=           0 AvBLen=         0.0
 IPart= 10 NShTot=           0 NBatch=           0 AvBLen=         0.0
 IPart= 18 NShTot=           0 NBatch=           0 AvBLen=         0.0
 IPart= 31 NShTot=           0 NBatch=           0 AvBLen=         0.0
 IPart= 13 NShTot=           0 NBatch=           0 AvBLen=         0.0
 IPart= 23 NShTot=           0 NBatch=           0 AvBLen=         0.0
 IPart= 34 NShTot=           0 NBatch=           0 AvBLen=         0.0
 IPart= 20 NShTot=           0 NBatch=           0 AvBLen=         0.0
 IPart= 28 NShTot=           0 NBatch=           0 AvBLen=         0.0
 IPart=  6 NShTot=           0 NBatch=           0 AvBLen=         0.0
 IPart= 35 NShTot=           0 NBatch=           0 AvBLen=         0.0
 IPart= 21 NShTot=           0 NBatch=           0 AvBLen=         0.0
 IPart= 15 NShTot=           0 NBatch=           0 AvBLen=         0.0
 IPart= 30 NShTot=           0 NBatch=           0 AvBLen=         0.0
 IPart= 24 NShTot=           0 NBatch=           0 AvBLen=         0.0
 IPart= 12 NShTot=           0 NBatch=           0 AvBLen=         0.0
 IPart= 25 NShTot=           0 NBatch=           0 AvBLen=         0.0
 IPart=  7 NShTot=           0 NBatch=           0 AvBLen=         0.0
 IPart= 26 NShTot=           0 NBatch=           0 AvBLen=         0.0
 IPart= 27 NShTot=           0 NBatch=           0 AvBLen=         0.0
 PrSmSu:  NxtVal=             37.
 ***** Potential Energy ***** 
                1             2             3             4             5 
      1  0.510724D+01
      2  0.123003D-01  0.468941D+03
      3  0.237649D-01  0.902115D+02  0.964285D+02
      4  0.000000D+00  0.000000D+00  0.000000D+00  0.956578D+02
      5  0.000000D+00  0.000000D+00  0.000000D+00  0.000000D+00  0.956578D+02
      6 -0.892646D-02 -0.847674D-03 -0.515939D-02  0.000000D+00  0.000000D+00
      7  0.703257D-01  0.472403D+01  0.170146D+02  0.000000D+00  0.000000D+00
      8  0.000000D+00  0.000000D+00  0.000000D+00  0.174413D+02  0.000000D+00
      9  0.000000D+00  0.000000D+00  0.000000D+00  0.000000D+00  0.174413D+02
     10 -0.746113D-01 -0.588746D-04 -0.258129D-02  0.000000D+00  0.000000D+00
     11  0.444936D+00 -0.133741D+00  0.483824D+00  0.000000D+00  0.000000D+00
     12  0.000000D+00  0.000000D+00  0.000000D+00  0.120277D+01  0.000000D+00
     13  0.000000D+00  0.000000D+00  0.000000D+00  0.000000D+00  0.120277D+01
     14 -0.677655D+00 -0.300285D-05 -0.228427D-03  0.000000D+00  0.000000D+00
     15  0.290668D+00  0.000000D+00  0.618330D-04  0.000000D+00  0.000000D+00
     16  0.000000D+00  0.000000D+00  0.000000D+00 -0.615839D-03  0.000000D+00
     17  0.000000D+00  0.000000D+00  0.000000D+00  0.000000D+00 -0.615839D-03
     18  0.000000D+00  0.000000D+00  0.000000D+00  0.000000D+00  0.000000D+00
     19  0.000000D+00  0.000000D+00  0.000000D+00  0.000000D+00  0.000000D+00
                6             7             8             9            10 
      6  0.956581D+02
      7 -0.269582D-02  0.254103D+02
      8  0.000000D+00  0.000000D+00  0.254529D+02
      9  0.000000D+00  0.000000D+00  0.000000D+00  0.254529D+02
     10  0.174416D+02 -0.182652D-01  0.000000D+00  0.000000D+00  0.254568D+02
     11 -0.181964D-03  0.651145D+01  0.000000D+00  0.000000D+00 -0.112573D-01
     12  0.000000D+00  0.000000D+00  0.682923D+01  0.000000D+00  0.000000D+00
     13  0.000000D+00  0.000000D+00  0.000000D+00  0.682923D+01  0.000000D+00
     14  0.120280D+01 -0.107993D-01  0.000000D+00  0.000000D+00  0.683280D+01
     15 -0.722147D-03  0.343672D-02  0.000000D+00  0.000000D+00 -0.163201D-01
     16  0.000000D+00  0.000000D+00 -0.130098D-01  0.000000D+00  0.000000D+00
     17  0.000000D+00  0.000000D+00  0.000000D+00 -0.130098D-01  0.000000D+00
     18  0.000000D+00  0.000000D+00  0.000000D+00  0.000000D+00  0.000000D+00
     19  0.000000D+00  0.000000D+00  0.000000D+00  0.000000D+00  0.000000D+00
               11            12            13            14            15 
     11  0.953167D+01
     12  0.000000D+00  0.952331D+01
     13  0.000000D+00  0.000000D+00  0.952331D+01
     14 -0.474854D-01  0.000000D+00  0.000000D+00  0.954885D+01
     15  0.119470D-01  0.000000D+00  0.000000D+00 -0.355863D-01  0.140813D+02
     16  0.000000D+00 -0.245357D-01  0.000000D+00  0.000000D+00  0.000000D+00
     17  0.000000D+00  0.000000D+00 -0.245357D-01  0.000000D+00  0.000000D+00
     18  0.000000D+00  0.000000D+00  0.000000D+00  0.000000D+00  0.000000D+00
     19  0.000000D+00  0.000000D+00  0.000000D+00  0.000000D+00  0.000000D+00
               16            17            18            19 
     16  0.140763D+02
     17  0.000000D+00  0.140763D+02
     18  0.000000D+00  0.000000D+00  0.140681D+02
     19  0.000000D+00  0.000000D+00  0.000000D+00  0.140681D+02
 ****** Core Hamiltonian ****** 
                1             2             3             4             5 
      1 -0.434721D+01
      2 -0.123676D-01 -0.239601D+03
      3 -0.242322D-01 -0.888318D+02 -0.843460D+02
      4  0.000000D+00  0.000000D+00  0.000000D+00 -0.578505D+02
      5  0.000000D+00  0.000000D+00  0.000000D+00  0.000000D+00 -0.578505D+02
      6  0.909823D-02  0.847674D-03  0.515939D-02  0.000000D+00  0.000000D+00
      7 -0.736943D-01 -0.552303D+01 -0.178553D+02  0.000000D+00  0.000000D+00
      8  0.000000D+00  0.000000D+00  0.000000D+00 -0.155666D+02  0.000000D+00
      9  0.000000D+00  0.000000D+00  0.000000D+00  0.000000D+00 -0.155666D+02
     10  0.776470D-01  0.588746D-04  0.258129D-02  0.000000D+00  0.000000D+00
     11 -0.455064D+00  0.930337D-01 -0.691569D+00  0.000000D+00  0.000000D+00
     12  0.000000D+00  0.000000D+00  0.000000D+00 -0.122371D+01  0.000000D+00
     13  0.000000D+00  0.000000D+00  0.000000D+00  0.000000D+00 -0.122371D+01
     14  0.685700D+00  0.300285D-05  0.228427D-03  0.000000D+00  0.000000D+00
     15 -0.295039D+00  0.000000D+00 -0.618330D-04  0.000000D+00  0.000000D+00
     16  0.000000D+00  0.000000D+00  0.000000D+00  0.615839D-03  0.000000D+00
     17  0.000000D+00  0.000000D+00  0.000000D+00  0.000000D+00  0.615839D-03
     18  0.000000D+00  0.000000D+00  0.000000D+00  0.000000D+00  0.000000D+00
     19  0.000000D+00  0.000000D+00  0.000000D+00  0.000000D+00  0.000000D+00
                6             7             8             9            10 
      6 -0.578508D+02
      7  0.269582D-02 -0.242422D+02
      8  0.000000D+00  0.000000D+00 -0.227022D+02
      9  0.000000D+00  0.000000D+00  0.000000D+00 -0.227022D+02
     10 -0.155669D+02  0.182652D-01  0.000000D+00  0.000000D+00 -0.227061D+02
     11  0.181964D-03 -0.660421D+01  0.000000D+00  0.000000D+00  0.112573D-01
     12  0.000000D+00  0.000000D+00 -0.662990D+01  0.000000D+00  0.000000D+00
     13  0.000000D+00  0.000000D+00  0.000000D+00 -0.662990D+01  0.000000D+00
     14 -0.122374D+01  0.107993D-01  0.000000D+00  0.000000D+00 -0.663347D+01
     15  0.722147D-03 -0.343672D-02  0.000000D+00  0.000000D+00  0.163201D-01
     16  0.000000D+00  0.000000D+00  0.130098D-01  0.000000D+00  0.000000D+00
     17  0.000000D+00  0.000000D+00  0.000000D+00  0.130098D-01  0.000000D+00
     18  0.000000D+00  0.000000D+00  0.000000D+00  0.000000D+00  0.000000D+00
     19  0.000000D+00  0.000000D+00  0.000000D+00  0.000000D+00  0.000000D+00
               11            12            13            14            15 
     11 -0.932422D+01
     12  0.000000D+00 -0.911381D+01
     13  0.000000D+00  0.000000D+00 -0.911381D+01
     14  0.474854D-01  0.000000D+00  0.000000D+00 -0.913935D+01
     15 -0.119470D-01  0.000000D+00  0.000000D+00  0.355863D-01 -0.122809D+02
     16  0.000000D+00  0.245357D-01  0.000000D+00  0.000000D+00  0.000000D+00
     17  0.000000D+00  0.000000D+00  0.245357D-01  0.000000D+00  0.000000D+00
     18  0.000000D+00  0.000000D+00  0.000000D+00  0.000000D+00  0.000000D+00
     19  0.000000D+00  0.000000D+00  0.000000D+00  0.000000D+00  0.000000D+00
               16            17            18            19 
     16 -0.122758D+02
     17  0.000000D+00 -0.122758D+02
     18  0.000000D+00  0.000000D+00 -0.122677D+02
     19  0.000000D+00  0.000000D+00  0.000000D+00 -0.122677D+02
 SVDSVc IOpt=   1 NormSV=T IR=1
 SVDSVc V= 1.58D+00 1.53D+00 1.25D+00 1.07D+00 1.00D+00 9.93D-01 9.13D-01 7.17D-01 4.91D-01 4.53D-01
 SVDSVc IOpt=   1 NormSV=T IR=2
 SVDSVc V= 1.00D+00
 SVDSVc IOpt=   1 NormSV=T IR=3
 SVDSVc V= 1.53D+00 1.00D+00 9.76D-01 4.98D-01
 SVDSVc IOpt=   1 NormSV=T IR=4
 SVDSVc V= 1.53D+00 1.00D+00 9.76D-01 4.98D-01
 TstOVc:  Largest diagonal error= 2.22D-15 IB=1 I=    4.
 TstOVc:  Largest same sym error= 5.09D-15 IB=1 I=    4 J=    3.
 TstOVc:  Largest diff sym error= 0.00D+00 IB=0 JB=0 I=    0 J=    0.
 Orthogonalized basis functions: 
                 1             2             3             4             5 
      1   0.527283D-01 -0.977091D-01 -0.153499D+00  0.676163D+00  0.000000D+00
      2   0.302703D+00  0.337557D-01  0.523851D+00  0.111171D+00  0.000000D+00
      3   0.445224D+00  0.461598D-01  0.373602D+00  0.272874D-01  0.000000D+00
      4   0.000000D+00  0.000000D+00  0.000000D+00  0.000000D+00  0.000000D+00
      5   0.000000D+00  0.000000D+00  0.000000D+00  0.000000D+00  0.000000D+00
      6  -0.243867D-01  0.346326D+00 -0.407013D-01  0.411947D+00  0.000000D+00
      7   0.471345D+00  0.396410D-01 -0.311149D+00 -0.129918D+00  0.000000D+00
      8   0.000000D+00  0.000000D+00  0.000000D+00  0.000000D+00  0.000000D+00
      9   0.000000D+00  0.000000D+00  0.000000D+00  0.000000D+00  0.000000D+00
     10  -0.419695D-01  0.553815D+00 -0.335433D-01  0.109943D+00  0.000000D+00
     11   0.337095D+00  0.176739D-01 -0.510587D+00 -0.560532D-01  0.000000D+00
     12   0.000000D+00  0.000000D+00  0.000000D+00  0.000000D+00  0.000000D+00
     13   0.000000D+00  0.000000D+00  0.000000D+00  0.000000D+00  0.000000D+00
     14  -0.404279D-01  0.458649D+00  0.853250D-02 -0.290261D+00  0.000000D+00
     15   0.375781D-02 -0.757475D-02 -0.252048D-01  0.426665D+00  0.000000D+00
     16   0.000000D+00  0.000000D+00  0.000000D+00  0.000000D+00  0.000000D+00
     17   0.000000D+00  0.000000D+00  0.000000D+00  0.000000D+00  0.000000D+00
     18   0.000000D+00  0.000000D+00  0.000000D+00  0.000000D+00  0.100000D+01
     19   0.000000D+00  0.000000D+00  0.000000D+00  0.000000D+00  0.000000D+00
                 6             7             8             9            10 
      1  -0.136582D+00  0.670558D+00 -0.161939D+00 -0.162042D+00  0.893184D-01
      2  -0.194752D-01  0.102462D+00  0.706417D+00  0.552297D-01  0.530668D+00
      3  -0.108108D-02 -0.166545D-01 -0.512195D+00 -0.796661D-01 -0.836069D+00
      4   0.000000D+00  0.000000D+00  0.000000D+00  0.000000D+00  0.000000D+00
      5   0.000000D+00  0.000000D+00  0.000000D+00  0.000000D+00  0.000000D+00
      6  -0.412547D+00 -0.570339D+00  0.451569D-01 -0.577647D+00  0.408188D-01
      7   0.241607D-01 -0.124037D+00 -0.420849D+00  0.680423D-01  0.895936D+00
      8   0.000000D+00  0.000000D+00  0.000000D+00  0.000000D+00  0.000000D+00
      9   0.000000D+00  0.000000D+00  0.000000D+00  0.000000D+00  0.000000D+00
     10  -0.165584D-01  0.125613D+00 -0.402137D-01  0.100251D+01 -0.771532D-01
     11   0.301773D-02  0.268812D-01  0.652863D+00 -0.283700D-01 -0.636763D+00
     12   0.000000D+00  0.000000D+00  0.000000D+00  0.000000D+00  0.000000D+00
     13   0.000000D+00  0.000000D+00  0.000000D+00  0.000000D+00  0.000000D+00
     14   0.315733D+00  0.420404D+00 -0.887431D-02 -0.809482D+00  0.734460D-01
     15   0.846724D+00 -0.318247D+00  0.236784D-01  0.131950D-01 -0.675743D-02
     16   0.000000D+00  0.000000D+00  0.000000D+00  0.000000D+00  0.000000D+00
     17   0.000000D+00  0.000000D+00  0.000000D+00  0.000000D+00  0.000000D+00
     18   0.000000D+00  0.000000D+00  0.000000D+00  0.000000D+00  0.000000D+00
     19   0.000000D+00  0.000000D+00  0.000000D+00  0.000000D+00  0.000000D+00
                11            12            13            14            15 
      1   0.000000D+00  0.000000D+00  0.000000D+00  0.000000D+00  0.000000D+00
      2   0.000000D+00  0.000000D+00  0.000000D+00  0.000000D+00  0.000000D+00
      3   0.000000D+00  0.000000D+00  0.000000D+00  0.000000D+00  0.000000D+00
      4   0.000000D+00  0.358362D+00  0.000000D+00  0.802807D+00 -0.593005D+00
      5   0.000000D+00  0.000000D+00  0.000000D+00  0.000000D+00  0.000000D+00
      6   0.000000D+00  0.000000D+00  0.000000D+00  0.000000D+00  0.000000D+00
      7   0.000000D+00  0.000000D+00  0.000000D+00  0.000000D+00  0.000000D+00
      8   0.000000D+00  0.565532D+00  0.000000D+00 -0.127423D-01  0.101370D+01
      9   0.000000D+00  0.000000D+00  0.000000D+00  0.000000D+00  0.000000D+00
     10   0.000000D+00  0.000000D+00  0.000000D+00  0.000000D+00  0.000000D+00
     11   0.000000D+00  0.000000D+00  0.000000D+00  0.000000D+00  0.000000D+00
     12   0.000000D+00  0.454909D+00  0.000000D+00 -0.616584D+00 -0.793056D+00
     13   0.000000D+00  0.000000D+00  0.000000D+00  0.000000D+00  0.000000D+00
     14   0.000000D+00  0.000000D+00  0.000000D+00  0.000000D+00  0.000000D+00
     15   0.000000D+00  0.000000D+00  0.000000D+00  0.000000D+00  0.000000D+00
     16   0.000000D+00  0.000000D+00  0.100000D+01  0.000000D+00  0.000000D+00
     17   0.000000D+00  0.000000D+00  0.000000D+00  0.000000D+00  0.000000D+00
     18   0.000000D+00  0.000000D+00  0.000000D+00  0.000000D+00  0.000000D+00
     19   0.100000D+01  0.000000D+00  0.000000D+00  0.000000D+00  0.000000D+00
                16            17            18            19 
      1   0.000000D+00  0.000000D+00  0.000000D+00  0.000000D+00
      2   0.000000D+00  0.000000D+00  0.000000D+00  0.000000D+00
      3   0.000000D+00  0.000000D+00  0.000000D+00  0.000000D+00
      4   0.000000D+00  0.000000D+00  0.000000D+00  0.000000D+00
      5   0.358362D+00  0.000000D+00  0.802807D+00 -0.593005D+00
      6   0.000000D+00  0.000000D+00  0.000000D+00  0.000000D+00
      7   0.000000D+00  0.000000D+00  0.000000D+00  0.000000D+00
      8   0.000000D+00  0.000000D+00  0.000000D+00  0.000000D+00
      9   0.565532D+00  0.000000D+00 -0.127423D-01  0.101370D+01
     10   0.000000D+00  0.000000D+00  0.000000D+00  0.000000D+00
     11   0.000000D+00  0.000000D+00  0.000000D+00  0.000000D+00
     12   0.000000D+00  0.000000D+00  0.000000D+00  0.000000D+00
     13   0.454909D+00  0.000000D+00 -0.616584D+00 -0.793056D+00
     14   0.000000D+00  0.000000D+00  0.000000D+00  0.000000D+00
     15   0.000000D+00  0.000000D+00  0.000000D+00  0.000000D+00
     16   0.000000D+00  0.000000D+00  0.000000D+00  0.000000D+00
     17   0.000000D+00  0.100000D+01  0.000000D+00  0.000000D+00
     18   0.000000D+00  0.000000D+00  0.000000D+00  0.000000D+00
     19   0.000000D+00  0.000000D+00  0.000000D+00  0.000000D+00
 NBasis=    19 RedAO= T EigKep=  4.53D-01  NBF=    10     1     4     4
 NBsUse=    19 1.00D-06 EigRej= -1.00D+00 NBFU=    10     1     4     4
 Leave Link  302 at Mon Mar 28 12:46:13 2022, MaxMem=  9663676416 cpu:               4.7 elap:               0.2
 (Enter /nopt/nrel/apps/gaussian/g16C_1/g16/l303.exe)
 DipDrv will not compute anything.
 Fermi contact integrals: 
                 1             2 
      1   0.628247D+00  0.366994D-03
      2   0.000000D+00  0.454848D+02
      3   0.000000D+00  0.245213D+01
      4   0.000000D+00  0.000000D+00
      5   0.000000D+00  0.000000D+00
      6   0.000000D+00  0.000000D+00
      7   0.000000D+00  0.115357D+00
      8   0.000000D+00  0.000000D+00
      9   0.000000D+00  0.000000D+00
     10   0.000000D+00  0.000000D+00
     11   0.384378D-02 -0.521539D-02
     12   0.000000D+00  0.000000D+00
     13   0.000000D+00  0.000000D+00
     14  -0.740358D-02  0.000000D+00
     15   0.169661D-02  0.000000D+00
     16   0.000000D+00  0.000000D+00
     17   0.000000D+00  0.000000D+00
     18   0.000000D+00  0.000000D+00
     19   0.000000D+00  0.000000D+00
 Leave Link  303 at Mon Mar 28 12:46:13 2022, MaxMem=  9663676416 cpu:               1.0 elap:               0.1
 (Enter /nopt/nrel/apps/gaussian/g16C_1/g16/l401.exe)
 ExpMin= 1.16D-01 ExpMax= 1.03D+03 ExpMxC= 1.03D+03 IAcc=3 IRadAn=         5 AccDes= 0.00D+00
 Harris functional with IExCor=  205 and IRadAn=       5 diagonalized for initial guess.
 HarFok:  IExCor=  205 AccDes= 0.00D+00 IRadAn=         5 IDoV= 1 UseB2=F ITyADJ=14
 ICtDFT=  3500011 ScaDFX=  1.000000  1.000000  1.000000  1.000000
 FoFCou: FMM=F IPFlag=           0 FMFlag=      100000 FMFlg1=           0
         NFxFlg=           0 DoJE=T BraDBF=F KetDBF=T FulRan=T
         wScrn=  0.000000 ICntrl=       500 IOpCl=  0 I1Cent=   200000004 NGrid=           0
         NMat0=    1 NMatS0=      1 NMatT0=    0 NMatD0=    1 NMtDS0=    0 NMtDT0=    0
 Petite list used in FoFCou.
 Harris En= -839.028030443611    
 JPrj=0 DoOrth=F DoCkMO=F.
 Initial guess orbital symmetries:
 Alpha Orbitals:
       Occupied  (SG) (SG) (SG) (PI) (PI) (SG) (SG) (PI) (PI) (SG)
                 (SG) (PI) (PI) (DLTA)
       Virtual   (DLTA) (SG) (PI) (PI) (SG)
 Beta  Orbitals:
       Occupied  (SG) (SG) (SG) (PI) (PI) (SG) (SG) (PI) (PI)
       Virtual   (SG) (SG) (PI) (PI) (DLTA) (DLTA) (SG) (PI) (PI)
                 (SG)
 Initial guess <Sx>= 0.0000 <Sy>= 0.0000 <Sz>= 2.5000 <S**2>= 8.7500 S= 2.5000
 Leave Link  401 at Mon Mar 28 12:46:13 2022, MaxMem=  9663676416 cpu:               4.3 elap:               0.1
 (Enter /nopt/nrel/apps/gaussian/g16C_1/g16/l502.exe)
 Keep R1 and R2 ints in memory in symmetry-blocked form, NReq=7412976.
 FoFCou: FMM=F IPFlag=           0 FMFlag=           0 FMFlg1=           0
         NFxFlg=           0 DoJE=F BraDBF=F KetDBF=F FulRan=T
         wScrn=  0.000000 ICntrl=       600 IOpCl=  0 I1Cent=           0 NGrid=           0
         NMat0=    1 NMatS0=    190 NMatT0=    0 NMatD0=    1 NMtDS0=    0 NMtDT0=    0
 Petite list used in FoFCou.
 UHF open shell SCF:
 Using DIIS extrapolation, IDIIS=  1040.
 NGot=  9663676416 LenX=  9663662661 LenY=  9663661779
 Requested convergence on RMS density matrix=1.00D-08 within 128 cycles.
 Requested convergence on MAX density matrix=1.00D-06.
 Requested convergence on             energy=1.00D-06.
 No special actions if energy rises.

 Cycle   1  Pass 1  IDiag  1:
 E= -839.889067300283    
 DIIS: error= 6.76D-02 at cycle   1 NSaved=   1.
 NSaved= 1 IEnMin= 1 EnMin= -839.889067300283     IErMin= 1 ErrMin= 6.76D-02
 ErrMax= 6.76D-02  0.00D+00 EMaxC= 1.00D-01 BMatC= 2.13D-01 BMatP= 2.13D-01
 IDIUse=3 WtCom= 3.24D-01 WtEn= 6.76D-01
 Coeff-Com:  0.100D+01
 Coeff-En:   0.100D+01
 Coeff:      0.100D+01
 Gap=     0.356 Goal=   None    Shift=    0.000
 Gap=     1.850 Goal=   None    Shift=    0.000
 GapD=    0.356 DampG=1.000 DampE=0.250 DampFc=0.2500 IDamp=-1.
 Damping current iteration by 2.50D-01
 RMSDP=8.89D-03 MaxDP=8.04D-02              OVMax= 0.00D+00

 Cycle   2  Pass 1  IDiag  1:
 E= -839.895740103256     Delta-E=       -0.006672802973 Rises=F Damp=T
 DIIS: error= 5.10D-02 at cycle   2 NSaved=   2.
 NSaved= 2 IEnMin= 2 EnMin= -839.895740103256     IErMin= 2 ErrMin= 5.10D-02
 ErrMax= 5.10D-02  0.00D+00 EMaxC= 1.00D-01 BMatC= 1.23D-01 BMatP= 2.13D-01
 IDIUse=3 WtCom= 4.90D-01 WtEn= 5.10D-01
 Coeff-Com: -0.311D+01 0.411D+01
 Coeff-En:   0.000D+00 0.100D+01
 Coeff:     -0.153D+01 0.253D+01
 Gap=     0.351 Goal=   None    Shift=    0.000
 Gap=     1.826 Goal=   None    Shift=    0.000
 RMSDP=7.61D-03 MaxDP=7.49D-02 DE=-6.67D-03 OVMax= 0.00D+00

 Cycle   3  Pass 1  IDiag  1:
 E= -839.918844470717     Delta-E=       -0.023104367461 Rises=F Damp=F
 DIIS: error= 3.35D-03 at cycle   3 NSaved=   3.
 NSaved= 3 IEnMin= 3 EnMin= -839.918844470717     IErMin= 3 ErrMin= 3.35D-03
 ErrMax= 3.35D-03  0.00D+00 EMaxC= 1.00D-01 BMatC= 5.27D-04 BMatP= 1.23D-01
 IDIUse=3 WtCom= 9.67D-01 WtEn= 3.35D-02
 Coeff-Com:  0.323D+01-0.432D+01 0.208D+01
 Coeff-En:   0.000D+00 0.000D+00 0.100D+01
 Coeff:      0.312D+01-0.417D+01 0.205D+01
 Gap=     0.348 Goal=   None    Shift=    0.000
 Gap=     1.821 Goal=   None    Shift=    0.000
 RMSDP=1.27D-03 MaxDP=1.65D-02 DE=-2.31D-02 OVMax= 0.00D+00

 Cycle   4  Pass 1  IDiag  1:
 E= -839.919127331941     Delta-E=       -0.000282861224 Rises=F Damp=F
 DIIS: error= 1.56D-04 at cycle   4 NSaved=   4.
 NSaved= 4 IEnMin= 4 EnMin= -839.919127331941     IErMin= 4 ErrMin= 1.56D-04
 ErrMax= 1.56D-04  0.00D+00 EMaxC= 1.00D-01 BMatC= 1.12D-06 BMatP= 5.27D-04
 IDIUse=3 WtCom= 9.98D-01 WtEn= 1.56D-03
 Coeff-Com: -0.196D+00 0.262D+00-0.140D+00 0.107D+01
 Coeff-En:   0.000D+00 0.000D+00 0.000D+00 0.100D+01
 Coeff:     -0.196D+00 0.262D+00-0.140D+00 0.107D+01
 Gap=     0.348 Goal=   None    Shift=    0.000
 Gap=     1.822 Goal=   None    Shift=    0.000
 RMSDP=1.25D-04 MaxDP=1.37D-03 DE=-2.83D-04 OVMax= 0.00D+00

 Cycle   5  Pass 1  IDiag  1:
 E= -839.919129767082     Delta-E=       -0.000002435141 Rises=F Damp=F
 DIIS: error= 1.55D-04 at cycle   5 NSaved=   5.
 NSaved= 5 IEnMin= 5 EnMin= -839.919129767082     IErMin= 5 ErrMin= 1.55D-04
 ErrMax= 1.55D-04  0.00D+00 EMaxC= 1.00D-01 BMatC= 7.89D-07 BMatP= 1.12D-06
 IDIUse=3 WtCom= 9.98D-01 WtEn= 1.55D-03
 Coeff-Com:  0.108D+00-0.144D+00 0.788D-01-0.797D+00 0.175D+01
 Coeff-En:   0.000D+00 0.000D+00 0.000D+00 0.000D+00 0.100D+01
 Coeff:      0.108D+00-0.144D+00 0.786D-01-0.796D+00 0.175D+01
 Gap=     0.348 Goal=   None    Shift=    0.000
 Gap=     1.822 Goal=   None    Shift=    0.000
 RMSDP=1.93D-04 MaxDP=2.22D-03 DE=-2.44D-06 OVMax= 0.00D+00

 Cycle   6  Pass 1  IDiag  1:
 E= -839.919133162865     Delta-E=       -0.000003395783 Rises=F Damp=F
 DIIS: error= 1.53D-04 at cycle   6 NSaved=   6.
 NSaved= 6 IEnMin= 6 EnMin= -839.919133162865     IErMin= 6 ErrMin= 1.53D-04
 ErrMax= 1.53D-04  0.00D+00 EMaxC= 1.00D-01 BMatC= 6.83D-07 BMatP= 7.89D-07
 IDIUse=3 WtCom= 9.98D-01 WtEn= 1.53D-03
 Coeff-Com: -0.102D-01 0.137D-01-0.982D-02 0.334D+00-0.137D+01 0.204D+01
 Coeff-En:   0.000D+00 0.000D+00 0.000D+00 0.000D+00 0.000D+00 0.100D+01
 Coeff:     -0.102D-01 0.137D-01-0.981D-02 0.333D+00-0.137D+01 0.204D+01
 Gap=     0.348 Goal=   None    Shift=    0.000
 Gap=     1.822 Goal=   None    Shift=    0.000
 RMSDP=2.66D-04 MaxDP=3.10D-03 DE=-3.40D-06 OVMax= 0.00D+00

 Cycle   7  Pass 1  IDiag  1:
 E= -839.919137647976     Delta-E=       -0.000004485111 Rises=F Damp=F
 DIIS: error= 1.50D-04 at cycle   7 NSaved=   7.
 NSaved= 7 IEnMin= 7 EnMin= -839.919137647976     IErMin= 7 ErrMin= 1.50D-04
 ErrMax= 1.50D-04  0.00D+00 EMaxC= 1.00D-01 BMatC= 6.47D-07 BMatP= 6.83D-07
 IDIUse=3 WtCom= 9.99D-01 WtEn= 1.50D-03
 Large coefficients: NSaved=  7 BigCof=   43.90 CofMax=   10.00 Det=-9.22D-11
 Inversion failed.  Reducing to  6 matrices.
 Large coefficients: NSaved=  6 BigCof=   27.93 CofMax=   10.00 Det=-1.38D-10
 Inversion failed.  Reducing to  5 matrices.
 Large coefficients: NSaved=  5 BigCof=   23.75 CofMax=   10.00 Det=-1.64D-10
 Inversion failed.  Reducing to  4 matrices.
 Large coefficients: NSaved=  4 BigCof=   23.78 CofMax=   10.00 Det=-1.68D-10
 Inversion failed.  Reducing to  3 matrices.
 Large coefficients: NSaved=  3 BigCof=   10.37 CofMax=   10.00 Det=-4.54D-10
 Inversion failed.  Reducing to  2 matrices.
 Coeff-Com: -0.720D+00 0.172D+01
 Coeff-En:   0.000D+00 0.100D+01
 Coeff:     -0.719D+00 0.172D+01
 Gap=     0.348 Goal=   None    Shift=    0.000
 Gap=     1.822 Goal=   None    Shift=    0.000
 RMSDP=2.93D-04 MaxDP=3.42D-03 DE=-4.49D-06 OVMax= 0.00D+00

 Cycle   8  Pass 1  IDiag  1:
 E= -839.919142493946     Delta-E=       -0.000004845970 Rises=F Damp=F
 DIIS: error= 1.47D-04 at cycle   8 NSaved=   3.
 NSaved= 3 IEnMin= 3 EnMin= -839.919142493946     IErMin= 3 ErrMin= 1.47D-04
 ErrMax= 1.47D-04  0.00D+00 EMaxC= 1.00D-01 BMatC= 6.23D-07 BMatP= 6.47D-07
 IDIUse=3 WtCom= 9.99D-01 WtEn= 1.47D-03
 Large coefficients: NSaved=  3 BigCof=   60.07 CofMax=   10.00 Det=-1.19D-10
 Inversion failed.  Reducing to  2 matrices.
 Coeff-Com: -0.743D+01 0.843D+01
 Coeff-En:   0.000D+00 0.100D+01
 Coeff:     -0.742D+01 0.842D+01
 Gap=     0.348 Goal=   None    Shift=    0.000
 Gap=     1.823 Goal=   None    Shift=    0.000
 RMSDP=2.26D-03 MaxDP=2.63D-02 DE=-4.85D-06 OVMax= 0.00D+00

 Cycle   9  Pass 1  IDiag  1:
 E= -839.919176364313     Delta-E=       -0.000033870366 Rises=F Damp=F
 DIIS: error= 1.23D-04 at cycle   9 NSaved=   3.
 NSaved= 3 IEnMin= 3 EnMin= -839.919176364313     IErMin= 3 ErrMin= 1.23D-04
 ErrMax= 1.23D-04  0.00D+00 EMaxC= 1.00D-01 BMatC= 4.93D-07 BMatP= 6.23D-07
 IDIUse=3 WtCom= 9.99D-01 WtEn= 1.23D-03
 Coeff-Com:  0.149D+01-0.220D+01 0.172D+01
 Coeff-En:   0.000D+00 0.000D+00 0.100D+01
 Coeff:      0.149D+01-0.220D+01 0.171D+01
 Gap=     0.348 Goal=   None    Shift=    0.000
 Gap=     1.824 Goal=   None    Shift=    0.000
 RMSDP=1.26D-03 MaxDP=1.45D-02 DE=-3.39D-05 OVMax= 0.00D+00

 Cycle  10  Pass 1  IDiag  1:
 E= -839.919192546632     Delta-E=       -0.000016182320 Rises=F Damp=F
 DIIS: error= 1.09D-04 at cycle  10 NSaved=   4.
 NSaved= 4 IEnMin= 4 EnMin= -839.919192546632     IErMin= 4 ErrMin= 1.09D-04
 ErrMax= 1.09D-04  0.00D+00 EMaxC= 1.00D-01 BMatC= 3.73D-07 BMatP= 4.93D-07
 IDIUse=3 WtCom= 9.99D-01 WtEn= 1.09D-03
 Coeff-Com:  0.749D+00-0.189D+01-0.454D+01 0.669D+01
 Coeff-En:   0.000D+00 0.000D+00 0.000D+00 0.100D+01
 Coeff:      0.748D+00-0.189D+01-0.454D+01 0.668D+01
 Gap=     0.349 Goal=   None    Shift=    0.000
 Gap=     1.830 Goal=   None    Shift=    0.000
 RMSDP=9.32D-03 MaxDP=1.06D-01 DE=-1.62D-05 OVMax= 0.00D+00

 Cycle  11  Pass 1  IDiag  1:
 E= -839.919244985673     Delta-E=       -0.000052439041 Rises=F Damp=F
 DIIS: error= 3.73D-04 at cycle  11 NSaved=   5.
 NSaved= 5 IEnMin= 5 EnMin= -839.919244985673     IErMin= 4 ErrMin= 1.09D-04
 ErrMax= 3.73D-04  0.00D+00 EMaxC= 1.00D-01 BMatC= 9.32D-06 BMatP= 3.73D-07
 IDIUse=3 WtCom= 9.99D-01 WtEn= 1.09D-03
 Coeff-Com: -0.119D+01 0.514D+00-0.515D+01 0.680D+01 0.255D-01
 Coeff-En:   0.000D+00 0.000D+00 0.000D+00 0.000D+00 0.100D+01
 Coeff:     -0.118D+01 0.514D+00-0.515D+01 0.679D+01 0.265D-01
 Gap=     0.354 Goal=   None    Shift=    0.000
 Gap=     1.829 Goal=   None    Shift=    0.000
 RMSDP=6.89D-05 MaxDP=7.55D-04 DE=-5.24D-05 OVMax= 0.00D+00

 Cycle  12  Pass 1  IDiag  1:
 E= -839.919245231932     Delta-E=       -0.000000246259 Rises=F Damp=F
 DIIS: error= 3.58D-04 at cycle  12 NSaved=   6.
 NSaved= 6 IEnMin= 6 EnMin= -839.919245231932     IErMin= 4 ErrMin= 1.09D-04
 ErrMax= 3.58D-04  0.00D+00 EMaxC= 1.00D-01 BMatC= 8.58D-06 BMatP= 3.73D-07
 IDIUse=3 WtCom= 9.99D-01 WtEn= 1.09D-03
 Large coefficients: NSaved=  6 BigCof=   15.68 CofMax=   10.00 Det=-1.29D-11
 Inversion failed.  Reducing to  5 matrices.
 Coeff-Com: -0.822D+00-0.410D+01 0.574D+01-0.402D+01 0.420D+01
 Coeff-En:   0.000D+00 0.000D+00 0.000D+00 0.000D+00 0.100D+01
 Coeff:     -0.821D+00-0.410D+01 0.574D+01-0.402D+01 0.420D+01
 Gap=     0.353 Goal=   None    Shift=    0.000
 Gap=     1.830 Goal=   None    Shift=    0.000
 RMSDP=4.54D-05 MaxDP=4.83D-04 DE=-2.46D-07 OVMax= 0.00D+00

 Cycle  13  Pass 1  IDiag  1:
 E= -839.919245642611     Delta-E=       -0.000000410679 Rises=F Damp=F
 DIIS: error= 3.24D-04 at cycle  13 NSaved=   6.
 NSaved= 6 IEnMin= 6 EnMin= -839.919245642611     IErMin= 3 ErrMin= 1.09D-04
 ErrMax= 3.24D-04  0.00D+00 EMaxC= 1.00D-01 BMatC= 7.04D-06 BMatP= 3.73D-07
 IDIUse=3 WtCom= 9.99D-01 WtEn= 1.09D-03
 Large coefficients: NSaved=  6 BigCof=   10.50 CofMax=   10.00 Det=-2.66D-11
 Inversion failed.  Reducing to  5 matrices.
 Large coefficients: NSaved=  5 BigCof=   10.22 CofMax=   10.00 Det=-2.69D-11
 Inversion failed.  Reducing to  4 matrices.
 Coeff-Com:  0.974D-01-0.404D+00-0.812D+01 0.943D+01
 Coeff-En:   0.000D+00 0.000D+00 0.000D+00 0.100D+01
 Coeff:      0.973D-01-0.403D+00-0.811D+01 0.942D+01
 Gap=     0.347 Goal=   None    Shift=    0.000
 Gap=     1.831 Goal=   None    Shift=    0.000
 RMSDP=5.66D-04 MaxDP=6.10D-03 DE=-4.11D-07 OVMax= 0.00D+00

 Cycle  14  Pass 1  IDiag  1:
 E= -839.919247726528     Delta-E=       -0.000002083918 Rises=F Damp=F
 DIIS: error= 2.77D-05 at cycle  14 NSaved=   5.
 NSaved= 5 IEnMin= 5 EnMin= -839.919247726528     IErMin= 5 ErrMin= 2.77D-05
 ErrMax= 2.77D-05  0.00D+00 EMaxC= 1.00D-01 BMatC= 5.36D-08 BMatP= 3.73D-07
 IDIUse=1 WtCom= 1.00D+00 WtEn= 0.00D+00
 Coeff-Com: -0.683D-01 0.508D+01 0.189D+01-0.776D+01 0.187D+01
 Coeff:     -0.683D-01 0.508D+01 0.189D+01-0.776D+01 0.187D+01
 Gap=     0.348 Goal=   None    Shift=    0.000
 Gap=     1.831 Goal=   None    Shift=    0.000
 RMSDP=1.95D-04 MaxDP=2.15D-03 DE=-2.08D-06 OVMax= 0.00D+00

 Cycle  15  Pass 1  IDiag  1:
 E= -839.919247752236     Delta-E=       -0.000000025708 Rises=F Damp=F
 DIIS: error= 1.87D-05 at cycle  15 NSaved=   6.
 NSaved= 6 IEnMin= 6 EnMin= -839.919247752236     IErMin= 6 ErrMin= 1.87D-05
 ErrMax= 1.87D-05  0.00D+00 EMaxC= 1.00D-01 BMatC= 2.32D-08 BMatP= 5.36D-08
 IDIUse=1 WtCom= 1.00D+00 WtEn= 0.00D+00
 Coeff-Com:  0.127D-01-0.228D+00-0.763D+00 0.102D+01-0.209D+00 0.117D+01
 Coeff:      0.127D-01-0.228D+00-0.763D+00 0.102D+01-0.209D+00 0.117D+01
 Gap=     0.348 Goal=   None    Shift=    0.000
 Gap=     1.831 Goal=   None    Shift=    0.000
 RMSDP=3.49D-05 MaxDP=3.76D-04 DE=-2.57D-08 OVMax= 0.00D+00

 Cycle  16  Pass 1  IDiag  1:
 E= -839.919247759599     Delta-E=       -0.000000007363 Rises=F Damp=F
 DIIS: error= 3.58D-06 at cycle  16 NSaved=   7.
 NSaved= 7 IEnMin= 7 EnMin= -839.919247759599     IErMin= 7 ErrMin= 3.58D-06
 ErrMax= 3.58D-06  0.00D+00 EMaxC= 1.00D-01 BMatC= 8.24D-10 BMatP= 2.32D-08
 IDIUse=1 WtCom= 1.00D+00 WtEn= 0.00D+00
 Coeff-Com: -0.219D-02-0.170D+00 0.286D+00-0.811D-01-0.176D-01-0.424D+00
 Coeff-Com:  0.141D+01
 Coeff:     -0.219D-02-0.170D+00 0.286D+00-0.811D-01-0.176D-01-0.424D+00
 Coeff:      0.141D+01
 Gap=     0.348 Goal=   None    Shift=    0.000
 Gap=     1.831 Goal=   None    Shift=    0.000
 RMSDP=4.56D-06 MaxDP=4.86D-05 DE=-7.36D-09 OVMax= 0.00D+00

 Cycle  17  Pass 1  IDiag  1:
 E= -839.919247759796     Delta-E=       -0.000000000197 Rises=F Damp=F
 DIIS: error= 6.42D-07 at cycle  17 NSaved=   8.
 NSaved= 8 IEnMin= 8 EnMin= -839.919247759796     IErMin= 8 ErrMin= 6.42D-07
 ErrMax= 6.42D-07  0.00D+00 EMaxC= 1.00D-01 BMatC= 2.69D-11 BMatP= 8.24D-10
 IDIUse=1 WtCom= 1.00D+00 WtEn= 0.00D+00
 Coeff-Com:  0.189D-02 0.115D+00-0.208D+00 0.674D-01 0.205D-01 0.241D+00
 Coeff-Com: -0.125D+01 0.201D+01
 Coeff:      0.189D-02 0.115D+00-0.208D+00 0.674D-01 0.205D-01 0.241D+00
 Coeff:     -0.125D+01 0.201D+01
 Gap=     0.348 Goal=   None    Shift=    0.000
 Gap=     1.831 Goal=   None    Shift=    0.000
 RMSDP=5.41D-06 MaxDP=5.95D-05 DE=-1.97D-10 OVMax= 0.00D+00

 Cycle  18  Pass 1  IDiag  1:
 E= -839.919247759812     Delta-E=       -0.000000000016 Rises=F Damp=F
 DIIS: error= 5.33D-07 at cycle  18 NSaved=   9.
 NSaved= 9 IEnMin= 9 EnMin= -839.919247759812     IErMin= 9 ErrMin= 5.33D-07
 ErrMax= 5.33D-07  0.00D+00 EMaxC= 1.00D-01 BMatC= 1.91D-11 BMatP= 2.69D-11
 IDIUse=1 WtCom= 1.00D+00 WtEn= 0.00D+00
 Coeff-Com: -0.149D-03-0.191D-01 0.199D-01 0.361D-02-0.692D-02-0.627D-02
 Coeff-Com:  0.123D+00-0.290D+00 0.118D+01
 Coeff:     -0.149D-03-0.191D-01 0.199D-01 0.361D-02-0.692D-02-0.627D-02
 Coeff:      0.123D+00-0.290D+00 0.118D+01
 Gap=     0.348 Goal=   None    Shift=    0.000
 Gap=     1.831 Goal=   None    Shift=    0.000
 RMSDP=1.17D-06 MaxDP=1.28D-05 DE=-1.57D-11 OVMax= 0.00D+00

 Cycle  19  Pass 1  IDiag  1:
 E= -839.919247759818     Delta-E=       -0.000000000006 Rises=F Damp=F
 DIIS: error= 4.24D-08 at cycle  19 NSaved=  10.
 NSaved=10 IEnMin=10 EnMin= -839.919247759818     IErMin=10 ErrMin= 4.24D-08
 ErrMax= 4.24D-08  0.00D+00 EMaxC= 1.00D-01 BMatC= 1.20D-13 BMatP= 1.91D-11
 IDIUse=1 WtCom= 1.00D+00 WtEn= 0.00D+00
 Coeff-Com: -0.547D-05 0.148D-02 0.106D-03-0.199D-02 0.105D-02-0.407D-02
 Coeff-Com:  0.128D-02 0.164D-01-0.196D+00 0.118D+01
 Coeff:     -0.547D-05 0.148D-02 0.106D-03-0.199D-02 0.105D-02-0.407D-02
 Coeff:      0.128D-02 0.164D-01-0.196D+00 0.118D+01
 Gap=     0.348 Goal=   None    Shift=    0.000
 Gap=     1.831 Goal=   None    Shift=    0.000
 RMSDP=9.11D-08 MaxDP=9.94D-07 DE=-6.48D-12 OVMax= 0.00D+00

 Cycle  20  Pass 1  IDiag  1:
 E= -839.919247759818     Delta-E=       -0.000000000000 Rises=F Damp=F
 DIIS: error= 1.52D-09 at cycle  20 NSaved=  11.
 NSaved=11 IEnMin=11 EnMin= -839.919247759818     IErMin=11 ErrMin= 1.52D-09
 ErrMax= 1.52D-09  0.00D+00 EMaxC= 1.00D-01 BMatC= 1.57D-16 BMatP= 1.20D-13
 IDIUse=1 WtCom= 1.00D+00 WtEn= 0.00D+00
 Coeff-Com:  0.337D-06-0.374D-03 0.646D-04 0.410D-03-0.250D-03 0.931D-03
 Coeff-Com: -0.203D-04-0.427D-02 0.490D-01-0.331D+00 0.129D+01
 Coeff:      0.337D-06-0.374D-03 0.646D-04 0.410D-03-0.250D-03 0.931D-03
 Coeff:     -0.203D-04-0.427D-02 0.490D-01-0.331D+00 0.129D+01
 Gap=     0.348 Goal=   None    Shift=    0.000
 Gap=     1.831 Goal=   None    Shift=    0.000
 RMSDP=4.19D-09 MaxDP=4.59D-08 DE=-1.14D-13 OVMax= 0.00D+00

 SCF Done:  E(UHF) =  -839.919247760     A.U. after   20 cycles
            NFock= 20  Conv=0.42D-08     -V/T= 2.0043
 <Sx>= 0.0000 <Sy>= 0.0000 <Sz>= 2.5000 <S**2>= 8.7535 S= 2.5006
 <L.S>= 0.000000000000E+00
 KE= 8.363534683336D+02 PE=-1.996118275123D+03 EE= 3.159649261495D+02
 Annihilation of the first spin contaminant:
 S**2 before annihilation     8.7535,   after     8.7500
 Leave Link  502 at Mon Mar 28 12:46:13 2022, MaxMem=  9663676416 cpu:               6.1 elap:               0.2
 (Enter /nopt/nrel/apps/gaussian/g16C_1/g16/l801.exe)
 Windowed orbitals will be sorted by symmetry type.
 ExpMin= 1.16D-01 ExpMax= 1.03D+03 ExpMxC= 1.03D+03 IAcc=3 IRadAn=         5 AccDes= 0.00D+00
 HarFok:  IExCor=  205 AccDes= 0.00D+00 IRadAn=         5 IDoV=-2 UseB2=F ITyADJ=14
 ICtDFT= 12500011 ScaDFX=  1.000000  1.000000  1.000000  1.000000
 Largest valence mixing into a core orbital is  3.49D-04
 Largest core mixing into a valence orbital is  1.05D-04
 Range of M.O.s used for correlation:    10    19
 NBasis=    19 NAE=    14 NBE=     9 NFC=     9 NFV=     0
 NROrb=     10 NOA=     5 NOB=     0 NVA=     5 NVB=    10
 Leave Link  801 at Mon Mar 28 12:46:14 2022, MaxMem=  9663676416 cpu:               3.4 elap:               0.1
 (Enter /nopt/nrel/apps/gaussian/g16C_1/g16/l804.exe)
 Open-shell transformation, MDV=  9663676416 ITran=4 ISComp=2.
 Unit  1 TFree=         25012 TCopy=        222819.
 Semi-Direct transformation.
 ModeAB=           2 MOrb=             5 LenV=    9663501477
 LASXX=          328 LTotXX=         328 LenRXX=         328
 LTotAB=         622 MaxLAS=       10500 LenRXY=       10500
 NonZer=       12150 LenScr=      785920 LnRSAI=           0
 LnScr1=           0 LExtra=      223847 Total=      1020595
 MaxDsk= 34359738368 SrtSym=           F ITran=            4
 DoSDTr:  NPSUse= 36
 JobTyp=1 Pass  1:  I=   1 to   5.
 (rs|ai) integrals will be sorted in core.
 Complete sort for first half transformation.
 First half transformation complete.
 Complete sort for second half transformation.
 Second half transformation complete.
 Spin components of T(2) and E(2):
     alpha-alpha T2 =       0.1240519137D-02 E2=     -0.8784002679D-03
     alpha-beta  T2 =       0.0000000000D+00 E2=      0.0000000000D+00
     beta-beta   T2 =       0.0000000000D+00 E2=      0.0000000000D+00
 ANorm=    0.1000620067D+01
 E2 =    -0.8784002679D-03 EUMP2 =    -0.83992012616009D+03
 Leave Link  804 at Mon Mar 28 12:46:14 2022, MaxMem=  9663676416 cpu:               2.2 elap:               0.1
 (Enter /nopt/nrel/apps/gaussian/g16C_1/g16/l913.exe)
 CIDS:  MDV=  9663676416.
 Frozen-core window:  NFC=   9 NFV=   0.
 IFCWin=0 IBDFC=1 NFBD=     0     0 NFCmp=     0     0 NFFFC=     0     0
 Using original routines for 1st iteration.
 Using DD4UQ or CC4UQ for 2nd and later iterations.
 Keep R2 and R3 ints in memory in symmetry-blocked form, NReq=7415418.
 FoFCou: FMM=F IPFlag=           0 FMFlag=           0 FMFlg1=           0
         NFxFlg=           0 DoJE=F BraDBF=F KetDBF=F FulRan=T
         wScrn=  0.000000 ICntrl=       600 IOpCl=  0 I1Cent=           0 NGrid=           0
         NMat0=    1 NMatS0=    190 NMatT0=    0 NMatD0=    1 NMtDS0=    0 NMtDT0=    0
 Petite list used in FoFCou.
 CIDS: In Core Option IDoMem=           1.
 Coupled Cluster theory with single and double substitutions
 ===========================================================
 Iterations= 300 Convergence= 0.100D-06
 Produce multiple copies of IABC intergrals
 Iteration Nr.   1
 **********************
 DD1Dir will call FoFMem   1 times, MxPair=        10
 NAB=     0 NAA=    10 NBB=     0.
 MP4(R+Q)=  0.10892884D-05
 Maximum subspace dimension=  5
 A-vector RMS=  3.5072050D-03 Max=  2.0567100D-02 conv= 1.00D-05.
 RLE energy=       -0.0524651562
 E3=       -0.86478292D-03        EUMP3=      -0.83992099094D+03
 E4(DQ)=   -0.85220397D-03        UMP4(DQ)=   -0.83992184315D+03
 E4(SDQ)=  -0.85222221D-03        UMP4(SDQ)=  -0.83992184317D+03
 VARIATIONAL ENERGIES WITH THE FIRST-ORDER WAVEFUNCTION:
 DE(Corr)= -0.17420939E-02 E(Corr)=     -839.92098985    
 NORM(A)=   0.23342487D+01
 Iteration Nr.   2
 **********************
 DD1Dir will call FoFMem   1 times, MxPair=        10
 NAB=     0 NAA=    10 NBB=     0.
 A-vector RMS=  1.6935470D-02 Max=  8.5458964D-02 conv= 1.00D-05.
 RLE energy=       -0.0051187150
 DE(Corr)= -0.48747602E-01 E(CORR)=     -839.96799536     Delta=-4.70D-02
 NORM(A)=   0.10211787D+01
 Iteration Nr.   3
 **********************
 DD1Dir will call FoFMem   1 times, MxPair=        10
 NAB=     0 NAA=    10 NBB=     0.
 A-vector RMS=  3.3846166D-03 Max=  1.9517551D-02 conv= 1.00D-05.
 RLE energy=        0.0015115190
 DE(Corr)= -0.59051555E-02 E(CORR)=     -839.92515292     Delta= 4.28D-02
 NORM(A)=   0.10020542D+01
 Iteration Nr.   4
 **********************
 DD1Dir will call FoFMem   1 times, MxPair=        10
 NAB=     0 NAA=    10 NBB=     0.
 A-vector RMS=  3.6935197D-03 Max=  2.0773614D-02 conv= 1.00D-05.
 RLE energy=       -0.0034503288
 DE(Corr)=  0.63553873E-03 E(CORR)=     -839.91861222     Delta= 6.54D-03
 NORM(A)=   0.10097993D+01
 Iteration Nr.   5
 **********************
 DD1Dir will call FoFMem   1 times, MxPair=        10
 NAB=     0 NAA=    10 NBB=     0.
 A-vector RMS=  3.4805913D-03 Max=  1.9950110D-02 conv= 1.00D-05.
 RLE energy=        0.0004981345
 DE(Corr)= -0.42791488E-02 E(CORR)=     -839.92352691     Delta=-4.91D-03
 NORM(A)=   0.10003815D+01
 Iteration Nr.   6
 **********************
 DD1Dir will call FoFMem   1 times, MxPair=        10
 NAB=     0 NAA=    10 NBB=     0.
 A-vector RMS=  3.5633691D-03 Max=  2.0775433D-02 conv= 1.00D-05.
 RLE energy=        0.0004846309
 DE(Corr)= -0.37133891E-03 E(CORR)=     -839.91961910     Delta= 3.91D-03
 NORM(A)=   0.10006833D+01
 Iteration Nr.   7
 **********************
 DD1Dir will call FoFMem   1 times, MxPair=        10
 NAB=     0 NAA=    10 NBB=     0.
 A-vector RMS=  3.5365162D-03 Max=  2.0831819D-02 conv= 1.00D-05.
 RLE energy=        0.0264491666
 DE(Corr)= -0.38046492E-03 E(CORR)=     -839.91962822     Delta=-9.13D-06
 NORM(A)=   0.21842544D+01
 Iteration Nr.   8
 **********************
 DD1Dir will call FoFMem   1 times, MxPair=        10
 NAB=     0 NAA=    10 NBB=     0.
 A-vector RMS=  1.4534477D-02 Max=  3.5800418D-02 conv= 1.00D-05.
 RLE energy=       -0.0564395157
 DE(Corr)=  0.27086966E-01 E(CORR)=     -839.89216079     Delta= 2.75D-02
 NORM(A)=   0.25110653D+01
 Iteration Nr.   9
 **********************
 DD1Dir will call FoFMem   1 times, MxPair=        10
 NAB=     0 NAA=    10 NBB=     0.
 A-vector RMS=  1.8275071D-02 Max=  1.0100558D-01 conv= 1.00D-05.
 RLE energy=       -0.0043780149
 DE(Corr)= -0.52314750E-01 E(CORR)=     -839.97156251     Delta=-7.94D-02
 NORM(A)=   0.10162835D+01
 Iteration Nr.  10
 **********************
 DD1Dir will call FoFMem   1 times, MxPair=        10
 NAB=     0 NAA=    10 NBB=     0.
 A-vector RMS=  3.5298713D-03 Max=  2.0191461D-02 conv= 1.00D-05.
 RLE energy=       -0.0171880319
 DE(Corr)= -0.51599042E-02 E(CORR)=     -839.92440766     Delta= 4.72D-02
 NORM(A)=   0.12224088D+01
 Iteration Nr.  11
 **********************
 DD1Dir will call FoFMem   1 times, MxPair=        10
 NAB=     0 NAA=    10 NBB=     0.
 A-vector RMS=  3.0894158D-03 Max=  9.5330988D-03 conv= 1.00D-05.
 RLE energy=       -0.0109091726
 DE(Corr)= -0.17459465E-01 E(CORR)=     -839.93670722     Delta=-1.23D-02
 NORM(A)=   0.10933036D+01
 Iteration Nr.  12
 **********************
 DD1Dir will call FoFMem   1 times, MxPair=        10
 NAB=     0 NAA=    10 NBB=     0.
 A-vector RMS=  2.9187749D-03 Max=  1.5974520D-02 conv= 1.00D-05.
 RLE energy=       -0.0022231329
 DE(Corr)= -0.11509625E-01 E(CORR)=     -839.93075738     Delta= 5.95D-03
 NORM(A)=   0.10084408D+01
 Iteration Nr.  13
 **********************
 DD1Dir will call FoFMem   1 times, MxPair=        10
 NAB=     0 NAA=    10 NBB=     0.
 A-vector RMS=  3.7317335D-03 Max=  2.0888580D-02 conv= 1.00D-05.
 RLE energy=        0.4817244116
 DE(Corr)= -0.30293377E-02 E(CORR)=     -839.92227710     Delta= 8.48D-03
 NORM(A)=   0.18381022D+02
 Iteration Nr.  14
 **********************
 DD1Dir will call FoFMem   1 times, MxPair=        10
 NAB=     0 NAA=    10 NBB=     0.
 A-vector RMS=  1.7923852D+00 Max=  6.3263459D+00 conv= 1.00D-05.
 RLE energy=        0.0106623261
 DE(Corr)=  0.95491936     E(CORR)=     -838.96432840     Delta= 9.58D-01
 NORM(A)=   0.11254900D+01
 Iteration Nr.  15
 **********************
 DD1Dir will call FoFMem   1 times, MxPair=        10
 NAB=     0 NAA=    10 NBB=     0.
 A-vector RMS=  4.0905406D-03 Max=  1.8465545D-02 conv= 1.00D-05.
 RLE energy=       -0.0165486518
 DE(Corr)=  0.99613152E-02 E(CORR)=     -839.90928644     Delta=-9.45D-01
 NORM(A)=   0.12376428D+01
 Iteration Nr.  16
 **********************
 DD1Dir will call FoFMem   1 times, MxPair=        10
 NAB=     0 NAA=    10 NBB=     0.
 A-vector RMS=  3.7452823D-03 Max=  1.3555569D-02 conv= 1.00D-05.
 RLE energy=        0.0025417614
 DE(Corr)= -0.16880356E-01 E(CORR)=     -839.93612812     Delta=-2.68D-02
 NORM(A)=   0.10162002D+01
 Iteration Nr.  17
 **********************
 DD1Dir will call FoFMem   1 times, MxPair=        10
 NAB=     0 NAA=    10 NBB=     0.
 A-vector RMS=  3.7364018D-03 Max=  2.1605329D-02 conv= 1.00D-05.
 RLE energy=       -0.0101247813
 DE(Corr)=  0.17022930E-02 E(CORR)=     -839.91754547     Delta= 1.86D-02
 NORM(A)=   0.10894357D+01
 Iteration Nr.  18
 **********************
 DD1Dir will call FoFMem   1 times, MxPair=        10
 NAB=     0 NAA=    10 NBB=     0.
 A-vector RMS=  3.0309313D-03 Max=  1.5913470D-02 conv= 1.00D-05.
 RLE energy=       -0.0179080738
 DE(Corr)= -0.10765578E-01 E(CORR)=     -839.93001334     Delta=-1.25D-02
 NORM(A)=   0.12750396D+01
 Iteration Nr.  19
 **********************
 DD1Dir will call FoFMem   1 times, MxPair=        10
 NAB=     0 NAA=    10 NBB=     0.
 A-vector RMS=  1.8642886D-03 Max=  6.8858403D-03 conv= 1.00D-05.
 RLE energy=       -0.0208431544
 DE(Corr)= -0.18202547E-01 E(CORR)=     -839.93745031     Delta=-7.44D-03
 NORM(A)=   0.13674164D+01
 Iteration Nr.  20
 **********************
 DD1Dir will call FoFMem   1 times, MxPair=        10
 NAB=     0 NAA=    10 NBB=     0.
 A-vector RMS=  3.9117913D-03 Max=  8.4482222D-03 conv= 1.00D-05.
 RLE energy=        0.0955338411
 DE(Corr)= -0.20777141E-01 E(CORR)=     -839.94002490     Delta=-2.57D-03
 NORM(A)=   0.44299000D+01
 Iteration Nr.  21
 **********************
 DD1Dir will call FoFMem   1 times, MxPair=        10
 NAB=     0 NAA=    10 NBB=     0.
 A-vector RMS=  5.7582474D-02 Max=  3.2454094D-01 conv= 1.00D-05.
 RLE energy=       -0.0085275611
 DE(Corr)=  0.10731861     E(CORR)=     -839.81192915     Delta= 1.28D-01
 NORM(A)=   0.10932092D+01
 Iteration Nr.  22
 **********************
 DD1Dir will call FoFMem   1 times, MxPair=        10
[...]
 RLE energy=        0.1508857200
 DE(Corr)= -0.19730753E-01 E(CORR)=     -839.93897851     Delta= 6.69D-03
 NORM(A)=   0.93817748D+01
 Iteration Nr.  54
 **********************
 DD1Dir will call FoFMem   1 times, MxPair=        10
 NAB=     0 NAA=    10 NBB=     0.
 A-vector RMS=  2.9686451D-01 Max=  8.1219081D-01 conv= 1.00D-05.
 RLE energy=       -0.0312333177
 DE(Corr)=  0.18784473     E(CORR)=     -839.73140303     Delta= 2.08D-01
 NORM(A)=   0.16845899D+01
 Iteration Nr.  55
 **********************
 DD1Dir will call FoFMem   1 times, MxPair=        10
 NAB=     0 NAA=    10 NBB=     0.
 A-vector RMS=  6.0399206D-03 Max=  2.0712385D-02 conv= 1.00D-05.
 RLE energy=       -0.0208052997
 DE(Corr)= -0.30527525E-01 E(CORR)=     -839.94977528     Delta=-2.18D-01
 NORM(A)=   0.13258904D+01
 Iteration Nr.  56
 **********************
 DD1Dir will call FoFMem   1 times, MxPair=        10
 NAB=     0 NAA=    10 NBB=     0.
 A-vector RMS=  1.2908320D-03 Max=  3.4496135D-03 conv= 1.00D-05.
 RLE energy=       -0.0325854554
 DE(Corr)= -0.20926822E-01 E(CORR)=     -839.94017458     Delta= 9.60D-03
 NORM(A)=   0.17269567D+01
 Iteration Nr.  57
 **********************
 DD1Dir will call FoFMem   1 times, MxPair=        10
 NAB=     0 NAA=    10 NBB=     0.
 A-vector RMS=  5.9118804D-03 Max=  2.0627843D-02 conv= 1.00D-05.
 RLE energy=       -0.0280082589
 DE(Corr)= -0.31781802E-01 E(CORR)=     -839.95102956     Delta=-1.09D-02
 NORM(A)=   0.19515780D+01
 Iteration Nr.  58
 **********************
 DD1Dir will call FoFMem   1 times, MxPair=        10
 NAB=     0 NAA=    10 NBB=     0.
 A-vector RMS=  4.1469247D-03 Max=  1.0718557D-02 conv= 1.00D-05.
 RLE energy=       -0.0208824941
 DE(Corr)= -0.27673438E-01 E(CORR)=     -839.94692120     Delta= 4.11D-03
 NORM(A)=   0.13247349D+01
 Iteration Nr.  59
 **********************
 DD1Dir will call FoFMem   1 times, MxPair=        10
 NAB=     0 NAA=    10 NBB=     0.
 A-vector RMS=  1.0424238D-03 Max=  3.7609183D-03 conv= 1.00D-05.
 RLE energy=       -0.0181245193
 DE(Corr)= -0.20987752E-01 E(CORR)=     -839.94023551     Delta= 6.69D-03
 NORM(A)=   0.12499548D+01
 Iteration Nr.  60
 **********************
 DD1Dir will call FoFMem   1 times, MxPair=        10
 NAB=     0 NAA=    10 NBB=     0.
 A-vector RMS=  1.7584620D-03 Max=  9.1282971D-03 conv= 1.00D-05.
 RLE energy=       -0.0097200964
 DE(Corr)= -0.18373815E-01 E(CORR)=     -839.93762157     Delta= 2.61D-03
 NORM(A)=   0.11020839D+01
 Iteration Nr.  61
 **********************
 DD1Dir will call FoFMem   1 times, MxPair=        10
 NAB=     0 NAA=    10 NBB=     0.
 A-vector RMS=  4.4699125D-03 Max=  1.7255297D-02 conv= 1.00D-05.
 RLE energy=       -0.0199147398
 DE(Corr)= -0.10325601E-01 E(CORR)=     -839.92957336     Delta= 8.05D-03
 NORM(A)=   0.13005257D+01
 Iteration Nr.  62
 **********************
 DD1Dir will call FoFMem   1 times, MxPair=        10
 NAB=     0 NAA=    10 NBB=     0.
 A-vector RMS=  8.7087760D-04 Max=  4.5844921D-03 conv= 1.00D-05.
 RLE energy=       -0.0238314295
 DE(Corr)= -0.20071901E-01 E(CORR)=     -839.93931966     Delta=-9.75D-03
 NORM(A)=   0.14157169D+01
 Iteration Nr.  63
 **********************
 DD1Dir will call FoFMem   1 times, MxPair=        10
 NAB=     0 NAA=    10 NBB=     0.
 A-vector RMS=  1.6794248D-03 Max=  3.8997093D-03 conv= 1.00D-05.
 RLE energy=       -0.0203283150
 DE(Corr)= -0.23749750E-01 E(CORR)=     -839.94299751     Delta=-3.68D-03
 NORM(A)=   0.13088974D+01
 Iteration Nr.  64
 **********************
 DD1Dir will call FoFMem   1 times, MxPair=        10
 NAB=     0 NAA=    10 NBB=     0.
 A-vector RMS=  1.1541954D-03 Max=  4.7564615D-03 conv= 1.00D-05.
 RLE energy=       -0.0208735736
 DE(Corr)= -0.20472446E-01 E(CORR)=     -839.93972021     Delta= 3.28D-03
 NORM(A)=   0.13388806D+01
 Iteration Nr.  65
 **********************
 DD1Dir will call FoFMem   1 times, MxPair=        10
 NAB=     0 NAA=    10 NBB=     0.
 A-vector RMS=  7.1649983D-04 Max=  3.0280948D-03 conv= 1.00D-05.
 RLE energy=       -0.0210709571
 DE(Corr)= -0.20965685E-01 E(CORR)=     -839.94021344     Delta=-4.93D-04
 NORM(A)=   0.13601769D+01
 Iteration Nr.  66
 **********************
 DD1Dir will call FoFMem   1 times, MxPair=        10
 NAB=     0 NAA=    10 NBB=     0.
 A-vector RMS=  6.2262823D-04 Max=  2.3924839D-03 conv= 1.00D-05.
 RLE energy=       -0.0205607801
 DE(Corr)= -0.21144153E-01 E(CORR)=     -839.94039191     Delta=-1.78D-04
 NORM(A)=   0.15277438D+01
 Iteration Nr.  67
 **********************
 DD1Dir will call FoFMem   1 times, MxPair=        10
 NAB=     0 NAA=    10 NBB=     0.
 A-vector RMS=  7.6184830D-04 Max=  4.6731740D-03 conv= 1.00D-05.
 RLE energy=       -0.0192530372
 DE(Corr)= -0.20614175E-01 E(CORR)=     -839.93986193     Delta= 5.30D-04
 NORM(A)=   0.14871913D+01
 Iteration Nr.  68
 **********************
 DD1Dir will call FoFMem   1 times, MxPair=        10
 NAB=     0 NAA=    10 NBB=     0.
 A-vector RMS=  2.1094150D-03 Max=  9.9775081D-03 conv= 1.00D-05.
 RLE energy=       -0.0213668486
 DE(Corr)= -0.19373094E-01 E(CORR)=     -839.93862085     Delta= 1.24D-03
 NORM(A)=   0.15478418D+01
 Iteration Nr.  69
 **********************
 DD1Dir will call FoFMem   1 times, MxPair=        10
 NAB=     0 NAA=    10 NBB=     0.
 A-vector RMS=  3.2861135D-04 Max=  1.5018480D-03 conv= 1.00D-05.
 RLE energy=       -0.0223269329
 DE(Corr)= -0.21381209E-01 E(CORR)=     -839.94062897     Delta=-2.01D-03
 NORM(A)=   0.16537505D+01
 Iteration Nr.  70
 **********************
 DD1Dir will call FoFMem   1 times, MxPair=        10
 NAB=     0 NAA=    10 NBB=     0.
 A-vector RMS=  9.8176170D-04 Max=  3.9419861D-03 conv= 1.00D-05.
 RLE energy=       -0.0219868877
 DE(Corr)= -0.22279861E-01 E(CORR)=     -839.94152762     Delta=-8.99D-04
 NORM(A)=   0.15608909D+01
 Iteration Nr.  71
 **********************
 DD1Dir will call FoFMem   1 times, MxPair=        10
 NAB=     0 NAA=    10 NBB=     0.
 A-vector RMS=  3.9530654D-04 Max=  1.1783278D-03 conv= 1.00D-05.
 RLE energy=       -0.0214090844
 DE(Corr)= -0.21963051E-01 E(CORR)=     -839.94121081     Delta= 3.17D-04
 NORM(A)=   0.15531768D+01
 Iteration Nr.  72
 **********************
 DD1Dir will call FoFMem   1 times, MxPair=        10
 NAB=     0 NAA=    10 NBB=     0.
 A-vector RMS=  1.4105201D-04 Max=  4.0531987D-04 conv= 1.00D-05.
 RLE energy=       -0.0215607142
 DE(Corr)= -0.21413525E-01 E(CORR)=     -839.94066128     Delta= 5.50D-04
 NORM(A)=   0.15545381D+01
 Iteration Nr.  73
 **********************
 DD1Dir will call FoFMem   1 times, MxPair=        10
 NAB=     0 NAA=    10 NBB=     0.
 A-vector RMS=  5.6457563D-05 Max=  1.5798159D-04 conv= 1.00D-05.
 RLE energy=       -0.0214686306
 DE(Corr)= -0.21557797E-01 E(CORR)=     -839.94080556     Delta=-1.44D-04
 NORM(A)=   0.15593676D+01
 Iteration Nr.  74
 **********************
 DD1Dir will call FoFMem   1 times, MxPair=        10
 NAB=     0 NAA=    10 NBB=     0.
 A-vector RMS=  9.7097133D-05 Max=  2.1082064D-04 conv= 1.00D-05.
 RLE energy=       -0.0215181237
 DE(Corr)= -0.21469407E-01 E(CORR)=     -839.94071717     Delta= 8.84D-05
 NORM(A)=   0.15557750D+01
 Iteration Nr.  75
 **********************
 DD1Dir will call FoFMem   1 times, MxPair=        10
 NAB=     0 NAA=    10 NBB=     0.
 A-vector RMS=  5.8365129D-05 Max=  1.0495356D-04 conv= 1.00D-05.
 RLE energy=       -0.0215766200
 DE(Corr)= -0.21517312E-01 E(CORR)=     -839.94076507     Delta=-4.79D-05
 NORM(A)=   0.15556464D+01
 Iteration Nr.  76
 **********************
 DD1Dir will call FoFMem   1 times, MxPair=        10
 NAB=     0 NAA=    10 NBB=     0.
 A-vector RMS=  3.6821054D-05 Max=  9.6998441D-05 conv= 1.00D-05.
 RLE energy=       -0.0214694997
 DE(Corr)= -0.21572451E-01 E(CORR)=     -839.94082021     Delta=-5.51D-05
 NORM(A)=   0.15572785D+01
 Iteration Nr.  77
 **********************
 DD1Dir will call FoFMem   1 times, MxPair=        10
 NAB=     0 NAA=    10 NBB=     0.
 A-vector RMS=  8.8650920D-05 Max=  2.5355656D-04 conv= 1.00D-05.
 RLE energy=       -0.0221108900
 DE(Corr)= -0.21469983E-01 E(CORR)=     -839.94071774     Delta= 1.02D-04
 NORM(A)=   0.15455932D+01
 Iteration Nr.  78
 **********************
 DD1Dir will call FoFMem   1 times, MxPair=        10
 NAB=     0 NAA=    10 NBB=     0.
 A-vector RMS=  4.9236651D-04 Max=  1.0986357D-03 conv= 1.00D-05.
 RLE energy=       -0.0215669704
 DE(Corr)= -0.22083208E-01 E(CORR)=     -839.94133097     Delta=-6.13D-04
 NORM(A)=   0.15514950D+01
 Iteration Nr.  79
 **********************
 DD1Dir will call FoFMem   1 times, MxPair=        10
 NAB=     0 NAA=    10 NBB=     0.
 A-vector RMS=  4.0041198D-05 Max=  8.4191635D-05 conv= 1.00D-05.
 RLE energy=       -0.0217301289
 DE(Corr)= -0.21565066E-01 E(CORR)=     -839.94081283     Delta= 5.18D-04
 NORM(A)=   0.15628436D+01
 Iteration Nr.  80
 **********************
 DD1Dir will call FoFMem   1 times, MxPair=        10
 NAB=     0 NAA=    10 NBB=     0.
 A-vector RMS=  1.7529462D-04 Max=  4.1675576D-04 conv= 1.00D-05.
 RLE energy=       -0.0214565898
 DE(Corr)= -0.21718478E-01 E(CORR)=     -839.94096624     Delta=-1.53D-04
 NORM(A)=   0.15545584D+01
 Iteration Nr.  81
 **********************
 DD1Dir will call FoFMem   1 times, MxPair=        10
 NAB=     0 NAA=    10 NBB=     0.
 A-vector RMS=  5.9631882D-05 Max=  1.4092238D-04 conv= 1.00D-05.
 RLE energy=       -0.0215289692
 DE(Corr)= -0.21459681E-01 E(CORR)=     -839.94070744     Delta= 2.59D-04
 NORM(A)=   0.15532012D+01
 Iteration Nr.  82
 **********************
 DD1Dir will call FoFMem   1 times, MxPair=        10
 NAB=     0 NAA=    10 NBB=     0.
 A-vector RMS=  1.1905401D-05 Max=  2.3848272D-05 conv= 1.00D-05.
 RLE energy=       -0.0215277805
 DE(Corr)= -0.21529146E-01 E(CORR)=     -839.94077691     Delta=-6.95D-05
 NORM(A)=   0.15549585D+01
 Iteration Nr.  83
 **********************
 DD1Dir will call FoFMem   1 times, MxPair=        10
 NAB=     0 NAA=    10 NBB=     0.
 A-vector RMS=  7.2823569D-06 Max=  2.0631437D-05 conv= 1.00D-05.
 RLE energy=       -0.0215163599
 DE(Corr)= -0.21527601E-01 E(CORR)=     -839.94077536     Delta= 1.54D-06
 NORM(A)=   0.15549001D+01
 Iteration Nr.  84
 **********************
 DD1Dir will call FoFMem   1 times, MxPair=        10
 NAB=     0 NAA=    10 NBB=     0.
 A-vector RMS=  5.4604073D-06 Max=  2.8949128D-05 conv= 1.00D-05.
 RLE energy=       -0.0215227212
 DE(Corr)= -0.21516739E-01 E(CORR)=     -839.94076450     Delta= 1.09D-05
 NORM(A)=   0.15548964D+01
 Iteration Nr.  85
 **********************
 DD1Dir will call FoFMem   1 times, MxPair=        10
 NAB=     0 NAA=    10 NBB=     0.
 A-vector RMS=  5.2476421D-06 Max=  1.5937380D-05 conv= 1.00D-05.
 RLE energy=       -0.0215192264
 DE(Corr)= -0.21522813E-01 E(CORR)=     -839.94077057     Delta=-6.07D-06
 NORM(A)=   0.15551486D+01
 Iteration Nr.  86
 **********************
 DD1Dir will call FoFMem   1 times, MxPair=        10
 NAB=     0 NAA=    10 NBB=     0.
 A-vector RMS=  5.0269085D-06 Max=  1.6324863D-05 conv= 1.00D-05.
 RLE energy=       -0.0215236966
 DE(Corr)= -0.21519437E-01 E(CORR)=     -839.94076720     Delta= 3.38D-06
 NORM(A)=   0.15551668D+01
 Iteration Nr.  87
 **********************
 DD1Dir will call FoFMem   1 times, MxPair=        10
 NAB=     0 NAA=    10 NBB=     0.
 A-vector RMS=  3.8501477D-06 Max=  1.0768920D-05 conv= 1.00D-05.
 RLE energy=       -0.0215254393
 DE(Corr)= -0.21523695E-01 E(CORR)=     -839.94077145     Delta=-4.26D-06
 NORM(A)=   0.15553124D+01
 Iteration Nr.  88
 **********************
 DD1Dir will call FoFMem   1 times, MxPair=        10
 NAB=     0 NAA=    10 NBB=     0.
 A-vector RMS=  1.9043132D-06 Max=  5.8498721D-06 conv= 1.00D-05.
 RLE energy=       -0.0215229393
 DE(Corr)= -0.21525284E-01 E(CORR)=     -839.94077304     Delta=-1.59D-06
 NORM(A)=   0.15553652D+01
 Iteration Nr.  89
 **********************
 DD1Dir will call FoFMem   1 times, MxPair=        10
 NAB=     0 NAA=    10 NBB=     0.
 A-vector RMS=  1.4052218D-06 Max=  3.0121728D-06 conv= 1.00D-05.
 RLE energy=       -0.0215236768
 DE(Corr)= -0.21522885E-01 E(CORR)=     -839.94077064     Delta= 2.40D-06
 NORM(A)=   0.15553641D+01
 Iteration Nr.  90
 **********************
 DD1Dir will call FoFMem   1 times, MxPair=        10
 NAB=     0 NAA=    10 NBB=     0.
 A-vector RMS=  8.9929109D-07 Max=  2.1879392D-06 conv= 1.00D-05.
 RLE energy=       -0.0215229414
 DE(Corr)= -0.21523613E-01 E(CORR)=     -839.94077137     Delta=-7.28D-07
 NORM(A)=   0.15553808D+01
 Iteration Nr.  91
 **********************
 DD1Dir will call FoFMem   1 times, MxPair=        10
 NAB=     0 NAA=    10 NBB=     0.
 A-vector RMS=  8.7350518D-07 Max=  1.5345083D-06 conv= 1.00D-05.
 RLE energy=       -0.0215226288
 DE(Corr)= -0.21522913E-01 E(CORR)=     -839.94077067     Delta= 7.00D-07
 NORM(A)=   0.15553877D+01
 Iteration Nr.  92
 **********************
 DD1Dir will call FoFMem   1 times, MxPair=        10
 NAB=     0 NAA=    10 NBB=     0.
 A-vector RMS=  3.7392169D-07 Max=  9.8234896D-07 conv= 1.00D-05.
 RLE energy=       -0.0215228944
 DE(Corr)= -0.21522637E-01 E(CORR)=     -839.94077040     Delta= 2.76D-07
 NORM(A)=   0.15553955D+01
 Iteration Nr.  93
 **********************
 DD1Dir will call FoFMem   1 times, MxPair=        10
 NAB=     0 NAA=    10 NBB=     0.
 A-vector RMS=  2.7839680D-07 Max=  8.6953950D-07 conv= 1.00D-05.
 RLE energy=       -0.0215227495
 DE(Corr)= -0.21522889E-01 E(CORR)=     -839.94077065     Delta=-2.52D-07
 NORM(A)=   0.15554037D+01
 Iteration Nr.  94
 **********************
 DD1Dir will call FoFMem   1 times, MxPair=        10
 NAB=     0 NAA=    10 NBB=     0.
 A-vector RMS=  1.6794963D-07 Max=  6.5126424D-07 conv= 1.00D-05.
 RLE energy=       -0.0215227816
 DE(Corr)= -0.21522749E-01 E(CORR)=     -839.94077051     Delta= 1.40D-07
 NORM(A)=   0.15554016D+01
 Iteration Nr.  95
 **********************
 DD1Dir will call FoFMem   1 times, MxPair=        10
 NAB=     0 NAA=    10 NBB=     0.
 A-vector RMS=  8.2060716D-08 Max=  2.6891571D-07 conv= 1.00D-05.
 RLE energy=       -0.0215227842
 DE(Corr)= -0.21522781E-01 E(CORR)=     -839.94077054     Delta=-3.18D-08
 NORM(A)=   0.15554023D+01
 CI/CC converged in   95 iterations to DelEn=-3.18D-08 Conv= 1.00D-07 ErrA1= 8.21D-08 Conv= 1.00D-05
 Wavefunction amplitudes converged. E(Corr)=     -839.94077054    
 Dominant configurations:
 ***********************
 Spin Case        I    J    A    B          Value
    AA           13        15            0.394707D+00
    AA           14        16            0.394707D+00
   AAAA          13   14   15   16      -0.729781D+00
   AAAA          12   13   17   15       0.492565D+00
   AAAA          12   13   19   15      -0.162327D+00
   AAAA          12   13   18   16      -0.131379D+00
   AAAA          12   14   17   16      -0.492565D+00
   AAAA          12   14   19   16       0.162327D+00
   AAAA          12   14   18   15       0.131379D+00
 Largest amplitude= 7.30D-01
 Discarding MO integrals.
 Leave Link  913 at Mon Mar 28 12:46:14 2022, MaxMem=  9663676416 cpu:              12.9 elap:               0.4
 (Enter /nopt/nrel/apps/gaussian/g16C_1/g16/l601.exe)
 Copying SCF densities to generalized density rwf, IOpCl= 1 IROHF=0.

 **********************************************************************

            Population analysis using the SCF Density.

 **********************************************************************

 Orbital symmetries:
 Alpha Orbitals:
       Occupied  (SG) (SG) (SG) (PI) (PI) (SG) (PI) (PI) (SG) (SG)
                 (SG) (DLTA) (PI) (PI)
       Virtual   (PI) (PI) (SG) (DLTA) (SG)
 Beta  Orbitals:
       Occupied  (SG) (SG) (SG) (PI) (PI) (SG) (SG) (PI) (PI)
       Virtual   (SG) (SG) (PI) (PI) (SG) (DLTA) (SG) (PI) (PI)
                 (DLTA)
 Unable to determine electronic state:  partially filled degenerate orbitals.
 Alpha  occ. eigenvalues -- -181.41512 -21.16081 -17.74311 -17.74309 -17.74309
 Alpha  occ. eigenvalues --   -2.80364  -1.75768  -1.75768  -1.75737  -0.46546
 Alpha  occ. eigenvalues --   -0.14543  -0.03312  -0.03032  -0.03032
 Alpha virt. eigenvalues --    0.31761   0.31761   0.32581   0.45181   0.45386
  Beta  occ. eigenvalues -- -181.41104 -21.14880 -17.73818 -17.73787 -17.73787
  Beta  occ. eigenvalues --   -2.67160  -1.60241  -1.60046  -1.60046
  Beta virt. eigenvalues --    0.23090   0.30591   0.45778   0.45778   0.48522
  Beta virt. eigenvalues --    0.53781   0.54750   0.56380   0.56380   0.56459
          Condensed to atoms (all electrons):
               1          2
     1  H    0.991493   0.000639
     2  Ti   0.000639  22.007229
          Atomic-Atomic Spin Densities.
               1          2
     1  H    0.991472   0.000695
     2  Ti   0.000695   4.007137
 Mulliken charges and spin densities:
               1          2
     1  H    0.007868   0.992167
     2  Ti  -0.007868   4.007833
 Sum of Mulliken charges =  -0.00000   5.00000
 Mulliken charges and spin densities with hydrogens summed into heavy atoms:
               1          2
     2  Ti  -0.000000   5.000000
 N-N= 3.880632880080D+00 E-N=-1.996118275265D+03  KE= 8.363534683336D+02
 Symmetry A1   KE= 6.598790817999D+02
 Symmetry A2   KE= 5.400440307956D-32
 Symmetry B1   KE= 8.823719326689D+01
 Symmetry B2   KE= 8.823719326689D+01
 Symmetry A1   SP= 3.000000000000D+00
 Symmetry A2   SP= 2.999519565324D-32
 Symmetry B1   SP= 1.000000000000D+00
 Symmetry B2   SP= 1.000000000000D+00

 Atomic contributions to Alpha molecular orbitals:
 Alpha occ 1 OE=-181.415 is Ti2-s=1.0000
 Alpha occ 2 OE=-21.161 is Ti2-s=1.0000
 Alpha occ 3 OE=-17.743 is Ti2-p=1.0000
 Alpha occ 4 OE=-17.743 is Ti2-p=1.0000
 Alpha occ 5 OE=-17.743 is Ti2-p=1.0000
 Alpha occ 6 OE=-2.804 is Ti2-s=0.9999
 Alpha occ 7 OE=-1.758 is Ti2-p=1.0000
 Alpha occ 8 OE=-1.758 is Ti2-p=1.0000
 Alpha occ 9 OE=-1.757 is Ti2-p=0.9999
 Alpha occ 10 OE=-0.465 is H1-s=0.9825
 Alpha occ 11 OE=-0.145 is Ti2-s=0.9873
 Alpha occ 12 OE=-0.033 is Ti2-d=1.0000
 Alpha occ 13 OE=-0.030 is Ti2-d=0.9733
 Alpha occ 14 OE=-0.030 is Ti2-d=0.9733
 Alpha vir 15 OE=0.318 is Ti2-p=0.9734
 Alpha vir 16 OE=0.318 is Ti2-p=0.9734
 Alpha vir 17 OE=0.326 is Ti2-p=0.9791
 Alpha vir 18 OE=0.452 is Ti2-d=1.0000
 Alpha vir 19 OE=0.454 is Ti2-d=0.9863

 Atomic contributions to Beta  molecular orbitals:
 Beta  occ 1 OE=-181.411 is Ti2-s=1.0000
 Beta  occ 2 OE=-21.149 is Ti2-s=1.0000
 Beta  occ 3 OE=-17.738 is Ti2-p=1.0000
 Beta  occ 4 OE=-17.738 is Ti2-p=1.0000
 Beta  occ 5 OE=-17.738 is Ti2-p=1.0000
 Beta  occ 6 OE=-2.672 is Ti2-s=1.0000
 Beta  occ 7 OE=-1.602 is Ti2-p=1.0000
 Beta  occ 8 OE=-1.600 is Ti2-p=1.0000
 Beta  occ 9 OE=-1.600 is Ti2-p=1.0000
 Beta  vir 10 OE=0.231 is Ti2-s=0.8186 H1-s=0.1791
 Beta  vir 11 OE=0.306 is H1-s=0.6850 Ti2-s=0.1639 Ti2-p=0.1442
 Beta  vir 12 OE=0.458 is Ti2-p=0.9858
 Beta  vir 13 OE=0.458 is Ti2-p=0.9858
 Beta  vir 14 OE=0.485 is Ti2-p=0.7589 Ti2-d=0.1346
 Beta  vir 15 OE=0.538 is Ti2-d=1.0000
 Beta  vir 16 OE=0.547 is Ti2-d=0.8572
 Beta  vir 17 OE=0.564 is Ti2-d=0.9858
 Beta  vir 18 OE=0.564 is Ti2-d=0.9858
 Beta  vir 19 OE=0.565 is Ti2-d=1.0000
 
 Leave Link  601 at Mon Mar 28 12:46:14 2022, MaxMem=  9663676416 cpu:               0.7 elap:               0.0
 (Enter /nopt/nrel/apps/gaussian/g16C_1/g16/l9999.exe)

 Test job not archived.
 1\1\GINC-R3I7N35\SP\UCCSD-FC\Gen\H1Ti1(6)\USER\28-Mar-2022\0\\#P C
 CSD(MaxCyc=300,SaveAmplitudes,ReadAmplitudes)/GEN sp pop=AllOrbitals i
 op(3/33=1,3/36=-1)\\test\\0,6\H,0,0.,0.,0.\Ti,0,0.,0.,3.\\Version=ES64
 L-G16RevC.01\HF=-839.9192478\MP2=-839.9201262\MP3=-839.9209909\MP4D=-8
 39.9218442\MP4DQ=-839.9218431\MP4SDQ=-839.9218432\CCSD=-839.9407705\S2
 =8.753505\S2-1=0.\S2A=8.750003\RMSD=4.193e-09\PG=C*V [C*(H1Ti1)]\\@


 A leading authority is anyone who has guessed right more than once.
 -- Frank A. Clark
 Job cpu time:       0 days  0 hours  0 minutes 45.2 seconds.
 Elapsed time:       0 days  0 hours  0 minutes  1.6 seconds.
 File lengths (MBytes):  RWF=     13 Int=      0 D2E=      0 Chk=      1 Scr=      1
 Normal termination of Gaussian 16 at Mon Mar 28 12:46:14 2022.
