 Entering Gaussian System, Link 0=g16
 Initial command:
 /nopt/nrel/apps/gaussian/g16C_1/g16/l1.exe "/lustre/eaglefs/scratch/user/qc/lih-dissc/lih-3-ccsd-0.8-631g/Gau-7415.inp" -scrdir="/lustre/eaglefs/scratch/user/qc/lih-dissc/lih-3-ccsd-0.8-631g/"
 Default is to use a total of  36 processors:
                               36 via shared-memory
                                1 via Linda
 Entering Link 1 = /nopt/nrel/apps/gaussian/g16C_1/g16/l1.exe PID=      7416.
  
 Copyright (c) 1988-2019, Gaussian, Inc.  All Rights Reserved.
  
 This is part of the Gaussian(R) 16 program.  It is based on
 the Gaussian(R) 09 system (copyright 2009, Gaussian, Inc.),
 the Gaussian(R) 03 system (copyright 2003, Gaussian, Inc.),
 the Gaussian(R) 98 system (copyright 1998, Gaussian, Inc.),
 the Gaussian(R) 94 system (copyright 1995, Gaussian, Inc.),
 the Gaussian 92(TM) system (copyright 1992, Gaussian, Inc.),
 the Gaussian 90(TM) system (copyright 1990, Gaussian, Inc.),
 the Gaussian 88(TM) system (copyright 1988, Gaussian, Inc.),
 the Gaussian 86(TM) system (copyright 1986, Carnegie Mellon
 University), and the Gaussian 82(TM) system (copyright 1983,
 Carnegie Mellon University). Gaussian is a federally registered
 trademark of Gaussian, Inc.
  
 This software contains proprietary and confidential information,
 including trade secrets, belonging to Gaussian, Inc.
  
 This software is provided under written license and may be
 used, copied, transmitted, or stored only in accord with that
 written license.
  
 The following legend is applicable only to US Government
 contracts under FAR:
  
                    RESTRICTED RIGHTS LEGEND
  
 Use, reproduction and disclosure by the US Government is
 subject to restrictions as set forth in subparagraphs (a)
 and (c) of the Commercial Computer Software - Restricted
 Rights clause in FAR 52.227-19.
  
 Gaussian, Inc.
 340 Quinnipiac St., Bldg. 40, Wallingford CT 06492
  
  
 ---------------------------------------------------------------
 Warning -- This program may not be used in any manner that
 competes with the business of Gaussian, Inc. or will provide
 assistance to any competitor of Gaussian, Inc.  The licensee
 of this program is prohibited from giving any competitor of
 Gaussian, Inc. access to this program.  By using this program,
 the user acknowledges that Gaussian, Inc. is engaged in the
 business of creating and licensing software in the field of
 computational chemistry and represents and warrants to the
 licensee that it is not a competitor of Gaussian, Inc. and that
 it will not use this program in any manner prohibited above.
 ---------------------------------------------------------------
  

 Cite this work as:
 Gaussian 16, Revision C.01,
 M. J. Frisch, G. W. Trucks, H. B. Schlegel, G. E. Scuseria, 
 M. A. Robb, J. R. Cheeseman, G. Scalmani, V. Barone, 
 G. A. Petersson, H. Nakatsuji, X. Li, M. Caricato, A. V. Marenich, 
 J. Bloino, B. G. Janesko, R. Gomperts, B. Mennucci, H. P. Hratchian, 
 J. V. Ortiz, A. F. Izmaylov, J. L. Sonnenberg, D. Williams-Young, 
 F. Ding, F. Lipparini, F. Egidi, J. Goings, B. Peng, A. Petrone, 
 T. Henderson, D. Ranasinghe, V. G. Zakrzewski, J. Gao, N. Rega, 
 G. Zheng, W. Liang, M. Hada, M. Ehara, K. Toyota, R. Fukuda, 
 J. Hasegawa, M. Ishida, T. Nakajima, Y. Honda, O. Kitao, H. Nakai, 
 T. Vreven, K. Throssell, J. A. Montgomery, Jr., J. E. Peralta, 
 F. Ogliaro, M. J. Bearpark, J. J. Heyd, E. N. Brothers, K. N. Kudin, 
 V. N. Staroverov, T. A. Keith, R. Kobayashi, J. Normand, 
 K. Raghavachari, A. P. Rendell, J. C. Burant, S. S. Iyengar, 
 J. Tomasi, M. Cossi, J. M. Millam, M. Klene, C. Adamo, R. Cammi, 
 J. W. Ochterski, R. L. Martin, K. Morokuma, O. Farkas, 
 J. B. Foresman, and D. J. Fox, Gaussian, Inc., Wallingford CT, 2019.
 
 ******************************************
 Gaussian 16:  ES64L-G16RevC.01  3-Jul-2019
                28-Mar-2022 
 ******************************************
 %chk=molecule
 Default route: CacheSize=180224 MaxDisk=256GB
 ----------------------------------------------------------------------
 #P CCSD(MaxCyc=200,SaveAmplitudes,ReadAmplitudes)/GEN sp pop=AllOrbita
 ls iop(3/33=1,3/36=-1)
 ----------------------------------------------------------------------
 1/4=180224,38=1,172=1/1;
 2/4=180224,12=2,17=6,18=5,40=1/2;
 3/4=180224,5=7,11=9,25=1,30=1,33=1,36=-1/1,2,3;
 4/4=180224/1;
 5/4=180224,5=2,38=5/2;
 8/4=180224,6=4,9=120000,10=1,24=1/1,4;
 9/4=180224,5=7,6=200,77=1/13;
 6/4=180224,7=2,8=2,9=2,10=2,96=-1/1;
 99/4=180224,5=1,9=1/99;
 Leave Link    1 at Mon Mar 28 14:05:30 2022, MaxMem=           0 cpu:               2.1 elap:               0.1
 (Enter /nopt/nrel/apps/gaussian/g16C_1/g16/l101.exe)
 ----
 test
 ----
 Symbolic Z-matrix:
 Charge =  0 Multiplicity = 3
 H                     0.        0.        0. 
 Li                    0.        0.        0.8 
 
 ITRead=  0  0
 MicOpt= -1 -1
 NAtoms=      2 NQM=        2 NQMF=       0 NMMI=      0 NMMIF=      0
                NMic=       0 NMicF=      0.
                    Isotopes and Nuclear Properties:
 (Nuclear quadrupole moments (NQMom) in fm**2, nuclear magnetic moments (NMagM)
  in nuclear magnetons)

  Atom         1           2
 IAtWgt=           1           7
 AtmWgt=   1.0078250   7.0160045
 NucSpn=           1           3
 AtZEff=  -0.0000000  -0.0000000
 NQMom=    0.0000000  -4.0100000
 NMagM=    2.7928460   3.2564240
 AtZNuc=   1.0000000   3.0000000
 Leave Link  101 at Mon Mar 28 14:05:30 2022, MaxMem=  9663676416 cpu:               3.1 elap:               0.1
 (Enter /nopt/nrel/apps/gaussian/g16C_1/g16/l202.exe)
                          Input orientation:                          
 ---------------------------------------------------------------------
 Center     Atomic      Atomic             Coordinates (Angstroms)
 Number     Number       Type             X           Y           Z
 ---------------------------------------------------------------------
      1          1           0        0.000000    0.000000    0.000000
      2          3           0        0.000000    0.000000    0.800000
 ---------------------------------------------------------------------
 Stoichiometry    HLi(3)
 Framework group  C*V[C*(HLi)]
 Deg. of freedom     1
 Full point group                 C*V     NOp   4
 Largest Abelian subgroup         C2V     NOp   4
 Largest concise Abelian subgroup C1      NOp   1
                         Standard orientation:                         
 ---------------------------------------------------------------------
 Center     Atomic      Atomic             Coordinates (Angstroms)
 Number     Number       Type             X           Y           Z
 ---------------------------------------------------------------------
      1          1           0        0.000000    0.000000   -0.600000
      2          3           0        0.000000    0.000000    0.200000
 ---------------------------------------------------------------------
 Rotational constants (GHZ):           0.0000000         896.0740847         896.0740847
 Leave Link  202 at Mon Mar 28 14:05:30 2022, MaxMem=  9663676416 cpu:               0.9 elap:               0.0
 (Enter /nopt/nrel/apps/gaussian/g16C_1/g16/l301.exe)
 General basis read from cards:  (5D, 7F)
                         Coordinates in L301:                         
 ---------------------------------------------------------------------
 Center     Atomic      Atomic             Coordinates (Angstroms)
 Number     Number       Type             X           Y           Z
 ---------------------------------------------------------------------
      1          1           0        0.000000    0.000000   -0.600000
      2          3           0        0.000000    0.000000    0.200000
 ---------------------------------------------------------------------
 Centers:       1
 STO-3G
 ****
 Centers:       2
 6-31G
 ****
 FixB: optimizing general contractions.
 Ernie: Thresh=  0.10000D-02 Tol=  0.10000D-05 Strict=F.
 IA=     1 ShT= 0 ShC= 0 NL=   1 NS=   0.
 IA=     1 L=0 SC=0 ISt=    0 NBk=    0 NP=    0 IndPr=    0.
 IA=     2 ShT= 0 ShC= 0 NL=   1 NS=   0.
 IA=     2 L=0 SC=0 ISt=    0 NBk=    0 NP=    0 IndPr=    0.
 IA=     2 ShT= 1 ShC= 0 NL=   2 NS=   1.
 IA=     2 L=1 SC=0 ISt=    0 NBk=    0 NP=    0 IndPr=    0.
 LdAtmC:  AtmChg=     1.000000     3.000000
 AtZEff=     -1.0000000     -1.3500000
 NEqShl: 
              1            2            3            4
     1            1            1            1            1
     2            2            2            2            2
     3            3            3            3            3
     4            4            4            4            4
 NEqBas: 
              1            2            3            4
     1            1            1            1            1
     2            2            2            2            2
     3            3            3            3            3
     4            4           -4           -4            4
     5            5           -5            5           -5
     6            6            6            6            6
     7            7            7            7            7
     8            8           -8           -8            8
     9            9           -9            9           -9
    10           10           10           10           10
 There are     6 symmetry adapted cartesian basis functions of A1  symmetry.
   1         1   1   1   1
   2         2   2   2   2
   3         3   3   3   3
   4         6   6   6   6
   5         7   7   7   7
   6        10  10  10  10
 There are     0 symmetry adapted cartesian basis functions of A2  symmetry.
 There are     2 symmetry adapted cartesian basis functions of B1  symmetry.
   7         4   4   4   4
   8         8   8   8   8
 There are     2 symmetry adapted cartesian basis functions of B2  symmetry.
   9         5   5   5   5
  10         9   9   9   9
 Order= 1 2 4 3
 Reordered character table:
              1            2            3            4            5
     1            1            1            1            1            1
     2            2            1            1           -1           -1
     3            4            1           -1           -1            1
     4            3            1           -1            1           -1
 NEqShl: 
              1            2            3            4
     1            1            1            1            1
     2            2            2            2            2
     3            3            3            3            3
     4            4            4            4            4
 NEqBas: 
              1            2            3            4
     1            1            1            1            1
     2            2            2            2            2
     3            3            3            3            3
     4            4           -4           -4            4
     5            5           -5            5           -5
     6            6            6            6            6
     7            7            7            7            7
     8            8           -8           -8            8
     9            9           -9            9           -9
    10           10           10           10           10
 There are     6 symmetry adapted basis functions of A1  symmetry.
   1         1   1   1   1
   2         2   2   2   2
   3         3   3   3   3
   4         6   6   6   6
   5         7   7   7   7
   6        10  10  10  10
 There are     0 symmetry adapted basis functions of A2  symmetry.
 There are     2 symmetry adapted basis functions of B1  symmetry.
   7         4   4   4   4
   8         8   8   8   8
 There are     2 symmetry adapted basis functions of B2  symmetry.
   9         5   5   5   5
  10         9   9   9   9
 Order= 1 2 4 3
 Reordered character table:
              1            2            3            4            5
     1            1            1            1            1            1
     2            2            1            1           -1           -1
     3            4            1           -1           -1            1
     4            3            1           -1            1           -1
    10 basis functions,    25 primitive gaussians,    10 cartesian basis functions
     3 alpha electrons        1 beta electrons
       nuclear repulsion energy         1.9844145409 Hartrees.
 IS=     1 IAt=     1 ISR=     1 T=0 IP=      1 IndIP=      1 IndIPD=      0 C=  2.769344D-01  0.000000D+00                             NZ=T
 IS=     1 IAt=     1 ISR=     1 T=0 IP=      2 IndIP=      2 IndIPD=      1 C=  2.678389D-01  0.000000D+00                             NZ=T
 IS=     1 IAt=     1 ISR=     1 T=0 IP=      3 IndIP=      3 IndIPD=      2 C=  8.347367D-02  0.000000D+00                             NZ=T
 IS=     2 IAt=     2 ISR=     1 T=0 IP=      1 IndIP=      4 IndIPD=      0 C=  1.948572D-01  0.000000D+00                             NZ=T
 IS=     2 IAt=     2 ISR=     1 T=0 IP=      2 IndIP=      5 IndIPD=      1 C=  3.565040D-01  0.000000D+00                             NZ=T
 IS=     2 IAt=     2 ISR=     1 T=0 IP=      3 IndIP=      6 IndIPD=      2 C=  5.614879D-01  0.000000D+00                             NZ=T
 IS=     2 IAt=     2 ISR=     1 T=0 IP=      4 IndIP=      7 IndIPD=      3 C=  6.883627D-01  0.000000D+00                             NZ=T
 IS=     2 IAt=     2 ISR=     1 T=0 IP=      5 IndIP=      8 IndIPD=      4 C=  5.498106D-01  0.000000D+00                             NZ=T
 IS=     2 IAt=     2 ISR=     1 T=0 IP=      6 IndIP=      9 IndIPD=      5 C=  1.755056D-01  0.000000D+00                             NZ=T
 IS=     3 IAt=     2 ISR=     2 T=1 IP=      1 IndIP=     10 IndIPD=      0 C= -4.708915D-02  3.658984D-02                             NZ=T
 IS=     3 IAt=     2 ISR=     2 T=1 IP=      2 IndIP=     11 IndIPD=      1 C= -9.665673D-02  1.133585D-01                             NZ=T
 IS=     3 IAt=     2 ISR=     2 T=1 IP=      3 IndIP=     12 IndIPD=      2 C=  1.151795D-01  5.648589D-02                             NZ=T
 IS=     4 IAt=     2 ISR=     3 T=1 IP=      1 IndIP=     13 IndIPD=      0 C=  5.885627D-02  2.232258D-02                             NZ=T
 IExCor=    0 DFT=F Ex=HF Corr=None ExCW=0 ScaHFX=  1.000000
 ScaDFX=  1.000000  1.000000  1.000000  1.000000 ScalE2=  1.000000  1.000000
 IRadAn=      5 IRanWt=     -1 IRanGd=            0 ICorTp=0 IEmpDi=  4
 NAtoms=    2 NActive=    2 NUniq=    2 SFac= 1.00D+00 NAtFMM=   60 NAOKFM=F Big=F
 Integral buffers will be    131072 words long.
 Raffenetti 2 integral format.
 Two-electron integral symmetry is turned on.
 Leave Link  301 at Mon Mar 28 14:05:30 2022, MaxMem=  9663676416 cpu:               2.2 elap:               0.1
 (Enter /nopt/nrel/apps/gaussian/g16C_1/g16/l302.exe)
 NPDir=0 NMtPBC=     1 NCelOv=     1 NCel=       1 NClECP=     1 NCelD=      1
         NCelK=      1 NCelE2=     1 NClLst=     1 CellRange=     0.0.
 One-electron integrals computed using PRISM.
 One-electron integral symmetry used in STVInt
 Entering OneElI...
 Calculate overlap and kinetic energy integrals
    NBasis =  10  MinDer = 0  MaxDer = 0
 Requested accuracy = 0.1000D-12
 Symmetry will be used
 PrmmSu-InSpLW:  IPartL=    0 NPrtUS=   36 NPrtUL=    1 DoSpLW=F IThBeg=    0 IThEnd=   35 NThAct=   36.
 PrSmSu:  IncTry=   512 NBBP=             10 NTPThr=   100 NPartT=   36 Incr=           1 LDynOK=F GPUOK=F.
 PrsmSu:  NPrtUS=  36 ThrOK=T IAlg=1 LenDen=           0 ISkipM=0 DoSpLW=F IThBeg=    0 IThEnd=   35.
 Prism:   IPart=     0 DynPar=F LinDyn=F Incr=           1.
 PRISM was handed   268433743 working-precision words and    10 shell-pairs
 PRISM was handed   268433743 working-precision words and    10 shell-pairs
 PRISM was handed   268433743 working-precision words and    10 shell-pairs
 PRISM was handed   268433743 working-precision words and    10 shell-pairs
 PRISM was handed   268433743 working-precision words and    10 shell-pairs
 PRISM was handed   268433743 working-precision words and    10 shell-pairs
 PRISM was handed   268433743 working-precision words and    10 shell-pairs
 IPart= 27 NShTot=           0 NBatch=           0 AvBLen=         0.0
 IPart= 12 NShTot=           0 NBatch=           0 AvBLen=         0.0
 IPart= 17 NShTot=           0 NBatch=           0 AvBLen=         0.0
 IPart= 16 NShTot=           0 NBatch=           0 AvBLen=         0.0
 IPart=  2 NShTot=           0 NBatch=           0 AvBLen=         0.0
 PRISM was handed   268433743 working-precision words and    10 shell-pairs
 PRISM was handed   268433743 working-precision words and    10 shell-pairs
 PRISM was handed   268433743 working-precision words and    10 shell-pairs
 PRISM was handed   268433743 working-precision words and    10 shell-pairs
 PRISM was handed   268433743 working-precision words and    10 shell-pairs
 IPart=  8 NShTot=           0 NBatch=           0 AvBLen=         0.0
 IPart= 32 NShTot=           0 NBatch=           0 AvBLen=         0.0
 IPart= 14 NShTot=           0 NBatch=           0 AvBLen=         0.0
 PRISM was handed   268433743 working-precision words and    10 shell-pairs
 IPart= 13 NShTot=           0 NBatch=           0 AvBLen=         0.0
 IPart= 24 NShTot=           0 NBatch=           0 AvBLen=         0.0
 IPart=  5 NShTot=           0 NBatch=           0 AvBLen=         0.0
 PRISM was handed   268433743 working-precision words and    10 shell-pairs
 PRISM was handed   268433743 working-precision words and    10 shell-pairs
 IPart= 35 NShTot=           0 NBatch=           0 AvBLen=         0.0
 PRISM was handed   268433743 working-precision words and    10 shell-pairs
 PRISM was handed   268433743 working-precision words and    10 shell-pairs
 IPart=  7 NShTot=           0 NBatch=           0 AvBLen=         0.0
 IPart= 26 NShTot=           0 NBatch=           0 AvBLen=         0.0
 PRISM was handed   268433743 working-precision words and    10 shell-pairs
 PRISM was handed   268433743 working-precision words and    10 shell-pairs
 PRISM was handed   268433743 working-precision words and    10 shell-pairs
 PRISM was handed   268433743 working-precision words and    10 shell-pairs
 PRISM was handed   268433743 working-precision words and    10 shell-pairs
 IPart= 23 NShTot=           0 NBatch=           0 AvBLen=         0.0
 IPart= 33 NShTot=           0 NBatch=           0 AvBLen=         0.0
 PRISM was handed   268433743 working-precision words and    10 shell-pairs
 IPart= 19 NShTot=           0 NBatch=           0 AvBLen=         0.0
 IPart= 29 NShTot=           0 NBatch=           0 AvBLen=         0.0
 PRISM was handed   268433743 working-precision words and    10 shell-pairs
 PRISM was handed   268433743 working-precision words and    10 shell-pairs
 IPart=  6 NShTot=           0 NBatch=           0 AvBLen=         0.0
 IPart= 30 NShTot=           0 NBatch=           0 AvBLen=         0.0
 PRISM was handed   268433743 working-precision words and    10 shell-pairs
 PRISM was handed   268433743 working-precision words and    10 shell-pairs
 IPart= 21 NShTot=           0 NBatch=           0 AvBLen=         0.0
 PRISM was handed   268433743 working-precision words and    10 shell-pairs
 PRISM was handed   268433743 working-precision words and    10 shell-pairs
 IPart= 18 NShTot=           0 NBatch=           0 AvBLen=         0.0
 PRISM was handed   268433743 working-precision words and    10 shell-pairs
 PRISM was handed   268433743 working-precision words and    10 shell-pairs
 IPart= 10 NShTot=           0 NBatch=           0 AvBLen=         0.0
 IPart= 15 NShTot=           0 NBatch=           0 AvBLen=         0.0
 IPart=  4 NShTot=           0 NBatch=           0 AvBLen=         0.0
 IPart=  9 NShTot=           0 NBatch=           0 AvBLen=         0.0
 IPart= 20 NShTot=           0 NBatch=           0 AvBLen=         0.0
 IPart= 22 NShTot=           0 NBatch=           0 AvBLen=         0.0
 PRISM was handed   268433743 working-precision words and    10 shell-pairs
 PRISM was handed   268433743 working-precision words and    10 shell-pairs
 PRISM was handed   268433743 working-precision words and    10 shell-pairs
 IPart= 28 NShTot=           0 NBatch=           0 AvBLen=         0.0
 IPart=  1 NShTot=           0 NBatch=           0 AvBLen=         0.0
 PRISM was handed   268433743 working-precision words and    10 shell-pairs
 PRISM was handed   268433743 working-precision words and    10 shell-pairs
 IPart= 25 NShTot=           0 NBatch=           0 AvBLen=         0.0
 IPart=  3 NShTot=           0 NBatch=           0 AvBLen=         0.0
 IPart=  0 NShTot=          10 NBatch=          10 AvBLen=         1.0
 IPart= 34 NShTot=           0 NBatch=           0 AvBLen=         0.0
 IPart= 31 NShTot=           0 NBatch=           0 AvBLen=         0.0
 IPart= 11 NShTot=           0 NBatch=           0 AvBLen=         0.0
 PrSmSu:  NxtVal=             37.
 *** Overlap *** 
                1             2             3             4             5 
      1  0.100000D+01
      2  0.347307D+00  0.100000D+01
      3  0.544349D+00  0.145258D+00  0.100000D+01
      4  0.000000D+00  0.000000D+00  0.000000D+00  0.100000D+01
      5  0.000000D+00  0.000000D+00  0.000000D+00  0.000000D+00  0.100000D+01
      6 -0.444344D+00  0.000000D+00  0.000000D+00  0.000000D+00  0.000000D+00
      7  0.440303D+00  0.185742D+00  0.905515D+00  0.000000D+00  0.000000D+00
      8  0.000000D+00  0.000000D+00  0.000000D+00  0.802063D+00  0.000000D+00
      9  0.000000D+00  0.000000D+00  0.000000D+00  0.000000D+00  0.802063D+00
     10 -0.219882D+00  0.000000D+00  0.000000D+00  0.000000D+00  0.000000D+00
                6             7             8             9            10 
      6  0.100000D+01
      7  0.000000D+00  0.100000D+01
      8  0.000000D+00  0.000000D+00  0.100000D+01
      9  0.000000D+00  0.000000D+00  0.000000D+00  0.100000D+01
     10  0.802063D+00  0.000000D+00  0.000000D+00  0.000000D+00  0.100000D+01
 *** Kinetic Energy *** 
                1             2             3             4             5 
      1  0.760032D+00
      2  0.114146D+00  0.362575D+01
      3  0.652847D-01 -0.242849D+00  0.145919D+00
      4  0.000000D+00  0.000000D+00  0.000000D+00  0.242177D+00
      5  0.000000D+00  0.000000D+00  0.000000D+00  0.000000D+00  0.242177D+00
      6 -0.180882D+00  0.000000D+00  0.000000D+00  0.000000D+00  0.000000D+00
      7  0.393887D-01  0.193002D-01  0.653913D-01  0.000000D+00  0.000000D+00
      8  0.000000D+00  0.000000D+00  0.000000D+00  0.100038D+00  0.000000D+00
      9  0.000000D+00  0.000000D+00  0.000000D+00  0.000000D+00  0.100038D+00
     10 -0.336018D-01  0.000000D+00  0.000000D+00  0.000000D+00  0.000000D+00
                6             7             8             9            10 
      6  0.242177D+00
      7  0.000000D+00  0.539430D-01
      8  0.000000D+00  0.000000D+00  0.899049D-01
      9  0.000000D+00  0.000000D+00  0.000000D+00  0.899049D-01
     10  0.100038D+00  0.000000D+00  0.000000D+00  0.000000D+00  0.899049D-01
 Entering OneElI...
 Calculate potential energy integrals
    NBasis =  10  MinDer = 0  MaxDer = 0
 Requested accuracy = 0.1000D-12
 Symmetry will be used
 PrmmSu-InSpLW:  IPartL=    0 NPrtUS=   36 NPrtUL=    1 DoSpLW=F IThBeg=    0 IThEnd=   35 NThAct=   36.
 PrSmSu:  IncTry=   512 NBBP=             20 NTPThr=   100 NPartT=   36 Incr=           1 LDynOK=F GPUOK=F.
 PrsmSu:  NPrtUS=  36 ThrOK=T IAlg=1 LenDen=           0 ISkipM=0 DoSpLW=F IThBeg=    0 IThEnd=   35.
 Prism:   IPart=     0 DynPar=F LinDyn=F Incr=           1.
 PRISM was handed   268433784 working-precision words and    10 shell-pairs
 PRISM was handed   268433784 working-precision words and    10 shell-pairs
 PRISM was handed   268433784 working-precision words and    10 shell-pairs
 PRISM was handed   268433784 working-precision words and    10 shell-pairs
 PRISM was handed   268433784 working-precision words and    10 shell-pairs
 PRISM was handed   268433784 working-precision words and    10 shell-pairs
 PRISM was handed   268433784 working-precision words and    10 shell-pairs
 PRISM was handed   268433784 working-precision words and    10 shell-pairs
 PRISM was handed   268433784 working-precision words and    10 shell-pairs
 PRISM was handed   268433784 working-precision words and    10 shell-pairs
 PRISM was handed   268433784 working-precision words and    10 shell-pairs
 PRISM was handed   268433784 working-precision words and    10 shell-pairs
 PRISM was handed   268433784 working-precision words and    10 shell-pairs
 PRISM was handed   268433784 working-precision words and    10 shell-pairs
 PRISM was handed   268433784 working-precision words and    10 shell-pairs
 PRISM was handed   268433784 working-precision words and    10 shell-pairs
 PRISM was handed   268433784 working-precision words and    10 shell-pairs
 PRISM was handed   268433784 working-precision words and    10 shell-pairs
 PRISM was handed   268433784 working-precision words and    10 shell-pairs
 PRISM was handed   268433784 working-precision words and    10 shell-pairs
 PRISM was handed   268433784 working-precision words and    10 shell-pairs
 PRISM was handed   268433784 working-precision words and    10 shell-pairs
 PRISM was handed   268433784 working-precision words and    10 shell-pairs
 PRISM was handed   268433784 working-precision words and    10 shell-pairs
 PRISM was handed   268433784 working-precision words and    10 shell-pairs
 PRISM was handed   268433784 working-precision words and    10 shell-pairs
 PRISM was handed   268433784 working-precision words and    10 shell-pairs
 PRISM was handed   268433784 working-precision words and    10 shell-pairs
 PRISM was handed   268433784 working-precision words and    10 shell-pairs
 PRISM was handed   268433784 working-precision words and    10 shell-pairs
 PRISM was handed   268433784 working-precision words and    10 shell-pairs
 PRISM was handed   268433784 working-precision words and    10 shell-pairs
 PRISM was handed   268433784 working-precision words and    10 shell-pairs
 PRISM was handed   268433784 working-precision words and    10 shell-pairs
 PRISM was handed   268433784 working-precision words and    10 shell-pairs
 PRISM was handed   268433784 working-precision words and    10 shell-pairs
 IPart= 13 NShTot=           0 NBatch=           0 AvBLen=         0.0
 IPart= 32 NShTot=           0 NBatch=           0 AvBLen=         0.0
 IPart= 24 NShTot=           0 NBatch=           0 AvBLen=         0.0
 IPart= 12 NShTot=           0 NBatch=           0 AvBLen=         0.0
 IPart= 14 NShTot=           0 NBatch=           0 AvBLen=         0.0
 IPart=  1 NShTot=           0 NBatch=           0 AvBLen=         0.0
 IPart= 25 NShTot=           0 NBatch=           0 AvBLen=         0.0
 IPart= 28 NShTot=           0 NBatch=           0 AvBLen=         0.0
 IPart=  2 NShTot=           0 NBatch=           0 AvBLen=         0.0
 IPart=  9 NShTot=           0 NBatch=           0 AvBLen=         0.0
 IPart=  3 NShTot=           0 NBatch=           0 AvBLen=         0.0
 IPart= 26 NShTot=           0 NBatch=           0 AvBLen=         0.0
 IPart=  6 NShTot=           0 NBatch=           0 AvBLen=         0.0
 IPart= 34 NShTot=           0 NBatch=           0 AvBLen=         0.0
 IPart= 23 NShTot=           0 NBatch=           0 AvBLen=         0.0
 IPart= 31 NShTot=           0 NBatch=           0 AvBLen=         0.0
 IPart= 17 NShTot=           0 NBatch=           0 AvBLen=         0.0
 IPart= 27 NShTot=           0 NBatch=           0 AvBLen=         0.0
 IPart=  8 NShTot=           0 NBatch=           0 AvBLen=         0.0
 IPart= 19 NShTot=           0 NBatch=           0 AvBLen=         0.0
 IPart= 22 NShTot=           0 NBatch=           0 AvBLen=         0.0
 IPart= 20 NShTot=           0 NBatch=           0 AvBLen=         0.0
 IPart= 30 NShTot=           0 NBatch=           0 AvBLen=         0.0
 IPart= 21 NShTot=           0 NBatch=           0 AvBLen=         0.0
 IPart= 33 NShTot=           0 NBatch=           0 AvBLen=         0.0
 IPart=  5 NShTot=           0 NBatch=           0 AvBLen=         0.0
 IPart= 18 NShTot=           0 NBatch=           0 AvBLen=         0.0
 IPart= 16 NShTot=           0 NBatch=           0 AvBLen=         0.0
 IPart= 15 NShTot=           0 NBatch=           0 AvBLen=         0.0
 IPart=  7 NShTot=           0 NBatch=           0 AvBLen=         0.0
 IPart= 35 NShTot=           0 NBatch=           0 AvBLen=         0.0
 IPart= 10 NShTot=           0 NBatch=           0 AvBLen=         0.0
 IPart= 11 NShTot=           0 NBatch=           0 AvBLen=         0.0
 IPart= 29 NShTot=           0 NBatch=           0 AvBLen=         0.0
 IPart=  0 NShTot=          20 NBatch=          10 AvBLen=         2.0
 IPart=  4 NShTot=           0 NBatch=           0 AvBLen=         0.0
 PrSmSu:  NxtVal=             37.
 ***** Potential Energy ***** 
                1             2             3             4             5 
      1  0.307754D+01
      2  0.179534D+01  0.873113D+01
      3  0.117632D+01  0.373980D+00  0.147652D+01
      4  0.000000D+00  0.000000D+00  0.000000D+00  0.132468D+01
      5  0.000000D+00  0.000000D+00  0.000000D+00  0.000000D+00  0.132468D+01
      6 -0.106027D+01 -0.459497D-01 -0.112303D+00  0.000000D+00  0.000000D+00
      7  0.999857D+00  0.871183D+00  0.123065D+01  0.000000D+00  0.000000D+00
      8  0.000000D+00  0.000000D+00  0.000000D+00  0.834423D+00  0.000000D+00
      9  0.000000D+00  0.000000D+00  0.000000D+00  0.000000D+00  0.834423D+00
     10 -0.421451D+00 -0.108301D-01 -0.560106D-01  0.000000D+00  0.000000D+00
                6             7             8             9            10 
      6  0.139188D+01
      7 -0.923826D-01  0.119467D+01
      8  0.000000D+00  0.000000D+00  0.800570D+00
      9  0.000000D+00  0.000000D+00  0.000000D+00  0.800570D+00
     10  0.864472D+00 -0.524544D-01  0.000000D+00  0.000000D+00  0.818274D+00
 ****** Core Hamiltonian ****** 
                1             2             3             4             5 
      1 -0.231751D+01
      2 -0.168119D+01 -0.510538D+01
      3 -0.111104D+01 -0.616829D+00 -0.133060D+01
      4  0.000000D+00  0.000000D+00  0.000000D+00 -0.108250D+01
      5  0.000000D+00  0.000000D+00  0.000000D+00  0.000000D+00 -0.108250D+01
      6  0.879390D+00  0.459497D-01  0.112303D+00  0.000000D+00  0.000000D+00
      7 -0.960468D+00 -0.851883D+00 -0.116526D+01  0.000000D+00  0.000000D+00
      8  0.000000D+00  0.000000D+00  0.000000D+00 -0.734385D+00  0.000000D+00
      9  0.000000D+00  0.000000D+00  0.000000D+00  0.000000D+00 -0.734385D+00
     10  0.387849D+00  0.108301D-01  0.560106D-01  0.000000D+00  0.000000D+00
                6             7             8             9            10 
      6 -0.114971D+01
      7  0.923826D-01 -0.114073D+01
      8  0.000000D+00  0.000000D+00 -0.710665D+00
      9  0.000000D+00  0.000000D+00  0.000000D+00 -0.710665D+00
     10 -0.764434D+00  0.524544D-01  0.000000D+00  0.000000D+00 -0.728369D+00
 SVDSVc IOpt=   1 NormSV=T IR=1
 SVDSVc V= 2.48D+00 1.84D+00 9.80D-01 4.85D-01 1.47D-01 6.89D-02
 SVDSVc IOpt=   1 NormSV=T IR=3
 SVDSVc V= 1.80D+00 1.98D-01
 SVDSVc IOpt=   1 NormSV=T IR=4
 SVDSVc V= 1.80D+00 1.98D-01
 TstOVc:  Largest diagonal error= 4.00D-15 IB=1 I=    6.
 TstOVc:  Largest same sym error= 2.32D-15 IB=1 I=    3 J=    2.
 TstOVc:  Largest diff sym error= 0.00D+00 IB=0 JB=0 I=    0 J=    0.
 Orthogonalized basis functions: 
                 1             2             3             4             5 
      1   0.331483D+00 -0.548551D-01  0.207175D+00  0.104787D+01  0.715423D+00
      2   0.151598D+00  0.712951D-01  0.901940D+00 -0.497497D+00 -0.183110D+00
      3   0.335371D+00  0.236109D+00 -0.280071D+00 -0.139830D+00  0.598943D+00
      4   0.000000D+00  0.000000D+00  0.000000D+00  0.000000D+00  0.000000D+00
      5   0.000000D+00  0.000000D+00  0.000000D+00  0.000000D+00  0.000000D+00
      6  -0.179414D+00  0.462545D+00  0.540336D-01 -0.145448D+00  0.171429D+01
      7   0.323471D+00  0.241027D+00 -0.263188D+00 -0.470594D+00 -0.965029D+00
      8   0.000000D+00  0.000000D+00  0.000000D+00  0.000000D+00  0.000000D+00
      9   0.000000D+00  0.000000D+00  0.000000D+00  0.000000D+00  0.000000D+00
     10  -0.146768D+00  0.455054D+00  0.113460D+00  0.673914D+00 -0.142721D+01
                 6             7             8             9            10 
      1  -0.102612D+01  0.000000D+00  0.000000D+00  0.000000D+00  0.000000D+00
      2   0.402207D+00  0.000000D+00  0.000000D+00  0.000000D+00  0.000000D+00
      3   0.263935D+01  0.000000D+00  0.000000D+00  0.000000D+00  0.000000D+00
      4   0.000000D+00  0.526744D+00  0.158936D+01  0.000000D+00  0.000000D+00
      5   0.000000D+00  0.000000D+00  0.000000D+00  0.526744D+00  0.158936D+01
      6  -0.108879D+01  0.000000D+00  0.000000D+00  0.000000D+00  0.000000D+00
      7  -0.216172D+01  0.000000D+00  0.000000D+00  0.000000D+00  0.000000D+00
      8   0.000000D+00  0.526744D+00 -0.158936D+01  0.000000D+00  0.000000D+00
      9   0.000000D+00  0.000000D+00  0.000000D+00  0.526744D+00 -0.158936D+01
     10   0.695546D+00  0.000000D+00  0.000000D+00  0.000000D+00  0.000000D+00
 NBasis=    10 RedAO= T EigKep=  6.89D-02  NBF=     6     0     2     2
 NBsUse=    10 1.00D-06 EigRej= -1.00D+00 NBFU=     6     0     2     2
 Leave Link  302 at Mon Mar 28 14:05:30 2022, MaxMem=  9663676416 cpu:               3.4 elap:               0.1
 (Enter /nopt/nrel/apps/gaussian/g16C_1/g16/l303.exe)
 DipDrv will not compute anything.
 Fermi contact integrals: 
                 1             2 
      1   0.628247D+00  0.121215D+00
      2   0.475523D-01  0.252653D+01
      3   0.731320D-01 -0.285664D-01
      4   0.000000D+00  0.000000D+00
      5   0.000000D+00  0.000000D+00
      6  -0.111936D+00  0.000000D+00
      7   0.542123D-01  0.588563D-01
      8   0.000000D+00  0.000000D+00
      9   0.000000D+00  0.000000D+00
     10  -0.310841D-01  0.000000D+00
 Leave Link  303 at Mon Mar 28 14:05:30 2022, MaxMem=  9663676416 cpu:               1.1 elap:               0.1
 (Enter /nopt/nrel/apps/gaussian/g16C_1/g16/l401.exe)
 ExpMin= 3.60D-02 ExpMax= 6.42D+02 ExpMxC= 9.68D+01 IAcc=3 IRadAn=         5 AccDes= 0.00D+00
 Harris functional with IExCor=  205 and IRadAn=       5 diagonalized for initial guess.
 HarFok:  IExCor=  205 AccDes= 0.00D+00 IRadAn=         5 IDoV= 1 UseB2=F ITyADJ=14
 ICtDFT=  3500011 ScaDFX=  1.000000  1.000000  1.000000  1.000000
 FoFCou: FMM=F IPFlag=           0 FMFlag=      100000 FMFlg1=           0
         NFxFlg=           0 DoJE=T BraDBF=F KetDBF=T FulRan=T
         wScrn=  0.000000 ICntrl=       500 IOpCl=  0 I1Cent=   200000004 NGrid=           0
         NMat0=    1 NMatS0=      1 NMatT0=    0 NMatD0=    1 NMtDS0=    0 NMtDT0=    0
 Petite list used in FoFCou.
 Harris En= -7.57316101412650    
 JPrj=0 DoOrth=F DoCkMO=F.
 Initial guess orbital symmetries:
 Alpha Orbitals:
       Occupied  (SG) (SG) (SG)
       Virtual   (PI) (PI) (SG) (PI) (PI) (SG) (SG)
 Beta  Orbitals:
       Occupied  (SG)
       Virtual   (SG) (SG) (PI) (PI) (SG) (PI) (PI) (SG) (SG)
 The electronic state of the initial guess is 3-SG.
 Initial guess <Sx>= 0.0000 <Sy>= 0.0000 <Sz>= 1.0000 <S**2>= 2.0000 S= 1.0000
 Leave Link  401 at Mon Mar 28 14:05:30 2022, MaxMem=  9663676416 cpu:               4.9 elap:               0.2
 (Enter /nopt/nrel/apps/gaussian/g16C_1/g16/l502.exe)
 Keep R1 and R2 ints in memory in symmetry-blocked form, NReq=7210728.
 FoFCou: FMM=F IPFlag=           0 FMFlag=           0 FMFlg1=           0
         NFxFlg=           0 DoJE=F BraDBF=F KetDBF=F FulRan=T
         wScrn=  0.000000 ICntrl=       600 IOpCl=  0 I1Cent=           0 NGrid=           0
         NMat0=    1 NMatS0=     55 NMatT0=    0 NMatD0=    1 NMtDS0=    0 NMtDT0=    0
 Petite list used in FoFCou.
 UHF open shell SCF:
 Using DIIS extrapolation, IDIIS=  1040.
 NGot=  9663676416 LenX=  9663672766 LenY=  9663671884
 Requested convergence on RMS density matrix=1.00D-08 within 128 cycles.
 Requested convergence on MAX density matrix=1.00D-06.
 Requested convergence on             energy=1.00D-06.
 No special actions if energy rises.

 Cycle   1  Pass 1  IDiag  1:
 E= -7.62511122114906    
 DIIS: error= 2.61D-02 at cycle   1 NSaved=   1.
 NSaved= 1 IEnMin= 1 EnMin= -7.62511122114906     IErMin= 1 ErrMin= 2.61D-02
 ErrMax= 2.61D-02  0.00D+00 EMaxC= 1.00D-01 BMatC= 2.69D-02 BMatP= 2.69D-02
 IDIUse=3 WtCom= 7.39D-01 WtEn= 2.61D-01
 Coeff-Com:  0.100D+01
 Coeff-En:   0.100D+01
 Coeff:      0.100D+01
 Gap=     0.224 Goal=   None    Shift=    0.000
 Gap=     2.589 Goal=   None    Shift=    0.000
 GapD=    0.224 DampG=1.000 DampE=0.500 DampFc=0.5000 IDamp=-1.
 Damping current iteration by 5.00D-01
 RMSDP=1.60D-02 MaxDP=1.35D-01              OVMax= 2.92D-02

 Cycle   2  Pass 1  IDiag  1:
 E= -7.62938871684379     Delta-E=       -0.004277495695 Rises=F Damp=T
 DIIS: error= 1.54D-02 at cycle   2 NSaved=   2.
 NSaved= 2 IEnMin= 2 EnMin= -7.62938871684379     IErMin= 2 ErrMin= 1.54D-02
 ErrMax= 1.54D-02  0.00D+00 EMaxC= 1.00D-01 BMatC= 1.01D-02 BMatP= 2.69D-02
 IDIUse=3 WtCom= 8.46D-01 WtEn= 1.54D-01
 Coeff-Com: -0.153D+01 0.253D+01
 Coeff-En:   0.000D+00 0.100D+01
 Coeff:     -0.130D+01 0.230D+01
 Gap=     0.216 Goal=   None    Shift=    0.000
 Gap=     2.546 Goal=   None    Shift=    0.000
 RMSDP=1.31D-02 MaxDP=1.20D-01 DE=-4.28D-03 OVMax= 6.35D-03

 Cycle   3  Pass 1  IDiag  1:
 E= -7.63548532981902     Delta-E=       -0.006096612975 Rises=F Damp=F
 DIIS: error= 1.63D-03 at cycle   3 NSaved=   3.
 NSaved= 3 IEnMin= 3 EnMin= -7.63548532981902     IErMin= 3 ErrMin= 1.63D-03
 ErrMax= 1.63D-03  0.00D+00 EMaxC= 1.00D-01 BMatC= 6.73D-05 BMatP= 1.01D-02
 IDIUse=3 WtCom= 9.84D-01 WtEn= 1.63D-02
 Coeff-Com:  0.528D+00-0.945D+00 0.142D+01
 Coeff-En:   0.000D+00 0.000D+00 0.100D+01
 Coeff:      0.520D+00-0.930D+00 0.141D+01
 Gap=     0.216 Goal=   None    Shift=    0.000
 Gap=     2.543 Goal=   None    Shift=    0.000
 RMSDP=1.51D-03 MaxDP=1.51D-02 DE=-6.10D-03 OVMax= 1.06D-03

 Cycle   4  Pass 1  IDiag  1:
 E= -7.63553228709561     Delta-E=       -0.000046957277 Rises=F Damp=F
 DIIS: error= 1.25D-04 at cycle   4 NSaved=   4.
 NSaved= 4 IEnMin= 4 EnMin= -7.63553228709561     IErMin= 4 ErrMin= 1.25D-04
 ErrMax= 1.25D-04  0.00D+00 EMaxC= 1.00D-01 BMatC= 4.25D-07 BMatP= 6.73D-05
 IDIUse=3 WtCom= 9.99D-01 WtEn= 1.25D-03
 Coeff-Com: -0.153D+00 0.276D+00-0.469D+00 0.135D+01
 Coeff-En:   0.000D+00 0.000D+00 0.000D+00 0.100D+01
 Coeff:     -0.153D+00 0.275D+00-0.468D+00 0.135D+01
 Gap=     0.215 Goal=   None    Shift=    0.000
 Gap=     2.543 Goal=   None    Shift=    0.000
 RMSDP=2.86D-04 MaxDP=2.16D-03 DE=-4.70D-05 OVMax= 5.21D-05

 Cycle   5  Pass 1  IDiag  1:
 E= -7.63553298819549     Delta-E=       -0.000000701100 Rises=F Damp=F
 DIIS: error= 3.55D-05 at cycle   5 NSaved=   5.
 NSaved= 5 IEnMin= 5 EnMin= -7.63553298819549     IErMin= 5 ErrMin= 3.55D-05
 ErrMax= 3.55D-05  0.00D+00 EMaxC= 1.00D-01 BMatC= 2.27D-08 BMatP= 4.25D-07
 IDIUse=1 WtCom= 1.00D+00 WtEn= 0.00D+00
 Coeff-Com:  0.794D-01-0.144D+00 0.253D+00-0.866D+00 0.168D+01
 Coeff:      0.794D-01-0.144D+00 0.253D+00-0.866D+00 0.168D+01
 Gap=     0.215 Goal=   None    Shift=    0.000
 Gap=     2.543 Goal=   None    Shift=    0.000
 RMSDP=1.15D-04 MaxDP=8.28D-04 DE=-7.01D-07 OVMax= 7.57D-06

 Cycle   6  Pass 1  IDiag  1:
 E= -7.63553305133642     Delta-E=       -0.000000063141 Rises=F Damp=F
 DIIS: error= 4.70D-06 at cycle   6 NSaved=   6.
 NSaved= 6 IEnMin= 6 EnMin= -7.63553305133642     IErMin= 6 ErrMin= 4.70D-06
 ErrMax= 4.70D-06  0.00D+00 EMaxC= 1.00D-01 BMatC= 3.75D-10 BMatP= 2.27D-08
 IDIUse=1 WtCom= 1.00D+00 WtEn= 0.00D+00
 Coeff-Com: -0.111D-01 0.202D-01-0.377D-01 0.148D+00-0.385D+00 0.127D+01
 Coeff:     -0.111D-01 0.202D-01-0.377D-01 0.148D+00-0.385D+00 0.127D+01
 Gap=     0.215 Goal=   None    Shift=    0.000
 Gap=     2.543 Goal=   None    Shift=    0.000
 RMSDP=1.12D-05 MaxDP=6.95D-05 DE=-6.31D-08 OVMax= 1.88D-06

 Cycle   7  Pass 1  IDiag  1:
 E= -7.63553305242990     Delta-E=       -0.000000001093 Rises=F Damp=F
 DIIS: error= 1.30D-06 at cycle   7 NSaved=   7.
 NSaved= 7 IEnMin= 7 EnMin= -7.63553305242990     IErMin= 7 ErrMin= 1.30D-06
 ErrMax= 1.30D-06  0.00D+00 EMaxC= 1.00D-01 BMatC= 2.85D-11 BMatP= 3.75D-10
 IDIUse=1 WtCom= 1.00D+00 WtEn= 0.00D+00
 Coeff-Com:  0.465D-03-0.912D-03 0.282D-02-0.198D-01 0.793D-01-0.469D+00
 Coeff-Com:  0.141D+01
 Coeff:      0.465D-03-0.912D-03 0.282D-02-0.198D-01 0.793D-01-0.469D+00
 Coeff:      0.141D+01
 Gap=     0.215 Goal=   None    Shift=    0.000
 Gap=     2.543 Goal=   None    Shift=    0.000
 RMSDP=3.24D-06 MaxDP=2.77D-05 DE=-1.09D-09 OVMax= 2.72D-07

 Cycle   8  Pass 1  IDiag  1:
 E= -7.63553305253628     Delta-E=       -0.000000000106 Rises=F Damp=F
 DIIS: error= 3.98D-07 at cycle   8 NSaved=   8.
 NSaved= 8 IEnMin= 8 EnMin= -7.63553305253628     IErMin= 8 ErrMin= 3.98D-07
 ErrMax= 3.98D-07  0.00D+00 EMaxC= 1.00D-01 BMatC= 3.28D-12 BMatP= 2.85D-11
 IDIUse=1 WtCom= 1.00D+00 WtEn= 0.00D+00
 Coeff-Com: -0.274D-03 0.517D-03-0.126D-02 0.692D-02-0.225D-01 0.126D+00
 Coeff-Com: -0.751D+00 0.164D+01
 Coeff:     -0.274D-03 0.517D-03-0.126D-02 0.692D-02-0.225D-01 0.126D+00
 Coeff:     -0.751D+00 0.164D+01
 Gap=     0.215 Goal=   None    Shift=    0.000
 Gap=     2.543 Goal=   None    Shift=    0.000
 RMSDP=1.53D-06 MaxDP=1.51D-05 DE=-1.06D-10 OVMax= 1.51D-07

 Cycle   9  Pass 1  IDiag  1:
 E= -7.63553305254882     Delta-E=       -0.000000000013 Rises=F Damp=F
 DIIS: error= 1.72D-08 at cycle   9 NSaved=   9.
 NSaved= 9 IEnMin= 9 EnMin= -7.63553305254882     IErMin= 9 ErrMin= 1.72D-08
 ErrMax= 1.72D-08  0.00D+00 EMaxC= 1.00D-01 BMatC= 9.86D-15 BMatP= 3.28D-12
 IDIUse=1 WtCom= 1.00D+00 WtEn= 0.00D+00
 Coeff-Com:  0.139D-04-0.298D-04 0.131D-03-0.102D-02 0.366D-02-0.236D-01
 Coeff-Com:  0.178D+00-0.430D+00 0.127D+01
 Coeff:      0.139D-04-0.298D-04 0.131D-03-0.102D-02 0.366D-02-0.236D-01
 Coeff:      0.178D+00-0.430D+00 0.127D+01
 Gap=     0.215 Goal=   None    Shift=    0.000
 Gap=     2.543 Goal=   None    Shift=    0.000
 RMSDP=2.97D-08 MaxDP=2.01D-07 DE=-1.25D-11 OVMax= 8.60D-09

 Cycle  10  Pass 1  IDiag  1:
 E= -7.63553305254883     Delta-E=       -0.000000000000 Rises=F Damp=F
 DIIS: error= 6.77D-10 at cycle  10 NSaved=  10.
 NSaved=10 IEnMin=10 EnMin= -7.63553305254883     IErMin=10 ErrMin= 6.77D-10
 ErrMax= 6.77D-10  0.00D+00 EMaxC= 1.00D-01 BMatC= 1.64D-17 BMatP= 9.86D-15
 IDIUse=1 WtCom= 1.00D+00 WtEn= 0.00D+00
 Coeff-Com: -0.102D-05 0.228D-05-0.115D-04 0.963D-04-0.336D-03 0.225D-02
 Coeff-Com: -0.176D-01 0.438D-01-0.149D+00 0.112D+01
 Coeff:     -0.102D-05 0.228D-05-0.115D-04 0.963D-04-0.336D-03 0.225D-02
 Coeff:     -0.176D-01 0.438D-01-0.149D+00 0.112D+01
 Gap=     0.215 Goal=   None    Shift=    0.000
 Gap=     2.543 Goal=   None    Shift=    0.000
 RMSDP=2.08D-09 MaxDP=1.22D-08 DE=-5.33D-15 OVMax= 5.01D-10

 SCF Done:  E(UHF) =  -7.63553305255     A.U. after   10 cycles
            NFock= 10  Conv=0.21D-08     -V/T= 1.9126
 <Sx>= 0.0000 <Sy>= 0.0000 <Sz>= 1.0000 <S**2>= 2.0000 S= 1.0000
 <L.S>= 0.000000000000E+00
 KE= 8.367143777761D+00 PE=-2.156819742141D+01 EE= 3.581106050153D+00
 Annihilation of the first spin contaminant:
 S**2 before annihilation     2.0000,   after     2.0000
 Leave Link  502 at Mon Mar 28 14:05:31 2022, MaxMem=  9663676416 cpu:               5.2 elap:               0.2
 (Enter /nopt/nrel/apps/gaussian/g16C_1/g16/l801.exe)
 Windowed orbitals will be sorted by symmetry type.
 ExpMin= 3.60D-02 ExpMax= 6.42D+02 ExpMxC= 9.68D+01 IAcc=3 IRadAn=         5 AccDes= 0.00D+00
 HarFok:  IExCor=  205 AccDes= 0.00D+00 IRadAn=         5 IDoV=-2 UseB2=F ITyADJ=14
 ICtDFT= 12500011 ScaDFX=  1.000000  1.000000  1.000000  1.000000
 Largest valence mixing into a core orbital is  2.44D-03
 Largest core mixing into a valence orbital is  1.09D-03
 Range of M.O.s used for correlation:     2    10
 NBasis=    10 NAE=     3 NBE=     1 NFC=     1 NFV=     0
 NROrb=      9 NOA=     2 NOB=     0 NVA=     7 NVB=     9
 Leave Link  801 at Mon Mar 28 14:05:31 2022, MaxMem=  9663676416 cpu:               2.1 elap:               0.1
 (Enter /nopt/nrel/apps/gaussian/g16C_1/g16/l804.exe)
 Open-shell transformation, MDV=  9663676416 ITran=4 ISComp=2.
 Unit  1 TFree=          7995 TCopy=        115854.
 Semi-Direct transformation.
 ModeAB=           2 MOrb=             2 LenV=    9663554470
 LASXX=          158 LTotXX=         158 LenRXX=         158
 LTotAB=         269 MaxLAS=         990 LenRXY=         990
 NonZer=        1206 LenScr=      785920 LnRSAI=           0
 LnScr1=           0 LExtra=      219242 Total=      1006310
 MaxDsk= 34359738368 SrtSym=           F ITran=            4
 DoSDTr:  NPSUse= 36
 JobTyp=1 Pass  1:  I=   1 to   2.
 (rs|ai) integrals will be sorted in core.
 Complete sort for first half transformation.
 First half transformation complete.
 Complete sort for second half transformation.
 Second half transformation complete.
 Spin components of T(2) and E(2):
     alpha-alpha T2 =       0.9167871772D-04 E2=     -0.1123339414D-03
     alpha-beta  T2 =       0.0000000000D+00 E2=      0.0000000000D+00
     beta-beta   T2 =       0.0000000000D+00 E2=      0.0000000000D+00
 ANorm=    0.1000045838D+01
 E2 =    -0.1123339414D-03 EUMP2 =    -0.76356453864902D+01
 Leave Link  804 at Mon Mar 28 14:05:31 2022, MaxMem=  9663676416 cpu:               1.9 elap:               0.1
 (Enter /nopt/nrel/apps/gaussian/g16C_1/g16/l913.exe)
 CIDS:  MDV=  9663676416.
 Frozen-core window:  NFC=   1 NFV=   0.
 IFCWin=0 IBDFC=1 NFBD=     0     0 NFCmp=     0     0 NFFFC=     0     0
 Using original routines for 1st iteration.
 Using DD4UQ or CC4UQ for 2nd and later iterations.
 Keep R2 and R3 ints in memory in symmetry-blocked form, NReq=7213122.
 FoFCou: FMM=F IPFlag=           0 FMFlag=           0 FMFlg1=           0
         NFxFlg=           0 DoJE=F BraDBF=F KetDBF=F FulRan=T
         wScrn=  0.000000 ICntrl=       600 IOpCl=  0 I1Cent=           0 NGrid=           0
         NMat0=    1 NMatS0=     55 NMatT0=    0 NMatD0=    1 NMtDS0=    0 NMtDT0=    0
 Petite list used in FoFCou.
 CIDS: In Core Option IDoMem=           1.
 Coupled Cluster theory with single and double substitutions
 ===========================================================
 Iterations= 200 Convergence= 0.100D-06
 Produce multiple copies of IABC intergrals
 Iteration Nr.   1
 **********************
 DD1Dir will call FoFMem   1 times, MxPair=         2
 NAB=     0 NAA=     1 NBB=     0.
 MP4(R+Q)=  0.10298632D-07
 Maximum subspace dimension=  5
 A-vector RMS=  8.7026981D-04 Max=  1.8312266D-03 conv= 1.00D-05.
 RLE energy=       -0.0001769676
 E3=       -0.41037957D-04        EUMP3=      -0.76356864244D+01
 E4(DQ)=   -0.15071141D-04        UMP4(DQ)=   -0.76357014956D+01
 E4(SDQ)=  -0.15144815D-04        UMP4(SDQ)=  -0.76357015693D+01
 VARIATIONAL ENERGIES WITH THE FIRST-ORDER WAVEFUNCTION:
 DE(Corr)= -0.15336155E-03 E(Corr)=     -7.6356864141    
 NORM(A)=   0.10001152D+01
 Iteration Nr.   2
 **********************
 DD1Dir will call FoFMem   1 times, MxPair=         2
 NAB=     0 NAA=     1 NBB=     0.
 A-vector RMS=  9.3764763D-05 Max=  1.5530128D-04 conv= 1.00D-05.
 RLE energy=       -0.0001775508
 DE(Corr)= -0.17721503E-03 E(CORR)=     -7.6357102676     Delta=-2.39D-05
 NORM(A)=   0.10001169D+01
 Iteration Nr.   3
 **********************
 DD1Dir will call FoFMem   1 times, MxPair=         2
 NAB=     0 NAA=     1 NBB=     0.
 A-vector RMS=  1.9874571D-05 Max=  5.4661762D-05 conv= 1.00D-05.
 RLE energy=       -0.0001775767
 DE(Corr)= -0.17755534E-03 E(CORR)=     -7.6357106079     Delta=-3.40D-07
 NORM(A)=   0.10001170D+01
 Iteration Nr.   4
 **********************
 DD1Dir will call FoFMem   1 times, MxPair=         2
 NAB=     0 NAA=     1 NBB=     0.
 A-vector RMS=  4.1700435D-06 Max=  1.3160576D-05 conv= 1.00D-05.
 RLE energy=       -0.0001775708
 DE(Corr)= -0.17757413E-03 E(CORR)=     -7.6357106267     Delta=-1.88D-08
 NORM(A)=   0.10001170D+01
 Iteration Nr.   5
 **********************
 DD1Dir will call FoFMem   1 times, MxPair=         2
 NAB=     0 NAA=     1 NBB=     0.
 A-vector RMS=  6.6503239D-07 Max=  1.7177301D-06 conv= 1.00D-05.
 RLE energy=       -0.0001775748
 DE(Corr)= -0.17757230E-03 E(CORR)=     -7.6357106249     Delta= 1.83D-09
 NORM(A)=   0.10001170D+01
 CI/CC converged in    5 iterations to DelEn= 1.83D-09 Conv= 1.00D-07 ErrA1= 6.65D-07 Conv= 1.00D-05
 Wavefunction amplitudes converged. E(Corr)=     -7.6357106249    
 Largest amplitude= 8.23D-03
 Discarding MO integrals.
 Leave Link  913 at Mon Mar 28 14:05:31 2022, MaxMem=  9663676416 cpu:               3.9 elap:               0.1
 (Enter /nopt/nrel/apps/gaussian/g16C_1/g16/l601.exe)
 Copying SCF densities to generalized density rwf, IOpCl= 1 IROHF=0.

 **********************************************************************

            Population analysis using the SCF Density.

 **********************************************************************

 Orbital symmetries:
 Alpha Orbitals:
       Occupied  (SG) (SG) (SG)
       Virtual   (PI) (PI) (SG) (PI) (PI) (SG) (SG)
 Beta  Orbitals:
       Occupied  (SG)
       Virtual   (SG) (PI) (PI) (SG) (SG) (PI) (PI) (SG) (SG)
 The electronic state is 3-SG.
 Alpha  occ. eigenvalues --   -2.63702  -0.64113  -0.18514
 Alpha virt. eigenvalues --    0.03024   0.03024   0.06198   0.17485   0.17485
 Alpha virt. eigenvalues --    0.19236   0.56973
  Beta  occ. eigenvalues --   -2.57554
  Beta virt. eigenvalues --   -0.03270   0.06717   0.06717   0.08255   0.10377
  Beta virt. eigenvalues --    0.20757   0.20757   0.24996   0.74314
          Condensed to atoms (all electrons):
               1          2
     1  H    0.827442   0.011758
     2  Li   0.011758   3.149043
          Atomic-Atomic Spin Densities.
               1          2
     1  H    0.823376  -0.018403
     2  Li  -0.018403   1.213430
 Mulliken charges and spin densities:
               1          2
     1  H    0.160801   0.804973
     2  Li  -0.160801   1.195027
 Sum of Mulliken charges =   0.00000   2.00000
 Mulliken charges and spin densities with hydrogens summed into heavy atoms:
               1          2
     2  Li   0.000000   2.000000
 N-N= 1.984414540950D+00 E-N=-2.156819742330D+01  KE= 8.367143777761D+00
 Symmetry A1   KE= 8.367143777761D+00
 Symmetry A2   KE= 0.000000000000D+00
 Symmetry B1   KE= 0.000000000000D+00
 Symmetry B2   KE= 0.000000000000D+00
 Symmetry A1   SP= 2.000000000000D+00
 Symmetry A2   SP= 0.000000000000D+00
 Symmetry B1   SP= 0.000000000000D+00
 Symmetry B2   SP= 0.000000000000D+00

 Atomic contributions to Alpha molecular orbitals:
 Alpha occ 1 OE=-2.637 is Li2-s=0.9737
 Alpha occ 2 OE=-0.641 is H1-s=0.8043 Li2-p=0.1332
 Alpha occ 3 OE=-0.185 is Li2-s=0.7847 Li2-p=0.2240
 Alpha vir 4 OE=0.030 is Li2-p=1.0000
 Alpha vir 5 OE=0.030 is Li2-p=1.0000
 Alpha vir 6 OE=0.062 is Li2-p=0.8193 Li2-s=0.1733
 Alpha vir 7 OE=0.175 is Li2-p=1.0000
 Alpha vir 8 OE=0.175 is Li2-p=1.0000
 Alpha vir 9 OE=0.192 is Li2-s=0.6764 Li2-p=0.3185
 Alpha vir 10 OE=0.570 is Li2-p=0.5052 Li2-s=0.3293 H1-s=0.1655

 Atomic contributions to Beta  molecular orbitals:
 Beta  occ 1 OE=-2.576 is Li2-s=0.9829
 Beta  vir 2 OE=-0.033 is Li2-s=0.5090 Li2-p=0.2499 H1-s=0.2412
 Beta  vir 3 OE=0.067 is Li2-p=1.0000
 Beta  vir 4 OE=0.067 is Li2-p=1.0000
 Beta  vir 5 OE=0.083 is Li2-p=0.5677 Li2-s=0.4049
 Beta  vir 6 OE=0.104 is Li2-p=0.5660 Li2-s=0.2911 H1-s=0.1429
 Beta  vir 7 OE=0.208 is Li2-p=1.0000
 Beta  vir 8 OE=0.208 is Li2-p=1.0000
 Beta  vir 9 OE=0.250 is Li2-s=0.6428 Li2-p=0.3560
 Beta  vir 10 OE=0.743 is H1-s=0.5702 Li2-p=0.2605 Li2-s=0.1693
 
 Leave Link  601 at Mon Mar 28 14:05:31 2022, MaxMem=  9663676416 cpu:               1.1 elap:               0.1
 (Enter /nopt/nrel/apps/gaussian/g16C_1/g16/l9999.exe)

 Test job not archived.
 1\1\GINC-R102U34\SP\UCCSD-FC\Gen\H1Li1(3)\USER\28-Mar-2022\0\\#P C
 CSD(MaxCyc=200,SaveAmplitudes,ReadAmplitudes)/GEN sp pop=AllOrbitals i
 op(3/33=1,3/36=-1)\\test\\0,3\H,0,0.,0.,0.\Li,0,0.,0.,0.8\\Version=ES6
 4L-G16RevC.01\State=3-SG\HF=-7.6355331\MP2=-7.6356454\MP3=-7.6356864\M
 P4D=-7.6357015\MP4DQ=-7.6357015\MP4SDQ=-7.6357016\CCSD=-7.6357106\S2=2
 .000038\S2-1=0.\S2A=2.\RMSD=2.077e-09\PG=C*V [C*(H1Li1)]\\@


 THERE IS NO CURE FOR BIRTH AND DEATH SAVE TO ENJOY THE INTERVAL.

                               -- GEORGE SANTAYANA
 Job cpu time:       0 days  0 hours  0 minutes 33.3 seconds.
 Elapsed time:       0 days  0 hours  0 minutes  1.3 seconds.
 File lengths (MBytes):  RWF=     13 Int=      0 D2E=      0 Chk=      1 Scr=      1
 Normal termination of Gaussian 16 at Mon Mar 28 14:05:31 2022.
