 Entering Gaussian System, Link 0=g16
 Initial command:
 /nopt/nrel/apps/gaussian/g16C_1/g16/l1.exe "/lustre/eaglefs/scratch/user/qc/kh-dissc/kh-3-ccsd-1.2-sto3g/Gau-5270.inp" -scrdir="/lustre/eaglefs/scratch/user/qc/kh-dissc/kh-3-ccsd-1.2-sto3g/"
 Default is to use a total of  36 processors:
                               36 via shared-memory
                                1 via Linda
 Entering Link 1 = /nopt/nrel/apps/gaussian/g16C_1/g16/l1.exe PID=      5271.
  
 Copyright (c) 1988-2019, Gaussian, Inc.  All Rights Reserved.
  
 This is part of the Gaussian(R) 16 program.  It is based on
 the Gaussian(R) 09 system (copyright 2009, Gaussian, Inc.),
 the Gaussian(R) 03 system (copyright 2003, Gaussian, Inc.),
 the Gaussian(R) 98 system (copyright 1998, Gaussian, Inc.),
 the Gaussian(R) 94 system (copyright 1995, Gaussian, Inc.),
 the Gaussian 92(TM) system (copyright 1992, Gaussian, Inc.),
 the Gaussian 90(TM) system (copyright 1990, Gaussian, Inc.),
 the Gaussian 88(TM) system (copyright 1988, Gaussian, Inc.),
 the Gaussian 86(TM) system (copyright 1986, Carnegie Mellon
 University), and the Gaussian 82(TM) system (copyright 1983,
 Carnegie Mellon University). Gaussian is a federally registered
 trademark of Gaussian, Inc.
  
 This software contains proprietary and confidential information,
 including trade secrets, belonging to Gaussian, Inc.
  
 This software is provided under written license and may be
 used, copied, transmitted, or stored only in accord with that
 written license.
  
 The following legend is applicable only to US Government
 contracts under FAR:
  
                    RESTRICTED RIGHTS LEGEND
  
 Use, reproduction and disclosure by the US Government is
 subject to restrictions as set forth in subparagraphs (a)
 and (c) of the Commercial Computer Software - Restricted
 Rights clause in FAR 52.227-19.
  
 Gaussian, Inc.
 340 Quinnipiac St., Bldg. 40, Wallingford CT 06492
  
  
 ---------------------------------------------------------------
 Warning -- This program may not be used in any manner that
 competes with the business of Gaussian, Inc. or will provide
 assistance to any competitor of Gaussian, Inc.  The licensee
 of this program is prohibited from giving any competitor of
 Gaussian, Inc. access to this program.  By using this program,
 the user acknowledges that Gaussian, Inc. is engaged in the
 business of creating and licensing software in the field of
 computational chemistry and represents and warrants to the
 licensee that it is not a competitor of Gaussian, Inc. and that
 it will not use this program in any manner prohibited above.
 ---------------------------------------------------------------
  

 Cite this work as:
 Gaussian 16, Revision C.01,
 M. J. Frisch, G. W. Trucks, H. B. Schlegel, G. E. Scuseria, 
 M. A. Robb, J. R. Cheeseman, G. Scalmani, V. Barone, 
 G. A. Petersson, H. Nakatsuji, X. Li, M. Caricato, A. V. Marenich, 
 J. Bloino, B. G. Janesko, R. Gomperts, B. Mennucci, H. P. Hratchian, 
 J. V. Ortiz, A. F. Izmaylov, J. L. Sonnenberg, D. Williams-Young, 
 F. Ding, F. Lipparini, F. Egidi, J. Goings, B. Peng, A. Petrone, 
 T. Henderson, D. Ranasinghe, V. G. Zakrzewski, J. Gao, N. Rega, 
 G. Zheng, W. Liang, M. Hada, M. Ehara, K. Toyota, R. Fukuda, 
 J. Hasegawa, M. Ishida, T. Nakajima, Y. Honda, O. Kitao, H. Nakai, 
 T. Vreven, K. Throssell, J. A. Montgomery, Jr., J. E. Peralta, 
 F. Ogliaro, M. J. Bearpark, J. J. Heyd, E. N. Brothers, K. N. Kudin, 
 V. N. Staroverov, T. A. Keith, R. Kobayashi, J. Normand, 
 K. Raghavachari, A. P. Rendell, J. C. Burant, S. S. Iyengar, 
 J. Tomasi, M. Cossi, J. M. Millam, M. Klene, C. Adamo, R. Cammi, 
 J. W. Ochterski, R. L. Martin, K. Morokuma, O. Farkas, 
 J. B. Foresman, and D. J. Fox, Gaussian, Inc., Wallingford CT, 2019.
 
 ******************************************
 Gaussian 16:  ES64L-G16RevC.01  3-Jul-2019
                28-Mar-2022 
 ******************************************
 %chk=molecule
 Default route: CacheSize=180224 MaxDisk=256GB
 ----------------------------------------------------------------------
 #P CCSD(MaxCyc=200,SaveAmplitudes,ReadAmplitudes)/GEN sp pop=AllOrbita
 ls iop(3/33=1,3/36=-1)
 ----------------------------------------------------------------------
 1/4=180224,38=1,172=1/1;
 2/4=180224,12=2,17=6,18=5,40=1/2;
 3/4=180224,5=7,11=9,25=1,30=1,33=1,36=-1/1,2,3;
 4/4=180224/1;
 5/4=180224,5=2,38=5/2;
 8/4=180224,6=4,9=120000,10=1,24=1/1,4;
 9/4=180224,5=7,6=200,77=1/13;
 6/4=180224,7=2,8=2,9=2,10=2,96=-1/1;
 99/4=180224,5=1,9=1/99;
 Leave Link    1 at Mon Mar 28 14:37:47 2022, MaxMem=           0 cpu:               2.0 elap:               0.1
 (Enter /nopt/nrel/apps/gaussian/g16C_1/g16/l101.exe)
 ----
 test
 ----
 Symbolic Z-matrix:
 Charge =  0 Multiplicity = 3
 H                     0.        0.        0. 
 K                     0.        0.        1.2 
 
 ITRead=  0  0
 MicOpt= -1 -1
 NAtoms=      2 NQM=        2 NQMF=       0 NMMI=      0 NMMIF=      0
                NMic=       0 NMicF=      0.
                    Isotopes and Nuclear Properties:
 (Nuclear quadrupole moments (NQMom) in fm**2, nuclear magnetic moments (NMagM)
  in nuclear magnetons)

  Atom         1           2
 IAtWgt=           1          39
 AtmWgt=   1.0078250  38.9637079
 NucSpn=           1           3
 AtZEff=  -0.0000000  -0.0000000
 NQMom=    0.0000000   5.8500000
 NMagM=    2.7928460   0.3914660
 AtZNuc=   1.0000000  19.0000000
 Leave Link  101 at Mon Mar 28 14:37:47 2022, MaxMem=  9663676416 cpu:               3.4 elap:               0.1
 (Enter /nopt/nrel/apps/gaussian/g16C_1/g16/l202.exe)
                          Input orientation:                          
 ---------------------------------------------------------------------
 Center     Atomic      Atomic             Coordinates (Angstroms)
 Number     Number       Type             X           Y           Z
 ---------------------------------------------------------------------
      1          1           0        0.000000    0.000000    0.000000
      2         19           0        0.000000    0.000000    1.200000
 ---------------------------------------------------------------------
 Stoichiometry    HK(3)
 Framework group  C*V[C*(HK)]
 Deg. of freedom     1
 Full point group                 C*V     NOp   4
 Largest Abelian subgroup         C2V     NOp   4
 Largest concise Abelian subgroup C1      NOp   1
                         Standard orientation:                         
 ---------------------------------------------------------------------
 Center     Atomic      Atomic             Coordinates (Angstroms)
 Number     Number       Type             X           Y           Z
 ---------------------------------------------------------------------
      1          1           0        0.000000    0.000000   -1.140000
      2         19           0        0.000000    0.000000    0.060000
 ---------------------------------------------------------------------
 Rotational constants (GHZ):           0.0000000         357.2400073         357.2400073
 Leave Link  202 at Mon Mar 28 14:37:47 2022, MaxMem=  9663676416 cpu:               1.0 elap:               0.1
 (Enter /nopt/nrel/apps/gaussian/g16C_1/g16/l301.exe)
 General basis read from cards:  (5D, 7F)
                         Coordinates in L301:                         
 ---------------------------------------------------------------------
 Center     Atomic      Atomic             Coordinates (Angstroms)
 Number     Number       Type             X           Y           Z
 ---------------------------------------------------------------------
      1          1           0        0.000000    0.000000   -1.140000
      2         19           0        0.000000    0.000000    0.060000
 ---------------------------------------------------------------------
 Centers:       1
 STO-3G
 ****
 Centers:       2
 STO-3G
 ****
 FixB: optimizing general contractions.
 Ernie: Thresh=  0.10000D-02 Tol=  0.10000D-05 Strict=F.
 IA=     1 ShT= 0 ShC= 0 NL=   1 NS=   0.
 IA=     1 L=0 SC=0 ISt=    0 NBk=    0 NP=    0 IndPr=    0.
 IA=     2 ShT= 0 ShC= 0 NL=   1 NS=   0.
 IA=     2 L=0 SC=0 ISt=    0 NBk=    0 NP=    0 IndPr=    0.
 IA=     2 ShT= 1 ShC= 0 NL=   3 NS=   0.
 IA=     2 L=1 SC=0 ISt=    1 NBk=    3 NP=    9 IndPr=    0.
 DoElim1:  L=1 select primitive    1 from    2 using    1 C=-1.00D-01
 DoElim1:  L=1 select primitive    1 from    3 using    1 C=-1.00D-01
 DoElim1:  L=1 select primitive    4 from    3 using    2 C=-2.20D-01
 DoElim2:  L=1 select primitive    9 from    2 using    3 C= 1.13D+00
 DoElim2:  L=1 select primitive    9 from    1 using    3 C= 1.13D+00
 DoElim2:  L=1 select primitive    7 from    1 using    2 C= 9.00D-01
 DoElim1:  L=1 select primitive    1 from    2 using    1 C= 1.56D-01
 DoElim1:  L=1 select primitive    1 from    3 using    1 C= 1.56D-01
 DoElim1:  L=1 select primitive    4 from    3 using    2 C= 1.06D-02
 DoElim2:  L=1 select primitive    8 from    2 using    3 C= 5.72D-01
 DoElim2:  L=1 select primitive    8 from    1 using    3 C= 5.72D-01
 DoElim2:  L=1 select primitive    5 from    1 using    2 C= 5.95D-01
 Delete L=1 primitive    7 from    3 C=  0.00D+00.
 Delete L=1 primitive    5 from    3 C=  0.00D+00.
 Delete L=1 primitive    4 from    3 C=  0.00D+00.
 Delete L=1 primitive    3 from    3 C=  0.00D+00.
 Delete L=1 primitive    2 from    3 C=  0.00D+00.
 Delete L=1 primitive    1 from    3 C=  0.00D+00.
 Delete L=1 primitive    9 from    2 C=  0.00D+00.
 Delete L=1 primitive    8 from    2 C=  0.00D+00.
 Delete L=1 primitive    6 from    2 C=  0.00D+00.
 Delete L=1 primitive    3 from    2 C=  0.00D+00.
 Delete L=1 primitive    2 from    2 C=  0.00D+00.
 Delete L=1 primitive    1 from    2 C=  0.00D+00.
 Delete L=1 primitive    9 from    1 C=  0.00D+00.
 Delete L=1 primitive    8 from    1 C=  0.00D+00.
 Delete L=1 primitive    7 from    1 C=  0.00D+00.
 Delete L=1 primitive    6 from    1 C=  0.00D+00.
 Delete L=1 primitive    5 from    1 C=  0.00D+00.
 Delete L=1 primitive    4 from    1 C=  0.00D+00.
 IA=     2 L=1 SC=0 ISt=    0 NBk=    0 NP=    0 IndPr=    9.
 LdAtmC:  AtmChg=     1.000000    19.000000
 AtZEff=     -1.0000000    -22.4200000
 NEqShl: 
              1            2            3            4
     1            1            1            1            1
     2            2            2            2            2
     3            3            3            3            3
     4            4            4            4            4
     5            5            5            5            5
 NEqBas: 
              1            2            3            4
     1            1            1            1            1
     2            2            2            2            2
     3            3            3            3            3
     4            4           -4           -4            4
     5            5           -5            5           -5
     6            6            6            6            6
     7            7            7            7            7
     8            8           -8           -8            8
     9            9           -9            9           -9
    10           10           10           10           10
    11           11           11           11           11
    12           12          -12          -12           12
    13           13          -13           13          -13
    14           14           14           14           14
 There are     8 symmetry adapted cartesian basis functions of A1  symmetry.
   1         1   1   1   1
   2         2   2   2   2
   3         3   3   3   3
   4         6   6   6   6
   5         7   7   7   7
   6        10  10  10  10
   7        11  11  11  11
   8        14  14  14  14
 There are     0 symmetry adapted cartesian basis functions of A2  symmetry.
 There are     3 symmetry adapted cartesian basis functions of B1  symmetry.
   9         4   4   4   4
  10         8   8   8   8
  11        12  12  12  12
 There are     3 symmetry adapted cartesian basis functions of B2  symmetry.
  12         5   5   5   5
  13         9   9   9   9
  14        13  13  13  13
 Order= 1 2 4 3
 Reordered character table:
              1            2            3            4            5
     1            1            1            1            1            1
     2            2            1            1           -1           -1
     3            4            1           -1           -1            1
     4            3            1           -1            1           -1
 NEqShl: 
              1            2            3            4
     1            1            1            1            1
     2            2            2            2            2
     3            3            3            3            3
     4            4            4            4            4
     5            5            5            5            5
 NEqBas: 
              1            2            3            4
     1            1            1            1            1
     2            2            2            2            2
     3            3            3            3            3
     4            4           -4           -4            4
     5            5           -5            5           -5
     6            6            6            6            6
     7            7            7            7            7
     8            8           -8           -8            8
     9            9           -9            9           -9
    10           10           10           10           10
    11           11           11           11           11
    12           12          -12          -12           12
    13           13          -13           13          -13
    14           14           14           14           14
 There are     8 symmetry adapted basis functions of A1  symmetry.
   1         1   1   1   1
   2         2   2   2   2
   3         3   3   3   3
   4         6   6   6   6
   5         7   7   7   7
   6        10  10  10  10
   7        11  11  11  11
   8        14  14  14  14
 There are     0 symmetry adapted basis functions of A2  symmetry.
 There are     3 symmetry adapted basis functions of B1  symmetry.
   9         4   4   4   4
  10         8   8   8   8
  11        12  12  12  12
 There are     3 symmetry adapted basis functions of B2  symmetry.
  12         5   5   5   5
  13         9   9   9   9
  14        13  13  13  13
 Order= 1 2 4 3
 Reordered character table:
              1            2            3            4            5
     1            1            1            1            1            1
     2            2            1            1           -1           -1
     3            4            1           -1           -1            1
     4            3            1           -1            1           -1
    14 basis functions,    42 primitive gaussians,    14 cartesian basis functions
    11 alpha electrons        9 beta electrons
       nuclear repulsion energy         8.3786391729 Hartrees.
 IS=     1 IAt=     1 ISR=     1 T=0 IP=      1 IndIP=      1 IndIPD=      0 C=  2.769344D-01  0.000000D+00                             NZ=T
 IS=     1 IAt=     1 ISR=     1 T=0 IP=      2 IndIP=      2 IndIPD=      1 C=  2.678389D-01  0.000000D+00                             NZ=T
 IS=     1 IAt=     1 ISR=     1 T=0 IP=      3 IndIP=      3 IndIPD=      2 C=  8.347367D-02  0.000000D+00                             NZ=T
 IS=     2 IAt=     2 ISR=     1 T=0 IP=      1 IndIP=      4 IndIPD=      0 C=  1.610141D+01  0.000000D+00                             NZ=T
 IS=     2 IAt=     2 ISR=     1 T=0 IP=      2 IndIP=      5 IndIPD=      1 C=  1.557258D+01  0.000000D+00                             NZ=T
 IS=     2 IAt=     2 ISR=     1 T=0 IP=      3 IndIP=      6 IndIPD=      2 C=  4.853293D+00  0.000000D+00                             NZ=T
 IS=     3 IAt=     2 ISR=     2 T=1 IP=      1 IndIP=      7 IndIPD=      0 C= -1.387647D+00  3.133407D+01                             NZ=T
 IS=     3 IAt=     2 ISR=     2 T=1 IP=      2 IndIP=      8 IndIPD=      1 C=  1.856089D+00  1.970370D+01                             NZ=T
 IS=     3 IAt=     2 ISR=     2 T=1 IP=      3 IndIP=      9 IndIPD=      2 C=  1.400818D+00  3.121398D+00                             NZ=T
 IS=     4 IAt=     2 ISR=     3 T=1 IP=      1 IndIP=     10 IndIPD=      0 C= -4.134697D-01  7.617973D-02                             NZ=T
 IS=     4 IAt=     2 ISR=     3 T=1 IP=      2 IndIP=     11 IndIPD=      1 C=  1.630428D-01  8.683221D-01                             NZ=T
 IS=     4 IAt=     2 ISR=     3 T=1 IP=      3 IndIP=     12 IndIPD=      2 C=  3.220075D-01  2.086659D-01                             NZ=T
 IS=     5 IAt=     2 ISR=     4 T=1 IP=      1 IndIP=     13 IndIPD=      0 C= -1.316621D-01 -7.357036D-02                             NZ=T
 IS=     5 IAt=     2 ISR=     4 T=1 IP=      2 IndIP=     14 IndIPD=      1 C=  3.957719D-03  9.951033D-02                             NZ=T
 IS=     5 IAt=     2 ISR=     4 T=1 IP=      3 IndIP=     15 IndIPD=      2 C=  1.236808D-01  3.446781D-02                             NZ=T
 IExCor=    0 DFT=F Ex=HF Corr=None ExCW=0 ScaHFX=  1.000000
 ScaDFX=  1.000000  1.000000  1.000000  1.000000 ScalE2=  1.000000  1.000000
 IRadAn=      5 IRanWt=     -1 IRanGd=            0 ICorTp=0 IEmpDi=  4
 NAtoms=    2 NActive=    2 NUniq=    2 SFac= 1.00D+00 NAtFMM=   60 NAOKFM=F Big=F
 Integral buffers will be    131072 words long.
 Raffenetti 2 integral format.
 Two-electron integral symmetry is turned on.
 Leave Link  301 at Mon Mar 28 14:37:47 2022, MaxMem=  9663676416 cpu:               2.2 elap:               0.1
 (Enter /nopt/nrel/apps/gaussian/g16C_1/g16/l302.exe)
 NPDir=0 NMtPBC=     1 NCelOv=     1 NCel=       1 NClECP=     1 NCelD=      1
         NCelK=      1 NCelE2=     1 NClLst=     1 CellRange=     0.0.
 One-electron integrals computed using PRISM.
 One-electron integral symmetry used in STVInt
 Entering OneElI...
 Calculate overlap and kinetic energy integrals
    NBasis =  14  MinDer = 0  MaxDer = 0
 Requested accuracy = 0.1000D-12
 Symmetry will be used
 PrmmSu-InSpLW:  IPartL=    0 NPrtUS=   36 NPrtUL=    1 DoSpLW=F IThBeg=    0 IThEnd=   35 NThAct=   36.
 PrSmSu:  IncTry=   512 NBBP=             15 NTPThr=   100 NPartT=   36 Incr=           1 LDynOK=F GPUOK=F.
 PrsmSu:  NPrtUS=  36 ThrOK=T IAlg=1 LenDen=           0 ISkipM=0 DoSpLW=F IThBeg=    0 IThEnd=   35.
 Prism:   IPart=     0 DynPar=F LinDyn=F Incr=           1.
 PRISM was handed   268433335 working-precision words and    15 shell-pairs
 PRISM was handed   268433335 working-precision words and    15 shell-pairs
 PRISM was handed   268433335 working-precision words and    15 shell-pairs
 PRISM was handed   268433335 working-precision words and    15 shell-pairs
 IPart= 16 NShTot=           0 NBatch=           0 AvBLen=         0.0
 IPart= 32 NShTot=           0 NBatch=           0 AvBLen=         0.0
 IPart=  0 NShTot=           3 NBatch=           3 AvBLen=         1.0
 IPart= 25 NShTot=           0 NBatch=           0 AvBLen=         0.0
 PRISM was handed   268433335 working-precision words and    15 shell-pairs
 PRISM was handed   268433335 working-precision words and    15 shell-pairs
 PRISM was handed   268433335 working-precision words and    15 shell-pairs
 IPart= 27 NShTot=           0 NBatch=           0 AvBLen=         0.0
 IPart= 21 NShTot=           0 NBatch=           0 AvBLen=         0.0
 IPart= 12 NShTot=           0 NBatch=           0 AvBLen=         0.0
 PRISM was handed   268433335 working-precision words and    15 shell-pairs
 PRISM was handed   268433335 working-precision words and    15 shell-pairs
 IPart=  9 NShTot=           0 NBatch=           0 AvBLen=         0.0
 PRISM was handed   268433335 working-precision words and    15 shell-pairs
 PRISM was handed   268433335 working-precision words and    15 shell-pairs
 PRISM was handed   268433335 working-precision words and    15 shell-pairs
 IPart= 11 NShTot=           0 NBatch=           0 AvBLen=         0.0
 PRISM was handed   268433335 working-precision words and    15 shell-pairs
 PRISM was handed   268433335 working-precision words and    15 shell-pairs
 PRISM was handed   268433335 working-precision words and    15 shell-pairs
 IPart= 31 NShTot=           0 NBatch=           0 AvBLen=         0.0
 IPart= 14 NShTot=           0 NBatch=           0 AvBLen=         0.0
 IPart= 24 NShTot=           0 NBatch=           0 AvBLen=         0.0
 PRISM was handed   268433335 working-precision words and    15 shell-pairs
 PRISM was handed   268433335 working-precision words and    15 shell-pairs
 PRISM was handed   268433335 working-precision words and    15 shell-pairs
 PRISM was handed   268433335 working-precision words and    15 shell-pairs
 PRISM was handed   268433335 working-precision words and    15 shell-pairs
 PRISM was handed   268433335 working-precision words and    15 shell-pairs
 PRISM was handed   268433335 working-precision words and    15 shell-pairs
 IPart= 33 NShTot=           0 NBatch=           0 AvBLen=         0.0
 IPart= 22 NShTot=           0 NBatch=           0 AvBLen=         0.0
 IPart=  8 NShTot=           0 NBatch=           0 AvBLen=         0.0
 PRISM was handed   268433335 working-precision words and    15 shell-pairs
 PRISM was handed   268433335 working-precision words and    15 shell-pairs
 PRISM was handed   268433335 working-precision words and    15 shell-pairs
 PRISM was handed   268433335 working-precision words and    15 shell-pairs
 PRISM was handed   268433335 working-precision words and    15 shell-pairs
 IPart= 10 NShTot=           0 NBatch=           0 AvBLen=         0.0
 IPart= 29 NShTot=           0 NBatch=           0 AvBLen=         0.0
 IPart=  7 NShTot=           0 NBatch=           0 AvBLen=         0.0
 PRISM was handed   268433335 working-precision words and    15 shell-pairs
 PRISM was handed   268433335 working-precision words and    15 shell-pairs
 PRISM was handed   268433335 working-precision words and    15 shell-pairs
 IPart= 19 NShTot=           0 NBatch=           0 AvBLen=         0.0
 IPart= 28 NShTot=           0 NBatch=           0 AvBLen=         0.0
 IPart= 23 NShTot=           0 NBatch=           0 AvBLen=         0.0
 IPart=  6 NShTot=           0 NBatch=           0 AvBLen=         0.0
 IPart= 17 NShTot=           0 NBatch=           0 AvBLen=         0.0
 IPart=  4 NShTot=           2 NBatch=           2 AvBLen=         1.0
 IPart=  5 NShTot=           2 NBatch=           2 AvBLen=         1.0
 IPart=  2 NShTot=           3 NBatch=           3 AvBLen=         1.0
 IPart=  1 NShTot=           3 NBatch=           3 AvBLen=         1.0
 IPart= 30 NShTot=           0 NBatch=           0 AvBLen=         0.0
 IPart= 15 NShTot=           0 NBatch=           0 AvBLen=         0.0
 PRISM was handed   268433335 working-precision words and    15 shell-pairs
 PRISM was handed   268433335 working-precision words and    15 shell-pairs
 PRISM was handed   268433335 working-precision words and    15 shell-pairs
 IPart=  3 NShTot=           2 NBatch=           2 AvBLen=         1.0
 PRISM was handed   268433335 working-precision words and    15 shell-pairs
 PRISM was handed   268433335 working-precision words and    15 shell-pairs
 PRISM was handed   268433335 working-precision words and    15 shell-pairs
 IPart= 20 NShTot=           0 NBatch=           0 AvBLen=         0.0
 IPart= 13 NShTot=           0 NBatch=           0 AvBLen=         0.0
 IPart= 34 NShTot=           0 NBatch=           0 AvBLen=         0.0
 IPart= 18 NShTot=           0 NBatch=           0 AvBLen=         0.0
 IPart= 35 NShTot=           0 NBatch=           0 AvBLen=         0.0
 IPart= 26 NShTot=           0 NBatch=           0 AvBLen=         0.0
 PrSmSu:  NxtVal=             37.
 *** Overlap *** 
                1             2             3             4             5 
      1  0.100000D+01
      2  0.788849D-02  0.100000D+01
      3  0.574307D-01  0.354956D+00  0.100000D+01
      4  0.000000D+00  0.000000D+00  0.000000D+00  0.100000D+01
      5  0.000000D+00  0.000000D+00  0.000000D+00  0.000000D+00  0.100000D+01
      6 -0.225340D-01  0.000000D+00  0.000000D+00  0.000000D+00  0.000000D+00
      7  0.362009D+00  0.177465D-01  0.276696D+00  0.000000D+00  0.000000D+00
      8  0.000000D+00  0.000000D+00  0.000000D+00  0.290978D+00  0.000000D+00
      9  0.000000D+00  0.000000D+00  0.000000D+00  0.000000D+00  0.290978D+00
     10 -0.341284D+00  0.000000D+00  0.000000D+00  0.000000D+00  0.000000D+00
     11  0.487453D+00 -0.411512D-03  0.141138D-01  0.000000D+00  0.000000D+00
     12  0.000000D+00  0.000000D+00  0.000000D+00  0.256077D-01  0.000000D+00
     13  0.000000D+00  0.000000D+00  0.000000D+00  0.000000D+00  0.256077D-01
     14 -0.568322D+00  0.000000D+00  0.000000D+00  0.000000D+00  0.000000D+00
                6             7             8             9            10 
      6  0.100000D+01
      7  0.000000D+00  0.100000D+01
      8  0.000000D+00  0.000000D+00  0.100000D+01
      9  0.000000D+00  0.000000D+00  0.000000D+00  0.100000D+01
     10  0.290978D+00  0.000000D+00  0.000000D+00  0.000000D+00  0.100000D+01
     11  0.000000D+00  0.437056D+00  0.000000D+00  0.000000D+00  0.000000D+00
     12  0.000000D+00  0.000000D+00  0.445695D+00  0.000000D+00  0.000000D+00
     13  0.000000D+00  0.000000D+00  0.000000D+00  0.445695D+00  0.000000D+00
     14  0.256077D-01  0.000000D+00  0.000000D+00  0.000000D+00  0.445695D+00
               11            12            13            14 
     11  0.100000D+01
     12  0.000000D+00  0.100000D+01
     13  0.000000D+00  0.000000D+00  0.100000D+01
     14  0.000000D+00  0.000000D+00  0.000000D+00  0.100000D+01
 *** Kinetic Energy *** 
                1             2             3             4             5 
      1  0.760032D+00
      2 -0.261907D-02  0.171191D+03
      3 -0.143539D-01  0.616344D+00  0.841372D+01
      4  0.000000D+00  0.000000D+00  0.000000D+00  0.263276D+02
      5  0.000000D+00  0.000000D+00  0.000000D+00  0.000000D+00  0.263276D+02
      6  0.163316D-03  0.000000D+00  0.000000D+00  0.000000D+00  0.000000D+00
      7  0.555522D-01 -0.508771D+00 -0.622783D+00  0.000000D+00  0.000000D+00
      8  0.000000D+00  0.000000D+00  0.000000D+00  0.115183D+01  0.000000D+00
      9  0.000000D+00  0.000000D+00  0.000000D+00  0.000000D+00  0.115183D+01
     10 -0.158547D+00  0.000000D+00  0.000000D+00  0.000000D+00  0.000000D+00
     11  0.744806D-01 -0.277145D-01 -0.148074D+00  0.000000D+00  0.000000D+00
     12  0.000000D+00  0.000000D+00  0.000000D+00 -0.149366D-01  0.000000D+00
     13  0.000000D+00  0.000000D+00  0.000000D+00  0.000000D+00 -0.149366D-01
     14 -0.202314D+00  0.000000D+00  0.000000D+00  0.000000D+00  0.000000D+00
                6             7             8             9            10 
      6  0.263276D+02
      7  0.000000D+00  0.750794D+00
      8  0.000000D+00  0.000000D+00  0.175622D+01
      9  0.000000D+00  0.000000D+00  0.000000D+00  0.175622D+01
     10  0.115183D+01  0.000000D+00  0.000000D+00  0.000000D+00  0.175622D+01
     11  0.000000D+00 -0.454110D-01  0.000000D+00  0.000000D+00  0.000000D+00
     12  0.000000D+00  0.000000D+00  0.159934D+00  0.000000D+00  0.000000D+00
     13  0.000000D+00  0.000000D+00  0.000000D+00  0.159934D+00  0.000000D+00
     14 -0.149366D-01  0.000000D+00  0.000000D+00  0.000000D+00  0.159934D+00
               11            12            13            14 
     11  0.146782D+00
     12  0.000000D+00  0.289753D+00
     13  0.000000D+00  0.000000D+00  0.289753D+00
     14  0.000000D+00  0.000000D+00  0.000000D+00  0.289753D+00
 Entering OneElI...
 Calculate potential energy integrals
    NBasis =  14  MinDer = 0  MaxDer = 0
 Requested accuracy = 0.1000D-12
 Symmetry will be used
 PrmmSu-InSpLW:  IPartL=    0 NPrtUS=   36 NPrtUL=    1 DoSpLW=F IThBeg=    0 IThEnd=   35 NThAct=   36.
 PrSmSu:  IncTry=   512 NBBP=             30 NTPThr=   100 NPartT=   36 Incr=           1 LDynOK=F GPUOK=F.
 PrsmSu:  NPrtUS=  36 ThrOK=T IAlg=1 LenDen=           0 ISkipM=0 DoSpLW=F IThBeg=    0 IThEnd=   35.
 Prism:   IPart=     0 DynPar=F LinDyn=F Incr=           1.
 PRISM was handed   268433425 working-precision words and    15 shell-pairs
 PRISM was handed   268433425 working-precision words and    15 shell-pairs
 PRISM was handed   268433425 working-precision words and    15 shell-pairs
 PRISM was handed   268433425 working-precision words and    15 shell-pairs
 PRISM was handed   268433425 working-precision words and    15 shell-pairs
 PRISM was handed   268433425 working-precision words and    15 shell-pairs
 PRISM was handed   268433425 working-precision words and    15 shell-pairs
 PRISM was handed   268433425 working-precision words and    15 shell-pairs
 PRISM was handed   268433425 working-precision words and    15 shell-pairs
 PRISM was handed   268433425 working-precision words and    15 shell-pairs
 PRISM was handed   268433425 working-precision words and    15 shell-pairs
 PRISM was handed   268433425 working-precision words and    15 shell-pairs
 PRISM was handed   268433425 working-precision words and    15 shell-pairs
 PRISM was handed   268433425 working-precision words and    15 shell-pairs
 PRISM was handed   268433425 working-precision words and    15 shell-pairs
 PRISM was handed   268433425 working-precision words and    15 shell-pairs
 PRISM was handed   268433425 working-precision words and    15 shell-pairs
 PRISM was handed   268433425 working-precision words and    15 shell-pairs
 PRISM was handed   268433425 working-precision words and    15 shell-pairs
 PRISM was handed   268433425 working-precision words and    15 shell-pairs
 PRISM was handed   268433425 working-precision words and    15 shell-pairs
 PRISM was handed   268433425 working-precision words and    15 shell-pairs
 PRISM was handed   268433425 working-precision words and    15 shell-pairs
 PRISM was handed   268433425 working-precision words and    15 shell-pairs
 PRISM was handed   268433425 working-precision words and    15 shell-pairs
 PRISM was handed   268433425 working-precision words and    15 shell-pairs
 PRISM was handed   268433425 working-precision words and    15 shell-pairs
 PRISM was handed   268433425 working-precision words and    15 shell-pairs
 PRISM was handed   268433425 working-precision words and    15 shell-pairs
 PRISM was handed   268433425 working-precision words and    15 shell-pairs
 PRISM was handed   268433425 working-precision words and    15 shell-pairs
 PRISM was handed   268433425 working-precision words and    15 shell-pairs
 PRISM was handed   268433425 working-precision words and    15 shell-pairs
 PRISM was handed   268433425 working-precision words and    15 shell-pairs
 PRISM was handed   268433425 working-precision words and    15 shell-pairs
 PRISM was handed   268433425 working-precision words and    15 shell-pairs
 IPart=  2 NShTot=           6 NBatch=           3 AvBLen=         2.0
 IPart=  4 NShTot=           4 NBatch=           2 AvBLen=         2.0
 IPart=  1 NShTot=           6 NBatch=           3 AvBLen=         2.0
 IPart=  5 NShTot=           4 NBatch=           2 AvBLen=         2.0
 IPart=  3 NShTot=           4 NBatch=           2 AvBLen=         2.0
 IPart=  0 NShTot=           6 NBatch=           3 AvBLen=         2.0
 IPart= 11 NShTot=           0 NBatch=           0 AvBLen=         0.0
 IPart= 10 NShTot=           0 NBatch=           0 AvBLen=         0.0
 IPart= 24 NShTot=           0 NBatch=           0 AvBLen=         0.0
 IPart=  6 NShTot=           0 NBatch=           0 AvBLen=         0.0
 IPart= 23 NShTot=           0 NBatch=           0 AvBLen=         0.0
 IPart=  9 NShTot=           0 NBatch=           0 AvBLen=         0.0
 IPart= 13 NShTot=           0 NBatch=           0 AvBLen=         0.0
 IPart= 20 NShTot=           0 NBatch=           0 AvBLen=         0.0
 IPart= 22 NShTot=           0 NBatch=           0 AvBLen=         0.0
 IPart= 30 NShTot=           0 NBatch=           0 AvBLen=         0.0
 IPart= 16 NShTot=           0 NBatch=           0 AvBLen=         0.0
 IPart= 31 NShTot=           0 NBatch=           0 AvBLen=         0.0
 IPart= 28 NShTot=           0 NBatch=           0 AvBLen=         0.0
 IPart= 21 NShTot=           0 NBatch=           0 AvBLen=         0.0
 IPart= 18 NShTot=           0 NBatch=           0 AvBLen=         0.0
 IPart= 17 NShTot=           0 NBatch=           0 AvBLen=         0.0
 IPart= 35 NShTot=           0 NBatch=           0 AvBLen=         0.0
 IPart=  7 NShTot=           0 NBatch=           0 AvBLen=         0.0
 IPart= 29 NShTot=           0 NBatch=           0 AvBLen=         0.0
 IPart= 32 NShTot=           0 NBatch=           0 AvBLen=         0.0
 IPart= 26 NShTot=           0 NBatch=           0 AvBLen=         0.0
 IPart= 12 NShTot=           0 NBatch=           0 AvBLen=         0.0
 IPart= 14 NShTot=           0 NBatch=           0 AvBLen=         0.0
 IPart= 33 NShTot=           0 NBatch=           0 AvBLen=         0.0
 IPart= 15 NShTot=           0 NBatch=           0 AvBLen=         0.0
 IPart= 34 NShTot=           0 NBatch=           0 AvBLen=         0.0
 IPart= 25 NShTot=           0 NBatch=           0 AvBLen=         0.0
 IPart= 27 NShTot=           0 NBatch=           0 AvBLen=         0.0
 IPart=  8 NShTot=           0 NBatch=           0 AvBLen=         0.0
 IPart= 19 NShTot=           0 NBatch=           0 AvBLen=         0.0
 PrSmSu:  NxtVal=             37.
 ***** Potential Energy ***** 
                1             2             3             4             5 
      1  0.948842D+01
      2  0.142553D+01  0.350214D+03
      3  0.270936D+01  0.640468D+02  0.698088D+02
      4  0.000000D+00  0.000000D+00  0.000000D+00  0.692511D+02
      5  0.000000D+00  0.000000D+00  0.000000D+00  0.000000D+00  0.692511D+02
      6 -0.805533D+00 -0.589254D-02 -0.386421D-01  0.000000D+00  0.000000D+00
      7  0.523121D+01  0.277445D+01  0.111970D+02  0.000000D+00  0.000000D+00
      8  0.000000D+00  0.000000D+00  0.000000D+00  0.116898D+02  0.000000D+00
      9  0.000000D+00  0.000000D+00  0.000000D+00  0.000000D+00  0.116898D+02
     10 -0.442722D+01 -0.358485D-03 -0.180436D-01  0.000000D+00  0.000000D+00
     11  0.418320D+01 -0.974744D-01  0.365576D+00  0.000000D+00  0.000000D+00
     12  0.000000D+00  0.000000D+00  0.000000D+00  0.892753D+00  0.000000D+00
     13  0.000000D+00  0.000000D+00  0.000000D+00  0.000000D+00  0.892753D+00
     14 -0.478560D+01 -0.203021D-04 -0.174690D-02  0.000000D+00  0.000000D+00
                6             7             8             9            10 
      6  0.692584D+02
      7 -0.188803D-01  0.178615D+02
      8  0.000000D+00  0.000000D+00  0.178598D+02
      9  0.000000D+00  0.000000D+00  0.000000D+00  0.178598D+02
     10  0.116957D+02 -0.140003D+00  0.000000D+00  0.000000D+00  0.179497D+02
     11 -0.140071D-02  0.517125D+01  0.000000D+00  0.000000D+00 -0.794764D-01
     12  0.000000D+00  0.000000D+00  0.534140D+01  0.000000D+00  0.000000D+00
     13  0.000000D+00  0.000000D+00  0.000000D+00  0.534140D+01  0.000000D+00
     14  0.893444D+00 -0.787263D-01  0.000000D+00  0.000000D+00  0.540517D+01
               11            12            13            14 
     11  0.712889D+01
     12  0.000000D+00  0.708972D+01
     13  0.000000D+00  0.000000D+00  0.708972D+01
     14 -0.144000D+00  0.000000D+00  0.000000D+00  0.720685D+01
 ****** Core Hamiltonian ****** 
                1             2             3             4             5 
      1 -0.872839D+01
      2 -0.142815D+01 -0.179023D+03
      3 -0.272371D+01 -0.634304D+02 -0.613951D+02
      4  0.000000D+00  0.000000D+00  0.000000D+00 -0.429235D+02
      5  0.000000D+00  0.000000D+00  0.000000D+00  0.000000D+00 -0.429235D+02
      6  0.805696D+00  0.589254D-02  0.386421D-01  0.000000D+00  0.000000D+00
      7 -0.517566D+01 -0.328322D+01 -0.118198D+02  0.000000D+00  0.000000D+00
      8  0.000000D+00  0.000000D+00  0.000000D+00 -0.105380D+02  0.000000D+00
      9  0.000000D+00  0.000000D+00  0.000000D+00  0.000000D+00 -0.105380D+02
     10  0.426867D+01  0.358485D-03  0.180436D-01  0.000000D+00  0.000000D+00
     11 -0.410872D+01  0.697598D-01 -0.513650D+00  0.000000D+00  0.000000D+00
     12  0.000000D+00  0.000000D+00  0.000000D+00 -0.907689D+00  0.000000D+00
     13  0.000000D+00  0.000000D+00  0.000000D+00  0.000000D+00 -0.907689D+00
     14  0.458329D+01  0.203021D-04  0.174690D-02  0.000000D+00  0.000000D+00
                6             7             8             9            10 
      6 -0.429309D+02
      7  0.188803D-01 -0.171107D+02
      8  0.000000D+00  0.000000D+00 -0.161036D+02
      9  0.000000D+00  0.000000D+00  0.000000D+00 -0.161036D+02
     10 -0.105439D+02  0.140003D+00  0.000000D+00  0.000000D+00 -0.161935D+02
     11  0.140071D-02 -0.521666D+01  0.000000D+00  0.000000D+00  0.794764D-01
     12  0.000000D+00  0.000000D+00 -0.518147D+01  0.000000D+00  0.000000D+00
     13  0.000000D+00  0.000000D+00  0.000000D+00 -0.518147D+01  0.000000D+00
     14 -0.908381D+00  0.787263D-01  0.000000D+00  0.000000D+00 -0.524524D+01
               11            12            13            14 
     11 -0.698211D+01
     12  0.000000D+00 -0.679997D+01
     13  0.000000D+00  0.000000D+00 -0.679997D+01
     14  0.144000D+00  0.000000D+00  0.000000D+00 -0.691709D+01
 SVDSVc IOpt=   1 NormSV=T IR=1
 SVDSVc V= 2.17D+00 1.56D+00 1.31D+00 1.03D+00 7.22D-01 5.03D-01 4.52D-01 2.45D-01
 SVDSVc IOpt=   1 NormSV=T IR=3
 SVDSVc V= 1.54D+00 9.77D-01 4.79D-01
 SVDSVc IOpt=   1 NormSV=T IR=4
 SVDSVc V= 1.54D+00 9.77D-01 4.79D-01
 TstOVc:  Largest diagonal error= 1.78D-15 IB=1 I=    6.
 TstOVc:  Largest same sym error= 2.43D-15 IB=1 I=    5 J=    4.
 TstOVc:  Largest diff sym error= 0.00D+00 IB=0 JB=0 I=    0 J=    0.
 Orthogonalized basis functions: 
                 1             2             3             4             5 
      1   0.407648D+00 -0.174199D-01 -0.112807D+00  0.168440D+00  0.129678D+00
      2   0.341978D-01  0.215960D+00  0.550889D+00  0.137946D+00  0.748931D+00
      3   0.917365D-01  0.325088D+00  0.489310D+00  0.186278D-01 -0.565874D+00
      4   0.000000D+00  0.000000D+00  0.000000D+00  0.000000D+00  0.000000D+00
      5   0.000000D+00  0.000000D+00  0.000000D+00  0.000000D+00  0.000000D+00
      6  -0.764163D-01  0.200377D+00 -0.192292D+00  0.821102D+00 -0.110398D+00
      7   0.246310D+00  0.374685D+00 -0.118463D+00 -0.200995D+00 -0.445501D+00
      8   0.000000D+00  0.000000D+00  0.000000D+00  0.000000D+00  0.000000D+00
      9   0.000000D+00  0.000000D+00  0.000000D+00  0.000000D+00  0.000000D+00
     10  -0.249988D+00  0.359634D+00 -0.204577D+00  0.138905D+00  0.106126D+00
     11   0.262746D+00  0.283307D+00 -0.322758D+00 -0.171729D+00  0.503456D+00
     12   0.000000D+00  0.000000D+00  0.000000D+00  0.000000D+00  0.000000D+00
     13   0.000000D+00  0.000000D+00  0.000000D+00  0.000000D+00  0.000000D+00
     14  -0.294696D+00  0.310885D+00 -0.103172D+00 -0.397046D+00  0.105259D+00
                 6             7             8             9            10 
      1   0.311162D+00 -0.738136D-01  0.147061D+01  0.000000D+00  0.000000D+00
      2  -0.126821D+00  0.455957D+00 -0.559568D-02  0.000000D+00  0.000000D+00
      3   0.181452D+00 -0.750144D+00 -0.103135D-01  0.000000D+00  0.000000D+00
      4   0.000000D+00  0.000000D+00  0.000000D+00  0.323218D+00  0.847647D+00
      5   0.000000D+00  0.000000D+00  0.000000D+00  0.000000D+00  0.000000D+00
      6  -0.577963D+00 -0.839719D-01 -0.672501D-04  0.000000D+00  0.000000D+00
      7  -0.221642D+00  0.949528D+00 -0.228239D+00  0.000000D+00  0.000000D+00
      8   0.000000D+00  0.000000D+00  0.000000D+00  0.562627D+00 -0.196580D-01
      9   0.000000D+00  0.000000D+00  0.000000D+00  0.000000D+00  0.000000D+00
     10   0.106022D+01  0.170979D+00  0.175762D-01  0.000000D+00  0.000000D+00
     11  -0.115632D+00 -0.672353D+00 -0.816963D+00  0.000000D+00  0.000000D+00
     12   0.000000D+00  0.000000D+00  0.000000D+00  0.475981D+00 -0.552364D+00
     13   0.000000D+00  0.000000D+00  0.000000D+00  0.000000D+00  0.000000D+00
     14  -0.565659D+00 -0.211806D+00  0.109635D+01  0.000000D+00  0.000000D+00
                11            12            13            14 
      1   0.000000D+00  0.000000D+00  0.000000D+00  0.000000D+00
      2   0.000000D+00  0.000000D+00  0.000000D+00  0.000000D+00
      3   0.000000D+00  0.000000D+00  0.000000D+00  0.000000D+00
      4  -0.534697D+00  0.000000D+00  0.000000D+00  0.000000D+00
      5   0.000000D+00  0.323218D+00  0.847647D+00 -0.534697D+00
      6   0.000000D+00  0.000000D+00  0.000000D+00  0.000000D+00
      7   0.000000D+00  0.000000D+00  0.000000D+00  0.000000D+00
      8   0.103243D+01  0.000000D+00  0.000000D+00  0.000000D+00
      9   0.000000D+00  0.562627D+00 -0.196580D-01  0.103243D+01
     10   0.000000D+00  0.000000D+00  0.000000D+00  0.000000D+00
     11   0.000000D+00  0.000000D+00  0.000000D+00  0.000000D+00
     12  -0.857278D+00  0.000000D+00  0.000000D+00  0.000000D+00
     13   0.000000D+00  0.475981D+00 -0.552364D+00 -0.857278D+00
     14   0.000000D+00  0.000000D+00  0.000000D+00  0.000000D+00
 NBasis=    14 RedAO= T EigKep=  2.45D-01  NBF=     8     0     3     3
 NBsUse=    14 1.00D-06 EigRej= -1.00D+00 NBFU=     8     0     3     3
 Leave Link  302 at Mon Mar 28 14:37:47 2022, MaxMem=  9663676416 cpu:               3.8 elap:               0.2
 (Enter /nopt/nrel/apps/gaussian/g16C_1/g16/l303.exe)
 DipDrv will not compute anything.
 Fermi contact integrals: 
                 1             2 
      1   0.628247D+00  0.458572D-01
      2   0.000000D+00  0.365273D+02
      3   0.000000D+00  0.186926D+01
      4   0.000000D+00  0.000000D+00
      5   0.000000D+00  0.000000D+00
      6   0.000000D+00  0.000000D+00
      7   0.422989D-01  0.715806D-01
      8   0.000000D+00  0.000000D+00
      9   0.000000D+00  0.000000D+00
     10  -0.713343D-01  0.000000D+00
     11   0.727296D-01 -0.402363D-02
     12   0.000000D+00  0.000000D+00
     13   0.000000D+00  0.000000D+00
     14  -0.125445D+00  0.000000D+00
 Leave Link  303 at Mon Mar 28 14:37:47 2022, MaxMem=  9663676416 cpu:               1.1 elap:               0.1
 (Enter /nopt/nrel/apps/gaussian/g16C_1/g16/l401.exe)
 ExpMin= 8.21D-02 ExpMax= 7.72D+02 ExpMxC= 7.72D+02 IAcc=3 IRadAn=         5 AccDes= 0.00D+00
 Harris functional with IExCor=  205 and IRadAn=       5 diagonalized for initial guess.
 HarFok:  IExCor=  205 AccDes= 0.00D+00 IRadAn=         5 IDoV= 1 UseB2=F ITyADJ=14
 ICtDFT=  3500011 ScaDFX=  1.000000  1.000000  1.000000  1.000000
 FoFCou: FMM=F IPFlag=           0 FMFlag=      100000 FMFlg1=           0
         NFxFlg=           0 DoJE=T BraDBF=F KetDBF=T FulRan=T
         wScrn=  0.000000 ICntrl=       500 IOpCl=  0 I1Cent=   200000004 NGrid=           0
         NMat0=    1 NMatS0=      1 NMatT0=    0 NMatD0=    1 NMtDS0=    0 NMtDT0=    0
 Petite list used in FoFCou.
 Harris En= -592.451571178360    
 JPrj=0 DoOrth=F DoCkMO=F.
 Initial guess orbital symmetries:
 Alpha Orbitals:
       Occupied  (SG) (SG) (SG) (PI) (PI) (SG) (SG) (PI) (PI) (SG)
                 (SG)
       Virtual   (PI) (PI) (SG)
 Beta  Orbitals:
       Occupied  (SG) (SG) (SG) (PI) (PI) (SG) (SG) (PI) (PI)
       Virtual   (SG) (SG) (PI) (PI) (SG)
 The electronic state of the initial guess is 3-SG.
 Initial guess <Sx>= 0.0000 <Sy>= 0.0000 <Sz>= 1.0000 <S**2>= 2.0000 S= 1.0000
 Leave Link  401 at Mon Mar 28 14:37:48 2022, MaxMem=  9663676416 cpu:               4.0 elap:               0.1
 (Enter /nopt/nrel/apps/gaussian/g16C_1/g16/l502.exe)
 Keep R1 and R2 ints in memory in symmetry-blocked form, NReq=7216806.
 FoFCou: FMM=F IPFlag=           0 FMFlag=           0 FMFlg1=           0
         NFxFlg=           0 DoJE=F BraDBF=F KetDBF=F FulRan=T
         wScrn=  0.000000 ICntrl=       600 IOpCl=  0 I1Cent=           0 NGrid=           0
         NMat0=    1 NMatS0=    105 NMatT0=    0 NMatD0=    1 NMtDS0=    0 NMtDT0=    0
 Petite list used in FoFCou.
 UHF open shell SCF:
 Using DIIS extrapolation, IDIIS=  1040.
 NGot=  9663676416 LenX=  9663669932 LenY=  9663669050
 Requested convergence on RMS density matrix=1.00D-08 within 128 cycles.
 Requested convergence on MAX density matrix=1.00D-06.
 Requested convergence on             energy=1.00D-06.
 No special actions if energy rises.

 Cycle   1  Pass 1  IDiag  1:
 E= -593.185613747459    
 DIIS: error= 4.93D-02 at cycle   1 NSaved=   1.
 NSaved= 1 IEnMin= 1 EnMin= -593.185613747459     IErMin= 1 ErrMin= 4.93D-02
 ErrMax= 4.93D-02  0.00D+00 EMaxC= 1.00D-01 BMatC= 1.15D-01 BMatP= 1.15D-01
 IDIUse=3 WtCom= 5.07D-01 WtEn= 4.93D-01
 Coeff-Com:  0.100D+01
 Coeff-En:   0.100D+01
 Coeff:      0.100D+01
 Gap=     0.358 Goal=   None    Shift=    0.000
 Gap=     1.080 Goal=   None    Shift=    0.000
 GapD=    0.358 DampG=1.000 DampE=0.500 DampFc=0.5000 IDamp=-1.
 Damping current iteration by 5.00D-01
 RMSDP=1.37D-02 MaxDP=1.22D-01              OVMax= 0.00D+00

 Cycle   2  Pass 1  IDiag  1:
 E= -593.194429375452     Delta-E=       -0.008815627993 Rises=F Damp=T
 DIIS: error= 2.44D-02 at cycle   2 NSaved=   2.
 NSaved= 2 IEnMin= 2 EnMin= -593.194429375452     IErMin= 2 ErrMin= 2.44D-02
 ErrMax= 2.44D-02  0.00D+00 EMaxC= 1.00D-01 BMatC= 3.11D-02 BMatP= 1.15D-01
 IDIUse=3 WtCom= 7.56D-01 WtEn= 2.44D-01
 Coeff-Com: -0.101D+01 0.201D+01
 Coeff-En:   0.000D+00 0.100D+01
 Coeff:     -0.767D+00 0.177D+01
 Gap=     0.334 Goal=   None    Shift=    0.000
 Gap=     1.031 Goal=   None    Shift=    0.000
 RMSDP=1.19D-02 MaxDP=1.36D-01 DE=-8.82D-03 OVMax= 0.00D+00

 Cycle   3  Pass 1  IDiag  1:
 E= -593.206059901485     Delta-E=       -0.011630526034 Rises=F Damp=F
 DIIS: error= 5.19D-03 at cycle   3 NSaved=   3.
 NSaved= 3 IEnMin= 3 EnMin= -593.206059901485     IErMin= 3 ErrMin= 5.19D-03
 ErrMax= 5.19D-03  0.00D+00 EMaxC= 1.00D-01 BMatC= 8.89D-04 BMatP= 3.11D-02
 IDIUse=3 WtCom= 9.48D-01 WtEn= 5.19D-02
 Coeff-Com:  0.126D+01-0.256D+01 0.230D+01
 Coeff-En:   0.000D+00 0.000D+00 0.100D+01
 Coeff:      0.120D+01-0.243D+01 0.223D+01
 Gap=     0.337 Goal=   None    Shift=    0.000
 Gap=     1.027 Goal=   None    Shift=    0.000
 RMSDP=1.02D-02 MaxDP=1.17D-01 DE=-1.16D-02 OVMax= 0.00D+00

 Cycle   4  Pass 1  IDiag  1:
 E= -593.207272648405     Delta-E=       -0.001212746919 Rises=F Damp=F
 DIIS: error= 1.56D-03 at cycle   4 NSaved=   4.
 NSaved= 4 IEnMin= 4 EnMin= -593.207272648405     IErMin= 4 ErrMin= 1.56D-03
 ErrMax= 1.56D-03  0.00D+00 EMaxC= 1.00D-01 BMatC= 3.49D-05 BMatP= 8.89D-04
 IDIUse=3 WtCom= 9.84D-01 WtEn= 1.56D-02
 Coeff-Com: -0.830D+00 0.168D+01-0.166D+01 0.180D+01
 Coeff-En:   0.000D+00 0.000D+00 0.000D+00 0.100D+01
 Coeff:     -0.817D+00 0.166D+01-0.163D+01 0.179D+01
 Gap=     0.337 Goal=   None    Shift=    0.000
 Gap=     1.028 Goal=   None    Shift=    0.000
 RMSDP=3.73D-03 MaxDP=3.18D-02 DE=-1.21D-03 OVMax= 0.00D+00

 Cycle   5  Pass 1  IDiag  1:
 E= -593.207365058820     Delta-E=       -0.000092410416 Rises=F Damp=F
 DIIS: error= 2.75D-04 at cycle   5 NSaved=   5.
 NSaved= 5 IEnMin= 5 EnMin= -593.207365058820     IErMin= 5 ErrMin= 2.75D-04
 ErrMax= 2.75D-04  0.00D+00 EMaxC= 1.00D-01 BMatC= 2.57D-06 BMatP= 3.49D-05
 IDIUse=3 WtCom= 9.97D-01 WtEn= 2.75D-03
 Coeff-Com:  0.232D+00-0.470D+00 0.453D+00-0.743D+00 0.153D+01
 Coeff-En:   0.000D+00 0.000D+00 0.000D+00 0.000D+00 0.100D+01
 Coeff:      0.231D+00-0.468D+00 0.451D+00-0.741D+00 0.153D+01
 Gap=     0.337 Goal=   None    Shift=    0.000
 Gap=     1.028 Goal=   None    Shift=    0.000
 RMSDP=1.22D-03 MaxDP=9.32D-03 DE=-9.24D-05 OVMax= 0.00D+00

 Cycle   6  Pass 1  IDiag  1:
 E= -593.207371845663     Delta-E=       -0.000006786843 Rises=F Damp=F
 DIIS: error= 4.78D-05 at cycle   6 NSaved=   6.
 NSaved= 6 IEnMin= 6 EnMin= -593.207371845663     IErMin= 6 ErrMin= 4.78D-05
 ErrMax= 4.78D-05  0.00D+00 EMaxC= 1.00D-01 BMatC= 8.09D-08 BMatP= 2.57D-06
 IDIUse=1 WtCom= 1.00D+00 WtEn= 0.00D+00
 Coeff-Com: -0.160D-01 0.320D-01-0.245D-01 0.986D-01-0.394D+00 0.130D+01
 Coeff:     -0.160D-01 0.320D-01-0.245D-01 0.986D-01-0.394D+00 0.130D+01
 Gap=     0.337 Goal=   None    Shift=    0.000
 Gap=     1.028 Goal=   None    Shift=    0.000
 RMSDP=8.83D-05 MaxDP=6.75D-04 DE=-6.79D-06 OVMax= 0.00D+00

 Cycle   7  Pass 1  IDiag  1:
 E= -593.207371954350     Delta-E=       -0.000000108686 Rises=F Damp=F
 DIIS: error= 5.90D-06 at cycle   7 NSaved=   7.
 NSaved= 7 IEnMin= 7 EnMin= -593.207371954350     IErMin= 7 ErrMin= 5.90D-06
 ErrMax= 5.90D-06  0.00D+00 EMaxC= 1.00D-01 BMatC= 1.84D-09 BMatP= 8.09D-08
 IDIUse=1 WtCom= 1.00D+00 WtEn= 0.00D+00
 Coeff-Com:  0.317D-02-0.629D-02 0.450D-02-0.839D-02 0.262D-01-0.199D+00
 Coeff-Com:  0.118D+01
 Coeff:      0.317D-02-0.629D-02 0.450D-02-0.839D-02 0.262D-01-0.199D+00
 Coeff:      0.118D+01
 Gap=     0.337 Goal=   None    Shift=    0.000
 Gap=     1.028 Goal=   None    Shift=    0.000
 RMSDP=1.36D-05 MaxDP=1.06D-04 DE=-1.09D-07 OVMax= 0.00D+00

 Cycle   8  Pass 1  IDiag  1:
 E= -593.207371956203     Delta-E=       -0.000000001853 Rises=F Damp=F
 DIIS: error= 1.05D-06 at cycle   8 NSaved=   8.
 NSaved= 8 IEnMin= 8 EnMin= -593.207371956203     IErMin= 8 ErrMin= 1.05D-06
 ErrMax= 1.05D-06  0.00D+00 EMaxC= 1.00D-01 BMatC= 5.60D-11 BMatP= 1.84D-09
 IDIUse=1 WtCom= 1.00D+00 WtEn= 0.00D+00
 Coeff-Com: -0.712D-03 0.141D-02-0.991D-03-0.182D-03 0.413D-02 0.191D-01
 Coeff-Com: -0.339D+00 0.132D+01
 Coeff:     -0.712D-03 0.141D-02-0.991D-03-0.182D-03 0.413D-02 0.191D-01
 Coeff:     -0.339D+00 0.132D+01
 Gap=     0.337 Goal=   None    Shift=    0.000
 Gap=     1.028 Goal=   None    Shift=    0.000
 RMSDP=1.14D-06 MaxDP=1.14D-05 DE=-1.85D-09 OVMax= 0.00D+00

 Cycle   9  Pass 1  IDiag  1:
 E= -593.207371956239     Delta-E=       -0.000000000036 Rises=F Damp=F
 DIIS: error= 1.11D-07 at cycle   9 NSaved=   9.
 NSaved= 9 IEnMin= 9 EnMin= -593.207371956239     IErMin= 9 ErrMin= 1.11D-07
 ErrMax= 1.11D-07  0.00D+00 EMaxC= 1.00D-01 BMatC= 8.08D-13 BMatP= 5.60D-11
 IDIUse=1 WtCom= 1.00D+00 WtEn= 0.00D+00
 Coeff-Com: -0.375D-04 0.815D-04-0.140D-03 0.696D-03-0.250D-02 0.184D-02
 Coeff-Com:  0.538D-01-0.300D+00 0.125D+01
 Coeff:     -0.375D-04 0.815D-04-0.140D-03 0.696D-03-0.250D-02 0.184D-02
 Coeff:      0.538D-01-0.300D+00 0.125D+01
 Gap=     0.337 Goal=   None    Shift=    0.000
 Gap=     1.028 Goal=   None    Shift=    0.000
 RMSDP=1.35D-07 MaxDP=9.47D-07 DE=-3.62D-11 OVMax= 0.00D+00

 Cycle  10  Pass 1  IDiag  1:
 E= -593.207371956239     Delta-E=       -0.000000000001 Rises=F Damp=F
 DIIS: error= 1.20D-08 at cycle  10 NSaved=  10.
 NSaved=10 IEnMin=10 EnMin= -593.207371956239     IErMin=10 ErrMin= 1.20D-08
 ErrMax= 1.20D-08  0.00D+00 EMaxC= 1.00D-01 BMatC= 1.03D-14 BMatP= 8.08D-13
 IDIUse=1 WtCom= 1.00D+00 WtEn= 0.00D+00
 Coeff-Com:  0.218D-04-0.448D-04 0.508D-04-0.148D-03 0.459D-03-0.614D-03
 Coeff-Com: -0.602D-02 0.415D-01-0.265D+00 0.123D+01
 Coeff:      0.218D-04-0.448D-04 0.508D-04-0.148D-03 0.459D-03-0.614D-03
 Coeff:     -0.602D-02 0.415D-01-0.265D+00 0.123D+01
 Gap=     0.337 Goal=   None    Shift=    0.000
 Gap=     1.028 Goal=   None    Shift=    0.000
 RMSDP=1.18D-08 MaxDP=7.51D-08 DE=-6.82D-13 OVMax= 0.00D+00

 Cycle  11  Pass 1  IDiag  1:
 E= -593.207371956240     Delta-E=       -0.000000000000 Rises=F Damp=F
 DIIS: error= 2.43D-09 at cycle  11 NSaved=  11.
 NSaved=11 IEnMin=11 EnMin= -593.207371956240     IErMin=11 ErrMin= 2.43D-09
 ErrMax= 2.43D-09  0.00D+00 EMaxC= 1.00D-01 BMatC= 3.33D-16 BMatP= 1.03D-14
 IDIUse=1 WtCom= 1.00D+00 WtEn= 0.00D+00
 Coeff-Com:  0.414D-06-0.789D-06-0.310D-06 0.346D-05-0.144D-04-0.426D-04
 Coeff-Com:  0.704D-03-0.341D-02 0.289D-01-0.284D+00 0.126D+01
 Coeff:      0.414D-06-0.789D-06-0.310D-06 0.346D-05-0.144D-04-0.426D-04
 Coeff:      0.704D-03-0.341D-02 0.289D-01-0.284D+00 0.126D+01
 Gap=     0.337 Goal=   None    Shift=    0.000
 Gap=     1.028 Goal=   None    Shift=    0.000
 RMSDP=4.74D-09 MaxDP=3.57D-08 DE=-4.55D-13 OVMax= 0.00D+00

 SCF Done:  E(UHF) =  -593.207371956     A.U. after   11 cycles
            NFock= 11  Conv=0.47D-08     -V/T= 1.9967
 <Sx>= 0.0000 <Sy>= 0.0000 <Sz>= 1.0000 <S**2>= 2.0021 S= 1.0007
 <L.S>= 0.000000000000E+00
 KE= 5.951900799139D+02 PE=-1.429942035628D+03 EE= 2.331659445846D+02
 Annihilation of the first spin contaminant:
 S**2 before annihilation     2.0021,   after     2.0000
 Leave Link  502 at Mon Mar 28 14:37:48 2022, MaxMem=  9663676416 cpu:               3.5 elap:               0.1
 (Enter /nopt/nrel/apps/gaussian/g16C_1/g16/l801.exe)
 Windowed orbitals will be sorted by symmetry type.
 ExpMin= 8.21D-02 ExpMax= 7.72D+02 ExpMxC= 7.72D+02 IAcc=3 IRadAn=         5 AccDes= 0.00D+00
 HarFok:  IExCor=  205 AccDes= 0.00D+00 IRadAn=         5 IDoV=-2 UseB2=F ITyADJ=14
 ICtDFT= 12500011 ScaDFX=  1.000000  1.000000  1.000000  1.000000
 Largest valence mixing into a core orbital is  7.18D-02
 Largest core mixing into a valence orbital is  6.24D-02
 Range of M.O.s used for correlation:    10    14
 NBasis=    14 NAE=    11 NBE=     9 NFC=     9 NFV=     0
 NROrb=      5 NOA=     2 NOB=     0 NVA=     3 NVB=     5
 Leave Link  801 at Mon Mar 28 14:37:48 2022, MaxMem=  9663676416 cpu:               2.5 elap:               0.1
 (Enter /nopt/nrel/apps/gaussian/g16C_1/g16/l804.exe)
 Open-shell transformation, MDV=  9663676416 ITran=4 ISComp=2.
 Unit  1 TFree=         14490 TCopy=          1303.
 Semi-Direct transformation.
 ModeAB=           2 MOrb=             2 LenV=    9663555426
 LASXX=           19 LTotXX=          19 LenRXX=          19
 LTotAB=          52 MaxLAS=        1050 LenRXY=        1050
 NonZer=        1230 LenScr=      785920 LnRSAI=           0
 LnScr1=           0 LExtra=      220700 Total=      1007689
 MaxDsk= 34359738368 SrtSym=           F ITran=            4
 DoSDTr:  NPSUse= 36
 JobTyp=1 Pass  1:  I=   1 to   2.
 (rs|ai) integrals will be sorted in core.
 Complete sort for first half transformation.
 First half transformation complete.
 Complete sort for second half transformation.
 Second half transformation complete.
 Spin components of T(2) and E(2):
     alpha-alpha T2 =       0.0000000000D+00 E2=      0.0000000000D+00
     alpha-beta  T2 =       0.0000000000D+00 E2=      0.0000000000D+00
     beta-beta   T2 =       0.0000000000D+00 E2=      0.0000000000D+00
 ANorm=    0.1000000000D+01
 E2 =     0.0000000000D+00 EUMP2 =    -0.59320737195624D+03
 Leave Link  804 at Mon Mar 28 14:37:48 2022, MaxMem=  9663676416 cpu:               1.9 elap:               0.1
 (Enter /nopt/nrel/apps/gaussian/g16C_1/g16/l913.exe)
 CIDS:  MDV=  9663676416.
 Frozen-core window:  NFC=   9 NFV=   0.
 IFCWin=0 IBDFC=1 NFBD=     0     0 NFCmp=     0     0 NFFFC=     0     0
 Using original routines for 1st iteration.
 Using DD4UQ or CC4UQ for 2nd and later iterations.
 Keep R2 and R3 ints in memory in symmetry-blocked form, NReq=7219196.
 FoFCou: FMM=F IPFlag=           0 FMFlag=           0 FMFlg1=           0
         NFxFlg=           0 DoJE=F BraDBF=F KetDBF=F FulRan=T
         wScrn=  0.000000 ICntrl=       600 IOpCl=  0 I1Cent=           0 NGrid=           0
         NMat0=    1 NMatS0=    105 NMatT0=    0 NMatD0=    1 NMtDS0=    0 NMtDT0=    0
 Petite list used in FoFCou.
 CIDS: In Core Option IDoMem=           1.
 Coupled Cluster theory with single and double substitutions
 ===========================================================
 Iterations= 200 Convergence= 0.100D-06
 Produce multiple copies of IABC intergrals
 Iteration Nr.   1
 **********************
 DD1Dir will call FoFMem   1 times, MxPair=         2
 NAB=     0 NAA=     1 NBB=     0.
 MP4(R+Q)=  0.00000000D+00
 Maximum subspace dimension=  5
 A-vector RMS=  0.0000000D+00 Max=  0.0000000D+00 conv= 1.00D-05.
 RLE energy=        0.0000000000
 E3=        0.00000000D+00        EUMP3=      -0.59320737196D+03
 E4(DQ)=    0.00000000D+00        UMP4(DQ)=   -0.59320737196D+03
 E4(SDQ)=   0.00000000D+00        UMP4(SDQ)=  -0.59320737196D+03
 VARIATIONAL ENERGIES WITH THE FIRST-ORDER WAVEFUNCTION:
 DE(Corr)=  0.00000000E+00 E(Corr)=     -593.20737196    
 NORM(A)=   0.10000000D+01
 Iteration Nr.   2
 **********************
 DD1Dir will call FoFMem   1 times, MxPair=         2
 NAB=     0 NAA=     1 NBB=     0.
 A-vector RMS=  0.0000000D+00 Max=  0.0000000D+00 conv= 1.00D-05.
 RLE energy=        0.0000000000
 DE(Corr)=  0.00000000E+00 E(CORR)=     -593.20737196     Delta= 0.00D+00
 NORM(A)=   0.10000000D+01
 CI/CC converged in    2 iterations to DelEn= 0.00D+00 Conv= 1.00D-07 ErrA1= 0.00D+00 Conv= 1.00D-05
 Wavefunction amplitudes converged. E(Corr)=     -593.20737196    
 Largest amplitude= 0.00D+00
 Discarding MO integrals.
 Leave Link  913 at Mon Mar 28 14:37:48 2022, MaxMem=  9663676416 cpu:               2.8 elap:               0.1
 (Enter /nopt/nrel/apps/gaussian/g16C_1/g16/l601.exe)
 Copying SCF densities to generalized density rwf, IOpCl= 1 IROHF=0.

 **********************************************************************

            Population analysis using the SCF Density.

 **********************************************************************

 Orbital symmetries:
 Alpha Orbitals:
       Occupied  (SG) (SG) (SG) (PI) (PI) (SG) (SG) (PI) (PI) (SG)
                 (SG)
       Virtual   (PI) (PI) (SG)
 Beta  Orbitals:
       Occupied  (SG) (SG) (PI) (PI) (SG) (SG) (SG) (PI) (PI)
       Virtual   (SG) (SG) (PI) (PI) (SG)
 The electronic state is 3-SG.
 Alpha  occ. eigenvalues -- -131.88652 -14.12762 -11.23654 -11.22300 -11.22300
 Alpha  occ. eigenvalues --   -1.70910  -1.02467  -0.87711  -0.87711  -0.31772
 Alpha  occ. eigenvalues --   -0.01840
 Alpha virt. eigenvalues --    0.31891   0.31891   0.37489
  Beta  occ. eigenvalues -- -131.87545 -14.11107 -11.21735 -11.21735 -11.20873
  Beta  occ. eigenvalues --   -1.65405  -0.90083  -0.85723  -0.85723
  Beta virt. eigenvalues --    0.17124   0.37871   0.38255   0.38255   0.57869
          Condensed to atoms (all electrons):
               1          2
     1  H    1.334582  -0.258573
     2  K   -0.258573  19.182563
          Atomic-Atomic Spin Densities.
               1          2
     1  H    1.231646  -0.420310
     2  K   -0.420310   1.608974
 Mulliken charges and spin densities:
               1          2
     1  H   -0.076009   0.811336
     2  K    0.076009   1.188664
 Sum of Mulliken charges =   0.00000   2.00000
 Mulliken charges and spin densities with hydrogens summed into heavy atoms:
               1          2
     2  K    0.000000   2.000000
 N-N= 8.378639172900D+00 E-N=-1.429942035671D+03  KE= 5.951900799139D+02
 Symmetry A1   KE= 4.782233164016D+02
 Symmetry A2   KE= 0.000000000000D+00
 Symmetry B1   KE= 5.848338175614D+01
 Symmetry B2   KE= 5.848338175614D+01
 Symmetry A1   SP= 2.000000000000D+00
 Symmetry A2   SP= 0.000000000000D+00
 Symmetry B1   SP=-1.639060507214D-15
 Symmetry B2   SP=-4.906735661171D-16

 Atomic contributions to Alpha molecular orbitals:
 Alpha occ 1 OE=-131.887 is K2-s=1.0000
 Alpha occ 2 OE=-14.128 is K2-s=1.0003
 Alpha occ 3 OE=-11.237 is K2-p=1.0001
 Alpha occ 4 OE=-11.223 is K2-p=1.0000
 Alpha occ 5 OE=-11.223 is K2-p=1.0000
 Alpha occ 6 OE=-1.709 is K2-s=0.9463
 Alpha occ 7 OE=-1.025 is K2-p=0.7606 H1-s=0.2082
 Alpha occ 8 OE=-0.877 is K2-p=1.0000
 Alpha occ 9 OE=-0.877 is K2-p=1.0000
 Alpha occ 10 OE=-0.318 is H1-s=0.6313 K2-p=0.2005 K2-s=0.1682
 Alpha occ 11 OE=-0.018 is K2-s=0.7478 K2-p=0.1918
 Alpha vir 12 OE=0.319 is K2-p=1.0000
 Alpha vir 13 OE=0.319 is K2-p=1.0000
 Alpha vir 14 OE=0.375 is K2-p=0.8376 K2-s=0.1060

 Atomic contributions to Beta  molecular orbitals:
 Beta  occ 1 OE=-131.875 is K2-s=1.0000
 Beta  occ 2 OE=-14.111 is K2-s=1.0003
 Beta  occ 3 OE=-11.217 is K2-p=1.0000
 Beta  occ 4 OE=-11.217 is K2-p=1.0000
 Beta  occ 5 OE=-11.209 is K2-p=1.0001
 Beta  occ 6 OE=-1.654 is K2-s=0.9667
 Beta  occ 7 OE=-0.901 is K2-p=0.8771 H1-s=0.1062
 Beta  occ 8 OE=-0.857 is K2-p=1.0000
 Beta  occ 9 OE=-0.857 is K2-p=1.0000
 Beta  vir 10 OE=0.171 is K2-s=0.8954
 Beta  vir 11 OE=0.379 is K2-p=0.8887
 Beta  vir 12 OE=0.383 is K2-p=1.0000
 Beta  vir 13 OE=0.383 is K2-p=1.0000
 Beta  vir 14 OE=0.579 is H1-s=0.7748 K2-p=0.1758
 
 Leave Link  601 at Mon Mar 28 14:37:48 2022, MaxMem=  9663676416 cpu:               1.2 elap:               0.1
 (Enter /nopt/nrel/apps/gaussian/g16C_1/g16/l9999.exe)

 Test job not archived.
 1\1\GINC-R102U34\SP\UCCSD-FC\Gen\H1K1(3)\USER\28-Mar-2022\0\\#P CC
 SD(MaxCyc=200,SaveAmplitudes,ReadAmplitudes)/GEN sp pop=AllOrbitals io
 p(3/33=1,3/36=-1)\\test\\0,3\H,0,0.,0.,0.\K,0,0.,0.,1.2\\Version=ES64L
 -G16RevC.01\State=3-SG\HF=-593.207372\MP2=-593.207372\MP3=-593.207372\
 MP4D=-593.207372\MP4DQ=-593.207372\MP4SDQ=-593.207372\CCSD=-593.207372
 \S2=2.002088\S2-1=0.\S2A=2.000001\RMSD=4.744e-09\PG=C*V [C*(H1K1)]\\@


 MYSTERY IS THE WISDOM OF BLOCKHEADS... HORACE WALPOLE 
 Job cpu time:       0 days  0 hours  0 minutes 30.9 seconds.
 Elapsed time:       0 days  0 hours  0 minutes  1.2 seconds.
 File lengths (MBytes):  RWF=     13 Int=      0 D2E=      0 Chk=      1 Scr=      1
 Normal termination of Gaussian 16 at Mon Mar 28 14:37:48 2022.
