 Entering Gaussian System, Link 0=g16
 Initial command:
 /nopt/nrel/apps/gaussian/g16C_1/g16/l1.exe "/lustre/eaglefs/scratch/user/qc/kh-dissc/kh-1-ccsd-1.3-631g/Gau-16849.inp" -scrdir="/lustre/eaglefs/scratch/user/qc/kh-dissc/kh-1-ccsd-1.3-631g/"
 Default is to use a total of  36 processors:
                               36 via shared-memory
                                1 via Linda
 Entering Link 1 = /nopt/nrel/apps/gaussian/g16C_1/g16/l1.exe PID=     16850.
  
 Copyright (c) 1988-2019, Gaussian, Inc.  All Rights Reserved.
  
 This is part of the Gaussian(R) 16 program.  It is based on
 the Gaussian(R) 09 system (copyright 2009, Gaussian, Inc.),
 the Gaussian(R) 03 system (copyright 2003, Gaussian, Inc.),
 the Gaussian(R) 98 system (copyright 1998, Gaussian, Inc.),
 the Gaussian(R) 94 system (copyright 1995, Gaussian, Inc.),
 the Gaussian 92(TM) system (copyright 1992, Gaussian, Inc.),
 the Gaussian 90(TM) system (copyright 1990, Gaussian, Inc.),
 the Gaussian 88(TM) system (copyright 1988, Gaussian, Inc.),
 the Gaussian 86(TM) system (copyright 1986, Carnegie Mellon
 University), and the Gaussian 82(TM) system (copyright 1983,
 Carnegie Mellon University). Gaussian is a federally registered
 trademark of Gaussian, Inc.
  
 This software contains proprietary and confidential information,
 including trade secrets, belonging to Gaussian, Inc.
  
 This software is provided under written license and may be
 used, copied, transmitted, or stored only in accord with that
 written license.
  
 The following legend is applicable only to US Government
 contracts under FAR:
  
                    RESTRICTED RIGHTS LEGEND
  
 Use, reproduction and disclosure by the US Government is
 subject to restrictions as set forth in subparagraphs (a)
 and (c) of the Commercial Computer Software - Restricted
 Rights clause in FAR 52.227-19.
  
 Gaussian, Inc.
 340 Quinnipiac St., Bldg. 40, Wallingford CT 06492
  
  
 ---------------------------------------------------------------
 Warning -- This program may not be used in any manner that
 competes with the business of Gaussian, Inc. or will provide
 assistance to any competitor of Gaussian, Inc.  The licensee
 of this program is prohibited from giving any competitor of
 Gaussian, Inc. access to this program.  By using this program,
 the user acknowledges that Gaussian, Inc. is engaged in the
 business of creating and licensing software in the field of
 computational chemistry and represents and warrants to the
 licensee that it is not a competitor of Gaussian, Inc. and that
 it will not use this program in any manner prohibited above.
 ---------------------------------------------------------------
  

 Cite this work as:
 Gaussian 16, Revision C.01,
 M. J. Frisch, G. W. Trucks, H. B. Schlegel, G. E. Scuseria, 
 M. A. Robb, J. R. Cheeseman, G. Scalmani, V. Barone, 
 G. A. Petersson, H. Nakatsuji, X. Li, M. Caricato, A. V. Marenich, 
 J. Bloino, B. G. Janesko, R. Gomperts, B. Mennucci, H. P. Hratchian, 
 J. V. Ortiz, A. F. Izmaylov, J. L. Sonnenberg, D. Williams-Young, 
 F. Ding, F. Lipparini, F. Egidi, J. Goings, B. Peng, A. Petrone, 
 T. Henderson, D. Ranasinghe, V. G. Zakrzewski, J. Gao, N. Rega, 
 G. Zheng, W. Liang, M. Hada, M. Ehara, K. Toyota, R. Fukuda, 
 J. Hasegawa, M. Ishida, T. Nakajima, Y. Honda, O. Kitao, H. Nakai, 
 T. Vreven, K. Throssell, J. A. Montgomery, Jr., J. E. Peralta, 
 F. Ogliaro, M. J. Bearpark, J. J. Heyd, E. N. Brothers, K. N. Kudin, 
 V. N. Staroverov, T. A. Keith, R. Kobayashi, J. Normand, 
 K. Raghavachari, A. P. Rendell, J. C. Burant, S. S. Iyengar, 
 J. Tomasi, M. Cossi, J. M. Millam, M. Klene, C. Adamo, R. Cammi, 
 J. W. Ochterski, R. L. Martin, K. Morokuma, O. Farkas, 
 J. B. Foresman, and D. J. Fox, Gaussian, Inc., Wallingford CT, 2019.
 
 ******************************************
 Gaussian 16:  ES64L-G16RevC.01  3-Jul-2019
                28-Mar-2022 
 ******************************************
 %chk=molecule
 Default route: CacheSize=180224 MaxDisk=256GB
 ----------------------------------------------------------------------
 #P CCSD(MaxCyc=200,SaveAmplitudes,ReadAmplitudes)/GEN sp pop=AllOrbita
 ls iop(3/33=1,3/36=-1)
 ----------------------------------------------------------------------
 1/4=180224,38=1,172=1/1;
 2/4=180224,12=2,17=6,18=5,40=1/2;
 3/4=180224,5=7,11=9,25=1,30=1,33=1,36=-1/1,2,3;
 4/4=180224/1;
 5/4=180224,5=2,38=5/2;
 8/4=180224,6=4,9=120000,10=1,24=1/1,4;
 9/4=180224,5=7,6=200,77=1/13;
 6/4=180224,7=2,8=2,9=2,10=2,96=-1/1;
 99/4=180224,5=1,9=1/99;
 Leave Link    1 at Mon Mar 28 14:31:35 2022, MaxMem=           0 cpu:               2.1 elap:               0.1
 (Enter /nopt/nrel/apps/gaussian/g16C_1/g16/l101.exe)
 ----
 test
 ----
 Symbolic Z-matrix:
 Charge =  0 Multiplicity = 1
 H                     0.        0.        0. 
 K                     0.        0.        1.3 
 
 ITRead=  0  0
 MicOpt= -1 -1
 NAtoms=      2 NQM=        2 NQMF=       0 NMMI=      0 NMMIF=      0
                NMic=       0 NMicF=      0.
                    Isotopes and Nuclear Properties:
 (Nuclear quadrupole moments (NQMom) in fm**2, nuclear magnetic moments (NMagM)
  in nuclear magnetons)

  Atom         1           2
 IAtWgt=           1          39
 AtmWgt=   1.0078250  38.9637079
 NucSpn=           1           3
 AtZEff=  -0.0000000  -0.0000000
 NQMom=    0.0000000   5.8500000
 NMagM=    2.7928460   0.3914660
 AtZNuc=   1.0000000  19.0000000
 Leave Link  101 at Mon Mar 28 14:31:36 2022, MaxMem=  9663676416 cpu:               2.7 elap:               0.1
 (Enter /nopt/nrel/apps/gaussian/g16C_1/g16/l202.exe)
                          Input orientation:                          
 ---------------------------------------------------------------------
 Center     Atomic      Atomic             Coordinates (Angstroms)
 Number     Number       Type             X           Y           Z
 ---------------------------------------------------------------------
      1          1           0        0.000000    0.000000    0.000000
      2         19           0        0.000000    0.000000    1.300000
 ---------------------------------------------------------------------
 Stoichiometry    HK
 Framework group  C*V[C*(HK)]
 Deg. of freedom     1
 Full point group                 C*V     NOp   4
 Largest Abelian subgroup         C2V     NOp   4
 Largest concise Abelian subgroup C1      NOp   1
                         Standard orientation:                         
 ---------------------------------------------------------------------
 Center     Atomic      Atomic             Coordinates (Angstroms)
 Number     Number       Type             X           Y           Z
 ---------------------------------------------------------------------
      1          1           0        0.000000    0.000000   -1.235000
      2         19           0        0.000000    0.000000    0.065000
 ---------------------------------------------------------------------
 Rotational constants (GHZ):           0.0000000         304.3938524         304.3938524
 Leave Link  202 at Mon Mar 28 14:31:36 2022, MaxMem=  9663676416 cpu:               1.0 elap:               0.1
 (Enter /nopt/nrel/apps/gaussian/g16C_1/g16/l301.exe)
 General basis read from cards:  (5D, 7F)
                         Coordinates in L301:                         
 ---------------------------------------------------------------------
 Center     Atomic      Atomic             Coordinates (Angstroms)
 Number     Number       Type             X           Y           Z
 ---------------------------------------------------------------------
      1          1           0        0.000000    0.000000   -1.235000
      2         19           0        0.000000    0.000000    0.065000
 ---------------------------------------------------------------------
 Centers:       1
 STO-3G
 ****
 Centers:       2
 6-31G
 ****
 FixB: optimizing general contractions.
 Ernie: Thresh=  0.10000D-02 Tol=  0.10000D-05 Strict=F.
 IA=     1 ShT= 0 ShC= 0 NL=   1 NS=   0.
 IA=     1 L=0 SC=0 ISt=    0 NBk=    0 NP=    0 IndPr=    0.
 IA=     2 ShT= 0 ShC= 0 NL=   1 NS=   0.
 IA=     2 L=0 SC=0 ISt=    0 NBk=    0 NP=    0 IndPr=    0.
 IA=     2 ShT= 1 ShC= 0 NL=   4 NS=   1.
 IA=     2 L=1 SC=0 ISt=    1 NBk=    3 NP=   15 IndPr=    0.
 DoElim1:  L=1 select primitive    1 from    2 using    1 C=-2.50D-03
 DoElim1:  L=1 select primitive    1 from    3 using    1 C=-2.50D-03
 DoElim1:  L=1 select primitive    5 from    3 using    2 C= 1.28D-02
 DoElim2:  L=1 select primitive   15 from    2 using    3 C= 1.14D+00
 DoElim2:  L=1 select primitive   15 from    1 using    3 C= 1.14D+00
 DoElim2:  L=1 select primitive   10 from    1 using    2 C=-5.59D-01
 DoElim1:  L=1 select primitive    1 from    2 using    1 C= 4.09D-03
 DoElim1:  L=1 select primitive    1 from    3 using    1 C= 4.09D-03
 DoElim1:  L=1 select primitive    5 from    3 using    2 C=-1.22D-02
 DoElim2:  L=1 select primitive   15 from    2 using    3 C= 1.01D+00
 DoElim2:  L=1 select primitive   15 from    1 using    3 C= 1.01D+00
 DoElim2:  L=1 select primitive   10 from    1 using    2 C= 4.28D-01
 Delete L=1 primitive   14 from    3 C=  0.00D+00.
 Delete L=1 primitive   12 from    3 C=  0.00D+00.
 Delete L=1 primitive   10 from    3 C=  0.00D+00.
 Delete L=1 primitive    9 from    3 C=  0.00D+00.
 Delete L=1 primitive    8 from    3 C=  0.00D+00.
 Delete L=1 primitive    7 from    3 C=  0.00D+00.
 Delete L=1 primitive    6 from    3 C=  0.00D+00.
 Delete L=1 primitive    5 from    3 C=  0.00D+00.
 Delete L=1 primitive    4 from    3 C=  0.00D+00.
 Delete L=1 primitive    3 from    3 C=  0.00D+00.
 Delete L=1 primitive    2 from    3 C=  0.00D+00.
 Delete L=1 primitive    1 from    3 C=  0.00D+00.
 Delete L=1 primitive   15 from    2 C=  0.00D+00.
 Delete L=1 primitive   13 from    2 C=  0.00D+00.
 Delete L=1 primitive   11 from    2 C=  0.00D+00.
 Delete L=1 primitive    8 from    2 C=  0.00D+00.
 Delete L=1 primitive    6 from    2 C=  0.00D+00.
 Delete L=1 primitive    4 from    2 C=  0.00D+00.
 Delete L=1 primitive    3 from    2 C=  0.00D+00.
 Delete L=1 primitive    2 from    2 C=  0.00D+00.
 Delete L=1 primitive    1 from    2 C=  0.00D+00.
 Delete L=1 primitive   15 from    1 C=  0.00D+00.
 Delete L=1 primitive   14 from    1 C=  0.00D+00.
 Delete L=1 primitive   13 from    1 C=  0.00D+00.
 Delete L=1 primitive   12 from    1 C=  0.00D+00.
 Delete L=1 primitive   11 from    1 C=  0.00D+00.
 Delete L=1 primitive   10 from    1 C=  0.00D+00.
 Delete L=1 primitive    9 from    1 C=  0.00D+00.
 Delete L=1 primitive    7 from    1 C=  0.00D+00.
 Delete L=1 primitive    5 from    1 C=  0.00D+00.
 IA=     2 L=1 SC=0 ISt=    0 NBk=    0 NP=    0 IndPr=   15.
 LdAtmC:  AtmChg=     1.000000    19.000000
 AtZEff=     -1.0000000    -22.4200000
 NEqShl: 
              1            2            3            4
     1            1            1            1            1
     2            2            2            2            2
     3            3            3            3            3
     4            4            4            4            4
     5            5            5            5            5
     6            6            6            6            6
 NEqBas: 
              1            2            3            4
     1            1            1            1            1
     2            2            2            2            2
     3            3            3            3            3
     4            4           -4           -4            4
     5            5           -5            5           -5
     6            6            6            6            6
     7            7            7            7            7
     8            8           -8           -8            8
     9            9           -9            9           -9
    10           10           10           10           10
    11           11           11           11           11
    12           12          -12          -12           12
    13           13          -13           13          -13
    14           14           14           14           14
    15           15           15           15           15
    16           16          -16          -16           16
    17           17          -17           17          -17
    18           18           18           18           18
 There are    10 symmetry adapted cartesian basis functions of A1  symmetry.
   1         1   1   1   1
   2         2   2   2   2
   3         3   3   3   3
   4         6   6   6   6
   5         7   7   7   7
   6        10  10  10  10
   7        11  11  11  11
   8        14  14  14  14
   9        15  15  15  15
  10        18  18  18  18
 There are     0 symmetry adapted cartesian basis functions of A2  symmetry.
 There are     4 symmetry adapted cartesian basis functions of B1  symmetry.
  11         4   4   4   4
  12         8   8   8   8
  13        12  12  12  12
  14        16  16  16  16
 There are     4 symmetry adapted cartesian basis functions of B2  symmetry.
  15         5   5   5   5
  16         9   9   9   9
  17        13  13  13  13
  18        17  17  17  17
 Order= 1 2 4 3
 Reordered character table:
              1            2            3            4            5
     1            1            1            1            1            1
     2            2            1            1           -1           -1
     3            4            1           -1           -1            1
     4            3            1           -1            1           -1
 NEqShl: 
              1            2            3            4
     1            1            1            1            1
     2            2            2            2            2
     3            3            3            3            3
     4            4            4            4            4
     5            5            5            5            5
     6            6            6            6            6
 NEqBas: 
              1            2            3            4
     1            1            1            1            1
     2            2            2            2            2
     3            3            3            3            3
     4            4           -4           -4            4
     5            5           -5            5           -5
     6            6            6            6            6
     7            7            7            7            7
     8            8           -8           -8            8
     9            9           -9            9           -9
    10           10           10           10           10
    11           11           11           11           11
    12           12          -12          -12           12
    13           13          -13           13          -13
    14           14           14           14           14
    15           15           15           15           15
    16           16          -16          -16           16
    17           17          -17           17          -17
    18           18           18           18           18
 There are    10 symmetry adapted basis functions of A1  symmetry.
   1         1   1   1   1
   2         2   2   2   2
   3         3   3   3   3
   4         6   6   6   6
   5         7   7   7   7
   6        10  10  10  10
   7        11  11  11  11
   8        14  14  14  14
   9        15  15  15  15
  10        18  18  18  18
 There are     0 symmetry adapted basis functions of A2  symmetry.
 There are     4 symmetry adapted basis functions of B1  symmetry.
  11         4   4   4   4
  12         8   8   8   8
  13        12  12  12  12
  14        16  16  16  16
 There are     4 symmetry adapted basis functions of B2  symmetry.
  15         5   5   5   5
  16         9   9   9   9
  17        13  13  13  13
  18        17  17  17  17
 Order= 1 2 4 3
 Reordered character table:
              1            2            3            4            5
     1            1            1            1            1            1
     2            2            1            1           -1           -1
     3            4            1           -1           -1            1
     4            3            1           -1            1           -1
    18 basis functions,    73 primitive gaussians,    18 cartesian basis functions
    10 alpha electrons       10 beta electrons
       nuclear repulsion energy         7.7341284673 Hartrees.
 IS=     1 IAt=     1 ISR=     1 T=0 IP=      1 IndIP=      1 IndIPD=      0 C=  2.769344D-01  0.000000D+00                             NZ=T
 IS=     1 IAt=     1 ISR=     1 T=0 IP=      2 IndIP=      2 IndIPD=      1 C=  2.678389D-01  0.000000D+00                             NZ=T
 IS=     1 IAt=     1 ISR=     1 T=0 IP=      3 IndIP=      3 IndIPD=      2 C=  8.347367D-02  0.000000D+00                             NZ=T
 IS=     2 IAt=     2 ISR=     1 T=0 IP=      1 IndIP=      4 IndIPD=      0 C=  3.087425D+00  0.000000D+00                             NZ=T
 IS=     2 IAt=     2 ISR=     1 T=0 IP=      2 IndIP=      5 IndIPD=      1 C=  5.701433D+00  0.000000D+00                             NZ=T
 IS=     2 IAt=     2 ISR=     1 T=0 IP=      3 IndIP=      6 IndIPD=      2 C=  9.250015D+00  0.000000D+00                             NZ=T
 IS=     2 IAt=     2 ISR=     1 T=0 IP=      4 IndIP=      7 IndIPD=      3 C=  1.230326D+01  0.000000D+00                             NZ=T
 IS=     2 IAt=     2 ISR=     1 T=0 IP=      5 IndIP=      8 IndIPD=      4 C=  1.065796D+01  0.000000D+00                             NZ=T
 IS=     2 IAt=     2 ISR=     1 T=0 IP=      6 IndIP=      9 IndIPD=      5 C=  3.342971D+00  0.000000D+00                             NZ=T
 IS=     3 IAt=     2 ISR=     2 T=1 IP=      1 IndIP=     10 IndIPD=      0 C= -2.223866D-01  1.815760D+01                             NZ=T
 IS=     3 IAt=     2 ISR=     2 T=1 IP=      2 IndIP=     11 IndIPD=      1 C= -1.002089D+00  2.312008D+01                             NZ=T
 IS=     3 IAt=     2 ISR=     2 T=1 IP=      3 IndIP=     12 IndIPD=      2 C= -1.577145D+00  2.391470D+01                             NZ=T
 IS=     3 IAt=     2 ISR=     2 T=1 IP=      4 IndIP=     13 IndIPD=      3 C=  3.266752D-01  1.731669D+01                             NZ=T
 IS=     3 IAt=     2 ISR=     2 T=1 IP=      5 IndIP=     14 IndIPD=      4 C=  1.883992D+00  7.409963D+00                             NZ=T
 IS=     3 IAt=     2 ISR=     2 T=1 IP=      6 IndIP=     15 IndIPD=      5 C=  6.647292D-01  1.141461D+00                             NZ=T
 IS=     4 IAt=     2 ISR=     3 T=1 IP=      1 IndIP=     16 IndIPD=      0 C=  5.815266D-02 -3.826900D-01                             NZ=T
 IS=     4 IAt=     2 ISR=     3 T=1 IP=      2 IndIP=     17 IndIPD=      1 C=  4.293450D-01 -5.702211D-02                             NZ=T
 IS=     4 IAt=     2 ISR=     3 T=1 IP=      3 IndIP=     18 IndIPD=      2 C= -3.375882D-03  5.815028D-01                             NZ=T
 IS=     4 IAt=     2 ISR=     3 T=1 IP=      4 IndIP=     19 IndIPD=      3 C= -3.337346D-01  4.537484D-01                             NZ=T
 IS=     4 IAt=     2 ISR=     3 T=1 IP=      5 IndIP=     20 IndIPD=      4 C= -1.666638D-01  1.525572D-01                             NZ=T
 IS=     4 IAt=     2 ISR=     3 T=1 IP=      6 IndIP=     21 IndIPD=      5 C= -1.112643D-02  1.425313D-02                             NZ=T
 IS=     5 IAt=     2 ISR=     4 T=1 IP=      1 IndIP=     22 IndIPD=      0 C= -2.908072D-02  2.974856D-02                             NZ=T
 IS=     5 IAt=     2 ISR=     4 T=1 IP=      2 IndIP=     23 IndIPD=      1 C= -6.704811D-02 -9.373500D-03                             NZ=T
 IS=     5 IAt=     2 ISR=     4 T=1 IP=      3 IndIP=     24 IndIPD=      2 C=  7.095388D-02  2.474121D-02                             NZ=T
 IS=     6 IAt=     2 ISR=     5 T=1 IP=      1 IndIP=     25 IndIPD=      0 C=  3.284259D-02  8.442781D-03                             NZ=T
 IExCor=    0 DFT=F Ex=HF Corr=None ExCW=0 ScaHFX=  1.000000
 ScaDFX=  1.000000  1.000000  1.000000  1.000000 ScalE2=  1.000000  1.000000
 IRadAn=      5 IRanWt=     -1 IRanGd=            0 ICorTp=0 IEmpDi=  4
 NAtoms=    2 NActive=    2 NUniq=    2 SFac= 1.00D+00 NAtFMM=   60 NAOKFM=F Big=F
 Integral buffers will be    131072 words long.
 Raffenetti 1 integral format.
 Two-electron integral symmetry is turned on.
 Leave Link  301 at Mon Mar 28 14:31:36 2022, MaxMem=  9663676416 cpu:               2.3 elap:               0.1
 (Enter /nopt/nrel/apps/gaussian/g16C_1/g16/l302.exe)
 NPDir=0 NMtPBC=     1 NCelOv=     1 NCel=       1 NClECP=     1 NCelD=      1
         NCelK=      1 NCelE2=     1 NClLst=     1 CellRange=     0.0.
 One-electron integrals computed using PRISM.
 One-electron integral symmetry used in STVInt
 Entering OneElI...
 Calculate overlap and kinetic energy integrals
    NBasis =  18  MinDer = 0  MaxDer = 0
 Requested accuracy = 0.1000D-12
 Symmetry will be used
 PrmmSu-InSpLW:  IPartL=    0 NPrtUS=   36 NPrtUL=    1 DoSpLW=F IThBeg=    0 IThEnd=   35 NThAct=   36.
 PrSmSu:  IncTry=   512 NBBP=             21 NTPThr=   100 NPartT=   36 Incr=           1 LDynOK=F GPUOK=F.
 PrsmSu:  NPrtUS=  36 ThrOK=T IAlg=1 LenDen=           0 ISkipM=0 DoSpLW=F IThBeg=    0 IThEnd=   35.
 Prism:   IPart=     0 DynPar=F LinDyn=F Incr=           1.
 PRISM was handed   268430758 working-precision words and    21 shell-pairs
 PRISM was handed   268430758 working-precision words and    21 shell-pairs
 PRISM was handed   268430758 working-precision words and    21 shell-pairs
 PRISM was handed   268430758 working-precision words and    21 shell-pairs
 PRISM was handed   268430758 working-precision words and    21 shell-pairs
 PRISM was handed   268430758 working-precision words and    21 shell-pairs
 PRISM was handed   268430758 working-precision words and    21 shell-pairs
 PRISM was handed   268430758 working-precision words and    21 shell-pairs
 IPart=  5 NShTot=           0 NBatch=           0 AvBLen=         0.0
 IPart= 16 NShTot=           0 NBatch=           0 AvBLen=         0.0
 IPart=  4 NShTot=           0 NBatch=           0 AvBLen=         0.0
 IPart=  3 NShTot=           0 NBatch=           0 AvBLen=         0.0
 IPart= 19 NShTot=           0 NBatch=           0 AvBLen=         0.0
 IPart=  9 NShTot=           0 NBatch=           0 AvBLen=         0.0
 PRISM was handed   268430758 working-precision words and    21 shell-pairs
 PRISM was handed   268430758 working-precision words and    21 shell-pairs
 IPart= 21 NShTot=           0 NBatch=           0 AvBLen=         0.0
 PRISM was handed   268430758 working-precision words and    21 shell-pairs
 PRISM was handed   268430758 working-precision words and    21 shell-pairs
 PRISM was handed   268430758 working-precision words and    21 shell-pairs
 PRISM was handed   268430758 working-precision words and    21 shell-pairs
 PRISM was handed   268430758 working-precision words and    21 shell-pairs
 IPart= 34 NShTot=           0 NBatch=           0 AvBLen=         0.0
 PRISM was handed   268430758 working-precision words and    21 shell-pairs
 PRISM was handed   268430758 working-precision words and    21 shell-pairs
 PRISM was handed   268430758 working-precision words and    21 shell-pairs
 IPart= 27 NShTot=           0 NBatch=           0 AvBLen=         0.0
 PRISM was handed   268430758 working-precision words and    21 shell-pairs
 PRISM was handed   268430758 working-precision words and    21 shell-pairs
 IPart=  0 NShTot=          14 NBatch=          14 AvBLen=         1.0
 IPart=  2 NShTot=           2 NBatch=           2 AvBLen=         1.0
 IPart=  8 NShTot=           0 NBatch=           0 AvBLen=         0.0
 IPart= 12 NShTot=           0 NBatch=           0 AvBLen=         0.0
 IPart= 10 NShTot=           0 NBatch=           0 AvBLen=         0.0
 IPart= 14 NShTot=           0 NBatch=           0 AvBLen=         0.0
 IPart= 32 NShTot=           0 NBatch=           0 AvBLen=         0.0
 IPart= 25 NShTot=           0 NBatch=           0 AvBLen=         0.0
 IPart= 23 NShTot=           0 NBatch=           0 AvBLen=         0.0
 IPart= 13 NShTot=           0 NBatch=           0 AvBLen=         0.0
 IPart= 30 NShTot=           0 NBatch=           0 AvBLen=         0.0
 PRISM was handed   268430758 working-precision words and    21 shell-pairs
 PRISM was handed   268430758 working-precision words and    21 shell-pairs
 PRISM was handed   268430758 working-precision words and    21 shell-pairs
 IPart= 20 NShTot=           0 NBatch=           0 AvBLen=         0.0
 PRISM was handed   268430758 working-precision words and    21 shell-pairs
 IPart= 15 NShTot=           0 NBatch=           0 AvBLen=         0.0
 PRISM was handed   268430758 working-precision words and    21 shell-pairs
 PRISM was handed   268430758 working-precision words and    21 shell-pairs
 PRISM was handed   268430758 working-precision words and    21 shell-pairs
 IPart=  1 NShTot=           5 NBatch=           5 AvBLen=         1.0
 IPart= 26 NShTot=           0 NBatch=           0 AvBLen=         0.0
 IPart= 17 NShTot=           0 NBatch=           0 AvBLen=         0.0
 PRISM was handed   268430758 working-precision words and    21 shell-pairs
 PRISM was handed   268430758 working-precision words and    21 shell-pairs
 IPart= 31 NShTot=           0 NBatch=           0 AvBLen=         0.0
 IPart=  6 NShTot=           0 NBatch=           0 AvBLen=         0.0
 PRISM was handed   268430758 working-precision words and    21 shell-pairs
 PRISM was handed   268430758 working-precision words and    21 shell-pairs
 PRISM was handed   268430758 working-precision words and    21 shell-pairs
 PRISM was handed   268430758 working-precision words and    21 shell-pairs
 PRISM was handed   268430758 working-precision words and    21 shell-pairs
 PRISM was handed   268430758 working-precision words and    21 shell-pairs
 IPart= 28 NShTot=           0 NBatch=           0 AvBLen=         0.0
 IPart= 33 NShTot=           0 NBatch=           0 AvBLen=         0.0
 PRISM was handed   268430758 working-precision words and    21 shell-pairs
 IPart= 35 NShTot=           0 NBatch=           0 AvBLen=         0.0
 IPart= 11 NShTot=           0 NBatch=           0 AvBLen=         0.0
 IPart= 18 NShTot=           0 NBatch=           0 AvBLen=         0.0
 IPart= 29 NShTot=           0 NBatch=           0 AvBLen=         0.0
 IPart= 24 NShTot=           0 NBatch=           0 AvBLen=         0.0
 IPart=  7 NShTot=           0 NBatch=           0 AvBLen=         0.0
 IPart= 22 NShTot=           0 NBatch=           0 AvBLen=         0.0
 PrSmSu:  NxtVal=             37.
 *** Overlap *** 
                1             2             3             4             5 
      1  0.100000D+01
      2  0.636022D-02  0.100000D+01
      3  0.520870D-01  0.267715D+00  0.100000D+01
      4  0.000000D+00  0.000000D+00  0.000000D+00  0.100000D+01
      5  0.000000D+00  0.000000D+00  0.000000D+00  0.000000D+00  0.100000D+01
      6 -0.206516D-01  0.000000D+00  0.000000D+00  0.000000D+00  0.000000D+00
      7 -0.305252D+00 -0.141866D-01 -0.343708D+00  0.000000D+00  0.000000D+00
      8  0.000000D+00  0.000000D+00  0.000000D+00  0.295021D+00  0.000000D+00
      9  0.000000D+00  0.000000D+00  0.000000D+00  0.000000D+00  0.295021D+00
     10 -0.363815D+00  0.000000D+00  0.000000D+00  0.000000D+00  0.000000D+00
     11  0.331902D+00 -0.420963D-02 -0.188996D-01  0.000000D+00  0.000000D+00
     12  0.000000D+00  0.000000D+00  0.000000D+00  0.163990D-01  0.000000D+00
     13  0.000000D+00  0.000000D+00  0.000000D+00  0.000000D+00  0.163990D-01
     14 -0.325343D+00  0.000000D+00  0.000000D+00  0.000000D+00  0.000000D+00
     15  0.268564D+00  0.572576D-02  0.448310D-01  0.000000D+00  0.000000D+00
     16  0.000000D+00  0.000000D+00  0.000000D+00  0.380126D-02  0.000000D+00
     17  0.000000D+00  0.000000D+00  0.000000D+00  0.000000D+00  0.380126D-02
     18 -0.158340D+00  0.000000D+00  0.000000D+00  0.000000D+00  0.000000D+00
                6             7             8             9            10 
      6  0.100000D+01
      7  0.000000D+00  0.100000D+01
      8  0.000000D+00  0.000000D+00  0.100000D+01
      9  0.000000D+00  0.000000D+00  0.000000D+00  0.100000D+01
     10  0.295021D+00  0.000000D+00  0.000000D+00  0.000000D+00  0.100000D+01
     11  0.000000D+00 -0.172500D+00  0.000000D+00  0.000000D+00  0.000000D+00
     12  0.000000D+00  0.000000D+00  0.234662D+00  0.000000D+00  0.000000D+00
     13  0.000000D+00  0.000000D+00  0.000000D+00  0.234662D+00  0.000000D+00
     14  0.163990D-01  0.000000D+00  0.000000D+00  0.000000D+00  0.234662D+00
     15  0.000000D+00 -0.243058D+00  0.000000D+00  0.000000D+00  0.000000D+00
     16  0.000000D+00  0.000000D+00  0.967693D-01  0.000000D+00  0.000000D+00
     17  0.000000D+00  0.000000D+00  0.000000D+00  0.967693D-01  0.000000D+00
     18  0.380126D-02  0.000000D+00  0.000000D+00  0.000000D+00  0.967693D-01
               11            12            13            14            15 
     11  0.100000D+01
     12  0.000000D+00  0.100000D+01
     13  0.000000D+00  0.000000D+00  0.100000D+01
     14  0.000000D+00  0.000000D+00  0.000000D+00  0.100000D+01
     15  0.894230D+00  0.000000D+00  0.000000D+00  0.000000D+00  0.100000D+01
     16  0.000000D+00  0.807003D+00  0.000000D+00  0.000000D+00  0.000000D+00
     17  0.000000D+00  0.000000D+00  0.807003D+00  0.000000D+00  0.000000D+00
     18  0.000000D+00  0.000000D+00  0.000000D+00  0.807003D+00  0.000000D+00
               16            17            18 
     16  0.100000D+01
     17  0.000000D+00  0.100000D+01
     18  0.000000D+00  0.000000D+00  0.100000D+01
 *** Kinetic Energy *** 
                1             2             3             4             5 
      1  0.760032D+00
      2 -0.218585D-02  0.173384D+03
      3 -0.145447D-01 -0.928634D+01  0.818361D+01
      4  0.000000D+00  0.000000D+00  0.000000D+00  0.275843D+02
      5  0.000000D+00  0.000000D+00  0.000000D+00  0.000000D+00  0.275843D+02
      6  0.327241D-02  0.000000D+00  0.000000D+00  0.000000D+00  0.000000D+00
      7 -0.249761D-01  0.803816D+00  0.546853D+00  0.000000D+00  0.000000D+00
      8  0.000000D+00  0.000000D+00  0.000000D+00  0.918943D+00  0.000000D+00
      9  0.000000D+00  0.000000D+00  0.000000D+00  0.000000D+00  0.918943D+00
     10 -0.137877D+00  0.000000D+00  0.000000D+00  0.000000D+00  0.000000D+00
     11  0.205082D-01 -0.171808D-01 -0.100476D+00  0.000000D+00  0.000000D+00
     12  0.000000D+00  0.000000D+00  0.000000D+00  0.261790D-01  0.000000D+00
     13  0.000000D+00  0.000000D+00  0.000000D+00  0.000000D+00  0.261790D-01
     14 -0.449525D-01  0.000000D+00  0.000000D+00  0.000000D+00  0.000000D+00
     15  0.116547D-01  0.283688D-03  0.221202D-02  0.000000D+00  0.000000D+00
     16  0.000000D+00  0.000000D+00  0.000000D+00  0.312691D-03  0.000000D+00
     17  0.000000D+00  0.000000D+00  0.000000D+00  0.000000D+00  0.312691D-03
     18 -0.117684D-01  0.000000D+00  0.000000D+00  0.000000D+00  0.000000D+00
                6             7             8             9            10 
      6  0.275843D+02
      7  0.000000D+00  0.837208D+00
      8  0.000000D+00  0.000000D+00  0.154401D+01
      9  0.000000D+00  0.000000D+00  0.000000D+00  0.154401D+01
     10  0.918943D+00  0.000000D+00  0.000000D+00  0.000000D+00  0.154401D+01
     11  0.000000D+00  0.104916D+00  0.000000D+00  0.000000D+00  0.000000D+00
     12  0.000000D+00  0.000000D+00  0.663770D-01  0.000000D+00  0.000000D+00
     13  0.000000D+00  0.000000D+00  0.000000D+00  0.663770D-01  0.000000D+00
     14  0.261790D-01  0.000000D+00  0.000000D+00  0.000000D+00  0.663770D-01
     15  0.000000D+00 -0.115010D-01  0.000000D+00  0.000000D+00  0.000000D+00
     16  0.000000D+00  0.000000D+00  0.753429D-02  0.000000D+00  0.000000D+00
     17  0.000000D+00  0.000000D+00  0.000000D+00  0.753429D-02  0.000000D+00
     18  0.312691D-03  0.000000D+00  0.000000D+00  0.000000D+00  0.753429D-02
               11            12            13            14            15 
     11  0.774479D-01
     12  0.000000D+00  0.962091D-01
     13  0.000000D+00  0.000000D+00  0.962091D-01
     14  0.000000D+00  0.000000D+00  0.000000D+00  0.962091D-01
     15  0.298062D-01  0.000000D+00  0.000000D+00  0.000000D+00  0.247815D-01
     16  0.000000D+00  0.466086D-01  0.000000D+00  0.000000D+00  0.000000D+00
     17  0.000000D+00  0.000000D+00  0.466086D-01  0.000000D+00  0.000000D+00
     18  0.000000D+00  0.000000D+00  0.000000D+00  0.466086D-01  0.000000D+00
               16            17            18 
     16  0.413025D-01
     17  0.000000D+00  0.413025D-01
     18  0.000000D+00  0.000000D+00  0.413025D-01
 Entering OneElI...
 Calculate potential energy integrals
    NBasis =  18  MinDer = 0  MaxDer = 0
 Requested accuracy = 0.1000D-12
 Symmetry will be used
 PrmmSu-InSpLW:  IPartL=    0 NPrtUS=   36 NPrtUL=    1 DoSpLW=F IThBeg=    0 IThEnd=   35 NThAct=   36.
 PrSmSu:  IncTry=   512 NBBP=             42 NTPThr=   100 NPartT=   36 Incr=           1 LDynOK=F GPUOK=F.
 PrsmSu:  NPrtUS=  36 ThrOK=T IAlg=1 LenDen=           0 ISkipM=0 DoSpLW=F IThBeg=    0 IThEnd=   35.
 Prism:   IPart=     0 DynPar=F LinDyn=F Incr=           1.
 PRISM was handed   268430912 working-precision words and    21 shell-pairs
 PRISM was handed   268430912 working-precision words and    21 shell-pairs
 PRISM was handed   268430912 working-precision words and    21 shell-pairs
 PRISM was handed   268430912 working-precision words and    21 shell-pairs
 PRISM was handed   268430912 working-precision words and    21 shell-pairs
 PRISM was handed   268430912 working-precision words and    21 shell-pairs
 PRISM was handed   268430912 working-precision words and    21 shell-pairs
 PRISM was handed   268430912 working-precision words and    21 shell-pairs
 PRISM was handed   268430912 working-precision words and    21 shell-pairs
 PRISM was handed   268430912 working-precision words and    21 shell-pairs
 PRISM was handed   268430912 working-precision words and    21 shell-pairs
 PRISM was handed   268430912 working-precision words and    21 shell-pairs
 PRISM was handed   268430912 working-precision words and    21 shell-pairs
 PRISM was handed   268430912 working-precision words and    21 shell-pairs
 PRISM was handed   268430912 working-precision words and    21 shell-pairs
 PRISM was handed   268430912 working-precision words and    21 shell-pairs
 PRISM was handed   268430912 working-precision words and    21 shell-pairs
 PRISM was handed   268430912 working-precision words and    21 shell-pairs
 PRISM was handed   268430912 working-precision words and    21 shell-pairs
 PRISM was handed   268430912 working-precision words and    21 shell-pairs
 PRISM was handed   268430912 working-precision words and    21 shell-pairs
 PRISM was handed   268430912 working-precision words and    21 shell-pairs
 PRISM was handed   268430912 working-precision words and    21 shell-pairs
 PRISM was handed   268430912 working-precision words and    21 shell-pairs
 PRISM was handed   268430912 working-precision words and    21 shell-pairs
 PRISM was handed   268430912 working-precision words and    21 shell-pairs
 PRISM was handed   268430912 working-precision words and    21 shell-pairs
 PRISM was handed   268430912 working-precision words and    21 shell-pairs
 PRISM was handed   268430912 working-precision words and    21 shell-pairs
 PRISM was handed   268430912 working-precision words and    21 shell-pairs
 PRISM was handed   268430912 working-precision words and    21 shell-pairs
 PRISM was handed   268430912 working-precision words and    21 shell-pairs
 PRISM was handed   268430912 working-precision words and    21 shell-pairs
 PRISM was handed   268430912 working-precision words and    21 shell-pairs
 PRISM was handed   268430912 working-precision words and    21 shell-pairs
 PRISM was handed   268430912 working-precision words and    21 shell-pairs
 IPart= 18 NShTot=           0 NBatch=           0 AvBLen=         0.0
 IPart= 13 NShTot=           0 NBatch=           0 AvBLen=         0.0
 IPart= 33 NShTot=           0 NBatch=           0 AvBLen=         0.0
 IPart= 11 NShTot=           0 NBatch=           0 AvBLen=         0.0
 IPart= 35 NShTot=           0 NBatch=           0 AvBLen=         0.0
 IPart= 26 NShTot=           0 NBatch=           0 AvBLen=         0.0
 IPart=  7 NShTot=           0 NBatch=           0 AvBLen=         0.0
 IPart= 21 NShTot=           0 NBatch=           0 AvBLen=         0.0
 IPart= 24 NShTot=           0 NBatch=           0 AvBLen=         0.0
 IPart= 12 NShTot=           0 NBatch=           0 AvBLen=         0.0
 IPart=  3 NShTot=           0 NBatch=           0 AvBLen=         0.0
 IPart= 20 NShTot=           0 NBatch=           0 AvBLen=         0.0
 IPart= 10 NShTot=           0 NBatch=           0 AvBLen=         0.0
 IPart= 27 NShTot=           0 NBatch=           0 AvBLen=         0.0
 IPart= 30 NShTot=           0 NBatch=           0 AvBLen=         0.0
 IPart= 29 NShTot=           0 NBatch=           0 AvBLen=         0.0
 IPart= 15 NShTot=           0 NBatch=           0 AvBLen=         0.0
 IPart= 32 NShTot=           0 NBatch=           0 AvBLen=         0.0
 IPart= 14 NShTot=           0 NBatch=           0 AvBLen=         0.0
 IPart= 23 NShTot=           0 NBatch=           0 AvBLen=         0.0
 IPart=  5 NShTot=           0 NBatch=           0 AvBLen=         0.0
 IPart= 19 NShTot=           0 NBatch=           0 AvBLen=         0.0
 IPart= 31 NShTot=           0 NBatch=           0 AvBLen=         0.0
 IPart= 34 NShTot=           0 NBatch=           0 AvBLen=         0.0
 IPart= 22 NShTot=           0 NBatch=           0 AvBLen=         0.0
 IPart= 17 NShTot=           0 NBatch=           0 AvBLen=         0.0
 IPart=  8 NShTot=           0 NBatch=           0 AvBLen=         0.0
 IPart=  6 NShTot=           0 NBatch=           0 AvBLen=         0.0
 IPart= 28 NShTot=           0 NBatch=           0 AvBLen=         0.0
 IPart=  4 NShTot=           0 NBatch=           0 AvBLen=         0.0
 IPart=  9 NShTot=           0 NBatch=           0 AvBLen=         0.0
 IPart= 16 NShTot=           0 NBatch=           0 AvBLen=         0.0
 IPart= 25 NShTot=           0 NBatch=           0 AvBLen=         0.0
 IPart=  2 NShTot=           4 NBatch=           2 AvBLen=         2.0
 IPart=  1 NShTot=          10 NBatch=           5 AvBLen=         2.0
 IPart=  0 NShTot=          28 NBatch=          14 AvBLen=         2.0
 PrSmSu:  NxtVal=             37.
 ***** Potential Energy ***** 
                1             2             3             4             5 
      1  0.888861D+01
      2  0.113734D+01  0.354188D+03
      3  0.220961D+01  0.380773D+02  0.613475D+02
      4  0.000000D+00  0.000000D+00  0.000000D+00  0.708057D+02
      5  0.000000D+00  0.000000D+00  0.000000D+00  0.000000D+00  0.708057D+02
      6 -0.678815D+00 -0.531986D-02 -0.344605D-01  0.000000D+00  0.000000D+00
      7 -0.432548D+01 -0.179766D+01 -0.127069D+02  0.000000D+00  0.000000D+00
      8  0.000000D+00  0.000000D+00  0.000000D+00  0.110618D+02  0.000000D+00
      9  0.000000D+00  0.000000D+00  0.000000D+00  0.000000D+00  0.110618D+02
     10 -0.420182D+01 -0.263154D-03 -0.180519D-01  0.000000D+00  0.000000D+00
     11  0.231274D+01 -0.769255D+00 -0.104049D+01  0.000000D+00  0.000000D+00
     12  0.000000D+00  0.000000D+00  0.000000D+00  0.577356D+00  0.000000D+00
     13  0.000000D+00  0.000000D+00  0.000000D+00  0.000000D+00  0.577356D+00
     14 -0.225916D+01 -0.132561D-04 -0.106483D-02  0.000000D+00  0.000000D+00
     15  0.214393D+01  0.102586D+01  0.193310D+01  0.000000D+00  0.000000D+00
     16  0.000000D+00  0.000000D+00  0.000000D+00  0.125550D+00  0.000000D+00
     17  0.000000D+00  0.000000D+00  0.000000D+00  0.000000D+00  0.125550D+00
     18 -0.103198D+01 -0.255040D-05 -0.258483D-03  0.000000D+00  0.000000D+00
                6             7             8             9            10 
      6  0.708117D+02
      7  0.198261D-01  0.185874D+02
      8  0.000000D+00  0.000000D+00  0.168473D+02
      9  0.000000D+00  0.000000D+00  0.000000D+00  0.168473D+02
     10  0.110673D+02  0.119699D+00  0.000000D+00  0.000000D+00  0.169296D+02
     11  0.644189D-03 -0.136677D+01  0.000000D+00  0.000000D+00 -0.432269D-01
     12  0.000000D+00  0.000000D+00  0.240691D+01  0.000000D+00  0.000000D+00
     13  0.000000D+00  0.000000D+00  0.000000D+00  0.240691D+01  0.000000D+00
     14  0.577725D+00  0.255419D-01  0.000000D+00  0.000000D+00  0.243402D+01
     15 -0.245016D-02 -0.334546D+01  0.000000D+00  0.000000D+00 -0.442332D-01
     16  0.000000D+00  0.000000D+00  0.885850D+00  0.000000D+00  0.000000D+00
     17  0.000000D+00  0.000000D+00  0.000000D+00  0.885850D+00  0.000000D+00
     18  0.125647D+00  0.100603D-01  0.000000D+00  0.000000D+00  0.897173D+00
               11            12            13            14            15 
     11  0.489654D+01
     12  0.000000D+00  0.412325D+01
     13  0.000000D+00  0.000000D+00  0.412325D+01
     14 -0.727956D-01  0.000000D+00  0.000000D+00  0.416332D+01
     15  0.403271D+01  0.000000D+00  0.000000D+00 -0.604373D-01  0.408936D+01
     16  0.000000D+00  0.282985D+01  0.000000D+00  0.000000D+00  0.000000D+00
     17  0.000000D+00  0.000000D+00  0.282985D+01  0.000000D+00  0.000000D+00
     18 -0.405654D-01  0.000000D+00  0.000000D+00  0.285186D+01 -0.383611D-01
               16            17            18 
     16  0.272958D+01
     17  0.000000D+00  0.272958D+01
     18  0.000000D+00  0.000000D+00  0.274378D+01
 ****** Core Hamiltonian ****** 
                1             2             3             4             5 
      1 -0.812858D+01
      2 -0.113952D+01 -0.180804D+03
      3 -0.222416D+01 -0.473636D+02 -0.531639D+02
      4  0.000000D+00  0.000000D+00  0.000000D+00 -0.432214D+02
      5  0.000000D+00  0.000000D+00  0.000000D+00  0.000000D+00 -0.432214D+02
      6  0.682087D+00  0.531986D-02  0.344605D-01  0.000000D+00  0.000000D+00
      7  0.430050D+01  0.260148D+01  0.132537D+02  0.000000D+00  0.000000D+00
      8  0.000000D+00  0.000000D+00  0.000000D+00 -0.101429D+02  0.000000D+00
      9  0.000000D+00  0.000000D+00  0.000000D+00  0.000000D+00 -0.101429D+02
     10  0.406395D+01  0.263154D-03  0.180519D-01  0.000000D+00  0.000000D+00
     11 -0.229223D+01  0.752074D+00  0.940012D+00  0.000000D+00  0.000000D+00
     12  0.000000D+00  0.000000D+00  0.000000D+00 -0.551177D+00  0.000000D+00
     13  0.000000D+00  0.000000D+00  0.000000D+00  0.000000D+00 -0.551177D+00
     14  0.221420D+01  0.132561D-04  0.106483D-02  0.000000D+00  0.000000D+00
     15 -0.213227D+01 -0.102558D+01 -0.193088D+01  0.000000D+00  0.000000D+00
     16  0.000000D+00  0.000000D+00  0.000000D+00 -0.125237D+00  0.000000D+00
     17  0.000000D+00  0.000000D+00  0.000000D+00  0.000000D+00 -0.125237D+00
     18  0.102021D+01  0.255040D-05  0.258483D-03  0.000000D+00  0.000000D+00
                6             7             8             9            10 
      6 -0.432275D+02
      7 -0.198261D-01 -0.177502D+02
      8  0.000000D+00  0.000000D+00 -0.153033D+02
      9  0.000000D+00  0.000000D+00  0.000000D+00 -0.153033D+02
     10 -0.101484D+02 -0.119699D+00  0.000000D+00  0.000000D+00 -0.153856D+02
     11 -0.644189D-03  0.147169D+01  0.000000D+00  0.000000D+00  0.432269D-01
     12  0.000000D+00  0.000000D+00 -0.234054D+01  0.000000D+00  0.000000D+00
     13  0.000000D+00  0.000000D+00  0.000000D+00 -0.234054D+01  0.000000D+00
     14 -0.551546D+00 -0.255419D-01  0.000000D+00  0.000000D+00 -0.236764D+01
     15  0.245016D-02  0.333396D+01  0.000000D+00  0.000000D+00  0.442332D-01
     16  0.000000D+00  0.000000D+00 -0.878315D+00  0.000000D+00  0.000000D+00
     17  0.000000D+00  0.000000D+00  0.000000D+00 -0.878315D+00  0.000000D+00
     18 -0.125334D+00 -0.100603D-01  0.000000D+00  0.000000D+00 -0.889639D+00
               11            12            13            14            15 
     11 -0.481909D+01
     12  0.000000D+00 -0.402704D+01
     13  0.000000D+00  0.000000D+00 -0.402704D+01
     14  0.727956D-01  0.000000D+00  0.000000D+00 -0.406711D+01
     15 -0.400291D+01  0.000000D+00  0.000000D+00  0.604373D-01 -0.406458D+01
     16  0.000000D+00 -0.278324D+01  0.000000D+00  0.000000D+00  0.000000D+00
     17  0.000000D+00  0.000000D+00 -0.278324D+01  0.000000D+00  0.000000D+00
     18  0.405654D-01  0.000000D+00  0.000000D+00 -0.280525D+01  0.383611D-01
               16            17            18 
     16 -0.268828D+01
     17  0.000000D+00 -0.268828D+01
     18  0.000000D+00  0.000000D+00 -0.270248D+01
 SVDSVc IOpt=   1 NormSV=T IR=1
 SVDSVc V= 2.31D+00 1.93D+00 1.40D+00 1.28D+00 9.82D-01 8.30D-01 5.79D-01 4.34D-01 1.68D-01 9.51D-02
 SVDSVc IOpt=   1 NormSV=T IR=3
 SVDSVc V= 1.88D+00 1.25D+00 6.91D-01 1.80D-01
 SVDSVc IOpt=   1 NormSV=T IR=4
 SVDSVc V= 1.88D+00 1.25D+00 6.91D-01 1.80D-01
 TstOVc:  Largest diagonal error= 3.11D-15 IB=1 I=    9.
 TstOVc:  Largest same sym error= 1.12D-15 IB=1 I=   10 J=    9.
 TstOVc:  Largest diff sym error= 0.00D+00 IB=0 JB=0 I=    0 J=    0.
 Orthogonalized basis functions: 
                 1             2             3             4             5 
      1   0.305598D+00 -0.601871D-01  0.450687D-01 -0.156722D+00 -0.266160D+00
      2   0.185292D-01  0.182257D-01  0.407710D+00  0.678209D-01  0.710938D+00
      3   0.717947D-01  0.561173D-01  0.583489D+00  0.719950D-01 -0.143144D-01
      4   0.000000D+00  0.000000D+00  0.000000D+00  0.000000D+00  0.000000D+00
      5   0.000000D+00  0.000000D+00  0.000000D+00  0.000000D+00  0.000000D+00
      6  -0.404186D-01  0.698717D-01 -0.204109D-01  0.567386D+00 -0.256178D+00
      7  -0.189816D+00 -0.124537D+00 -0.358124D+00 -0.225085D-01  0.526803D+00
      8   0.000000D+00  0.000000D+00  0.000000D+00  0.000000D+00  0.000000D+00
      9   0.000000D+00  0.000000D+00  0.000000D+00  0.000000D+00  0.000000D+00
     10  -0.144508D+00  0.187710D+00 -0.266385D-01  0.536273D+00  0.981550D-03
     11   0.315657D+00  0.269261D+00 -0.217048D+00  0.598692D-01  0.215292D+00
     12   0.000000D+00  0.000000D+00  0.000000D+00  0.000000D+00  0.000000D+00
     13   0.000000D+00  0.000000D+00  0.000000D+00  0.000000D+00  0.000000D+00
     14  -0.210974D+00  0.402083D+00  0.330175D-01 -0.200394D+00 -0.488799D-01
     15   0.315112D+00  0.278250D+00 -0.167723D+00  0.741963D-01  0.199132D+00
     16   0.000000D+00  0.000000D+00  0.000000D+00  0.000000D+00  0.000000D+00
     17   0.000000D+00  0.000000D+00  0.000000D+00  0.000000D+00  0.000000D+00
     18  -0.177264D+00  0.380832D+00  0.425397D-01 -0.299373D+00 -0.101294D+00
                 6             7             8             9            10 
      1   0.509469D+00 -0.308270D+00  0.918592D+00  0.365616D+00 -0.386688D+00
      2   0.362154D+00 -0.490121D+00 -0.193481D+00 -0.125068D-01 -0.815470D-03
      3  -0.228243D+00  0.805999D+00  0.427508D+00  0.444851D-01  0.815728D-01
      4   0.000000D+00  0.000000D+00  0.000000D+00  0.000000D+00  0.000000D+00
      5   0.000000D+00  0.000000D+00  0.000000D+00  0.000000D+00  0.000000D+00
      6   0.683282D+00  0.335442D+00 -0.365292D+00  0.388076D-01  0.319038D-01
      7   0.231286D+00  0.574514D+00  0.662753D+00  0.107914D+00 -0.259458D+00
      8   0.000000D+00  0.000000D+00  0.000000D+00  0.000000D+00  0.000000D+00
      9   0.000000D+00  0.000000D+00  0.000000D+00  0.000000D+00  0.000000D+00
     10  -0.367062D+00 -0.499397D+00  0.764995D+00 -0.160346D+00 -0.111073D+00
     11  -0.548921D-01  0.126602D+00  0.230875D-01  0.173091D+00  0.228585D+01
     12   0.000000D+00  0.000000D+00  0.000000D+00  0.000000D+00  0.000000D+00
     13   0.000000D+00  0.000000D+00  0.000000D+00  0.000000D+00  0.000000D+00
     14   0.814250D-01 -0.131008D-01 -0.368752D-01  0.175046D+01 -0.297755D+00
     15  -0.137140D+00  0.180417D+00 -0.219589D+00 -0.274972D+00 -0.221789D+01
     16   0.000000D+00  0.000000D+00  0.000000D+00  0.000000D+00  0.000000D+00
     17   0.000000D+00  0.000000D+00  0.000000D+00  0.000000D+00  0.000000D+00
     18   0.281053D+00  0.209491D-01  0.181175D+00 -0.161058D+01  0.209627D+00
                11            12            13            14            15 
      1   0.000000D+00  0.000000D+00  0.000000D+00  0.000000D+00  0.000000D+00
      2   0.000000D+00  0.000000D+00  0.000000D+00  0.000000D+00  0.000000D+00
      3   0.000000D+00  0.000000D+00  0.000000D+00  0.000000D+00  0.000000D+00
      4   0.827827D-01  0.650522D+00 -0.813669D+00  0.900001D-01  0.000000D+00
      5   0.000000D+00  0.000000D+00  0.000000D+00  0.000000D+00  0.827827D-01
      6   0.000000D+00  0.000000D+00  0.000000D+00  0.000000D+00  0.000000D+00
      7   0.000000D+00  0.000000D+00  0.000000D+00  0.000000D+00  0.000000D+00
      8   0.213287D+00  0.558240D+00  0.856396D+00 -0.322873D+00  0.000000D+00
      9   0.000000D+00  0.000000D+00  0.000000D+00  0.000000D+00  0.213287D+00
     10   0.000000D+00  0.000000D+00  0.000000D+00  0.000000D+00  0.000000D+00
     11   0.000000D+00  0.000000D+00  0.000000D+00  0.000000D+00  0.000000D+00
     12   0.498483D+00 -0.137035D+00 -0.114594D-01  0.168244D+01  0.000000D+00
     13   0.000000D+00  0.000000D+00  0.000000D+00  0.000000D+00  0.498483D+00
     14   0.000000D+00  0.000000D+00  0.000000D+00  0.000000D+00  0.000000D+00
     15   0.000000D+00  0.000000D+00  0.000000D+00  0.000000D+00  0.000000D+00
     16   0.480441D+00 -0.217733D+00 -0.228099D+00 -0.161779D+01  0.000000D+00
     17   0.000000D+00  0.000000D+00  0.000000D+00  0.000000D+00  0.480441D+00
     18   0.000000D+00  0.000000D+00  0.000000D+00  0.000000D+00  0.000000D+00
                16            17            18 
      1   0.000000D+00  0.000000D+00  0.000000D+00
      2   0.000000D+00  0.000000D+00  0.000000D+00
      3   0.000000D+00  0.000000D+00  0.000000D+00
      4   0.000000D+00  0.000000D+00  0.000000D+00
      5   0.650522D+00 -0.813669D+00  0.900001D-01
      6   0.000000D+00  0.000000D+00  0.000000D+00
      7   0.000000D+00  0.000000D+00  0.000000D+00
      8   0.000000D+00  0.000000D+00  0.000000D+00
      9   0.558240D+00  0.856396D+00 -0.322873D+00
     10   0.000000D+00  0.000000D+00  0.000000D+00
     11   0.000000D+00  0.000000D+00  0.000000D+00
     12   0.000000D+00  0.000000D+00  0.000000D+00
     13  -0.137035D+00 -0.114594D-01  0.168244D+01
     14   0.000000D+00  0.000000D+00  0.000000D+00
     15   0.000000D+00  0.000000D+00  0.000000D+00
     16   0.000000D+00  0.000000D+00  0.000000D+00
     17  -0.217733D+00 -0.228099D+00 -0.161779D+01
     18   0.000000D+00  0.000000D+00  0.000000D+00
 NBasis=    18 RedAO= T EigKep=  9.51D-02  NBF=    10     0     4     4
 NBsUse=    18 1.00D-06 EigRej= -1.00D+00 NBFU=    10     0     4     4
 Leave Link  302 at Mon Mar 28 14:31:36 2022, MaxMem=  9663676416 cpu:               3.5 elap:               0.1
 (Enter /nopt/nrel/apps/gaussian/g16C_1/g16/l303.exe)
 DipDrv will not compute anything.
 Fermi contact integrals: 
                 1             2 
      1   0.628247D+00  0.363313D-01
      2   0.000000D+00  0.443431D+02
      3   0.000000D+00  0.737756D-01
      4   0.000000D+00  0.000000D+00
      5   0.000000D+00  0.000000D+00
      6   0.000000D+00  0.000000D+00
      7  -0.275683D-01 -0.274029D-01
      8   0.000000D+00  0.000000D+00
      9   0.000000D+00  0.000000D+00
     10  -0.692753D-01  0.000000D+00
     11   0.394403D-01 -0.251750D-01
     12   0.000000D+00  0.000000D+00
     13   0.000000D+00  0.000000D+00
     14  -0.434756D-01  0.000000D+00
     15   0.297259D-01  0.328426D-01
     16   0.000000D+00  0.000000D+00
     17   0.000000D+00  0.000000D+00
     18  -0.187727D-01  0.000000D+00
 Leave Link  303 at Mon Mar 28 14:31:36 2022, MaxMem=  9663676416 cpu:               2.0 elap:               0.1
 (Enter /nopt/nrel/apps/gaussian/g16C_1/g16/l401.exe)
 ExpMin= 1.65D-02 ExpMax= 3.16D+04 ExpMxC= 4.74D+03 IAcc=3 IRadAn=         5 AccDes= 0.00D+00
 Harris functional with IExCor=  205 and IRadAn=       5 diagonalized for initial guess.
 HarFok:  IExCor=  205 AccDes= 0.00D+00 IRadAn=         5 IDoV= 1 UseB2=F ITyADJ=14
 ICtDFT=  3500011 ScaDFX=  1.000000  1.000000  1.000000  1.000000
 FoFCou: FMM=F IPFlag=           0 FMFlag=      100000 FMFlg1=           0
         NFxFlg=           0 DoJE=T BraDBF=F KetDBF=T FulRan=T
         wScrn=  0.000000 ICntrl=       500 IOpCl=  0 I1Cent=   200000004 NGrid=           0
         NMat0=    1 NMatS0=      1 NMatT0=    0 NMatD0=    1 NMtDS0=    0 NMtDT0=    0
 Petite list used in FoFCou.
 Harris En= -598.841354429526    
 JPrj=0 DoOrth=F DoCkMO=F.
 Initial guess orbital symmetries:
       Occupied  (SG) (SG) (SG) (PI) (PI) (SG) (SG) (PI) (PI) (SG)
       Virtual   (SG) (PI) (PI) (SG) (SG) (PI) (PI) (SG)
 The electronic state of the initial guess is 1-SG.
 Leave Link  401 at Mon Mar 28 14:31:36 2022, MaxMem=  9663676416 cpu:               3.9 elap:               0.1
 (Enter /nopt/nrel/apps/gaussian/g16C_1/g16/l502.exe)
 Keep R1 ints in memory in symmetry-blocked form, NReq=7244180.
 FoFCou: FMM=F IPFlag=           0 FMFlag=           0 FMFlg1=           0
         NFxFlg=           0 DoJE=F BraDBF=F KetDBF=F FulRan=T
         wScrn=  0.000000 ICntrl=       600 IOpCl=  0 I1Cent=           0 NGrid=           0
         NMat0=    1 NMatS0=    171 NMatT0=    0 NMatD0=    1 NMtDS0=    0 NMtDT0=    0
 Petite list used in FoFCou.
 Closed shell SCF:
 Using DIIS extrapolation, IDIIS=  1040.
 NGot=  9663676416 LenX=  9663668636 LenY=  9663667754
 Requested convergence on RMS density matrix=1.00D-08 within 128 cycles.
 Requested convergence on MAX density matrix=1.00D-06.
 Requested convergence on             energy=1.00D-06.
 No special actions if energy rises.

 Cycle   1  Pass 1  IDiag  1:
 E= -599.374123292881    
 DIIS: error= 1.72D-02 at cycle   1 NSaved=   1.
 NSaved= 1 IEnMin= 1 EnMin= -599.374123292881     IErMin= 1 ErrMin= 1.72D-02
 ErrMax= 1.72D-02  0.00D+00 EMaxC= 1.00D-01 BMatC= 9.16D-03 BMatP= 9.16D-03
 IDIUse=3 WtCom= 8.28D-01 WtEn= 1.72D-01
 Coeff-Com:  0.100D+01
 Coeff-En:   0.100D+01
 Coeff:      0.100D+01
 Gap=     0.227 Goal=   None    Shift=    0.000
 GapD=    0.227 DampG=1.000 DampE=0.500 DampFc=0.5000 IDamp=-1.
 Damping current iteration by 5.00D-01
 RMSDP=1.43D-02 MaxDP=1.68D-01              OVMax= 0.00D+00

 Cycle   2  Pass 1  IDiag  1:
 E= -599.383067236273     Delta-E=       -0.008943943392 Rises=F Damp=T
 DIIS: error= 8.32D-03 at cycle   2 NSaved=   2.
 NSaved= 2 IEnMin= 2 EnMin= -599.383067236273     IErMin= 2 ErrMin= 8.32D-03
 ErrMax= 8.32D-03  0.00D+00 EMaxC= 1.00D-01 BMatC= 2.29D-03 BMatP= 9.16D-03
 IDIUse=3 WtCom= 9.17D-01 WtEn= 8.32D-02
 Coeff-Com: -0.978D+00 0.198D+01
 Coeff-En:   0.000D+00 0.100D+01
 Coeff:     -0.897D+00 0.190D+01
 Gap=     0.233 Goal=   None    Shift=    0.000
 RMSDP=6.97D-03 MaxDP=7.77D-02 DE=-8.94D-03 OVMax= 0.00D+00

 Cycle   3  Pass 1  IDiag  1:
 E= -599.392050581743     Delta-E=       -0.008983345470 Rises=F Damp=F
 DIIS: error= 2.49D-04 at cycle   3 NSaved=   3.
 NSaved= 3 IEnMin= 3 EnMin= -599.392050581743     IErMin= 3 ErrMin= 2.49D-04
 ErrMax= 2.49D-04  0.00D+00 EMaxC= 1.00D-01 BMatC= 2.58D-06 BMatP= 2.29D-03
 IDIUse=3 WtCom= 9.98D-01 WtEn= 2.49D-03
 Coeff-Com:  0.155D+00-0.318D+00 0.116D+01
 Coeff-En:   0.000D+00 0.000D+00 0.100D+01
 Coeff:      0.154D+00-0.317D+00 0.116D+01
 Gap=     0.232 Goal=   None    Shift=    0.000
 RMSDP=5.27D-04 MaxDP=3.78D-03 DE=-8.98D-03 OVMax= 0.00D+00

 Cycle   4  Pass 1  IDiag  1:
 E= -599.392060036513     Delta-E=       -0.000009454770 Rises=F Damp=F
 DIIS: error= 6.24D-05 at cycle   4 NSaved=   4.
 NSaved= 4 IEnMin= 4 EnMin= -599.392060036513     IErMin= 4 ErrMin= 6.24D-05
 ErrMax= 6.24D-05  0.00D+00 EMaxC= 1.00D-01 BMatC= 8.75D-08 BMatP= 2.58D-06
 IDIUse=1 WtCom= 1.00D+00 WtEn= 0.00D+00
 Coeff-Com: -0.698D-02 0.161D-01-0.227D+00 0.122D+01
 Coeff:     -0.698D-02 0.161D-01-0.227D+00 0.122D+01
 Gap=     0.232 Goal=   None    Shift=    0.000
 RMSDP=1.73D-04 MaxDP=1.65D-03 DE=-9.45D-06 OVMax= 0.00D+00

 Cycle   5  Pass 1  IDiag  1:
 E= -599.392060644379     Delta-E=       -0.000000607866 Rises=F Damp=F
 DIIS: error= 1.41D-05 at cycle   5 NSaved=   5.
 NSaved= 5 IEnMin= 5 EnMin= -599.392060644379     IErMin= 5 ErrMin= 1.41D-05
 ErrMax= 1.41D-05  0.00D+00 EMaxC= 1.00D-01 BMatC= 3.88D-09 BMatP= 8.75D-08
 IDIUse=1 WtCom= 1.00D+00 WtEn= 0.00D+00
 Coeff-Com: -0.251D-02 0.430D-02 0.402D-01-0.366D+00 0.132D+01
 Coeff:     -0.251D-02 0.430D-02 0.402D-01-0.366D+00 0.132D+01
 Gap=     0.232 Goal=   None    Shift=    0.000
 RMSDP=4.54D-05 MaxDP=4.57D-04 DE=-6.08D-07 OVMax= 0.00D+00

 Cycle   6  Pass 1  IDiag  1:
 E= -599.392060689381     Delta-E=       -0.000000045001 Rises=F Damp=F
 DIIS: error= 4.17D-06 at cycle   6 NSaved=   6.
 NSaved= 6 IEnMin= 6 EnMin= -599.392060689381     IErMin= 6 ErrMin= 4.17D-06
 ErrMax= 4.17D-06  0.00D+00 EMaxC= 1.00D-01 BMatC= 3.17D-10 BMatP= 3.88D-09
 IDIUse=1 WtCom= 1.00D+00 WtEn= 0.00D+00
 Coeff-Com:  0.295D-03-0.483D-03-0.118D-01 0.115D+00-0.626D+00 0.152D+01
 Coeff:      0.295D-03-0.483D-03-0.118D-01 0.115D+00-0.626D+00 0.152D+01
 Gap=     0.232 Goal=   None    Shift=    0.000
 RMSDP=1.07D-05 MaxDP=1.06D-04 DE=-4.50D-08 OVMax= 0.00D+00

 Cycle   7  Pass 1  IDiag  1:
 E= -599.392060692350     Delta-E=       -0.000000002969 Rises=F Damp=F
 DIIS: error= 4.13D-07 at cycle   7 NSaved=   7.
 NSaved= 7 IEnMin= 7 EnMin= -599.392060692350     IErMin= 7 ErrMin= 4.13D-07
 ErrMax= 4.13D-07  0.00D+00 EMaxC= 1.00D-01 BMatC= 2.11D-12 BMatP= 3.17D-10
 IDIUse=1 WtCom= 1.00D+00 WtEn= 0.00D+00
 Coeff-Com: -0.230D-03 0.431D-03 0.217D-02-0.282D-01 0.175D+00-0.466D+00
 Coeff-Com:  0.132D+01
 Coeff:     -0.230D-03 0.431D-03 0.217D-02-0.282D-01 0.175D+00-0.466D+00
 Coeff:      0.132D+01
 Gap=     0.232 Goal=   None    Shift=    0.000
 RMSDP=1.13D-06 MaxDP=8.26D-06 DE=-2.97D-09 OVMax= 0.00D+00

 Cycle   8  Pass 1  IDiag  1:
 E= -599.392060692368     Delta-E=       -0.000000000019 Rises=F Damp=F
 DIIS: error= 6.48D-08 at cycle   8 NSaved=   8.
 NSaved= 8 IEnMin= 8 EnMin= -599.392060692368     IErMin= 8 ErrMin= 6.48D-08
 ErrMax= 6.48D-08  0.00D+00 EMaxC= 1.00D-01 BMatC= 7.11D-14 BMatP= 2.11D-12
 IDIUse=1 WtCom= 1.00D+00 WtEn= 0.00D+00
 Coeff-Com:  0.307D-04-0.572D-04-0.337D-03 0.425D-02-0.290D-01 0.817D-01
 Coeff-Com: -0.443D+00 0.139D+01
 Coeff:      0.307D-04-0.572D-04-0.337D-03 0.425D-02-0.290D-01 0.817D-01
 Coeff:     -0.443D+00 0.139D+01
 Gap=     0.232 Goal=   None    Shift=    0.000
 RMSDP=2.92D-07 MaxDP=2.09D-06 DE=-1.86D-11 OVMax= 0.00D+00

 Cycle   9  Pass 1  IDiag  1:
 E= -599.392060692369     Delta-E=       -0.000000000001 Rises=F Damp=F
 DIIS: error= 2.25D-09 at cycle   9 NSaved=   9.
 NSaved= 9 IEnMin= 9 EnMin= -599.392060692369     IErMin= 9 ErrMin= 2.25D-09
 ErrMax= 2.25D-09  0.00D+00 EMaxC= 1.00D-01 BMatC= 1.12D-16 BMatP= 7.11D-14
 IDIUse=1 WtCom= 1.00D+00 WtEn= 0.00D+00
 Coeff-Com: -0.120D-05 0.225D-05 0.871D-05-0.126D-03 0.114D-02-0.347D-02
 Coeff-Com:  0.289D-01-0.716D-01 0.105D+01
 Coeff:     -0.120D-05 0.225D-05 0.871D-05-0.126D-03 0.114D-02-0.347D-02
 Coeff:      0.289D-01-0.716D-01 0.105D+01
 Gap=     0.232 Goal=   None    Shift=    0.000
 RMSDP=8.44D-09 MaxDP=5.62D-08 DE=-7.96D-13 OVMax= 0.00D+00

 SCF Done:  E(RHF) =  -599.392060692     A.U. after    9 cycles
            NFock=  9  Conv=0.84D-08     -V/T= 1.9987
 KE= 6.001888912509D+02 PE=-1.439216423009D+03 EE= 2.319013425980D+02
 Leave Link  502 at Mon Mar 28 14:31:36 2022, MaxMem=  9663676416 cpu:               4.2 elap:               0.2
 (Enter /nopt/nrel/apps/gaussian/g16C_1/g16/l801.exe)
 Windowed orbitals will be sorted by symmetry type.
 ExpMin= 1.65D-02 ExpMax= 3.16D+04 ExpMxC= 4.74D+03 IAcc=3 IRadAn=         5 AccDes= 0.00D+00
 HarFok:  IExCor=  205 AccDes= 0.00D+00 IRadAn=         5 IDoV=-2 UseB2=F ITyADJ=14
 ICtDFT= 12500011 ScaDFX=  1.000000  1.000000  1.000000  1.000000
 Largest valence mixing into a core orbital is  1.94D-02
 Largest core mixing into a valence orbital is  9.89D-03
 Range of M.O.s used for correlation:    10    18
 NBasis=    18 NAE=    10 NBE=    10 NFC=     9 NFV=     0
 NROrb=      9 NOA=     1 NOB=     1 NVA=     8 NVB=     8
 Leave Link  801 at Mon Mar 28 14:31:36 2022, MaxMem=  9663676416 cpu:               2.4 elap:               0.1
 (Enter /nopt/nrel/apps/gaussian/g16C_1/g16/l804.exe)
 Closed-shell transformation, MDV=  9663676416 ITran=4 ISComp=2.
 Unit  1 TFree=         12474 TCopy=        221008.
 Semi-Direct transformation.
 ModeAB=           2 MOrb=             1 LenV=    9663549955
 LASXX=           88 LTotXX=          88 LenRXX=          88
 LTotAB=         141 MaxLAS=        1539 LenRXY=        1539
 NonZer=        1755 LenScr=      785920 LnRSAI=           0
 LnScr1=           0 LExtra=      222029 Total=      1009576
 MaxDsk= 34359738368 SrtSym=           F ITran=            4
 DoSDTr:  NPSUse= 36
 JobTyp=0 Pass  1:  I=   1 to   1.
 (rs|ai) integrals will be sorted in core.
 Complete sort for first half transformation.
 First half transformation complete.
 Complete sort for second half transformation.
 Second half transformation complete.
 Spin components of T(2) and E(2):
     alpha-alpha T2 =       0.0000000000D+00 E2=      0.0000000000D+00
     alpha-beta  T2 =       0.2068150761D-01 E2=     -0.1707411674D-01
     beta-beta   T2 =       0.0000000000D+00 E2=      0.0000000000D+00
 ANorm=    0.1010287834D+01
 E2 =    -0.1707411674D-01 EUMP2 =    -0.59940913480911D+03
 Leave Link  804 at Mon Mar 28 14:31:36 2022, MaxMem=  9663676416 cpu:               1.5 elap:               0.1
 (Enter /nopt/nrel/apps/gaussian/g16C_1/g16/l913.exe)
 CIDS:  MDV=  9663676416.
 Frozen-core window:  NFC=   9 NFV=   0.
 IFCWin=0 IBDFC=1 NFBD=     0     0 NFCmp=     0     0 NFFFC=     0     0
 Using DD3R+UMP44R for 1st iteration.
 Using DD4RQ for 2nd and later iterations.
 Keep R2 and R3 ints in memory in symmetry-blocked form, NReq=7246586.
 FoFCou: FMM=F IPFlag=           0 FMFlag=           0 FMFlg1=           0
         NFxFlg=           0 DoJE=F BraDBF=F KetDBF=F FulRan=T
         wScrn=  0.000000 ICntrl=       600 IOpCl=  0 I1Cent=           0 NGrid=           0
         NMat0=    1 NMatS0=    171 NMatT0=    0 NMatD0=    1 NMtDS0=    0 NMtDT0=    0
 Petite list used in FoFCou.
 CIDS: In Core Option IDoMem=           1.
 Coupled Cluster theory with single and double substitutions
 ===========================================================
 Iterations= 200 Convergence= 0.100D-06
 Produce multiple copies of IABC intergrals
 Iteration Nr.   1
 **********************
 DD1Dir will call FoFMem   1 times, MxPair=         2
 NAB=     1 NAA=     0 NBB=     0.
 MP4(R+Q)=  0.35311848D-03
 Maximum subspace dimension=  5
 A-vector RMS=  2.1518457D-02 Max=  3.8960755D-02 conv= 1.00D-05.
 RLE energy=       -0.0295688191
 E3=       -0.75730480D-02        EUMP3=      -0.59941670786D+03
 E4(DQ)=   -0.33307104D-02        UMP4(DQ)=   -0.59942003857D+03
 E4(SDQ)=  -0.35700655D-02        UMP4(SDQ)=  -0.59942027792D+03
 VARIATIONAL ENERGIES WITH THE FIRST-ORDER WAVEFUNCTION:
 DE(Corr)= -0.24289017E-01 E(Corr)=     -599.41634971    
 NORM(A)=   0.10315177D+01
 Iteration Nr.   2
 **********************
 DD1Dir will call FoFMem   1 times, MxPair=         2
 NAB=     1 NAA=     0 NBB=     0.
 A-vector RMS=  1.0273926D-02 Max=  7.5173342D-03 conv= 1.00D-05.
 RLE energy=       -0.0310265580
 DE(Corr)= -0.30131288E-01 E(CORR)=     -599.42219198     Delta=-5.84D-03
 NORM(A)=   0.10375225D+01
 Iteration Nr.   3
 **********************
 DD1Dir will call FoFMem   1 times, MxPair=         2
 NAB=     1 NAA=     0 NBB=     0.
 A-vector RMS=  5.9187470D-03 Max=  6.2887405D-03 conv= 1.00D-05.
 RLE energy=       -0.0317278097
 DE(Corr)= -0.31168940E-01 E(CORR)=     -599.42322963     Delta=-1.04D-03
 NORM(A)=   0.10422088D+01
 Iteration Nr.   4
 **********************
 DD1Dir will call FoFMem   1 times, MxPair=         2
 NAB=     1 NAA=     0 NBB=     0.
 A-vector RMS=  2.5980711D-03 Max=  2.6804907D-03 conv= 1.00D-05.
 RLE energy=       -0.0318201560
 DE(Corr)= -0.31704128E-01 E(CORR)=     -599.42376482     Delta=-5.35D-04
 NORM(A)=   0.10442271D+01
 Iteration Nr.   5
 **********************
 DD1Dir will call FoFMem   1 times, MxPair=         2
 NAB=     1 NAA=     0 NBB=     0.
 A-vector RMS=  9.4298419D-04 Max=  9.0555613D-04 conv= 1.00D-05.
 RLE energy=       -0.0317789880
 DE(Corr)= -0.31794951E-01 E(CORR)=     -599.42385564     Delta=-9.08D-05
 NORM(A)=   0.10444562D+01
 Iteration Nr.   6
 **********************
 DD1Dir will call FoFMem   1 times, MxPair=         2
 NAB=     1 NAA=     0 NBB=     0.
 A-vector RMS=  4.4460805D-04 Max=  4.7469680D-04 conv= 1.00D-05.
 RLE energy=       -0.0318011821
 DE(Corr)= -0.31785423E-01 E(CORR)=     -599.42384611     Delta= 9.53D-06
 NORM(A)=   0.10446162D+01
 Iteration Nr.   7
 **********************
 DD1Dir will call FoFMem   1 times, MxPair=         2
 NAB=     1 NAA=     0 NBB=     0.
 A-vector RMS=  4.9115633D-05 Max=  4.8357638D-05 conv= 1.00D-05.
 RLE energy=       -0.0317938684
 DE(Corr)= -0.31797959E-01 E(CORR)=     -599.42385865     Delta=-1.25D-05
 NORM(A)=   0.10445839D+01
 Iteration Nr.   8
 **********************
 DD1Dir will call FoFMem   1 times, MxPair=         2
 NAB=     1 NAA=     0 NBB=     0.
 A-vector RMS=  1.4702316D-05 Max=  1.5747951D-05 conv= 1.00D-05.
 RLE energy=       -0.0317937280
 DE(Corr)= -0.31793805E-01 E(CORR)=     -599.42385450     Delta= 4.15D-06
 NORM(A)=   0.10445828D+01
 Iteration Nr.   9
 **********************
 DD1Dir will call FoFMem   1 times, MxPair=         2
 NAB=     1 NAA=     0 NBB=     0.
 A-vector RMS=  9.0838383D-06 Max=  9.0155392D-06 conv= 1.00D-05.
 RLE energy=       -0.0317939314
 DE(Corr)= -0.31793783E-01 E(CORR)=     -599.42385448     Delta= 2.20D-08
 NORM(A)=   0.10445833D+01
 CI/CC converged in    9 iterations to DelEn= 2.20D-08 Conv= 1.00D-07 ErrA1= 9.08D-06 Conv= 1.00D-05
 Wavefunction amplitudes converged. E(Corr)=     -599.42385448    
 Dominant configurations:
 ***********************
 Spin Case        I    J    A    B          Value
   ABAB          10   10   18   18      -0.152871D+00
 Largest amplitude= 1.53D-01
 Discarding MO integrals.
 Leave Link  913 at Mon Mar 28 14:31:37 2022, MaxMem=  9663676416 cpu:               3.7 elap:               0.1
 (Enter /nopt/nrel/apps/gaussian/g16C_1/g16/l601.exe)
 Copying SCF densities to generalized density rwf, IOpCl= 0 IROHF=0.

 **********************************************************************

            Population analysis using the SCF Density.

 **********************************************************************

 Orbital symmetries:
       Occupied  (SG) (SG) (SG) (PI) (PI) (SG) (SG) (PI) (PI) (SG)
       Virtual   (SG) (PI) (PI) (SG) (SG) (PI) (PI) (SG)
 The electronic state is 1-SG.
 Alpha  occ. eigenvalues -- -133.52553 -14.50524 -11.53478 -11.53178 -11.53178
 Alpha  occ. eigenvalues --   -1.78463  -1.03373  -0.97152  -0.97152  -0.22191
 Alpha virt. eigenvalues --    0.01015   0.02902   0.02902   0.06079   0.09289
 Alpha virt. eigenvalues --    0.11338   0.11338   0.30118
          Condensed to atoms (all electrons):
               1          2
     1  H    0.780747   0.191258
     2  K    0.191258  18.836736
 Mulliken charges:
               1
     1  H    0.027994
     2  K   -0.027994
 Sum of Mulliken charges =  -0.00000
 Mulliken charges with hydrogens summed into heavy atoms:
               1
     2  K   -0.000000
 N-N= 7.734128467292D+00 E-N=-1.439216422972D+03  KE= 6.001888912509D+02
 Symmetry A1   KE= 4.749409347380D+02
 Symmetry A2   KE= 0.000000000000D+00
 Symmetry B1   KE= 6.262397825646D+01
 Symmetry B2   KE= 6.262397825646D+01

 Atomic contributions to Alpha molecular orbitals:
 Alpha occ 1 OE=-133.526 is K2-s=1.0000
 Alpha occ 2 OE=-14.505 is K2-s=1.0000
 Alpha occ 3 OE=-11.535 is K2-p=1.0000
 Alpha occ 4 OE=-11.532 is K2-p=1.0000
 Alpha occ 5 OE=-11.532 is K2-p=1.0000
 Alpha occ 6 OE=-1.785 is K2-s=0.9852
 Alpha occ 7 OE=-1.034 is K2-p=0.9170
 Alpha occ 8 OE=-0.972 is K2-p=1.0000
 Alpha occ 9 OE=-0.972 is K2-p=1.0000
 Alpha occ 10 OE=-0.222 is K2-s=0.4943 H1-s=0.3925 K2-p=0.1132
 Alpha vir 11 OE=0.010 is K2-p=0.5841 K2-s=0.3918
 Alpha vir 12 OE=0.029 is K2-p=1.0000
 Alpha vir 13 OE=0.029 is K2-p=1.0000
 Alpha vir 14 OE=0.061 is K2-p=0.5107 K2-s=0.4523
 Alpha vir 15 OE=0.093 is K2-p=0.5866 K2-s=0.4034
 Alpha vir 16 OE=0.113 is K2-p=1.0000
 Alpha vir 17 OE=0.113 is K2-p=1.0000
 Alpha vir 18 OE=0.301 is H1-s=0.4428 K2-p=0.2875 K2-s=0.2697
 
 Leave Link  601 at Mon Mar 28 14:31:37 2022, MaxMem=  9663676416 cpu:               2.3 elap:               0.1
 (Enter /nopt/nrel/apps/gaussian/g16C_1/g16/l9999.exe)

 Test job not archived.
 1\1\GINC-R102U34\SP\RCCSD-FC\Gen\H1K1\USER\28-Mar-2022\0\\#P CCSD(
 MaxCyc=200,SaveAmplitudes,ReadAmplitudes)/GEN sp pop=AllOrbitals iop(3
 /33=1,3/36=-1)\\test\\0,1\H,0,0.,0.,0.\K,0,0.,0.,1.3\\Version=ES64L-G1
 6RevC.01\State=1-SG\HF=-599.3920607\MP2=-599.4091348\MP3=-599.4167079\
 MP4D=-599.4203917\MP4DQ=-599.4200386\MP4SDQ=-599.4202779\CCSD=-599.423
 8545\RMSD=8.442e-09\PG=C*V [C*(H1K1)]\\@


 I do not feel obliged to believe that the same God who
 has endowed us with sense, reason, and intellect has
 intended us to forgo their use.
                   --Galileo Galilei
 Job cpu time:       0 days  0 hours  0 minutes 33.2 seconds.
 Elapsed time:       0 days  0 hours  0 minutes  1.3 seconds.
 File lengths (MBytes):  RWF=     13 Int=      0 D2E=      0 Chk=      1 Scr=      1
 Normal termination of Gaussian 16 at Mon Mar 28 14:31:37 2022.
