 Entering Gaussian System, Link 0=g16
 Initial command:
 /nopt/nrel/apps/gaussian/g16C_1/g16/l1.exe "/lustre/eaglefs/scratch/user/qc/lih-dissc/lih-3-ccsd-2.1-augccq/Gau-7076.inp" -scrdir="/lustre/eaglefs/scratch/user/qc/lih-dissc/lih-3-ccsd-2.1-augccq/"
 Default is to use a total of  36 processors:
                               36 via shared-memory
                                1 via Linda
 Entering Link 1 = /nopt/nrel/apps/gaussian/g16C_1/g16/l1.exe PID=      7077.
  
 Copyright (c) 1988-2019, Gaussian, Inc.  All Rights Reserved.
  
 This is part of the Gaussian(R) 16 program.  It is based on
 the Gaussian(R) 09 system (copyright 2009, Gaussian, Inc.),
 the Gaussian(R) 03 system (copyright 2003, Gaussian, Inc.),
 the Gaussian(R) 98 system (copyright 1998, Gaussian, Inc.),
 the Gaussian(R) 94 system (copyright 1995, Gaussian, Inc.),
 the Gaussian 92(TM) system (copyright 1992, Gaussian, Inc.),
 the Gaussian 90(TM) system (copyright 1990, Gaussian, Inc.),
 the Gaussian 88(TM) system (copyright 1988, Gaussian, Inc.),
 the Gaussian 86(TM) system (copyright 1986, Carnegie Mellon
 University), and the Gaussian 82(TM) system (copyright 1983,
 Carnegie Mellon University). Gaussian is a federally registered
 trademark of Gaussian, Inc.
  
 This software contains proprietary and confidential information,
 including trade secrets, belonging to Gaussian, Inc.
  
 This software is provided under written license and may be
 used, copied, transmitted, or stored only in accord with that
 written license.
  
 The following legend is applicable only to US Government
 contracts under FAR:
  
                    RESTRICTED RIGHTS LEGEND
  
 Use, reproduction and disclosure by the US Government is
 subject to restrictions as set forth in subparagraphs (a)
 and (c) of the Commercial Computer Software - Restricted
 Rights clause in FAR 52.227-19.
  
 Gaussian, Inc.
 340 Quinnipiac St., Bldg. 40, Wallingford CT 06492
  
  
 ---------------------------------------------------------------
 Warning -- This program may not be used in any manner that
 competes with the business of Gaussian, Inc. or will provide
 assistance to any competitor of Gaussian, Inc.  The licensee
 of this program is prohibited from giving any competitor of
 Gaussian, Inc. access to this program.  By using this program,
 the user acknowledges that Gaussian, Inc. is engaged in the
 business of creating and licensing software in the field of
 computational chemistry and represents and warrants to the
 licensee that it is not a competitor of Gaussian, Inc. and that
 it will not use this program in any manner prohibited above.
 ---------------------------------------------------------------
  

 Cite this work as:
 Gaussian 16, Revision C.01,
 M. J. Frisch, G. W. Trucks, H. B. Schlegel, G. E. Scuseria, 
 M. A. Robb, J. R. Cheeseman, G. Scalmani, V. Barone, 
 G. A. Petersson, H. Nakatsuji, X. Li, M. Caricato, A. V. Marenich, 
 J. Bloino, B. G. Janesko, R. Gomperts, B. Mennucci, H. P. Hratchian, 
 J. V. Ortiz, A. F. Izmaylov, J. L. Sonnenberg, D. Williams-Young, 
 F. Ding, F. Lipparini, F. Egidi, J. Goings, B. Peng, A. Petrone, 
 T. Henderson, D. Ranasinghe, V. G. Zakrzewski, J. Gao, N. Rega, 
 G. Zheng, W. Liang, M. Hada, M. Ehara, K. Toyota, R. Fukuda, 
 J. Hasegawa, M. Ishida, T. Nakajima, Y. Honda, O. Kitao, H. Nakai, 
 T. Vreven, K. Throssell, J. A. Montgomery, Jr., J. E. Peralta, 
 F. Ogliaro, M. J. Bearpark, J. J. Heyd, E. N. Brothers, K. N. Kudin, 
 V. N. Staroverov, T. A. Keith, R. Kobayashi, J. Normand, 
 K. Raghavachari, A. P. Rendell, J. C. Burant, S. S. Iyengar, 
 J. Tomasi, M. Cossi, J. M. Millam, M. Klene, C. Adamo, R. Cammi, 
 J. W. Ochterski, R. L. Martin, K. Morokuma, O. Farkas, 
 J. B. Foresman, and D. J. Fox, Gaussian, Inc., Wallingford CT, 2019.
 
 ******************************************
 Gaussian 16:  ES64L-G16RevC.01  3-Jul-2019
                28-Mar-2022 
 ******************************************
 %chk=molecule
 Default route: CacheSize=180224 MaxDisk=256GB
 ----------------------------------------------------------------------
 #P CCSD(MaxCyc=200,SaveAmplitudes,ReadAmplitudes)/GEN sp pop=AllOrbita
 ls iop(3/33=1,3/36=-1)
 ----------------------------------------------------------------------
 1/4=180224,38=1,172=1/1;
 2/4=180224,12=2,17=6,18=5,40=1/2;
 3/4=180224,5=7,11=9,25=1,30=1,33=1,36=-1/1,2,3;
 4/4=180224/1;
 5/4=180224,5=2,38=5/2;
 8/4=180224,6=4,9=120000,10=1,24=1/1,4;
 9/4=180224,5=7,6=200,77=1/13;
 6/4=180224,7=2,8=2,9=2,10=2,96=-1/1;
 99/4=180224,5=1,9=1/99;
 Leave Link    1 at Mon Mar 28 14:07:56 2022, MaxMem=           0 cpu:               2.3 elap:               0.1
 (Enter /nopt/nrel/apps/gaussian/g16C_1/g16/l101.exe)
 ----
 test
 ----
 Symbolic Z-matrix:
 Charge =  0 Multiplicity = 3
 H                     0.        0.        0. 
 Li                    0.        0.        2.1 
 
 ITRead=  0  0
 MicOpt= -1 -1
 NAtoms=      2 NQM=        2 NQMF=       0 NMMI=      0 NMMIF=      0
                NMic=       0 NMicF=      0.
                    Isotopes and Nuclear Properties:
 (Nuclear quadrupole moments (NQMom) in fm**2, nuclear magnetic moments (NMagM)
  in nuclear magnetons)

  Atom         1           2
 IAtWgt=           1           7
 AtmWgt=   1.0078250   7.0160045
 NucSpn=           1           3
 AtZEff=  -0.0000000  -0.0000000
 NQMom=    0.0000000  -4.0100000
 NMagM=    2.7928460   3.2564240
 AtZNuc=   1.0000000   3.0000000
 Leave Link  101 at Mon Mar 28 14:07:56 2022, MaxMem=  9663676416 cpu:               2.8 elap:               0.1
 (Enter /nopt/nrel/apps/gaussian/g16C_1/g16/l202.exe)
                          Input orientation:                          
 ---------------------------------------------------------------------
 Center     Atomic      Atomic             Coordinates (Angstroms)
 Number     Number       Type             X           Y           Z
 ---------------------------------------------------------------------
      1          1           0        0.000000    0.000000    0.000000
      2          3           0        0.000000    0.000000    2.100000
 ---------------------------------------------------------------------
 Stoichiometry    HLi(3)
 Framework group  C*V[C*(HLi)]
 Deg. of freedom     1
 Full point group                 C*V     NOp   4
 Largest Abelian subgroup         C2V     NOp   4
 Largest concise Abelian subgroup C1      NOp   1
                         Standard orientation:                         
 ---------------------------------------------------------------------
 Center     Atomic      Atomic             Coordinates (Angstroms)
 Number     Number       Type             X           Y           Z
 ---------------------------------------------------------------------
      1          1           0        0.000000    0.000000   -1.575000
      2          3           0        0.000000    0.000000    0.525000
 ---------------------------------------------------------------------
 Rotational constants (GHZ):           0.0000000         130.0424976         130.0424976
 Leave Link  202 at Mon Mar 28 14:07:56 2022, MaxMem=  9663676416 cpu:               0.9 elap:               0.1
 (Enter /nopt/nrel/apps/gaussian/g16C_1/g16/l301.exe)
 General basis read from cards:  (5D, 7F)
                         Coordinates in L301:                         
 ---------------------------------------------------------------------
 Center     Atomic      Atomic             Coordinates (Angstroms)
 Number     Number       Type             X           Y           Z
 ---------------------------------------------------------------------
      1          1           0        0.000000    0.000000   -1.575000
      2          3           0        0.000000    0.000000    0.525000
 ---------------------------------------------------------------------
 Centers:       1
 STO-3G
 ****
 Centers:       2
 aug-cc-pVQZ
 ****
 FixB: optimizing general contractions.
 Ernie: Thresh=  0.10000D-02 Tol=  0.10000D-05 Strict=F.
 IA=     1 ShT= 0 ShC= 0 NL=   1 NS=   0.
 IA=     1 L=0 SC=0 ISt=    0 NBk=    0 NP=    0 IndPr=    0.
 IA=     2 ShT= 0 ShC= 0 NL=   6 NS=   4.
 IA=     2 L=0 SC=0 ISt=    1 NBk=    2 NP=    9 IndPr=    0.
 DoElim1:  L=0 select primitive    3 from    2 using    1 C= 4.73D-03
 DoElim2:  L=0 select primitive    9 from    1 using    2 C=-9.02D-02
 Delete L=0 primitive    3 from    2 C=  2.13D-20.
 Delete L=0 primitive    2 from    2 C=  7.77D-07.
 Delete L=0 primitive    1 from    2 C=  3.37D-07.
 Delete L=0 primitive    9 from    1 C=  1.56D-17.
 IA=     2 L=0 SC=0 ISt=    0 NBk=    0 NP=    0 IndPr=   14.
 IA=     2 ShT= 1 ShC= 1 NL=   5 NS=   4.
 IA=     2 L=1 SC=1 ISt=    0 NBk=    0 NP=    0 IndPr=    0.
 IA=     2 ShT= 2 ShC= 2 NL=   4 NS=   4.
 IA=     2 L=2 SC=2 ISt=    0 NBk=    0 NP=    0 IndPr=    0.
 IA=     2 ShT= 3 ShC= 3 NL=   3 NS=   3.
 IA=     2 L=3 SC=3 ISt=    0 NBk=    0 NP=    0 IndPr=    0.
 IA=     2 ShT= 4 ShC= 4 NL=   2 NS=   2.
 IA=     2 L=4 SC=4 ISt=    0 NBk=    0 NP=    0 IndPr=    0.
 Ernie:  4 primitive shells out of 41 were deleted.
 LdAtmC:  AtmChg=     1.000000     3.000000
 AtZEff=     -1.0000000     -1.3500000
 NEqShl: 
              1            2            3            4
     1            1            1            1            1
     2            2            2            2            2
     3            3            3            3            3
     4            4            4            4            4
     5            5            5            5            5
     6            6            6            6            6
     7            7            7            7            7
     8            8            8            8            8
     9            9            9            9            9
    10           10           10           10           10
    11           11           11           11           11
    12           12           12           12           12
    13           13           13           13           13
    14           14           14           14           14
    15           15           15           15           15
    16           16           16           16           16
    17           17           17           17           17
    18           18           18           18           18
    19           19           19           19           19
    20           20           20           20           20
    21           21           21           21           21
 NEqBas: 
              1            2            3            4
     1            1            1            1            1
     2            2            2            2            2
     3            3            3            3            3
     4            4            4            4            4
     5            5            5            5            5
     6            6            6            6            6
     7            7            7            7            7
     8            8           -8           -8            8
     9            9           -9            9           -9
    10           10           10           10           10
    11           11          -11          -11           11
    12           12          -12           12          -12
    13           13           13           13           13
    14           14          -14          -14           14
    15           15          -15           15          -15
    16           16           16           16           16
    17           17          -17          -17           17
    18           18          -18           18          -18
    19           19           19           19           19
    20           20          -20          -20           20
    21           21          -21           21          -21
    22           22           22           22           22
    23           23           23           23           23
    24           24           24           24           24
    25           25           25           25           25
    26           26           26          -26          -26
    27           27          -27          -27           27
    28           28          -28           28          -28
    29           29           29           29           29
    30           30           30           30           30
    31           31           31           31           31
    32           32           32          -32          -32
    33           33          -33          -33           33
    34           34          -34           34          -34
    35           35           35           35           35
    36           36           36           36           36
    37           37           37           37           37
    38           38           38          -38          -38
    39           39          -39          -39           39
    40           40          -40           40          -40
    41           41           41           41           41
    42           42           42           42           42
    43           43           43           43           43
    44           44           44          -44          -44
    45           45          -45          -45           45
    46           46          -46           46          -46
    47           47          -47          -47           47
    48           48          -48           48          -48
    49           49           49           49           49
    50           50          -50          -50           50
    51           51          -51           51          -51
    52           52           52           52           52
    53           53          -53          -53           53
    54           54          -54           54          -54
    55           55           55           55           55
    56           56           56          -56          -56
    57           57          -57          -57           57
    58           58          -58           58          -58
    59           59           59           59           59
    60           60          -60          -60           60
    61           61          -61           61          -61
    62           62           62           62           62
    63           63          -63          -63           63
    64           64          -64           64          -64
    65           65           65           65           65
    66           66           66          -66          -66
    67           67          -67          -67           67
    68           68          -68           68          -68
    69           69           69           69           69
    70           70          -70          -70           70
    71           71          -71           71          -71
    72           72           72           72           72
    73           73          -73          -73           73
    74           74          -74           74          -74
    75           75           75           75           75
    76           76           76          -76          -76
    77           77           77           77           77
    78           78          -78           78          -78
    79           79           79           79           79
    80           80          -80           80          -80
    81           81           81           81           81
    82           82          -82          -82           82
    83           83           83          -83          -83
    84           84          -84          -84           84
    85           85           85          -85          -85
    86           86           86           86           86
    87           87          -87           87          -87
    88           88           88           88           88
    89           89          -89          -89           89
    90           90           90          -90          -90
    91           91           91           91           91
    92           92           92           92           92
    93           93          -93           93          -93
    94           94           94           94           94
    95           95          -95           95          -95
    96           96           96           96           96
    97           97          -97          -97           97
    98           98           98          -98          -98
    99           99          -99          -99           99
   100          100          100         -100         -100
   101          101          101          101          101
   102          102         -102          102         -102
   103          103          103          103          103
   104          104         -104         -104          104
   105          105          105         -105         -105
   106          106          106          106          106
 There are    45 symmetry adapted cartesian basis functions of A1  symmetry.
   1         1   1   1   1
   2         2   2   2   2
   3         3   3   3   3
   4         4   4   4   4
   5         5   5   5   5
   6         6   6   6   6
   7         7   7   7   7
   8        10  10  10  10
   9        13  13  13  13
  10        16  16  16  16
  11        19  19  19  19
  12        22  22  22  22
  13        23  23  23  23
  14        24  24  24  24
  15        25  25  25  25
  16        29  29  29  29
  17        30  30  30  30
  18        31  31  31  31
  19        35  35  35  35
  20        36  36  36  36
  21        37  37  37  37
  22        41  41  41  41
  23        42  42  42  42
  24        43  43  43  43
  25        49  49  49  49
  26        52  52  52  52
  27        55  55  55  55
  28        59  59  59  59
  29        62  62  62  62
  30        65  65  65  65
  31        69  69  69  69
  32        72  72  72  72
  33        75  75  75  75
  34        77  77  77  77
  35        79  79  79  79
  36        81  81  81  81
  37        86  86  86  86
  38        88  88  88  88
  39        91  91  91  91
  40        92  92  92  92
  41        94  94  94  94
  42        96  96  96  96
  43       101 101 101 101
  44       103 103 103 103
  45       106 106 106 106
 There are    13 symmetry adapted cartesian basis functions of A2  symmetry.
  46        26  26  26  26
  47        32  32  32  32
  48        38  38  38  38
  49        44  44  44  44
  50        56  56  56  56
  51        66  66  66  66
  52        76  76  76  76
  53        83  83  83  83
  54        85  85  85  85
  55        90  90  90  90
  56        98  98  98  98
  57       100 100 100 100
  58       105 105 105 105
 There are    24 symmetry adapted cartesian basis functions of B1  symmetry.
  59         8   8   8   8
  60        11  11  11  11
  61        14  14  14  14
  62        17  17  17  17
  63        20  20  20  20
  64        27  27  27  27
  65        33  33  33  33
  66        39  39  39  39
  67        45  45  45  45
  68        47  47  47  47
  69        50  50  50  50
  70        53  53  53  53
  71        57  57  57  57
  72        60  60  60  60
  73        63  63  63  63
  74        67  67  67  67
  75        70  70  70  70
  76        73  73  73  73
  77        82  82  82  82
  78        84  84  84  84
  79        89  89  89  89
  80        97  97  97  97
  81        99  99  99  99
  82       104 104 104 104
 There are    24 symmetry adapted cartesian basis functions of B2  symmetry.
  83         9   9   9   9
  84        12  12  12  12
  85        15  15  15  15
  86        18  18  18  18
  87        21  21  21  21
  88        28  28  28  28
  89        34  34  34  34
  90        40  40  40  40
  91        46  46  46  46
  92        48  48  48  48
  93        51  51  51  51
  94        54  54  54  54
  95        58  58  58  58
  96        61  61  61  61
  97        64  64  64  64
  98        68  68  68  68
  99        71  71  71  71
 100        74  74  74  74
 101        78  78  78  78
 102        80  80  80  80
 103        87  87  87  87
 104        93  93  93  93
 105        95  95  95  95
 106       102 102 102 102
 Order= 1 2 4 3
 Reordered character table:
              1            2            3            4            5
     1            1            1            1            1            1
     2            2            1            1           -1           -1
     3            4            1           -1           -1            1
     4            3            1           -1            1           -1
 NEqShl: 
              1            2            3            4
     1            1            1            1            1
     2            2            2            2            2
     3            3            3            3            3
     4            4            4            4            4
     5            5            5            5            5
     6            6            6            6            6
     7            7            7            7            7
     8            8            8            8            8
     9            9            9            9            9
    10           10           10           10           10
    11           11           11           11           11
    12           12           12           12           12
    13           13           13           13           13
    14           14           14           14           14
    15           15           15           15           15
    16           16           16           16           16
    17           17           17           17           17
    18           18           18           18           18
    19           19           19           19           19
    20           20           20           20           20
    21           21           21           21           21
 NEqBas: 
              1            2            3            4
     1            1            1            1            1
     2            2            2            2            2
     3            3            3            3            3
     4            4            4            4            4
     5            5            5            5            5
     6            6            6            6            6
     7            7            7            7            7
     8            8           -8           -8            8
     9            9           -9            9           -9
    10           10           10           10           10
    11           11          -11          -11           11
    12           12          -12           12          -12
    13           13           13           13           13
    14           14          -14          -14           14
    15           15          -15           15          -15
    16           16           16           16           16
    17           17          -17          -17           17
    18           18          -18           18          -18
    19           19           19           19           19
    20           20          -20          -20           20
    21           21          -21           21          -21
    22           22           22           22           22
    23           23           23           23           23
    24           24          -24          -24           24
    25           25          -25           25          -25
    26           26           26           26           26
    27           27           27          -27          -27
    28           28           28           28           28
    29           29          -29          -29           29
    30           30          -30           30          -30
    31           31           31           31           31
    32           32           32          -32          -32
    33           33           33           33           33
    34           34          -34          -34           34
    35           35          -35           35          -35
    36           36           36           36           36
    37           37           37          -37          -37
    38           38           38           38           38
    39           39          -39          -39           39
    40           40          -40           40          -40
    41           41           41           41           41
    42           42           42          -42          -42
    43           43           43           43           43
    44           44          -44          -44           44
    45           45          -45           45          -45
    46           46           46           46           46
    47           47           47          -47          -47
    48           48          -48          -48           48
    49           49          -49           49          -49
    50           50           50           50           50
    51           51          -51          -51           51
    52           52          -52           52          -52
    53           53           53           53           53
    54           54           54          -54          -54
    55           55          -55          -55           55
    56           56          -56           56          -56
    57           57           57           57           57
    58           58          -58          -58           58
    59           59          -59           59          -59
    60           60           60           60           60
    61           61           61          -61          -61
    62           62          -62          -62           62
    63           63          -63           63          -63
    64           64           64           64           64
    65           65          -65          -65           65
    66           66          -66           66          -66
    67           67           67           67           67
    68           68           68          -68          -68
    69           69          -69          -69           69
    70           70          -70           70          -70
    71           71           71           71           71
    72           72           72          -72          -72
    73           73           73           73           73
    74           74          -74          -74           74
    75           75          -75           75          -75
    76           76           76           76           76
    77           77           77          -77          -77
    78           78          -78          -78           78
    79           79          -79           79          -79
    80           80           80           80           80
    81           81           81          -81          -81
 There are    32 symmetry adapted basis functions of A1  symmetry.
   1         1   1   1   1
   2         2   2   2   2
   3         3   3   3   3
   4         4   4   4   4
   5         5   5   5   5
   6         6   6   6   6
   7         7   7   7   7
   8        10  10  10  10
   9        13  13  13  13
  10        16  16  16  16
  11        19  19  19  19
  12        22  22  22  22
  13        23  23  23  23
  14        26  26  26  26
  15        28  28  28  28
  16        31  31  31  31
  17        33  33  33  33
  18        36  36  36  36
  19        38  38  38  38
  20        41  41  41  41
  21        43  43  43  43
  22        46  46  46  46
  23        50  50  50  50
  24        53  53  53  53
  25        57  57  57  57
  26        60  60  60  60
  27        64  64  64  64
  28        67  67  67  67
  29        71  71  71  71
  30        73  73  73  73
  31        76  76  76  76
  32        80  80  80  80
 There are    11 symmetry adapted basis functions of A2  symmetry.
  33        27  27  27  27
  34        32  32  32  32
  35        37  37  37  37
  36        42  42  42  42
  37        47  47  47  47
  38        54  54  54  54
  39        61  61  61  61
  40        68  68  68  68
  41        72  72  72  72
  42        77  77  77  77
  43        81  81  81  81
 There are    19 symmetry adapted basis functions of B1  symmetry.
  44         8   8   8   8
  45        11  11  11  11
  46        14  14  14  14
  47        17  17  17  17
  48        20  20  20  20
  49        24  24  24  24
  50        29  29  29  29
  51        34  34  34  34
  52        39  39  39  39
  53        44  44  44  44
  54        48  48  48  48
  55        51  51  51  51
  56        55  55  55  55
  57        58  58  58  58
  58        62  62  62  62
  59        65  65  65  65
  60        69  69  69  69
  61        74  74  74  74
  62        78  78  78  78
 There are    19 symmetry adapted basis functions of B2  symmetry.
  63         9   9   9   9
  64        12  12  12  12
  65        15  15  15  15
  66        18  18  18  18
  67        21  21  21  21
  68        25  25  25  25
  69        30  30  30  30
  70        35  35  35  35
  71        40  40  40  40
  72        45  45  45  45
  73        49  49  49  49
  74        52  52  52  52
  75        56  56  56  56
  76        59  59  59  59
  77        63  63  63  63
  78        66  66  66  66
  79        70  70  70  70
  80        75  75  75  75
  81        79  79  79  79
 Order= 1 2 4 3
 Reordered character table:
              1            2            3            4            5
     1            1            1            1            1            1
     2            2            1            1           -1           -1
     3            4            1           -1           -1            1
     4            3            1           -1            1           -1
    81 basis functions,   126 primitive gaussians,   106 cartesian basis functions
     3 alpha electrons        1 beta electrons
       nuclear repulsion energy         0.7559674442 Hartrees.
 IS=     1 IAt=     1 ISR=     1 T=0 IP=      1 IndIP=      1 IndIPD=      0 C=  2.769344D-01  0.000000D+00                             NZ=T
 IS=     1 IAt=     1 ISR=     1 T=0 IP=      2 IndIP=      2 IndIPD=      1 C=  2.678389D-01  0.000000D+00                             NZ=T
 IS=     1 IAt=     1 ISR=     1 T=0 IP=      3 IndIP=      3 IndIPD=      2 C=  8.347367D-02  0.000000D+00                             NZ=T
 IS=     2 IAt=     2 ISR=     1 T=0 IP=      1 IndIP=      4 IndIPD=      0 C=  8.011529D-02  0.000000D+00                             NZ=T
 IS=     2 IAt=     2 ISR=     1 T=0 IP=      2 IndIP=      5 IndIPD=      1 C=  1.496426D-01  0.000000D+00                             NZ=T
 IS=     2 IAt=     2 ISR=     1 T=0 IP=      3 IndIP=      6 IndIPD=      2 C=  2.558159D-01  0.000000D+00                             NZ=T
 IS=     2 IAt=     2 ISR=     1 T=0 IP=      4 IndIP=      7 IndIPD=      3 C=  4.044663D-01  0.000000D+00                             NZ=T
 IS=     2 IAt=     2 ISR=     1 T=0 IP=      5 IndIP=      8 IndIPD=      4 C=  5.735328D-01  0.000000D+00                             NZ=T
 IS=     2 IAt=     2 ISR=     1 T=0 IP=      6 IndIP=      9 IndIPD=      5 C=  6.883914D-01  0.000000D+00                             NZ=T
 IS=     2 IAt=     2 ISR=     1 T=0 IP=      7 IndIP=     10 IndIPD=      6 C=  6.302397D-01  0.000000D+00                             NZ=T
 IS=     2 IAt=     2 ISR=     1 T=0 IP=      8 IndIP=     11 IndIPD=      7 C=  3.474973D-01  0.000000D+00                             NZ=T
 IS=     3 IAt=     2 ISR=     2 T=0 IP=      1 IndIP=     12 IndIPD=      0 C= -1.462817D-03  0.000000D+00                             NZ=T
 IS=     3 IAt=     2 ISR=     2 T=0 IP=      2 IndIP=     13 IndIPD=      1 C= -1.357745D-02  0.000000D+00                             NZ=T
 IS=     3 IAt=     2 ISR=     2 T=0 IP=      3 IndIP=     14 IndIPD=      2 C= -3.990712D-02  0.000000D+00                             NZ=T
 IS=     3 IAt=     2 ISR=     2 T=0 IP=      4 IndIP=     15 IndIPD=      3 C= -1.039767D-01  0.000000D+00                             NZ=T
 IS=     3 IAt=     2 ISR=     2 T=0 IP=      5 IndIP=     16 IndIPD=      4 C= -2.111586D-01  0.000000D+00                             NZ=T
 IS=     3 IAt=     2 ISR=     2 T=0 IP=      6 IndIP=     17 IndIPD=      5 C= -3.017959D-01  0.000000D+00                             NZ=T
 IS=     4 IAt=     2 ISR=     3 T=0 IP=      1 IndIP=     18 IndIPD=      0 C=  1.221003D-01  0.000000D+00                             NZ=T
 IS=     5 IAt=     2 ISR=     4 T=0 IP=      1 IndIP=     19 IndIPD=      0 C=  7.298435D-02  0.000000D+00                             NZ=T
 IS=     6 IAt=     2 ISR=     5 T=0 IP=      1 IndIP=     20 IndIPD=      0 C=  4.098971D-02  0.000000D+00                             NZ=T
 IS=     7 IAt=     2 ISR=     6 T=0 IP=      1 IndIP=     21 IndIPD=      0 C=  1.604045D-02  0.000000D+00                             NZ=T
 IS=     8 IAt=     2 ISR=     7 T=1 IP=      1 IndIP=     22 IndIPD=      0 C=  0.000000D+00  5.138103D-01                             NZ=T
 IS=     8 IAt=     2 ISR=     7 T=1 IP=      2 IndIP=     23 IndIPD=      1 C=  0.000000D+00  4.393669D-01                             NZ=T
 IS=     8 IAt=     2 ISR=     7 T=1 IP=      3 IndIP=     24 IndIPD=      2 C=  0.000000D+00  3.470054D-01                             NZ=T
 IS=     9 IAt=     2 ISR=     8 T=1 IP=      1 IndIP=     25 IndIPD=      0 C=  0.000000D+00  9.983559D-02                             NZ=T
 IS=    10 IAt=     2 ISR=     9 T=1 IP=      1 IndIP=     26 IndIPD=      0 C=  0.000000D+00  2.932986D-02                             NZ=T
 IS=    11 IAt=     2 ISR=    10 T=1 IP=      1 IndIP=     27 IndIPD=      0 C=  0.000000D+00  9.365278D-03                             NZ=T
 IS=    12 IAt=     2 ISR=    11 T=1 IP=      1 IndIP=     28 IndIPD=      0 C=  0.000000D+00  3.261263D-03                             NZ=T
 IS=    13 IAt=     2 ISR=    12 T=2 IP=      1 IndIP=     29 IndIPD=      1 C=  0.000000D+00  0.000000D+00  2.543236D-01  0.000000D+00 NZ=T
 IS=    14 IAt=     2 ISR=    13 T=2 IP=      1 IndIP=     30 IndIPD=      2 C=  0.000000D+00  0.000000D+00  6.160550D-02  0.000000D+00 NZ=T
 IS=    15 IAt=     2 ISR=    14 T=2 IP=      1 IndIP=     31 IndIPD=      3 C=  0.000000D+00  0.000000D+00  1.490390D-02  0.000000D+00 NZ=T
 IS=    16 IAt=     2 ISR=    15 T=2 IP=      1 IndIP=     32 IndIPD=      4 C=  0.000000D+00  0.000000D+00  3.634583D-03  0.000000D+00 NZ=T
 IS=    17 IAt=     2 ISR=    16 T=3 IP=      1 IndIP=     33 IndIPD=      5 C=  0.000000D+00  0.000000D+00  0.000000D+00  6.274201D-02 NZ=T
 IS=    18 IAt=     2 ISR=    17 T=3 IP=      1 IndIP=     34 IndIPD=      6 C=  0.000000D+00  0.000000D+00  0.000000D+00  1.473313D-02 NZ=T
 IS=    19 IAt=     2 ISR=    18 T=3 IP=      1 IndIP=     35 IndIPD=      7 C=  0.000000D+00  0.000000D+00  0.000000D+00  2.232271D-03 NZ=T
 IS=    20 IAt=     2 ISR=    19 T=4 IP=      1 IndIP=     36 IndIPD=      8 C=  0.000000D+00  0.000000D+00  0.000000D+00  2.147940D-02 NZ=T
 IS=    21 IAt=     2 ISR=    20 T=4 IP=      1 IndIP=     37 IndIPD=      9 C=  0.000000D+00  0.000000D+00  0.000000D+00  2.271551D-03 NZ=T
 IExCor=    0 DFT=F Ex=HF Corr=None ExCW=0 ScaHFX=  1.000000
 ScaDFX=  1.000000  1.000000  1.000000  1.000000 ScalE2=  1.000000  1.000000
 IRadAn=      5 IRanWt=     -1 IRanGd=            0 ICorTp=0 IEmpDi=  4
 NAtoms=    2 NActive=    2 NUniq=    2 SFac= 1.00D+00 NAtFMM=   60 NAOKFM=F Big=F
 Integral buffers will be    131072 words long.
 Raffenetti 2 integral format.
 Two-electron integral symmetry is turned on.
 Leave Link  301 at Mon Mar 28 14:07:56 2022, MaxMem=  9663676416 cpu:               1.9 elap:               0.1
 (Enter /nopt/nrel/apps/gaussian/g16C_1/g16/l302.exe)
 NPDir=0 NMtPBC=     1 NCelOv=     1 NCel=       1 NClECP=     1 NCelD=      1
         NCelK=      1 NCelE2=     1 NClLst=     1 CellRange=     0.0.
 One-electron integrals computed using PRISM.
 One-electron integral symmetry used in STVInt
 Entering OneElI...
 Calculate overlap and kinetic energy integrals
    NBasis =  81  MinDer = 0  MaxDer = 0
 Requested accuracy = 0.1000D-12
 Symmetry will be used
 PrmmSu-InSpLW:  IPartL=    0 NPrtUS=   36 NPrtUL=    1 DoSpLW=F IThBeg=    0 IThEnd=   35 NThAct=   36.
 PrSmSu:  IncTry=   512 NBBP=            231 NTPThr=   100 NPartT=   36 Incr=           1 LDynOK=F GPUOK=F.
 PrsmSu:  NPrtUS=  36 ThrOK=T IAlg=1 LenDen=           0 ISkipM=0 DoSpLW=F IThBeg=    0 IThEnd=   35.
 Prism:   IPart=     0 DynPar=F LinDyn=F Incr=           1.
 PRISM was handed   268416676 working-precision words and   231 shell-pairs
 PRISM was handed   268416676 working-precision words and   231 shell-pairs
 PRISM was handed   268416676 working-precision words and   231 shell-pairs
 PRISM was handed   268416676 working-precision words and   231 shell-pairs
 PRISM was handed   268416676 working-precision words and   231 shell-pairs
 PRISM was handed   268416676 working-precision words and   231 shell-pairs
 PRISM was handed   268416676 working-precision words and   231 shell-pairs
 PRISM was handed   268416676 working-precision words and   231 shell-pairs
 PRISM was handed   268416676 working-precision words and   231 shell-pairs
 PRISM was handed   268416676 working-precision words and   231 shell-pairs
 PRISM was handed   268416676 working-precision words and   231 shell-pairs
 PRISM was handed   268416676 working-precision words and   231 shell-pairs
 PRISM was handed   268416676 working-precision words and   231 shell-pairs
 PRISM was handed   268416676 working-precision words and   231 shell-pairs
 PRISM was handed   268416676 working-precision words and   231 shell-pairs
 PRISM was handed   268416676 working-precision words and   231 shell-pairs
 PRISM was handed   268416676 working-precision words and   231 shell-pairs
 PRISM was handed   268416676 working-precision words and   231 shell-pairs
 PRISM was handed   268416676 working-precision words and   231 shell-pairs
 PRISM was handed   268416676 working-precision words and   231 shell-pairs
 PRISM was handed   268416676 working-precision words and   231 shell-pairs
 PRISM was handed   268416676 working-precision words and   231 shell-pairs
 PRISM was handed   268416676 working-precision words and   231 shell-pairs
 IPart= 25 NShTot=           0 NBatch=           0 AvBLen=         0.0
 IPart= 20 NShTot=           0 NBatch=           0 AvBLen=         0.0
 IPart= 14 NShTot=           3 NBatch=           3 AvBLen=         1.0
 IPart= 17 NShTot=           0 NBatch=           0 AvBLen=         0.0
 IPart= 16 NShTot=           0 NBatch=           0 AvBLen=         0.0
 IPart= 24 NShTot=           0 NBatch=           0 AvBLen=         0.0
 IPart= 21 NShTot=           0 NBatch=           0 AvBLen=         0.0
 PRISM was handed   268416676 working-precision words and   231 shell-pairs
 PRISM was handed   268416676 working-precision words and   231 shell-pairs
 PRISM was handed   268416676 working-precision words and   231 shell-pairs
 PRISM was handed   268416676 working-precision words and   231 shell-pairs
 PRISM was handed   268416676 working-precision words and   231 shell-pairs
 IPart= 34 NShTot=           0 NBatch=           0 AvBLen=         0.0
 IPart= 23 NShTot=           0 NBatch=           0 AvBLen=         0.0
 IPart= 19 NShTot=           0 NBatch=           0 AvBLen=         0.0
 IPart= 10 NShTot=           6 NBatch=           6 AvBLen=         1.0
 IPart= 31 NShTot=           0 NBatch=           0 AvBLen=         0.0
 PRISM was handed   268416676 working-precision words and   231 shell-pairs
 PRISM was handed   268416676 working-precision words and   231 shell-pairs
 IPart=  2 NShTot=          30 NBatch=          30 AvBLen=         1.0
 IPart=  0 NShTot=          44 NBatch=          44 AvBLen=         1.0
 PRISM was handed   268416676 working-precision words and   231 shell-pairs
 IPart= 28 NShTot=           0 NBatch=           0 AvBLen=         0.0
 IPart= 12 NShTot=           3 NBatch=           3 AvBLen=         1.0
 IPart= 30 NShTot=           0 NBatch=           0 AvBLen=         0.0
 IPart=  3 NShTot=          25 NBatch=          25 AvBLen=         1.0
 IPart=  8 NShTot=           9 NBatch=           9 AvBLen=         1.0
 IPart=  4 NShTot=          15 NBatch=          15 AvBLen=         1.0
 IPart= 22 NShTot=           0 NBatch=           0 AvBLen=         0.0
 IPart=  6 NShTot=          13 NBatch=          13 AvBLen=         1.0
 IPart= 32 NShTot=           0 NBatch=           0 AvBLen=         0.0
 IPart= 35 NShTot=           0 NBatch=           0 AvBLen=         0.0
 IPart= 18 NShTot=           0 NBatch=           0 AvBLen=         0.0
 IPart=  9 NShTot=           9 NBatch=           9 AvBLen=         1.0
 IPart=  5 NShTot=          15 NBatch=          15 AvBLen=         1.0
 PRISM was handed   268416676 working-precision words and   231 shell-pairs
 PRISM was handed   268416676 working-precision words and   231 shell-pairs
 PRISM was handed   268416676 working-precision words and   231 shell-pairs
 PRISM was handed   268416676 working-precision words and   231 shell-pairs
 PRISM was handed   268416676 working-precision words and   231 shell-pairs
 IPart= 11 NShTot=           6 NBatch=           6 AvBLen=         1.0
 IPart= 15 NShTot=           3 NBatch=           3 AvBLen=         1.0
 IPart= 27 NShTot=           0 NBatch=           0 AvBLen=         0.0
 IPart= 26 NShTot=           0 NBatch=           0 AvBLen=         0.0
 IPart= 33 NShTot=           0 NBatch=           0 AvBLen=         0.0
 IPart= 29 NShTot=           0 NBatch=           0 AvBLen=         0.0
 IPart= 13 NShTot=           3 NBatch=           3 AvBLen=         1.0
 IPart=  7 NShTot=          13 NBatch=          13 AvBLen=         1.0
 IPart=  1 NShTot=          34 NBatch=          34 AvBLen=         1.0
 PrSmSu:  NxtVal=             37.
 *** Overlap *** 
                1             2             3             4             5 
      1  0.100000D+01
      2  0.154819D-01  0.100000D+01
      3 -0.478137D-01 -0.790233D+00  0.100000D+01
      4  0.248462D+00  0.262633D+00 -0.565272D+00  0.100000D+01
      5  0.293107D+00  0.163571D+00 -0.377722D+00  0.917052D+00  0.100000D+01
      6  0.258461D+00  0.940105D-01 -0.226388D+00  0.693253D+00  0.897345D+00
      7  0.139137D+00  0.373260D-01 -0.923729D-01  0.337233D+00  0.515702D+00
      8  0.000000D+00  0.000000D+00  0.000000D+00  0.000000D+00  0.000000D+00
      9  0.000000D+00  0.000000D+00  0.000000D+00  0.000000D+00  0.000000D+00
     10 -0.123713D+00  0.000000D+00  0.000000D+00  0.000000D+00  0.000000D+00
     11  0.000000D+00  0.000000D+00  0.000000D+00  0.000000D+00  0.000000D+00
     12  0.000000D+00  0.000000D+00  0.000000D+00  0.000000D+00  0.000000D+00
     13 -0.406890D+00  0.000000D+00  0.000000D+00  0.000000D+00  0.000000D+00
     14  0.000000D+00  0.000000D+00  0.000000D+00  0.000000D+00  0.000000D+00
     15  0.000000D+00  0.000000D+00  0.000000D+00  0.000000D+00  0.000000D+00
     16 -0.415398D+00  0.000000D+00  0.000000D+00  0.000000D+00  0.000000D+00
     17  0.000000D+00  0.000000D+00  0.000000D+00  0.000000D+00  0.000000D+00
     18  0.000000D+00  0.000000D+00  0.000000D+00  0.000000D+00  0.000000D+00
     19 -0.236127D+00  0.000000D+00  0.000000D+00  0.000000D+00  0.000000D+00
     20  0.000000D+00  0.000000D+00  0.000000D+00  0.000000D+00  0.000000D+00
     21  0.000000D+00  0.000000D+00  0.000000D+00  0.000000D+00  0.000000D+00
     22 -0.105479D+00  0.000000D+00  0.000000D+00  0.000000D+00  0.000000D+00
     23  0.176728D+00  0.000000D+00  0.000000D+00  0.000000D+00  0.000000D+00
     24  0.000000D+00  0.000000D+00  0.000000D+00  0.000000D+00  0.000000D+00
     25  0.000000D+00  0.000000D+00  0.000000D+00  0.000000D+00  0.000000D+00
     26  0.000000D+00  0.000000D+00  0.000000D+00  0.000000D+00  0.000000D+00
     27  0.000000D+00  0.000000D+00  0.000000D+00  0.000000D+00  0.000000D+00
     28  0.409006D+00  0.000000D+00  0.000000D+00  0.000000D+00  0.000000D+00
     29  0.000000D+00  0.000000D+00  0.000000D+00  0.000000D+00  0.000000D+00
     30  0.000000D+00  0.000000D+00  0.000000D+00  0.000000D+00  0.000000D+00
     31  0.000000D+00  0.000000D+00  0.000000D+00  0.000000D+00  0.000000D+00
     32  0.000000D+00  0.000000D+00  0.000000D+00  0.000000D+00  0.000000D+00
     33  0.431117D+00  0.000000D+00  0.000000D+00  0.000000D+00  0.000000D+00
     34  0.000000D+00  0.000000D+00  0.000000D+00  0.000000D+00  0.000000D+00
     35  0.000000D+00  0.000000D+00  0.000000D+00  0.000000D+00  0.000000D+00
     36  0.000000D+00  0.000000D+00  0.000000D+00  0.000000D+00  0.000000D+00
     37  0.000000D+00  0.000000D+00  0.000000D+00  0.000000D+00  0.000000D+00
     38  0.244715D+00  0.000000D+00  0.000000D+00  0.000000D+00  0.000000D+00
     39  0.000000D+00  0.000000D+00  0.000000D+00  0.000000D+00  0.000000D+00
     40  0.000000D+00  0.000000D+00  0.000000D+00  0.000000D+00  0.000000D+00
     41  0.000000D+00  0.000000D+00  0.000000D+00  0.000000D+00  0.000000D+00
     42  0.000000D+00  0.000000D+00  0.000000D+00  0.000000D+00  0.000000D+00
     43 -0.279042D+00  0.000000D+00  0.000000D+00  0.000000D+00  0.000000D+00
     44  0.000000D+00  0.000000D+00  0.000000D+00  0.000000D+00  0.000000D+00
     45  0.000000D+00  0.000000D+00  0.000000D+00  0.000000D+00  0.000000D+00
     46  0.000000D+00  0.000000D+00  0.000000D+00  0.000000D+00  0.000000D+00
     47  0.000000D+00  0.000000D+00  0.000000D+00  0.000000D+00  0.000000D+00
     48  0.000000D+00  0.000000D+00  0.000000D+00  0.000000D+00  0.000000D+00
     49  0.000000D+00  0.000000D+00  0.000000D+00  0.000000D+00  0.000000D+00
     50 -0.399109D+00  0.000000D+00  0.000000D+00  0.000000D+00  0.000000D+00
     51  0.000000D+00  0.000000D+00  0.000000D+00  0.000000D+00  0.000000D+00
     52  0.000000D+00  0.000000D+00  0.000000D+00  0.000000D+00  0.000000D+00
     53  0.000000D+00  0.000000D+00  0.000000D+00  0.000000D+00  0.000000D+00
     54  0.000000D+00  0.000000D+00  0.000000D+00  0.000000D+00  0.000000D+00
     55  0.000000D+00  0.000000D+00  0.000000D+00  0.000000D+00  0.000000D+00
     56  0.000000D+00  0.000000D+00  0.000000D+00  0.000000D+00  0.000000D+00
     57 -0.274717D+00  0.000000D+00  0.000000D+00  0.000000D+00  0.000000D+00
     58  0.000000D+00  0.000000D+00  0.000000D+00  0.000000D+00  0.000000D+00
     59  0.000000D+00  0.000000D+00  0.000000D+00  0.000000D+00  0.000000D+00
     60  0.000000D+00  0.000000D+00  0.000000D+00  0.000000D+00  0.000000D+00
     61  0.000000D+00  0.000000D+00  0.000000D+00  0.000000D+00  0.000000D+00
     62  0.000000D+00  0.000000D+00  0.000000D+00  0.000000D+00  0.000000D+00
     63  0.000000D+00  0.000000D+00  0.000000D+00  0.000000D+00  0.000000D+00
     64  0.267484D+00  0.000000D+00  0.000000D+00  0.000000D+00  0.000000D+00
     65  0.000000D+00  0.000000D+00  0.000000D+00  0.000000D+00  0.000000D+00
     66  0.000000D+00  0.000000D+00  0.000000D+00  0.000000D+00  0.000000D+00
     67  0.000000D+00  0.000000D+00  0.000000D+00  0.000000D+00  0.000000D+00
     68  0.000000D+00  0.000000D+00  0.000000D+00  0.000000D+00  0.000000D+00
     69  0.000000D+00  0.000000D+00  0.000000D+00  0.000000D+00  0.000000D+00
     70  0.000000D+00  0.000000D+00  0.000000D+00  0.000000D+00  0.000000D+00
     71  0.000000D+00  0.000000D+00  0.000000D+00  0.000000D+00  0.000000D+00
     72  0.000000D+00  0.000000D+00  0.000000D+00  0.000000D+00  0.000000D+00
     73  0.293707D+00  0.000000D+00  0.000000D+00  0.000000D+00  0.000000D+00
     74  0.000000D+00  0.000000D+00  0.000000D+00  0.000000D+00  0.000000D+00
     75  0.000000D+00  0.000000D+00  0.000000D+00  0.000000D+00  0.000000D+00
     76  0.000000D+00  0.000000D+00  0.000000D+00  0.000000D+00  0.000000D+00
     77  0.000000D+00  0.000000D+00  0.000000D+00  0.000000D+00  0.000000D+00
     78  0.000000D+00  0.000000D+00  0.000000D+00  0.000000D+00  0.000000D+00
     79  0.000000D+00  0.000000D+00  0.000000D+00  0.000000D+00  0.000000D+00
     80  0.000000D+00  0.000000D+00  0.000000D+00  0.000000D+00  0.000000D+00
     81  0.000000D+00  0.000000D+00  0.000000D+00  0.000000D+00  0.000000D+00
                6             7             8             9            10 
      6  0.100000D+01
      7  0.758763D+00  0.100000D+01
      8  0.000000D+00  0.000000D+00  0.100000D+01
      9  0.000000D+00  0.000000D+00  0.000000D+00  0.100000D+01
     10  0.000000D+00  0.000000D+00  0.000000D+00  0.000000D+00  0.100000D+01
     11  0.000000D+00  0.000000D+00  0.631085D+00  0.000000D+00  0.000000D+00
     12  0.000000D+00  0.000000D+00  0.000000D+00  0.631085D+00  0.000000D+00
     13  0.000000D+00  0.000000D+00  0.000000D+00  0.000000D+00  0.631085D+00
     14  0.000000D+00  0.000000D+00  0.275662D+00  0.000000D+00  0.000000D+00
     15  0.000000D+00  0.000000D+00  0.000000D+00  0.275662D+00  0.000000D+00
     16  0.000000D+00  0.000000D+00  0.000000D+00  0.000000D+00  0.275662D+00
     17  0.000000D+00  0.000000D+00  0.103467D+00  0.000000D+00  0.000000D+00
     18  0.000000D+00  0.000000D+00  0.000000D+00  0.103467D+00  0.000000D+00
     19  0.000000D+00  0.000000D+00  0.000000D+00  0.000000D+00  0.103467D+00
     20  0.000000D+00  0.000000D+00  0.384460D-01  0.000000D+00  0.000000D+00
     21  0.000000D+00  0.000000D+00  0.000000D+00  0.384460D-01  0.000000D+00
     22  0.000000D+00  0.000000D+00  0.000000D+00  0.000000D+00  0.384460D-01
     23  0.000000D+00  0.000000D+00  0.000000D+00  0.000000D+00  0.000000D+00
     24  0.000000D+00  0.000000D+00  0.000000D+00  0.000000D+00  0.000000D+00
     25  0.000000D+00  0.000000D+00  0.000000D+00  0.000000D+00  0.000000D+00
     26  0.000000D+00  0.000000D+00  0.000000D+00  0.000000D+00  0.000000D+00
     27  0.000000D+00  0.000000D+00  0.000000D+00  0.000000D+00  0.000000D+00
     28  0.000000D+00  0.000000D+00  0.000000D+00  0.000000D+00  0.000000D+00
     29  0.000000D+00  0.000000D+00  0.000000D+00  0.000000D+00  0.000000D+00
     30  0.000000D+00  0.000000D+00  0.000000D+00  0.000000D+00  0.000000D+00
     31  0.000000D+00  0.000000D+00  0.000000D+00  0.000000D+00  0.000000D+00
     32  0.000000D+00  0.000000D+00  0.000000D+00  0.000000D+00  0.000000D+00
     33  0.000000D+00  0.000000D+00  0.000000D+00  0.000000D+00  0.000000D+00
     34  0.000000D+00  0.000000D+00  0.000000D+00  0.000000D+00  0.000000D+00
     35  0.000000D+00  0.000000D+00  0.000000D+00  0.000000D+00  0.000000D+00
     36  0.000000D+00  0.000000D+00  0.000000D+00  0.000000D+00  0.000000D+00
     37  0.000000D+00  0.000000D+00  0.000000D+00  0.000000D+00  0.000000D+00
     38  0.000000D+00  0.000000D+00  0.000000D+00  0.000000D+00  0.000000D+00
     39  0.000000D+00  0.000000D+00  0.000000D+00  0.000000D+00  0.000000D+00
     40  0.000000D+00  0.000000D+00  0.000000D+00  0.000000D+00  0.000000D+00
     41  0.000000D+00  0.000000D+00  0.000000D+00  0.000000D+00  0.000000D+00
     42  0.000000D+00  0.000000D+00  0.000000D+00  0.000000D+00  0.000000D+00
     43  0.000000D+00  0.000000D+00  0.000000D+00  0.000000D+00  0.000000D+00
     44  0.000000D+00  0.000000D+00  0.000000D+00  0.000000D+00  0.000000D+00
     45  0.000000D+00  0.000000D+00  0.000000D+00  0.000000D+00  0.000000D+00
     46  0.000000D+00  0.000000D+00  0.000000D+00  0.000000D+00  0.000000D+00
     47  0.000000D+00  0.000000D+00  0.000000D+00  0.000000D+00  0.000000D+00
     48  0.000000D+00  0.000000D+00  0.000000D+00  0.000000D+00  0.000000D+00
     49  0.000000D+00  0.000000D+00  0.000000D+00  0.000000D+00  0.000000D+00
     50  0.000000D+00  0.000000D+00  0.000000D+00  0.000000D+00  0.000000D+00
     51  0.000000D+00  0.000000D+00  0.000000D+00  0.000000D+00  0.000000D+00
     52  0.000000D+00  0.000000D+00  0.000000D+00  0.000000D+00  0.000000D+00
     53  0.000000D+00  0.000000D+00  0.000000D+00  0.000000D+00  0.000000D+00
     54  0.000000D+00  0.000000D+00  0.000000D+00  0.000000D+00  0.000000D+00
     55  0.000000D+00  0.000000D+00  0.000000D+00  0.000000D+00  0.000000D+00
     56  0.000000D+00  0.000000D+00  0.000000D+00  0.000000D+00  0.000000D+00
     57  0.000000D+00  0.000000D+00  0.000000D+00  0.000000D+00  0.000000D+00
     58  0.000000D+00  0.000000D+00  0.000000D+00  0.000000D+00  0.000000D+00
     59  0.000000D+00  0.000000D+00  0.000000D+00  0.000000D+00  0.000000D+00
     60  0.000000D+00  0.000000D+00  0.000000D+00  0.000000D+00  0.000000D+00
     61  0.000000D+00  0.000000D+00  0.000000D+00  0.000000D+00  0.000000D+00
     62  0.000000D+00  0.000000D+00  0.000000D+00  0.000000D+00  0.000000D+00
     63  0.000000D+00  0.000000D+00  0.000000D+00  0.000000D+00  0.000000D+00
     64  0.000000D+00  0.000000D+00  0.000000D+00  0.000000D+00  0.000000D+00
     65  0.000000D+00  0.000000D+00  0.000000D+00  0.000000D+00  0.000000D+00
     66  0.000000D+00  0.000000D+00  0.000000D+00  0.000000D+00  0.000000D+00
     67  0.000000D+00  0.000000D+00  0.000000D+00  0.000000D+00  0.000000D+00
     68  0.000000D+00  0.000000D+00  0.000000D+00  0.000000D+00  0.000000D+00
     69  0.000000D+00  0.000000D+00  0.000000D+00  0.000000D+00  0.000000D+00
     70  0.000000D+00  0.000000D+00  0.000000D+00  0.000000D+00  0.000000D+00
     71  0.000000D+00  0.000000D+00  0.000000D+00  0.000000D+00  0.000000D+00
     72  0.000000D+00  0.000000D+00  0.000000D+00  0.000000D+00  0.000000D+00
     73  0.000000D+00  0.000000D+00  0.000000D+00  0.000000D+00  0.000000D+00
     74  0.000000D+00  0.000000D+00  0.000000D+00  0.000000D+00  0.000000D+00
     75  0.000000D+00  0.000000D+00  0.000000D+00  0.000000D+00  0.000000D+00
     76  0.000000D+00  0.000000D+00  0.000000D+00  0.000000D+00  0.000000D+00
     77  0.000000D+00  0.000000D+00  0.000000D+00  0.000000D+00  0.000000D+00
     78  0.000000D+00  0.000000D+00  0.000000D+00  0.000000D+00  0.000000D+00
     79  0.000000D+00  0.000000D+00  0.000000D+00  0.000000D+00  0.000000D+00
     80  0.000000D+00  0.000000D+00  0.000000D+00  0.000000D+00  0.000000D+00
     81  0.000000D+00  0.000000D+00  0.000000D+00  0.000000D+00  0.000000D+00
               11            12            13            14            15 
     11  0.100000D+01
     12  0.000000D+00  0.100000D+01
     13  0.000000D+00  0.000000D+00  0.100000D+01
     14  0.749166D+00  0.000000D+00  0.000000D+00  0.100000D+01
     15  0.000000D+00  0.749166D+00  0.000000D+00  0.000000D+00  0.100000D+01
     16  0.000000D+00  0.000000D+00  0.749166D+00  0.000000D+00  0.000000D+00
     17  0.373690D+00  0.000000D+00  0.000000D+00  0.777195D+00  0.000000D+00
     18  0.000000D+00  0.373690D+00  0.000000D+00  0.000000D+00  0.777195D+00
     19  0.000000D+00  0.000000D+00  0.373690D+00  0.000000D+00  0.000000D+00
     20  0.157961D+00  0.000000D+00  0.000000D+00  0.422515D+00  0.000000D+00
     21  0.000000D+00  0.157961D+00  0.000000D+00  0.000000D+00  0.422515D+00
     22  0.000000D+00  0.000000D+00  0.157961D+00  0.000000D+00  0.000000D+00
     23  0.000000D+00  0.000000D+00  0.000000D+00  0.000000D+00  0.000000D+00
     24  0.000000D+00  0.000000D+00  0.000000D+00  0.000000D+00  0.000000D+00
     25  0.000000D+00  0.000000D+00  0.000000D+00  0.000000D+00  0.000000D+00
     26  0.000000D+00  0.000000D+00  0.000000D+00  0.000000D+00  0.000000D+00
     27  0.000000D+00  0.000000D+00  0.000000D+00  0.000000D+00  0.000000D+00
     28  0.000000D+00  0.000000D+00  0.000000D+00  0.000000D+00  0.000000D+00
     29  0.000000D+00  0.000000D+00  0.000000D+00  0.000000D+00  0.000000D+00
     30  0.000000D+00  0.000000D+00  0.000000D+00  0.000000D+00  0.000000D+00
     31  0.000000D+00  0.000000D+00  0.000000D+00  0.000000D+00  0.000000D+00
     32  0.000000D+00  0.000000D+00  0.000000D+00  0.000000D+00  0.000000D+00
     33  0.000000D+00  0.000000D+00  0.000000D+00  0.000000D+00  0.000000D+00
     34  0.000000D+00  0.000000D+00  0.000000D+00  0.000000D+00  0.000000D+00
     35  0.000000D+00  0.000000D+00  0.000000D+00  0.000000D+00  0.000000D+00
     36  0.000000D+00  0.000000D+00  0.000000D+00  0.000000D+00  0.000000D+00
     37  0.000000D+00  0.000000D+00  0.000000D+00  0.000000D+00  0.000000D+00
     38  0.000000D+00  0.000000D+00  0.000000D+00  0.000000D+00  0.000000D+00
     39  0.000000D+00  0.000000D+00  0.000000D+00  0.000000D+00  0.000000D+00
     40  0.000000D+00  0.000000D+00  0.000000D+00  0.000000D+00  0.000000D+00
     41  0.000000D+00  0.000000D+00  0.000000D+00  0.000000D+00  0.000000D+00
     42  0.000000D+00  0.000000D+00  0.000000D+00  0.000000D+00  0.000000D+00
     43  0.000000D+00  0.000000D+00  0.000000D+00  0.000000D+00  0.000000D+00
     44  0.000000D+00  0.000000D+00  0.000000D+00  0.000000D+00  0.000000D+00
     45  0.000000D+00  0.000000D+00  0.000000D+00  0.000000D+00  0.000000D+00
     46  0.000000D+00  0.000000D+00  0.000000D+00  0.000000D+00  0.000000D+00
     47  0.000000D+00  0.000000D+00  0.000000D+00  0.000000D+00  0.000000D+00
     48  0.000000D+00  0.000000D+00  0.000000D+00  0.000000D+00  0.000000D+00
     49  0.000000D+00  0.000000D+00  0.000000D+00  0.000000D+00  0.000000D+00
     50  0.000000D+00  0.000000D+00  0.000000D+00  0.000000D+00  0.000000D+00
     51  0.000000D+00  0.000000D+00  0.000000D+00  0.000000D+00  0.000000D+00
     52  0.000000D+00  0.000000D+00  0.000000D+00  0.000000D+00  0.000000D+00
     53  0.000000D+00  0.000000D+00  0.000000D+00  0.000000D+00  0.000000D+00
     54  0.000000D+00  0.000000D+00  0.000000D+00  0.000000D+00  0.000000D+00
     55  0.000000D+00  0.000000D+00  0.000000D+00  0.000000D+00  0.000000D+00
     56  0.000000D+00  0.000000D+00  0.000000D+00  0.000000D+00  0.000000D+00
     57  0.000000D+00  0.000000D+00  0.000000D+00  0.000000D+00  0.000000D+00
     58  0.000000D+00  0.000000D+00  0.000000D+00  0.000000D+00  0.000000D+00
     59  0.000000D+00  0.000000D+00  0.000000D+00  0.000000D+00  0.000000D+00
     60  0.000000D+00  0.000000D+00  0.000000D+00  0.000000D+00  0.000000D+00
     61  0.000000D+00  0.000000D+00  0.000000D+00  0.000000D+00  0.000000D+00
     62  0.000000D+00  0.000000D+00  0.000000D+00  0.000000D+00  0.000000D+00
     63  0.000000D+00  0.000000D+00  0.000000D+00  0.000000D+00  0.000000D+00
     64  0.000000D+00  0.000000D+00  0.000000D+00  0.000000D+00  0.000000D+00
     65  0.000000D+00  0.000000D+00  0.000000D+00  0.000000D+00  0.000000D+00
     66  0.000000D+00  0.000000D+00  0.000000D+00  0.000000D+00  0.000000D+00
     67  0.000000D+00  0.000000D+00  0.000000D+00  0.000000D+00  0.000000D+00
     68  0.000000D+00  0.000000D+00  0.000000D+00  0.000000D+00  0.000000D+00
     69  0.000000D+00  0.000000D+00  0.000000D+00  0.000000D+00  0.000000D+00
     70  0.000000D+00  0.000000D+00  0.000000D+00  0.000000D+00  0.000000D+00
     71  0.000000D+00  0.000000D+00  0.000000D+00  0.000000D+00  0.000000D+00
     72  0.000000D+00  0.000000D+00  0.000000D+00  0.000000D+00  0.000000D+00
     73  0.000000D+00  0.000000D+00  0.000000D+00  0.000000D+00  0.000000D+00
     74  0.000000D+00  0.000000D+00  0.000000D+00  0.000000D+00  0.000000D+00
     75  0.000000D+00  0.000000D+00  0.000000D+00  0.000000D+00  0.000000D+00
     76  0.000000D+00  0.000000D+00  0.000000D+00  0.000000D+00  0.000000D+00
     77  0.000000D+00  0.000000D+00  0.000000D+00  0.000000D+00  0.000000D+00
     78  0.000000D+00  0.000000D+00  0.000000D+00  0.000000D+00  0.000000D+00
     79  0.000000D+00  0.000000D+00  0.000000D+00  0.000000D+00  0.000000D+00
     80  0.000000D+00  0.000000D+00  0.000000D+00  0.000000D+00  0.000000D+00
     81  0.000000D+00  0.000000D+00  0.000000D+00  0.000000D+00  0.000000D+00
               16            17            18            19            20 
     16  0.100000D+01
     17  0.000000D+00  0.100000D+01
     18  0.000000D+00  0.000000D+00  0.100000D+01
     19  0.777195D+00  0.000000D+00  0.000000D+00  0.100000D+01
     20  0.000000D+00  0.805531D+00  0.000000D+00  0.000000D+00  0.100000D+01
     21  0.000000D+00  0.000000D+00  0.805531D+00  0.000000D+00  0.000000D+00
     22  0.422515D+00  0.000000D+00  0.000000D+00  0.805531D+00  0.000000D+00
     23  0.000000D+00  0.000000D+00  0.000000D+00  0.000000D+00  0.000000D+00
     24  0.000000D+00  0.000000D+00  0.000000D+00  0.000000D+00  0.000000D+00
     25  0.000000D+00  0.000000D+00  0.000000D+00  0.000000D+00  0.000000D+00
     26  0.000000D+00  0.000000D+00  0.000000D+00  0.000000D+00  0.000000D+00
     27  0.000000D+00  0.000000D+00  0.000000D+00  0.000000D+00  0.000000D+00
     28  0.000000D+00  0.000000D+00  0.000000D+00  0.000000D+00  0.000000D+00
     29  0.000000D+00  0.000000D+00  0.000000D+00  0.000000D+00  0.000000D+00
     30  0.000000D+00  0.000000D+00  0.000000D+00  0.000000D+00  0.000000D+00
     31  0.000000D+00  0.000000D+00  0.000000D+00  0.000000D+00  0.000000D+00
     32  0.000000D+00  0.000000D+00  0.000000D+00  0.000000D+00  0.000000D+00
     33  0.000000D+00  0.000000D+00  0.000000D+00  0.000000D+00  0.000000D+00
     34  0.000000D+00  0.000000D+00  0.000000D+00  0.000000D+00  0.000000D+00
     35  0.000000D+00  0.000000D+00  0.000000D+00  0.000000D+00  0.000000D+00
     36  0.000000D+00  0.000000D+00  0.000000D+00  0.000000D+00  0.000000D+00
     37  0.000000D+00  0.000000D+00  0.000000D+00  0.000000D+00  0.000000D+00
     38  0.000000D+00  0.000000D+00  0.000000D+00  0.000000D+00  0.000000D+00
     39  0.000000D+00  0.000000D+00  0.000000D+00  0.000000D+00  0.000000D+00
     40  0.000000D+00  0.000000D+00  0.000000D+00  0.000000D+00  0.000000D+00
     41  0.000000D+00  0.000000D+00  0.000000D+00  0.000000D+00  0.000000D+00
     42  0.000000D+00  0.000000D+00  0.000000D+00  0.000000D+00  0.000000D+00
     43  0.000000D+00  0.000000D+00  0.000000D+00  0.000000D+00  0.000000D+00
     44  0.000000D+00  0.000000D+00  0.000000D+00  0.000000D+00  0.000000D+00
     45  0.000000D+00  0.000000D+00  0.000000D+00  0.000000D+00  0.000000D+00
     46  0.000000D+00  0.000000D+00  0.000000D+00  0.000000D+00  0.000000D+00
     47  0.000000D+00  0.000000D+00  0.000000D+00  0.000000D+00  0.000000D+00
     48  0.000000D+00  0.000000D+00  0.000000D+00  0.000000D+00  0.000000D+00
     49  0.000000D+00  0.000000D+00  0.000000D+00  0.000000D+00  0.000000D+00
     50  0.000000D+00  0.000000D+00  0.000000D+00  0.000000D+00  0.000000D+00
     51  0.000000D+00  0.000000D+00  0.000000D+00  0.000000D+00  0.000000D+00
     52  0.000000D+00  0.000000D+00  0.000000D+00  0.000000D+00  0.000000D+00
     53  0.000000D+00  0.000000D+00  0.000000D+00  0.000000D+00  0.000000D+00
     54  0.000000D+00  0.000000D+00  0.000000D+00  0.000000D+00  0.000000D+00
     55  0.000000D+00  0.000000D+00  0.000000D+00  0.000000D+00  0.000000D+00
     56  0.000000D+00  0.000000D+00  0.000000D+00  0.000000D+00  0.000000D+00
     57  0.000000D+00  0.000000D+00  0.000000D+00  0.000000D+00  0.000000D+00
     58  0.000000D+00  0.000000D+00  0.000000D+00  0.000000D+00  0.000000D+00
     59  0.000000D+00  0.000000D+00  0.000000D+00  0.000000D+00  0.000000D+00
     60  0.000000D+00  0.000000D+00  0.000000D+00  0.000000D+00  0.000000D+00
     61  0.000000D+00  0.000000D+00  0.000000D+00  0.000000D+00  0.000000D+00
     62  0.000000D+00  0.000000D+00  0.000000D+00  0.000000D+00  0.000000D+00
     63  0.000000D+00  0.000000D+00  0.000000D+00  0.000000D+00  0.000000D+00
     64  0.000000D+00  0.000000D+00  0.000000D+00  0.000000D+00  0.000000D+00
     65  0.000000D+00  0.000000D+00  0.000000D+00  0.000000D+00  0.000000D+00
     66  0.000000D+00  0.000000D+00  0.000000D+00  0.000000D+00  0.000000D+00
     67  0.000000D+00  0.000000D+00  0.000000D+00  0.000000D+00  0.000000D+00
     68  0.000000D+00  0.000000D+00  0.000000D+00  0.000000D+00  0.000000D+00
     69  0.000000D+00  0.000000D+00  0.000000D+00  0.000000D+00  0.000000D+00
     70  0.000000D+00  0.000000D+00  0.000000D+00  0.000000D+00  0.000000D+00
     71  0.000000D+00  0.000000D+00  0.000000D+00  0.000000D+00  0.000000D+00
     72  0.000000D+00  0.000000D+00  0.000000D+00  0.000000D+00  0.000000D+00
     73  0.000000D+00  0.000000D+00  0.000000D+00  0.000000D+00  0.000000D+00
     74  0.000000D+00  0.000000D+00  0.000000D+00  0.000000D+00  0.000000D+00
     75  0.000000D+00  0.000000D+00  0.000000D+00  0.000000D+00  0.000000D+00
     76  0.000000D+00  0.000000D+00  0.000000D+00  0.000000D+00  0.000000D+00
     77  0.000000D+00  0.000000D+00  0.000000D+00  0.000000D+00  0.000000D+00
     78  0.000000D+00  0.000000D+00  0.000000D+00  0.000000D+00  0.000000D+00
     79  0.000000D+00  0.000000D+00  0.000000D+00  0.000000D+00  0.000000D+00
     80  0.000000D+00  0.000000D+00  0.000000D+00  0.000000D+00  0.000000D+00
     81  0.000000D+00  0.000000D+00  0.000000D+00  0.000000D+00  0.000000D+00
               21            22            23            24            25 
     21  0.100000D+01
     22  0.000000D+00  0.100000D+01
     23  0.000000D+00  0.000000D+00  0.100000D+01
     24  0.000000D+00  0.000000D+00  0.000000D+00  0.100000D+01
     25  0.000000D+00  0.000000D+00  0.000000D+00  0.000000D+00  0.100000D+01
     26  0.000000D+00  0.000000D+00  0.000000D+00  0.000000D+00  0.000000D+00
     27  0.000000D+00  0.000000D+00  0.000000D+00  0.000000D+00  0.000000D+00
     28  0.000000D+00  0.000000D+00  0.756040D+00  0.000000D+00  0.000000D+00
     29  0.000000D+00  0.000000D+00  0.000000D+00  0.756040D+00  0.000000D+00
     30  0.000000D+00  0.000000D+00  0.000000D+00  0.000000D+00  0.756040D+00
     31  0.000000D+00  0.000000D+00  0.000000D+00  0.000000D+00  0.000000D+00
     32  0.000000D+00  0.000000D+00  0.000000D+00  0.000000D+00  0.000000D+00
     33  0.000000D+00  0.000000D+00  0.352641D+00  0.000000D+00  0.000000D+00
     34  0.000000D+00  0.000000D+00  0.000000D+00  0.352641D+00  0.000000D+00
     35  0.000000D+00  0.000000D+00  0.000000D+00  0.000000D+00  0.352641D+00
     36  0.000000D+00  0.000000D+00  0.000000D+00  0.000000D+00  0.000000D+00
     37  0.000000D+00  0.000000D+00  0.000000D+00  0.000000D+00  0.000000D+00
     38  0.000000D+00  0.000000D+00  0.120257D+00  0.000000D+00  0.000000D+00
     39  0.000000D+00  0.000000D+00  0.000000D+00  0.120257D+00  0.000000D+00
     40  0.000000D+00  0.000000D+00  0.000000D+00  0.000000D+00  0.120257D+00
     41  0.000000D+00  0.000000D+00  0.000000D+00  0.000000D+00  0.000000D+00
     42  0.000000D+00  0.000000D+00  0.000000D+00  0.000000D+00  0.000000D+00
     43  0.000000D+00  0.000000D+00  0.000000D+00  0.000000D+00  0.000000D+00
     44  0.000000D+00  0.000000D+00  0.000000D+00  0.000000D+00  0.000000D+00
     45  0.000000D+00  0.000000D+00  0.000000D+00  0.000000D+00  0.000000D+00
     46  0.000000D+00  0.000000D+00  0.000000D+00  0.000000D+00  0.000000D+00
     47  0.000000D+00  0.000000D+00  0.000000D+00  0.000000D+00  0.000000D+00
     48  0.000000D+00  0.000000D+00  0.000000D+00  0.000000D+00  0.000000D+00
     49  0.000000D+00  0.000000D+00  0.000000D+00  0.000000D+00  0.000000D+00
     50  0.000000D+00  0.000000D+00  0.000000D+00  0.000000D+00  0.000000D+00
     51  0.000000D+00  0.000000D+00  0.000000D+00  0.000000D+00  0.000000D+00
     52  0.000000D+00  0.000000D+00  0.000000D+00  0.000000D+00  0.000000D+00
     53  0.000000D+00  0.000000D+00  0.000000D+00  0.000000D+00  0.000000D+00
     54  0.000000D+00  0.000000D+00  0.000000D+00  0.000000D+00  0.000000D+00
     55  0.000000D+00  0.000000D+00  0.000000D+00  0.000000D+00  0.000000D+00
     56  0.000000D+00  0.000000D+00  0.000000D+00  0.000000D+00  0.000000D+00
     57  0.000000D+00  0.000000D+00  0.000000D+00  0.000000D+00  0.000000D+00
     58  0.000000D+00  0.000000D+00  0.000000D+00  0.000000D+00  0.000000D+00
     59  0.000000D+00  0.000000D+00  0.000000D+00  0.000000D+00  0.000000D+00
     60  0.000000D+00  0.000000D+00  0.000000D+00  0.000000D+00  0.000000D+00
     61  0.000000D+00  0.000000D+00  0.000000D+00  0.000000D+00  0.000000D+00
     62  0.000000D+00  0.000000D+00  0.000000D+00  0.000000D+00  0.000000D+00
     63  0.000000D+00  0.000000D+00  0.000000D+00  0.000000D+00  0.000000D+00
     64  0.000000D+00  0.000000D+00  0.000000D+00  0.000000D+00  0.000000D+00
     65  0.000000D+00  0.000000D+00  0.000000D+00  0.000000D+00  0.000000D+00
     66  0.000000D+00  0.000000D+00  0.000000D+00  0.000000D+00  0.000000D+00
     67  0.000000D+00  0.000000D+00  0.000000D+00  0.000000D+00  0.000000D+00
     68  0.000000D+00  0.000000D+00  0.000000D+00  0.000000D+00  0.000000D+00
     69  0.000000D+00  0.000000D+00  0.000000D+00  0.000000D+00  0.000000D+00
     70  0.000000D+00  0.000000D+00  0.000000D+00  0.000000D+00  0.000000D+00
     71  0.000000D+00  0.000000D+00  0.000000D+00  0.000000D+00  0.000000D+00
     72  0.000000D+00  0.000000D+00  0.000000D+00  0.000000D+00  0.000000D+00
     73  0.000000D+00  0.000000D+00  0.000000D+00  0.000000D+00  0.000000D+00
     74  0.000000D+00  0.000000D+00  0.000000D+00  0.000000D+00  0.000000D+00
     75  0.000000D+00  0.000000D+00  0.000000D+00  0.000000D+00  0.000000D+00
     76  0.000000D+00  0.000000D+00  0.000000D+00  0.000000D+00  0.000000D+00
     77  0.000000D+00  0.000000D+00  0.000000D+00  0.000000D+00  0.000000D+00
     78  0.000000D+00  0.000000D+00  0.000000D+00  0.000000D+00  0.000000D+00
     79  0.000000D+00  0.000000D+00  0.000000D+00  0.000000D+00  0.000000D+00
     80  0.000000D+00  0.000000D+00  0.000000D+00  0.000000D+00  0.000000D+00
     81  0.000000D+00  0.000000D+00  0.000000D+00  0.000000D+00  0.000000D+00
               26            27            28            29            30 
     26  0.100000D+01
     27  0.000000D+00  0.100000D+01
     28  0.000000D+00  0.000000D+00  0.100000D+01
     29  0.000000D+00  0.000000D+00  0.000000D+00  0.100000D+01
     30  0.000000D+00  0.000000D+00  0.000000D+00  0.000000D+00  0.100000D+01
     31  0.756040D+00  0.000000D+00  0.000000D+00  0.000000D+00  0.000000D+00
     32  0.000000D+00  0.756040D+00  0.000000D+00  0.000000D+00  0.000000D+00
     33  0.000000D+00  0.000000D+00  0.755671D+00  0.000000D+00  0.000000D+00
     34  0.000000D+00  0.000000D+00  0.000000D+00  0.755671D+00  0.000000D+00
     35  0.000000D+00  0.000000D+00  0.000000D+00  0.000000D+00  0.755671D+00
     36  0.352641D+00  0.000000D+00  0.000000D+00  0.000000D+00  0.000000D+00
     37  0.000000D+00  0.352641D+00  0.000000D+00  0.000000D+00  0.000000D+00
     38  0.000000D+00  0.000000D+00  0.354232D+00  0.000000D+00  0.000000D+00
     39  0.000000D+00  0.000000D+00  0.000000D+00  0.354232D+00  0.000000D+00
     40  0.000000D+00  0.000000D+00  0.000000D+00  0.000000D+00  0.354232D+00
     41  0.120257D+00  0.000000D+00  0.000000D+00  0.000000D+00  0.000000D+00
     42  0.000000D+00  0.120257D+00  0.000000D+00  0.000000D+00  0.000000D+00
     43  0.000000D+00  0.000000D+00  0.000000D+00  0.000000D+00  0.000000D+00
     44  0.000000D+00  0.000000D+00  0.000000D+00  0.000000D+00  0.000000D+00
     45  0.000000D+00  0.000000D+00  0.000000D+00  0.000000D+00  0.000000D+00
     46  0.000000D+00  0.000000D+00  0.000000D+00  0.000000D+00  0.000000D+00
     47  0.000000D+00  0.000000D+00  0.000000D+00  0.000000D+00  0.000000D+00
     48  0.000000D+00  0.000000D+00  0.000000D+00  0.000000D+00  0.000000D+00
     49  0.000000D+00  0.000000D+00  0.000000D+00  0.000000D+00  0.000000D+00
     50  0.000000D+00  0.000000D+00  0.000000D+00  0.000000D+00  0.000000D+00
     51  0.000000D+00  0.000000D+00  0.000000D+00  0.000000D+00  0.000000D+00
     52  0.000000D+00  0.000000D+00  0.000000D+00  0.000000D+00  0.000000D+00
     53  0.000000D+00  0.000000D+00  0.000000D+00  0.000000D+00  0.000000D+00
     54  0.000000D+00  0.000000D+00  0.000000D+00  0.000000D+00  0.000000D+00
     55  0.000000D+00  0.000000D+00  0.000000D+00  0.000000D+00  0.000000D+00
     56  0.000000D+00  0.000000D+00  0.000000D+00  0.000000D+00  0.000000D+00
     57  0.000000D+00  0.000000D+00  0.000000D+00  0.000000D+00  0.000000D+00
     58  0.000000D+00  0.000000D+00  0.000000D+00  0.000000D+00  0.000000D+00
     59  0.000000D+00  0.000000D+00  0.000000D+00  0.000000D+00  0.000000D+00
     60  0.000000D+00  0.000000D+00  0.000000D+00  0.000000D+00  0.000000D+00
     61  0.000000D+00  0.000000D+00  0.000000D+00  0.000000D+00  0.000000D+00
     62  0.000000D+00  0.000000D+00  0.000000D+00  0.000000D+00  0.000000D+00
     63  0.000000D+00  0.000000D+00  0.000000D+00  0.000000D+00  0.000000D+00
     64  0.000000D+00  0.000000D+00  0.000000D+00  0.000000D+00  0.000000D+00
     65  0.000000D+00  0.000000D+00  0.000000D+00  0.000000D+00  0.000000D+00
     66  0.000000D+00  0.000000D+00  0.000000D+00  0.000000D+00  0.000000D+00
     67  0.000000D+00  0.000000D+00  0.000000D+00  0.000000D+00  0.000000D+00
     68  0.000000D+00  0.000000D+00  0.000000D+00  0.000000D+00  0.000000D+00
     69  0.000000D+00  0.000000D+00  0.000000D+00  0.000000D+00  0.000000D+00
     70  0.000000D+00  0.000000D+00  0.000000D+00  0.000000D+00  0.000000D+00
     71  0.000000D+00  0.000000D+00  0.000000D+00  0.000000D+00  0.000000D+00
     72  0.000000D+00  0.000000D+00  0.000000D+00  0.000000D+00  0.000000D+00
     73  0.000000D+00  0.000000D+00  0.000000D+00  0.000000D+00  0.000000D+00
     74  0.000000D+00  0.000000D+00  0.000000D+00  0.000000D+00  0.000000D+00
     75  0.000000D+00  0.000000D+00  0.000000D+00  0.000000D+00  0.000000D+00
     76  0.000000D+00  0.000000D+00  0.000000D+00  0.000000D+00  0.000000D+00
     77  0.000000D+00  0.000000D+00  0.000000D+00  0.000000D+00  0.000000D+00
     78  0.000000D+00  0.000000D+00  0.000000D+00  0.000000D+00  0.000000D+00
     79  0.000000D+00  0.000000D+00  0.000000D+00  0.000000D+00  0.000000D+00
     80  0.000000D+00  0.000000D+00  0.000000D+00  0.000000D+00  0.000000D+00
     81  0.000000D+00  0.000000D+00  0.000000D+00  0.000000D+00  0.000000D+00
               31            32            33            34            35 
     31  0.100000D+01
     32  0.000000D+00  0.100000D+01
     33  0.000000D+00  0.000000D+00  0.100000D+01
     34  0.000000D+00  0.000000D+00  0.000000D+00  0.100000D+01
     35  0.000000D+00  0.000000D+00  0.000000D+00  0.000000D+00  0.100000D+01
     36  0.755671D+00  0.000000D+00  0.000000D+00  0.000000D+00  0.000000D+00
     37  0.000000D+00  0.755671D+00  0.000000D+00  0.000000D+00  0.000000D+00
     38  0.000000D+00  0.000000D+00  0.757993D+00  0.000000D+00  0.000000D+00
     39  0.000000D+00  0.000000D+00  0.000000D+00  0.757993D+00  0.000000D+00
     40  0.000000D+00  0.000000D+00  0.000000D+00  0.000000D+00  0.757993D+00
     41  0.354232D+00  0.000000D+00  0.000000D+00  0.000000D+00  0.000000D+00
     42  0.000000D+00  0.354232D+00  0.000000D+00  0.000000D+00  0.000000D+00
     43  0.000000D+00  0.000000D+00  0.000000D+00  0.000000D+00  0.000000D+00
     44  0.000000D+00  0.000000D+00  0.000000D+00  0.000000D+00  0.000000D+00
     45  0.000000D+00  0.000000D+00  0.000000D+00  0.000000D+00  0.000000D+00
     46  0.000000D+00  0.000000D+00  0.000000D+00  0.000000D+00  0.000000D+00
     47  0.000000D+00  0.000000D+00  0.000000D+00  0.000000D+00  0.000000D+00
     48  0.000000D+00  0.000000D+00  0.000000D+00  0.000000D+00  0.000000D+00
     49  0.000000D+00  0.000000D+00  0.000000D+00  0.000000D+00  0.000000D+00
     50  0.000000D+00  0.000000D+00  0.000000D+00  0.000000D+00  0.000000D+00
     51  0.000000D+00  0.000000D+00  0.000000D+00  0.000000D+00  0.000000D+00
     52  0.000000D+00  0.000000D+00  0.000000D+00  0.000000D+00  0.000000D+00
     53  0.000000D+00  0.000000D+00  0.000000D+00  0.000000D+00  0.000000D+00
     54  0.000000D+00  0.000000D+00  0.000000D+00  0.000000D+00  0.000000D+00
     55  0.000000D+00  0.000000D+00  0.000000D+00  0.000000D+00  0.000000D+00
     56  0.000000D+00  0.000000D+00  0.000000D+00  0.000000D+00  0.000000D+00
     57  0.000000D+00  0.000000D+00  0.000000D+00  0.000000D+00  0.000000D+00
     58  0.000000D+00  0.000000D+00  0.000000D+00  0.000000D+00  0.000000D+00
     59  0.000000D+00  0.000000D+00  0.000000D+00  0.000000D+00  0.000000D+00
     60  0.000000D+00  0.000000D+00  0.000000D+00  0.000000D+00  0.000000D+00
     61  0.000000D+00  0.000000D+00  0.000000D+00  0.000000D+00  0.000000D+00
     62  0.000000D+00  0.000000D+00  0.000000D+00  0.000000D+00  0.000000D+00
     63  0.000000D+00  0.000000D+00  0.000000D+00  0.000000D+00  0.000000D+00
     64  0.000000D+00  0.000000D+00  0.000000D+00  0.000000D+00  0.000000D+00
     65  0.000000D+00  0.000000D+00  0.000000D+00  0.000000D+00  0.000000D+00
     66  0.000000D+00  0.000000D+00  0.000000D+00  0.000000D+00  0.000000D+00
     67  0.000000D+00  0.000000D+00  0.000000D+00  0.000000D+00  0.000000D+00
     68  0.000000D+00  0.000000D+00  0.000000D+00  0.000000D+00  0.000000D+00
     69  0.000000D+00  0.000000D+00  0.000000D+00  0.000000D+00  0.000000D+00
     70  0.000000D+00  0.000000D+00  0.000000D+00  0.000000D+00  0.000000D+00
     71  0.000000D+00  0.000000D+00  0.000000D+00  0.000000D+00  0.000000D+00
     72  0.000000D+00  0.000000D+00  0.000000D+00  0.000000D+00  0.000000D+00
     73  0.000000D+00  0.000000D+00  0.000000D+00  0.000000D+00  0.000000D+00
     74  0.000000D+00  0.000000D+00  0.000000D+00  0.000000D+00  0.000000D+00
     75  0.000000D+00  0.000000D+00  0.000000D+00  0.000000D+00  0.000000D+00
     76  0.000000D+00  0.000000D+00  0.000000D+00  0.000000D+00  0.000000D+00
     77  0.000000D+00  0.000000D+00  0.000000D+00  0.000000D+00  0.000000D+00
     78  0.000000D+00  0.000000D+00  0.000000D+00  0.000000D+00  0.000000D+00
     79  0.000000D+00  0.000000D+00  0.000000D+00  0.000000D+00  0.000000D+00
     80  0.000000D+00  0.000000D+00  0.000000D+00  0.000000D+00  0.000000D+00
     81  0.000000D+00  0.000000D+00  0.000000D+00  0.000000D+00  0.000000D+00
               36            37            38            39            40 
     36  0.100000D+01
     37  0.000000D+00  0.100000D+01
     38  0.000000D+00  0.000000D+00  0.100000D+01
     39  0.000000D+00  0.000000D+00  0.000000D+00  0.100000D+01
     40  0.000000D+00  0.000000D+00  0.000000D+00  0.000000D+00  0.100000D+01
     41  0.757993D+00  0.000000D+00  0.000000D+00  0.000000D+00  0.000000D+00
     42  0.000000D+00  0.757993D+00  0.000000D+00  0.000000D+00  0.000000D+00
     43  0.000000D+00  0.000000D+00  0.000000D+00  0.000000D+00  0.000000D+00
     44  0.000000D+00  0.000000D+00  0.000000D+00  0.000000D+00  0.000000D+00
     45  0.000000D+00  0.000000D+00  0.000000D+00  0.000000D+00  0.000000D+00
     46  0.000000D+00  0.000000D+00  0.000000D+00  0.000000D+00  0.000000D+00
     47  0.000000D+00  0.000000D+00  0.000000D+00  0.000000D+00  0.000000D+00
     48  0.000000D+00  0.000000D+00  0.000000D+00  0.000000D+00  0.000000D+00
     49  0.000000D+00  0.000000D+00  0.000000D+00  0.000000D+00  0.000000D+00
     50  0.000000D+00  0.000000D+00  0.000000D+00  0.000000D+00  0.000000D+00
     51  0.000000D+00  0.000000D+00  0.000000D+00  0.000000D+00  0.000000D+00
     52  0.000000D+00  0.000000D+00  0.000000D+00  0.000000D+00  0.000000D+00
     53  0.000000D+00  0.000000D+00  0.000000D+00  0.000000D+00  0.000000D+00
     54  0.000000D+00  0.000000D+00  0.000000D+00  0.000000D+00  0.000000D+00
     55  0.000000D+00  0.000000D+00  0.000000D+00  0.000000D+00  0.000000D+00
     56  0.000000D+00  0.000000D+00  0.000000D+00  0.000000D+00  0.000000D+00
     57  0.000000D+00  0.000000D+00  0.000000D+00  0.000000D+00  0.000000D+00
     58  0.000000D+00  0.000000D+00  0.000000D+00  0.000000D+00  0.000000D+00
     59  0.000000D+00  0.000000D+00  0.000000D+00  0.000000D+00  0.000000D+00
     60  0.000000D+00  0.000000D+00  0.000000D+00  0.000000D+00  0.000000D+00
     61  0.000000D+00  0.000000D+00  0.000000D+00  0.000000D+00  0.000000D+00
     62  0.000000D+00  0.000000D+00  0.000000D+00  0.000000D+00  0.000000D+00
     63  0.000000D+00  0.000000D+00  0.000000D+00  0.000000D+00  0.000000D+00
     64  0.000000D+00  0.000000D+00  0.000000D+00  0.000000D+00  0.000000D+00
     65  0.000000D+00  0.000000D+00  0.000000D+00  0.000000D+00  0.000000D+00
     66  0.000000D+00  0.000000D+00  0.000000D+00  0.000000D+00  0.000000D+00
     67  0.000000D+00  0.000000D+00  0.000000D+00  0.000000D+00  0.000000D+00
     68  0.000000D+00  0.000000D+00  0.000000D+00  0.000000D+00  0.000000D+00
     69  0.000000D+00  0.000000D+00  0.000000D+00  0.000000D+00  0.000000D+00
     70  0.000000D+00  0.000000D+00  0.000000D+00  0.000000D+00  0.000000D+00
     71  0.000000D+00  0.000000D+00  0.000000D+00  0.000000D+00  0.000000D+00
     72  0.000000D+00  0.000000D+00  0.000000D+00  0.000000D+00  0.000000D+00
     73  0.000000D+00  0.000000D+00  0.000000D+00  0.000000D+00  0.000000D+00
[...]
 Gap=     2.435 Goal=   None    Shift=    0.000
 RMSDP=6.89D-09 MaxDP=2.93D-07 DE=-3.46D-12 OVMax= 3.65D-07

 SCF Done:  E(UHF) =  -7.91336145199     A.U. after   10 cycles
            NFock= 10  Conv=0.69D-08     -V/T= 1.9948
 <Sx>= 0.0000 <Sy>= 0.0000 <Sz>= 1.0000 <S**2>= 2.0000 S= 1.0000
 <L.S>= 0.000000000000E+00
 KE= 7.954655993661D+00 PE=-1.958182055149D+01 EE= 2.957835661662D+00
 Annihilation of the first spin contaminant:
 S**2 before annihilation     2.0000,   after     2.0000
 Leave Link  502 at Mon Mar 28 14:07:58 2022, MaxMem=  9663676416 cpu:              24.4 elap:               0.7
 (Enter /nopt/nrel/apps/gaussian/g16C_1/g16/l801.exe)
 Windowed orbitals will be sorted by symmetry type.
 ExpMin= 6.35D-03 ExpMax= 6.60D+03 ExpMxC= 6.43D+01 IAcc=3 IRadAn=         5 AccDes= 0.00D+00
 HarFok:  IExCor=  205 AccDes= 0.00D+00 IRadAn=         5 IDoV=-2 UseB2=F ITyADJ=14
 ICtDFT= 12500011 ScaDFX=  1.000000  1.000000  1.000000  1.000000
 Largest valence mixing into a core orbital is  7.35D-04
 Largest core mixing into a valence orbital is  2.08D-04
 Range of M.O.s used for correlation:     2    81
 NBasis=    81 NAE=     3 NBE=     1 NFC=     1 NFV=     0
 NROrb=     80 NOA=     2 NOB=     0 NVA=    78 NVB=    80
 Leave Link  801 at Mon Mar 28 14:07:58 2022, MaxMem=  9663676416 cpu:               2.6 elap:               0.1
 (Enter /nopt/nrel/apps/gaussian/g16C_1/g16/l804.exe)
 Open-shell transformation, MDV=  9663676416 ITran=4 ISComp=2.
 Unit  1 TFree=        405032 TCopy=        335263.
 Semi-Direct transformation.
 ModeAB=           2 MOrb=             2 LenV=    9663245430
 LASXX=       126892 LTotXX=      126892 LenRXX=      126892
 LTotAB=      133554 MaxLAS=      907360 LenRXY=      907360
 NonZer=      974560 LenScr=     2191872 LnRSAI=           0
 LnScr1=           0 LExtra=      339518 Total=      3565642
 MaxDsk= 34359738368 SrtSym=           F ITran=            4
 DoSDTr:  NPSUse= 36
 JobTyp=1 Pass  1:  I=   1 to   2.
 (rs|ai) integrals will be sorted in core.
 Complete sort for first half transformation.
 First half transformation complete.
 Complete sort for second half transformation.
 Second half transformation complete.
 Spin components of T(2) and E(2):
     alpha-alpha T2 =       0.4178873368D-03 E2=     -0.5480246584D-03
     alpha-beta  T2 =       0.0000000000D+00 E2=      0.0000000000D+00
     beta-beta   T2 =       0.0000000000D+00 E2=      0.0000000000D+00
 ANorm=    0.1000208922D+01
 E2 =    -0.5480246584D-03 EUMP2 =    -0.79139094766507D+01
 Leave Link  804 at Mon Mar 28 14:07:58 2022, MaxMem=  9663676416 cpu:              18.6 elap:               0.5
 (Enter /nopt/nrel/apps/gaussian/g16C_1/g16/l913.exe)
 CIDS:  MDV=  9663676416.
 Frozen-core window:  NFC=   1 NFV=   0.
 IFCWin=0 IBDFC=1 NFBD=     0     0 NFCmp=     0     0 NFFFC=     0     0
 Using original routines for 1st iteration.
 Using DD4UQ or CC4UQ for 2nd and later iterations.
 Keep R2 and R3 ints in memory in symmetry-blocked form, NReq=46163063.
 FoFCou: FMM=F IPFlag=           0 FMFlag=           0 FMFlg1=           0
         NFxFlg=           0 DoJE=F BraDBF=F KetDBF=F FulRan=T
         wScrn=  0.000000 ICntrl=       600 IOpCl=  0 I1Cent=           0 NGrid=           0
         NMat0=    1 NMatS0=   3321 NMatT0=    0 NMatD0=    1 NMtDS0=    0 NMtDT0=    0
 Petite list used in FoFCou.
 CIDS: In Core Option IDoMem=           1.
 Coupled Cluster theory with single and double substitutions
 ===========================================================
 Iterations= 200 Convergence= 0.100D-06
 Produce multiple copies of IABC intergrals
 Iteration Nr.   1
 **********************
 DD1Dir will call FoFMem   1 times, MxPair=         2
 NAB=     0 NAA=     1 NBB=     0.
 MP4(R+Q)=  0.22901257D-06
 Maximum subspace dimension=  5
 A-vector RMS=  3.4134623D-04 Max=  2.0181266D-03 conv= 1.00D-05.
 RLE energy=       -0.0008576767
 E3=       -0.19807144D-03        EUMP3=      -0.79141075481D+01
 E4(DQ)=   -0.78265380D-04        UMP4(DQ)=   -0.79141858135D+01
 E4(SDQ)=  -0.80659451D-04        UMP4(SDQ)=  -0.79141882075D+01
 VARIATIONAL ENERGIES WITH THE FIRST-ORDER WAVEFUNCTION:
 DE(Corr)= -0.74588120E-03 E(Corr)=     -7.9141073332    
 NORM(A)=   0.10005481D+01
 Iteration Nr.   2
 **********************
 DD1Dir will call FoFMem   1 times, MxPair=         2
 NAB=     0 NAA=     1 NBB=     0.
 A-vector RMS=  1.8519632D-04 Max=  1.4767791D-03 conv= 1.00D-05.
 RLE energy=       -0.0008918457
 DE(Corr)= -0.87200884E-03 E(CORR)=     -7.9142334608     Delta=-1.26D-04
 NORM(A)=   0.10006263D+01
 Iteration Nr.   3
 **********************
 DD1Dir will call FoFMem   1 times, MxPair=         2
 NAB=     0 NAA=     1 NBB=     0.
 A-vector RMS=  7.1295224D-05 Max=  6.6119301D-04 conv= 1.00D-05.
 RLE energy=       -0.0008942705
 DE(Corr)= -0.89192467E-03 E(CORR)=     -7.9142533767     Delta=-1.99D-05
 NORM(A)=   0.10006437D+01
 Iteration Nr.   4
 **********************
 DD1Dir will call FoFMem   1 times, MxPair=         2
 NAB=     0 NAA=     1 NBB=     0.
 A-vector RMS=  2.0051899D-05 Max=  1.7191225D-04 conv= 1.00D-05.
 RLE energy=       -0.0008944160
 DE(Corr)= -0.89423421E-03 E(CORR)=     -7.9142556862     Delta=-2.31D-06
 NORM(A)=   0.10006474D+01
 Iteration Nr.   5
 **********************
 DD1Dir will call FoFMem   1 times, MxPair=         2
 NAB=     0 NAA=     1 NBB=     0.
 A-vector RMS=  3.2813786D-06 Max=  2.1469710D-05 conv= 1.00D-05.
 RLE energy=       -0.0008944584
 DE(Corr)= -0.89443068E-03 E(CORR)=     -7.9142558827     Delta=-1.96D-07
 NORM(A)=   0.10006478D+01
 Iteration Nr.   6
 **********************
 DD1Dir will call FoFMem   1 times, MxPair=         2
 NAB=     0 NAA=     1 NBB=     0.
 A-vector RMS=  8.6075081D-07 Max=  7.2415087D-06 conv= 1.00D-05.
 RLE energy=       -0.0008944505
 DE(Corr)= -0.89445399E-03 E(CORR)=     -7.9142559060     Delta=-2.33D-08
 NORM(A)=   0.10006478D+01
 CI/CC converged in    6 iterations to DelEn=-2.33D-08 Conv= 1.00D-07 ErrA1= 8.61D-07 Conv= 1.00D-05
 Wavefunction amplitudes converged. E(Corr)=     -7.9142559060    
 Largest amplitude= 8.45D-03
 Discarding MO integrals.
 Leave Link  913 at Mon Mar 28 14:07:59 2022, MaxMem=  9663676416 cpu:              22.7 elap:               0.7
 (Enter /nopt/nrel/apps/gaussian/g16C_1/g16/l601.exe)
 Copying SCF densities to generalized density rwf, IOpCl= 1 IROHF=0.

 **********************************************************************

            Population analysis using the SCF Density.

 **********************************************************************

 Orbital symmetries:
 Alpha Orbitals:
       Occupied  (SG) (SG) (SG)
       Virtual   (SG) (PI) (PI) (SG) (PI) (PI) (SG) (SG) (PI) (PI)
                 (DLTA) (DLTA) (SG) (PI) (PI) (SG) (PI) (PI) (DLTA)
                 (DLTA) (PHI) (PHI) (SG) (PI) (PI) (DLTA) (DLTA)
                 (SG) (PI) (PI) (SG) (SG) (PI) (PI) (DLTA) (DLTA)
                 (PHI) (PHI) (?A) (?A) (SG) (PI) (PI) (DLTA) (DLTA)
                 (PHI) (PHI) (SG) (PI) (PI) (DLTA) (DLTA) (SG)
                 (PI) (PI) (SG) (SG) (PI) (PI) (DLTA) (DLTA) (PHI)
                 (PHI) (PI) (PI) (?A) (?A) (PHI) (PHI) (DLTA) (DLTA)
                 (SG) (PI) (PI) (DLTA) (DLTA) (SG) (SG)
 Beta  Orbitals:
       Occupied  (SG)
       Virtual   (SG) (SG) (PI) (PI) (SG) (PI) (PI) (SG) (SG) (DLTA)
                 (DLTA) (PI) (PI) (SG) (PI) (PI) (SG) (SG) (PI)
                 (PI) (DLTA) (DLTA) (PHI) (PHI) (SG) (DLTA) (DLTA)
                 (PI) (PI) (SG) (PI) (PI) (SG) (SG) (PI) (PI) (DLTA)
                 (DLTA) (PHI) (PHI) (?A) (?A) (SG) (PI) (PI) (DLTA)
                 (DLTA) (PHI) (PHI) (SG) (DLTA) (DLTA) (PI) (PI)
                 (SG) (PI) (PI) (SG) (PI) (PI) (SG) (DLTA) (DLTA)
                 (PHI) (PHI) (?A) (?A) (PHI) (PHI) (PI) (PI) (DLTA)
                 (DLTA) (SG) (DLTA) (DLTA) (PI) (PI) (SG) (SG)
 The electronic state is 3-SG.
 Alpha  occ. eigenvalues --   -2.48529  -0.57919  -0.17837
 Alpha virt. eigenvalues --    0.00885   0.01037   0.01037   0.02125   0.03358
 Alpha virt. eigenvalues --    0.03358   0.05866   0.07884   0.08291   0.08291
 Alpha virt. eigenvalues --    0.08573   0.08573   0.09808   0.11059   0.11059
 Alpha virt. eigenvalues --    0.15771   0.20652   0.20652   0.21678   0.21678
 Alpha virt. eigenvalues --    0.21851   0.21851   0.22819   0.24793   0.24793
 Alpha virt. eigenvalues --    0.25586   0.25586   0.29020   0.32946   0.32946
 Alpha virt. eigenvalues --    0.35237   0.39789   0.49869   0.49869   0.52085
 Alpha virt. eigenvalues --    0.52085   0.52601   0.52601   0.52747   0.52747
 Alpha virt. eigenvalues --    0.54319   0.59471   0.59471   0.61130   0.61130
 Alpha virt. eigenvalues --    0.61500   0.61500   0.63001   0.64353   0.64353
 Alpha virt. eigenvalues --    0.64685   0.64685   0.92380   1.11059   1.11059
 Alpha virt. eigenvalues --    1.20929   1.39886   1.40779   1.40779   1.42590
 Alpha virt. eigenvalues --    1.42590   1.43317   1.43317   1.45938   1.45938
 Alpha virt. eigenvalues --    1.45998   1.45998   1.46436   1.46436   1.46475
 Alpha virt. eigenvalues --    1.46475   1.51541   1.56028   1.56028   1.56252
 Alpha virt. eigenvalues --    1.56252   1.66284   3.02351
  Beta  occ. eigenvalues --   -2.46863
  Beta virt. eigenvalues --   -0.03388   0.01290   0.01547   0.01547   0.01844
  Beta virt. eigenvalues --    0.05114   0.05114   0.05314   0.08053   0.08995
  Beta virt. eigenvalues --    0.08995   0.09133   0.09133   0.09547   0.13495
  Beta virt. eigenvalues --    0.13495   0.13832   0.20023   0.21820   0.21820
  Beta virt. eigenvalues --    0.22123   0.22123   0.22283   0.22283   0.25366
  Beta virt. eigenvalues --    0.27058   0.27058   0.27077   0.27077   0.32600
  Beta virt. eigenvalues --    0.34748   0.34748   0.39010   0.45857   0.52014
  Beta virt. eigenvalues --    0.52014   0.52903   0.52903   0.53164   0.53164
  Beta virt. eigenvalues --    0.53297   0.53297   0.57121   0.61536   0.61536
  Beta virt. eigenvalues --    0.62274   0.62274   0.62549   0.62549   0.65689
  Beta virt. eigenvalues --    0.66293   0.66293   0.66426   0.66426   0.98704
  Beta virt. eigenvalues --    1.11761   1.11761   1.25097   1.42625   1.42625
  Beta virt. eigenvalues --    1.42879   1.43558   1.43558   1.44071   1.44071
  Beta virt. eigenvalues --    1.46804   1.46804   1.47487   1.47487   1.47522
  Beta virt. eigenvalues --    1.47522   1.47733   1.47733   1.53323   1.57064
  Beta virt. eigenvalues --    1.57064   1.57113   1.57113   1.69970   3.04300
          Condensed to atoms (all electrons):
               1          2
     1  H    0.514428   0.185486
     2  Li   0.185486   3.114599
          Atomic-Atomic Spin Densities.
               1          2
     1  H    0.514428   0.185468
     2  Li   0.185468   1.114636
 Mulliken charges and spin densities:
               1          2
     1  H    0.300085   0.699896
     2  Li  -0.300085   1.300104
 Sum of Mulliken charges =  -0.00000   2.00000
 Mulliken charges and spin densities with hydrogens summed into heavy atoms:
               1          2
     2  Li  -0.000000   2.000000
 N-N= 7.559674441714D-01 E-N=-1.958182047900D+01  KE= 7.954655993661D+00
 Symmetry A1   KE= 7.954655993661D+00
 Symmetry A2   KE=-8.902921842827D-51
 Symmetry B1   KE= 0.000000000000D+00
 Symmetry B2   KE= 0.000000000000D+00
 Symmetry A1   SP= 2.000000000000D+00
 Symmetry A2   SP=-1.895701083386D-50
 Symmetry B1   SP= 0.000000000000D+00
 Symmetry B2   SP= 0.000000000000D+00

 Atomic contributions to Alpha molecular orbitals:
 Alpha occ 1 OE=-2.485 is Li2-s=0.9999
 Alpha occ 2 OE=-0.579 is H1-s=0.6919 Li2-p=0.1139
 Alpha occ 3 OE=-0.178 is Li2-s=0.8195 Li2-p=0.1521
 Alpha vir 4 OE=0.009 is Li2-s=0.6003 Li2-p=0.3975
 Alpha vir 5 OE=0.010 is Li2-p=0.9931
 Alpha vir 6 OE=0.010 is Li2-p=0.9931
 Alpha vir 7 OE=0.021 is Li2-p=0.6057 Li2-s=0.3922
 Alpha vir 8 OE=0.034 is Li2-p=0.9887
 Alpha vir 9 OE=0.034 is Li2-p=0.9887
 Alpha vir 10 OE=0.059 is Li2-p=0.7619 Li2-s=0.1750
 Alpha vir 11 OE=0.079 is Li2-d=0.7612 Li2-p=0.1252
 Alpha vir 12 OE=0.083 is Li2-d=0.9679
 Alpha vir 13 OE=0.083 is Li2-d=0.9679
 Alpha vir 14 OE=0.086 is Li2-d=0.9964
 Alpha vir 15 OE=0.086 is Li2-d=0.9964
 Alpha vir 16 OE=0.098 is Li2-s=0.7507 Li2-p=0.1898
 Alpha vir 17 OE=0.111 is Li2-p=0.9866
 Alpha vir 18 OE=0.111 is Li2-p=0.9866
 Alpha vir 19 OE=0.158 is Li2-p=0.4616 Li2-d=0.2834 Li2-f=0.1953
 Alpha vir 20 OE=0.207 is Li2-f=0.8589 Li2-d=0.1284
 Alpha vir 21 OE=0.207 is Li2-f=0.8589 Li2-d=0.1284
 Alpha vir 22 OE=0.217 is Li2-f=0.9770
 Alpha vir 23 OE=0.217 is Li2-f=0.9770
 Alpha vir 24 OE=0.219 is Li2-f=0.9992
 Alpha vir 25 OE=0.219 is Li2-f=0.9992
 Alpha vir 26 OE=0.228 is Li2-f=0.6916 Li2-d=0.2479
 Alpha vir 27 OE=0.248 is Li2-d=0.8640 Li2-f=0.1288
 Alpha vir 28 OE=0.248 is Li2-d=0.8640 Li2-f=0.1288
 Alpha vir 29 OE=0.256 is Li2-d=0.9814
 Alpha vir 30 OE=0.256 is Li2-d=0.9814
 Alpha vir 31 OE=0.290 is Li2-p=0.8261 Li2-s=0.1293
 Alpha vir 32 OE=0.329 is Li2-p=0.9960
 Alpha vir 33 OE=0.329 is Li2-p=0.9960
 Alpha vir 34 OE=0.352 is Li2-s=0.8012
 Alpha vir 35 OE=0.398 is Li2-d=0.3570 Li2-g=0.2070 Li2-f=0.1814 Li2-p=0.1205
 Alpha vir 36 OE=0.499 is Li2-g=0.8938
 Alpha vir 37 OE=0.499 is Li2-g=0.8938
 Alpha vir 38 OE=0.521 is Li2-g=0.9776
 Alpha vir 39 OE=0.521 is Li2-g=0.9776
 Alpha vir 40 OE=0.526 is Li2-g=0.9915
 Alpha vir 41 OE=0.526 is Li2-g=0.9915
 Alpha vir 42 OE=0.527 is Li2-g=1.0000
 Alpha vir 43 OE=0.527 is Li2-g=1.0000
 Alpha vir 44 OE=0.543 is Li2-g=0.6236 Li2-d=0.1887 Li2-f=0.1518
 Alpha vir 45 OE=0.595 is Li2-f=0.7781 Li2-d=0.1251
 Alpha vir 46 OE=0.595 is Li2-f=0.7781 Li2-d=0.1251
 Alpha vir 47 OE=0.611 is Li2-f=0.9323
 Alpha vir 48 OE=0.611 is Li2-f=0.9323
 Alpha vir 49 OE=0.615 is Li2-f=0.9921
 Alpha vir 50 OE=0.615 is Li2-f=0.9921
 Alpha vir 51 OE=0.630 is Li2-d=0.6435 Li2-f=0.3235
 Alpha vir 52 OE=0.644 is Li2-d=0.8711 Li2-f=0.1242
 Alpha vir 53 OE=0.644 is Li2-d=0.8711 Li2-f=0.1242
 Alpha vir 54 OE=0.647 is Li2-d=0.9533
 Alpha vir 55 OE=0.647 is Li2-d=0.9533
 Alpha vir 56 OE=0.924 is Li2-p=0.3047 Li2-f=0.2848 Li2-d=0.1759 H1-s=0.1181
 Alpha vir 57 OE=1.111 is Li2-p=0.9985
 Alpha vir 58 OE=1.111 is Li2-p=0.9985
 Alpha vir 59 OE=1.209 is Li2-p=0.6931 Li2-g=0.1427
 Alpha vir 60 OE=1.399 is Li2-f=0.8824
 Alpha vir 61 OE=1.408 is Li2-f=0.5948 Li2-g=0.4023
 Alpha vir 62 OE=1.408 is Li2-f=0.5948 Li2-g=0.4023
 Alpha vir 63 OE=1.426 is Li2-f=0.7268 Li2-g=0.2706
 Alpha vir 64 OE=1.426 is Li2-f=0.7268 Li2-g=0.2706
 Alpha vir 65 OE=1.433 is Li2-f=0.8294 Li2-g=0.1706
 Alpha vir 66 OE=1.433 is Li2-f=0.8294 Li2-g=0.1706
 Alpha vir 67 OE=1.459 is Li2-g=0.5932 Li2-f=0.3964
 Alpha vir 68 OE=1.459 is Li2-g=0.5932 Li2-f=0.3964
 Alpha vir 69 OE=1.460 is Li2-g=1.0000
 Alpha vir 70 OE=1.460 is Li2-g=1.0000
 Alpha vir 71 OE=1.464 is Li2-g=0.8293 Li2-f=0.1707
 Alpha vir 72 OE=1.464 is Li2-g=0.8293 Li2-f=0.1707
 Alpha vir 73 OE=1.465 is Li2-g=0.7289 Li2-f=0.2689
 Alpha vir 74 OE=1.465 is Li2-g=0.7289 Li2-f=0.2689
 Alpha vir 75 OE=1.515 is Li2-g=0.5043 Li2-d=0.3540 Li2-f=0.1162
 Alpha vir 76 OE=1.560 is Li2-d=0.9868
 Alpha vir 77 OE=1.560 is Li2-d=0.9868
 Alpha vir 78 OE=1.563 is Li2-d=0.9954
 Alpha vir 79 OE=1.563 is Li2-d=0.9954
 Alpha vir 80 OE=1.663 is Li2-d=0.5998 Li2-g=0.2956
 Alpha vir 81 OE=3.024 is Li2-s=0.9970

 Atomic contributions to Beta  molecular orbitals:
 Beta  occ 1 OE=-2.469 is Li2-s=1.0000
 Beta  vir 2 OE=-0.034 is Li2-s=0.4694 Li2-p=0.2829 H1-s=0.1864
 Beta  vir 3 OE=0.013 is Li2-s=0.7293 Li2-p=0.2368
 Beta  vir 4 OE=0.015 is Li2-p=0.9946
 Beta  vir 5 OE=0.015 is Li2-p=0.9946
 Beta  vir 6 OE=0.018 is Li2-p=0.7576 Li2-s=0.2358
 Beta  vir 7 OE=0.051 is Li2-p=0.9341
 Beta  vir 8 OE=0.051 is Li2-p=0.9341
 Beta  vir 9 OE=0.053 is Li2-s=0.4460 Li2-p=0.4213 Li2-d=0.1145
 Beta  vir 10 OE=0.081 is Li2-p=0.5335 Li2-s=0.2272 Li2-d=0.1734
 Beta  vir 11 OE=0.090 is Li2-d=0.9950
 Beta  vir 12 OE=0.090 is Li2-d=0.9950
 Beta  vir 13 OE=0.091 is Li2-d=0.9194
 Beta  vir 14 OE=0.091 is Li2-d=0.9194
 Beta  vir 15 OE=0.095 is Li2-d=0.6511 Li2-s=0.2139 Li2-p=0.1250
 Beta  vir 16 OE=0.135 is Li2-p=0.9781
 Beta  vir 17 OE=0.135 is Li2-p=0.9781
 Beta  vir 18 OE=0.138 is Li2-s=0.6346 Li2-p=0.2790
 Beta  vir 19 OE=0.200 is Li2-f=0.6018 Li2-p=0.1941 Li2-d=0.1519
 Beta  vir 20 OE=0.218 is Li2-f=0.9367
 Beta  vir 21 OE=0.218 is Li2-f=0.9367
 Beta  vir 22 OE=0.221 is Li2-f=0.9681
 Beta  vir 23 OE=0.221 is Li2-f=0.9681
 Beta  vir 24 OE=0.223 is Li2-f=0.9989
 Beta  vir 25 OE=0.223 is Li2-f=0.9989
 Beta  vir 26 OE=0.254 is Li2-d=0.5507 Li2-f=0.3309
 Beta  vir 27 OE=0.271 is Li2-d=0.9735
 Beta  vir 28 OE=0.271 is Li2-d=0.9735
 Beta  vir 29 OE=0.271 is Li2-d=0.9279
 Beta  vir 30 OE=0.271 is Li2-d=0.9279
 Beta  vir 31 OE=0.326 is Li2-p=0.7873 Li2-s=0.1912
 Beta  vir 32 OE=0.347 is Li2-p=0.9956
 Beta  vir 33 OE=0.347 is Li2-p=0.9956
 Beta  vir 34 OE=0.390 is Li2-s=0.8046 Li2-p=0.1632
 Beta  vir 35 OE=0.459 is Li2-g=0.4543 Li2-f=0.1968 Li2-d=0.1551 H1-s=0.1187
 Beta  vir 36 OE=0.520 is Li2-g=0.9474
 Beta  vir 37 OE=0.520 is Li2-g=0.9474
 Beta  vir 38 OE=0.529 is Li2-g=0.9767
 Beta  vir 39 OE=0.529 is Li2-g=0.9767
 Beta  vir 40 OE=0.532 is Li2-g=0.9881
 Beta  vir 41 OE=0.532 is Li2-g=0.9881
 Beta  vir 42 OE=0.533 is Li2-g=1.0000
 Beta  vir 43 OE=0.533 is Li2-g=1.0000
 Beta  vir 44 OE=0.571 is Li2-g=0.4600 Li2-f=0.3057 Li2-d=0.1757
 Beta  vir 45 OE=0.615 is Li2-f=0.8378 Li2-d=0.1139
 Beta  vir 46 OE=0.615 is Li2-f=0.8378 Li2-d=0.1139
 Beta  vir 47 OE=0.623 is Li2-f=0.9068
 Beta  vir 48 OE=0.623 is Li2-f=0.9068
 Beta  vir 49 OE=0.625 is Li2-f=0.9890
 Beta  vir 50 OE=0.625 is Li2-f=0.9890
 Beta  vir 51 OE=0.657 is Li2-d=0.7032 Li2-f=0.2815
 Beta  vir 52 OE=0.663 is Li2-d=0.9287
 Beta  vir 53 OE=0.663 is Li2-d=0.9287
 Beta  vir 54 OE=0.664 is Li2-d=0.8831 Li2-f=0.1109
 Beta  vir 55 OE=0.664 is Li2-d=0.8831 Li2-f=0.1109
 Beta  vir 56 OE=0.987 is Li2-p=0.4466 H1-s=0.2216 Li2-f=0.1455 Li2-d=0.1159
 Beta  vir 57 OE=1.118 is Li2-p=0.9984
 Beta  vir 58 OE=1.118 is Li2-p=0.9984
 Beta  vir 59 OE=1.251 is Li2-p=0.5224 Li2-g=0.2120 H1-s=0.1316
 Beta  vir 60 OE=1.426 is Li2-f=0.6427 Li2-g=0.3531
 Beta  vir 61 OE=1.426 is Li2-f=0.6427 Li2-g=0.3531
 Beta  vir 62 OE=1.429 is Li2-f=0.9146
 Beta  vir 63 OE=1.436 is Li2-f=0.7240 Li2-g=0.2721
 Beta  vir 64 OE=1.436 is Li2-f=0.7240 Li2-g=0.2721
 Beta  vir 65 OE=1.441 is Li2-f=0.7974 Li2-g=0.2026
 Beta  vir 66 OE=1.441 is Li2-f=0.7974 Li2-g=0.2026
 Beta  vir 67 OE=1.468 is Li2-g=1.0000
 Beta  vir 68 OE=1.468 is Li2-g=1.0000
 Beta  vir 69 OE=1.475 is Li2-g=0.7972 Li2-f=0.2028
 Beta  vir 70 OE=1.475 is Li2-g=0.7972 Li2-f=0.2028
 Beta  vir 71 OE=1.475 is Li2-g=0.6441 Li2-f=0.3462
 Beta  vir 72 OE=1.475 is Li2-g=0.6441 Li2-f=0.3462
 Beta  vir 73 OE=1.477 is Li2-g=0.7272 Li2-f=0.2695
 Beta  vir 74 OE=1.477 is Li2-g=0.7272 Li2-f=0.2695
 Beta  vir 75 OE=1.533 is Li2-g=0.4498 Li2-d=0.4375
 Beta  vir 76 OE=1.571 is Li2-d=0.9932
 Beta  vir 77 OE=1.571 is Li2-d=0.9932
 Beta  vir 78 OE=1.571 is Li2-d=0.9857
 Beta  vir 79 OE=1.571 is Li2-d=0.9857
 Beta  vir 80 OE=1.700 is Li2-d=0.5072 Li2-g=0.3174
 Beta  vir 81 OE=3.043 is Li2-s=0.9962
 
 Leave Link  601 at Mon Mar 28 14:08:00 2022, MaxMem=  9663676416 cpu:              13.6 elap:               0.5
 (Enter /nopt/nrel/apps/gaussian/g16C_1/g16/l9999.exe)

 Test job not archived.
 1\1\GINC-R102U34\SP\UCCSD-FC\Gen\H1Li1(3)\USER\28-Mar-2022\0\\#P C
 CSD(MaxCyc=200,SaveAmplitudes,ReadAmplitudes)/GEN sp pop=AllOrbitals i
 op(3/33=1,3/36=-1)\\test\\0,3\H,0,0.,0.,0.\Li,0,0.,0.,2.1\\Version=ES6
 4L-G16RevC.01\State=3-SG\HF=-7.9133615\MP2=-7.9139095\MP3=-7.9141075\M
 P4D=-7.914186\MP4DQ=-7.9141858\MP4SDQ=-7.9141882\CCSD=-7.9142559\S2=2.
 000011\S2-1=0.\S2A=2.\RMSD=6.893e-09\PG=C*V [C*(H1Li1)]\\@


 ONE THORN OF EXPERIENCE IS WORTH A WHOLE WILDERNESS OF
 WARNING....  LOWELL - AMONG MY BOOKS
 Job cpu time:       0 days  0 hours  1 minutes 48.7 seconds.
 Elapsed time:       0 days  0 hours  0 minutes  3.5 seconds.
 File lengths (MBytes):  RWF=     32 Int=      0 D2E=      0 Chk=      2 Scr=      1
 Normal termination of Gaussian 16 at Mon Mar 28 14:08:00 2022.
