 Entering Gaussian System, Link 0=g16
 Initial command:
 /nopt/nrel/apps/gaussian/g16C_1/g16/l1.exe "/lustre/eaglefs/scratch/user/qc/tih-dissc-sto3g/tih-6-ccsd-1.0-321g/Gau-256764.inp" -scrdir="/lustre/eaglefs/scratch/user/qc/tih-dissc-sto3g/tih-6-ccsd-1.0-321g/"
 Default is to use a total of  36 processors:
                               36 via shared-memory
                                1 via Linda
 Entering Link 1 = /nopt/nrel/apps/gaussian/g16C_1/g16/l1.exe PID=    256765.
  
 Copyright (c) 1988-2019, Gaussian, Inc.  All Rights Reserved.
  
 This is part of the Gaussian(R) 16 program.  It is based on
 the Gaussian(R) 09 system (copyright 2009, Gaussian, Inc.),
 the Gaussian(R) 03 system (copyright 2003, Gaussian, Inc.),
 the Gaussian(R) 98 system (copyright 1998, Gaussian, Inc.),
 the Gaussian(R) 94 system (copyright 1995, Gaussian, Inc.),
 the Gaussian 92(TM) system (copyright 1992, Gaussian, Inc.),
 the Gaussian 90(TM) system (copyright 1990, Gaussian, Inc.),
 the Gaussian 88(TM) system (copyright 1988, Gaussian, Inc.),
 the Gaussian 86(TM) system (copyright 1986, Carnegie Mellon
 University), and the Gaussian 82(TM) system (copyright 1983,
 Carnegie Mellon University). Gaussian is a federally registered
 trademark of Gaussian, Inc.
  
 This software contains proprietary and confidential information,
 including trade secrets, belonging to Gaussian, Inc.
  
 This software is provided under written license and may be
 used, copied, transmitted, or stored only in accord with that
 written license.
  
 The following legend is applicable only to US Government
 contracts under FAR:
  
                    RESTRICTED RIGHTS LEGEND
  
 Use, reproduction and disclosure by the US Government is
 subject to restrictions as set forth in subparagraphs (a)
 and (c) of the Commercial Computer Software - Restricted
 Rights clause in FAR 52.227-19.
  
 Gaussian, Inc.
 340 Quinnipiac St., Bldg. 40, Wallingford CT 06492
  
  
 ---------------------------------------------------------------
 Warning -- This program may not be used in any manner that
 competes with the business of Gaussian, Inc. or will provide
 assistance to any competitor of Gaussian, Inc.  The licensee
 of this program is prohibited from giving any competitor of
 Gaussian, Inc. access to this program.  By using this program,
 the user acknowledges that Gaussian, Inc. is engaged in the
 business of creating and licensing software in the field of
 computational chemistry and represents and warrants to the
 licensee that it is not a competitor of Gaussian, Inc. and that
 it will not use this program in any manner prohibited above.
 ---------------------------------------------------------------
  

 Cite this work as:
 Gaussian 16, Revision C.01,
 M. J. Frisch, G. W. Trucks, H. B. Schlegel, G. E. Scuseria, 
 M. A. Robb, J. R. Cheeseman, G. Scalmani, V. Barone, 
 G. A. Petersson, H. Nakatsuji, X. Li, M. Caricato, A. V. Marenich, 
 J. Bloino, B. G. Janesko, R. Gomperts, B. Mennucci, H. P. Hratchian, 
 J. V. Ortiz, A. F. Izmaylov, J. L. Sonnenberg, D. Williams-Young, 
 F. Ding, F. Lipparini, F. Egidi, J. Goings, B. Peng, A. Petrone, 
 T. Henderson, D. Ranasinghe, V. G. Zakrzewski, J. Gao, N. Rega, 
 G. Zheng, W. Liang, M. Hada, M. Ehara, K. Toyota, R. Fukuda, 
 J. Hasegawa, M. Ishida, T. Nakajima, Y. Honda, O. Kitao, H. Nakai, 
 T. Vreven, K. Throssell, J. A. Montgomery, Jr., J. E. Peralta, 
 F. Ogliaro, M. J. Bearpark, J. J. Heyd, E. N. Brothers, K. N. Kudin, 
 V. N. Staroverov, T. A. Keith, R. Kobayashi, J. Normand, 
 K. Raghavachari, A. P. Rendell, J. C. Burant, S. S. Iyengar, 
 J. Tomasi, M. Cossi, J. M. Millam, M. Klene, C. Adamo, R. Cammi, 
 J. W. Ochterski, R. L. Martin, K. Morokuma, O. Farkas, 
 J. B. Foresman, and D. J. Fox, Gaussian, Inc., Wallingford CT, 2019.
 
 ******************************************
 Gaussian 16:  ES64L-G16RevC.01  3-Jul-2019
                28-Mar-2022 
 ******************************************
 %chk=molecule
 Default route: CacheSize=180224 MaxDisk=256GB
 ----------------------------------------------------------------------
 #P CCSD(MaxCyc=300,SaveAmplitudes,ReadAmplitudes)/GEN sp pop=AllOrbita
 ls iop(3/33=1,3/36=-1)
 ----------------------------------------------------------------------
 1/4=180224,38=1,172=1/1;
 2/4=180224,12=2,17=6,18=5,40=1/2;
 3/4=180224,5=7,11=9,25=1,30=1,33=1,36=-1/1,2,3;
 4/4=180224/1;
 5/4=180224,5=2,38=5/2;
 8/4=180224,6=4,9=120000,10=1,24=1/1,4;
 9/4=180224,5=7,6=300,77=1/13;
 6/4=180224,7=2,8=2,9=2,10=2,96=-1/1;
 99/4=180224,5=1,9=1/99;
 Leave Link    1 at Mon Mar 28 12:46:33 2022, MaxMem=           0 cpu:               2.0 elap:               0.1
 (Enter /nopt/nrel/apps/gaussian/g16C_1/g16/l101.exe)
 ----
 test
 ----
 Symbolic Z-matrix:
 Charge =  0 Multiplicity = 6
 H                     0.        0.        0. 
 Ti                    0.        0.        1. 
 
 ITRead=  0  0
 MicOpt= -1 -1
 NAtoms=      2 NQM=        2 NQMF=       0 NMMI=      0 NMMIF=      0
                NMic=       0 NMicF=      0.
                    Isotopes and Nuclear Properties:
 (Nuclear quadrupole moments (NQMom) in fm**2, nuclear magnetic moments (NMagM)
  in nuclear magnetons)

  Atom         1           2
 IAtWgt=           1          48
 AtmWgt=   1.0078250  47.9479467
 NucSpn=           1           0
 AtZEff=  -0.0000000  -0.0000000
 NQMom=    0.0000000   0.0000000
 NMagM=    2.7928460   0.0000000
 AtZNuc=   1.0000000  22.0000000
 Leave Link  101 at Mon Mar 28 12:46:33 2022, MaxMem=  9663676416 cpu:               3.2 elap:               0.1
 (Enter /nopt/nrel/apps/gaussian/g16C_1/g16/l202.exe)
                          Input orientation:                          
 ---------------------------------------------------------------------
 Center     Atomic      Atomic             Coordinates (Angstroms)
 Number     Number       Type             X           Y           Z
 ---------------------------------------------------------------------
      1          1           0        0.000000    0.000000    0.000000
      2         22           0        0.000000    0.000000    1.000000
 ---------------------------------------------------------------------
 Stoichiometry    HTi(6)
 Framework group  C*V[C*(HTi)]
 Deg. of freedom     1
 Full point group                 C*V     NOp   4
 Largest Abelian subgroup         C2V     NOp   4
 Largest concise Abelian subgroup C1      NOp   1
                         Standard orientation:                         
 ---------------------------------------------------------------------
 Center     Atomic      Atomic             Coordinates (Angstroms)
 Number     Number       Type             X           Y           Z
 ---------------------------------------------------------------------
      1          1           0        0.000000    0.000000   -0.956522
      2         22           0        0.000000    0.000000    0.043478
 ---------------------------------------------------------------------
 Rotational constants (GHZ):           0.0000000         511.9952640         511.9952640
 Leave Link  202 at Mon Mar 28 12:46:33 2022, MaxMem=  9663676416 cpu:               1.1 elap:               0.1
 (Enter /nopt/nrel/apps/gaussian/g16C_1/g16/l301.exe)
 General basis read from cards:  (5D, 7F)
                         Coordinates in L301:                         
 ---------------------------------------------------------------------
 Center     Atomic      Atomic             Coordinates (Angstroms)
 Number     Number       Type             X           Y           Z
 ---------------------------------------------------------------------
      1          1           0        0.000000    0.000000   -0.956522
      2         22           0        0.000000    0.000000    0.043478
 ---------------------------------------------------------------------
 Centers:       1
 STO-3G
 ****
 Centers:       2
 3-21G
 ****
 FixB: optimizing general contractions.
 Ernie: Thresh=  0.10000D-02 Tol=  0.10000D-05 Strict=F.
 IA=     1 ShT= 0 ShC= 0 NL=   1 NS=   0.
 IA=     1 L=0 SC=0 ISt=    0 NBk=    0 NP=    0 IndPr=    0.
 IA=     2 ShT= 0 ShC= 0 NL=   1 NS=   0.
 IA=     2 L=0 SC=0 ISt=    0 NBk=    0 NP=    0 IndPr=    0.
 IA=     2 ShT= 1 ShC= 0 NL=   4 NS=   1.
 IA=     2 L=1 SC=0 ISt=    1 NBk=    3 NP=    8 IndPr=    0.
 DoElim1:  L=1 select primitive    1 from    2 using    1 C=-1.09D-01
 DoElim1:  L=1 select primitive    1 from    3 using    1 C=-1.09D-01
 DoElim1:  L=1 select primitive    4 from    3 using    2 C=-2.86D-01
 DoElim2:  L=1 select primitive    8 from    2 using    3 C= 1.10D+00
 DoElim2:  L=1 select primitive    8 from    1 using    3 C= 1.10D+00
 DoElim2:  L=1 select primitive    6 from    1 using    2 C= 8.60D-01
 DoElim1:  L=1 select primitive    1 from    2 using    1 C= 1.37D-01
 DoElim1:  L=1 select primitive    1 from    3 using    1 C= 1.37D-01
 DoElim1:  L=1 select primitive    4 from    3 using    2 C= 1.92D-02
 DoElim2:  L=1 select primitive    8 from    2 using    3 C= 1.00D+00
 DoElim2:  L=1 select primitive    8 from    1 using    3 C= 1.00D+00
 DoElim2:  L=1 select primitive    6 from    1 using    2 C= 6.36D-01
 Delete L=1 primitive    6 from    3 C=  0.00D+00.
 Delete L=1 primitive    5 from    3 C=  0.00D+00.
 Delete L=1 primitive    4 from    3 C=  0.00D+00.
 Delete L=1 primitive    3 from    3 C=  0.00D+00.
 Delete L=1 primitive    2 from    3 C=  0.00D+00.
 Delete L=1 primitive    1 from    3 C=  0.00D+00.
 Delete L=1 primitive    8 from    2 C=  0.00D+00.
 Delete L=1 primitive    7 from    2 C=  0.00D+00.
 Delete L=1 primitive    3 from    2 C=  0.00D+00.
 Delete L=1 primitive    2 from    2 C=  0.00D+00.
 Delete L=1 primitive    1 from    2 C=  0.00D+00.
 Delete L=1 primitive    8 from    1 C=  0.00D+00.
 Delete L=1 primitive    7 from    1 C=  0.00D+00.
 Delete L=1 primitive    6 from    1 C=  0.00D+00.
 Delete L=1 primitive    5 from    1 C=  0.00D+00.
 Delete L=1 primitive    4 from    1 C=  0.00D+00.
 IA=     2 L=1 SC=0 ISt=    0 NBk=    0 NP=    0 IndPr=    8.
 IA=     2 ShT= 2 ShC= 2 NL=   2 NS=   1.
 IA=     2 L=2 SC=2 ISt=    0 NBk=    0 NP=    0 IndPr=    0.
 LdAtmC:  AtmChg=     1.000000    22.000000
 AtZEff=     -1.0000000    -23.9800000
 NEqShl: 
              1            2            3            4
     1            1            1            1            1
     2            2            2            2            2
     3            3            3            3            3
     4            4            4            4            4
     5            5            5            5            5
     6            6            6            6            6
     7            7            7            7            7
     8            8            8            8            8
 NEqBas: 
              1            2            3            4
     1            1            1            1            1
     2            2            2            2            2
     3            3            3            3            3
     4            4           -4           -4            4
     5            5           -5            5           -5
     6            6            6            6            6
     7            7            7            7            7
     8            8           -8           -8            8
     9            9           -9            9           -9
    10           10           10           10           10
    11           11           11           11           11
    12           12          -12          -12           12
    13           13          -13           13          -13
    14           14           14           14           14
    15           15           15           15           15
    16           16          -16          -16           16
    17           17          -17           17          -17
    18           18           18           18           18
    19           19           19           19           19
    20           20           20           20           20
    21           21           21           21           21
    22           22           22          -22          -22
    23           23          -23          -23           23
    24           24          -24           24          -24
    25           25           25           25           25
    26           26           26           26           26
    27           27           27           27           27
    28           28           28          -28          -28
    29           29          -29          -29           29
    30           30          -30           30          -30
 There are    16 symmetry adapted cartesian basis functions of A1  symmetry.
   1         1   1   1   1
   2         2   2   2   2
   3         3   3   3   3
   4         6   6   6   6
   5         7   7   7   7
   6        10  10  10  10
   7        11  11  11  11
   8        14  14  14  14
   9        15  15  15  15
  10        18  18  18  18
  11        19  19  19  19
  12        20  20  20  20
  13        21  21  21  21
  14        25  25  25  25
  15        26  26  26  26
  16        27  27  27  27
 There are     2 symmetry adapted cartesian basis functions of A2  symmetry.
  17        22  22  22  22
  18        28  28  28  28
 There are     6 symmetry adapted cartesian basis functions of B1  symmetry.
  19         4   4   4   4
  20         8   8   8   8
  21        12  12  12  12
  22        16  16  16  16
  23        23  23  23  23
  24        29  29  29  29
 There are     6 symmetry adapted cartesian basis functions of B2  symmetry.
  25         5   5   5   5
  26         9   9   9   9
  27        13  13  13  13
  28        17  17  17  17
  29        24  24  24  24
  30        30  30  30  30
 Order= 1 2 4 3
 Reordered character table:
              1            2            3            4            5
     1            1            1            1            1            1
     2            2            1            1           -1           -1
     3            4            1           -1           -1            1
     4            3            1           -1            1           -1
 NEqShl: 
              1            2            3            4
     1            1            1            1            1
     2            2            2            2            2
     3            3            3            3            3
     4            4            4            4            4
     5            5            5            5            5
     6            6            6            6            6
     7            7            7            7            7
     8            8            8            8            8
 NEqBas: 
              1            2            3            4
     1            1            1            1            1
     2            2            2            2            2
     3            3            3            3            3
     4            4           -4           -4            4
     5            5           -5            5           -5
     6            6            6            6            6
     7            7            7            7            7
     8            8           -8           -8            8
     9            9           -9            9           -9
    10           10           10           10           10
    11           11           11           11           11
    12           12          -12          -12           12
    13           13          -13           13          -13
    14           14           14           14           14
    15           15           15           15           15
    16           16          -16          -16           16
    17           17          -17           17          -17
    18           18           18           18           18
    19           19           19           19           19
    20           20          -20          -20           20
    21           21          -21           21          -21
    22           22           22           22           22
    23           23           23          -23          -23
    24           24           24           24           24
    25           25          -25          -25           25
    26           26          -26           26          -26
    27           27           27           27           27
    28           28           28          -28          -28
 There are    14 symmetry adapted basis functions of A1  symmetry.
   1         1   1   1   1
   2         2   2   2   2
   3         3   3   3   3
   4         6   6   6   6
   5         7   7   7   7
   6        10  10  10  10
   7        11  11  11  11
   8        14  14  14  14
   9        15  15  15  15
  10        18  18  18  18
  11        19  19  19  19
  12        22  22  22  22
  13        24  24  24  24
  14        27  27  27  27
 There are     2 symmetry adapted basis functions of A2  symmetry.
  15        23  23  23  23
  16        28  28  28  28
 There are     6 symmetry adapted basis functions of B1  symmetry.
  17         4   4   4   4
  18         8   8   8   8
  19        12  12  12  12
  20        16  16  16  16
  21        20  20  20  20
  22        25  25  25  25
 There are     6 symmetry adapted basis functions of B2  symmetry.
  23         5   5   5   5
  24         9   9   9   9
  25        13  13  13  13
  26        17  17  17  17
  27        21  21  21  21
  28        26  26  26  26
 Order= 1 2 4 3
 Reordered character table:
              1            2            3            4            5
     1            1            1            1            1            1
     2            2            1            1           -1           -1
     3            4            1           -1           -1            1
     4            3            1           -1            1           -1
    28 basis functions,    60 primitive gaussians,    30 cartesian basis functions
    14 alpha electrons        9 beta electrons
       nuclear repulsion energy        11.6418986402 Hartrees.
 IS=     1 IAt=     1 ISR=     1 T=0 IP=      1 IndIP=      1 IndIPD=      0 C=  2.769344D-01  0.000000D+00                             NZ=T
 IS=     1 IAt=     1 ISR=     1 T=0 IP=      2 IndIP=      2 IndIPD=      1 C=  2.678389D-01  0.000000D+00                             NZ=T
 IS=     1 IAt=     1 ISR=     1 T=0 IP=      3 IndIP=      3 IndIPD=      2 C=  8.347367D-02  0.000000D+00                             NZ=T
 IS=     2 IAt=     2 ISR=     1 T=0 IP=      1 IndIP=      4 IndIPD=      0 C=  1.537359D+01  0.000000D+00                             NZ=T
 IS=     2 IAt=     2 ISR=     1 T=0 IP=      2 IndIP=      5 IndIPD=      1 C=  2.196579D+01  0.000000D+00                             NZ=T
 IS=     2 IAt=     2 ISR=     1 T=0 IP=      3 IndIP=      6 IndIPD=      2 C=  1.259884D+01  0.000000D+00                             NZ=T
 IS=     3 IAt=     2 ISR=     2 T=1 IP=      1 IndIP=      7 IndIPD=      0 C= -2.459358D+00  6.155759D+01                             NZ=T
 IS=     3 IAt=     2 ISR=     2 T=1 IP=      2 IndIP=      8 IndIPD=      1 C=  7.266107D-01  3.612099D+01                             NZ=T
 IS=     3 IAt=     2 ISR=     2 T=1 IP=      3 IndIP=      9 IndIPD=      2 C=  2.742121D+00  7.115701D+00                             NZ=T
 IS=     4 IAt=     2 ISR=     3 T=1 IP=      1 IndIP=     10 IndIPD=      0 C= -8.049761D-01  2.703339D-01                             NZ=T
 IS=     4 IAt=     2 ISR=     3 T=1 IP=      2 IndIP=     11 IndIPD=      1 C=  3.851869D-01  1.489563D+00                             NZ=T
 IS=     4 IAt=     2 ISR=     3 T=1 IP=      3 IndIP=     12 IndIPD=      2 C=  4.416753D-01  5.252178D-01                             NZ=T
 IS=     5 IAt=     2 ISR=     4 T=1 IP=      1 IndIP=     13 IndIPD=      0 C= -1.138440D-01  2.076393D-04                             NZ=T
 IS=     5 IAt=     2 ISR=     4 T=1 IP=      2 IndIP=     14 IndIPD=      1 C=  1.102445D-01  5.419267D-02                             NZ=T
 IS=     6 IAt=     2 ISR=     5 T=1 IP=      1 IndIP=     15 IndIPD=      0 C=  4.686088D-02  1.526772D-02                             NZ=T
 IS=     7 IAt=     2 ISR=     6 T=2 IP=      1 IndIP=     16 IndIPD=      1 C=  0.000000D+00  0.000000D+00  1.331025D+01  0.000000D+00 NZ=T
 IS=     7 IAt=     2 ISR=     6 T=2 IP=      2 IndIP=     17 IndIPD=      2 C=  0.000000D+00  0.000000D+00  3.600378D+00  0.000000D+00 NZ=T
 IS=     8 IAt=     2 ISR=     7 T=2 IP=      1 IndIP=     18 IndIPD=      3 C=  0.000000D+00  0.000000D+00  3.518721D-01  0.000000D+00 NZ=T
 IExCor=    0 DFT=F Ex=HF Corr=None ExCW=0 ScaHFX=  1.000000
 ScaDFX=  1.000000  1.000000  1.000000  1.000000 ScalE2=  1.000000  1.000000
 IRadAn=      5 IRanWt=     -1 IRanGd=            0 ICorTp=0 IEmpDi=  4
 NAtoms=    2 NActive=    2 NUniq=    2 SFac= 1.00D+00 NAtFMM=   60 NAOKFM=F Big=F
 Integral buffers will be    131072 words long.
 Raffenetti 2 integral format.
 Two-electron integral symmetry is turned on.
 Leave Link  301 at Mon Mar 28 12:46:33 2022, MaxMem=  9663676416 cpu:               1.8 elap:               0.1
 (Enter /nopt/nrel/apps/gaussian/g16C_1/g16/l302.exe)
 NPDir=0 NMtPBC=     1 NCelOv=     1 NCel=       1 NClECP=     1 NCelD=      1
         NCelK=      1 NCelE2=     1 NClLst=     1 CellRange=     0.0.
 One-electron integrals computed using PRISM.
 One-electron integral symmetry used in STVInt
 Entering OneElI...
 Calculate overlap and kinetic energy integrals
    NBasis =  28  MinDer = 0  MaxDer = 0
 Requested accuracy = 0.1000D-12
 Symmetry will be used
 PrmmSu-InSpLW:  IPartL=    0 NPrtUS=   36 NPrtUL=    1 DoSpLW=F IThBeg=    0 IThEnd=   35 NThAct=   36.
 PrSmSu:  IncTry=   512 NBBP=             36 NTPThr=   100 NPartT=   36 Incr=           1 LDynOK=F GPUOK=F.
 PrsmSu:  NPrtUS=  36 ThrOK=T IAlg=1 LenDen=           0 ISkipM=0 DoSpLW=F IThBeg=    0 IThEnd=   35.
 Prism:   IPart=     0 DynPar=F LinDyn=F Incr=           1.
 PRISM was handed   268432135 working-precision words and    36 shell-pairs
 PRISM was handed   268432135 working-precision words and    36 shell-pairs
 PRISM was handed   268432135 working-precision words and    36 shell-pairs
 PRISM was handed   268432135 working-precision words and    36 shell-pairs
 PRISM was handed   268432135 working-precision words and    36 shell-pairs
 PRISM was handed   268432135 working-precision words and    36 shell-pairs
 PRISM was handed   268432135 working-precision words and    36 shell-pairs
 PRISM was handed   268432135 working-precision words and    36 shell-pairs
 PRISM was handed   268432135 working-precision words and    36 shell-pairs
 PRISM was handed   268432135 working-precision words and    36 shell-pairs
 IPart= 20 NShTot=           0 NBatch=           0 AvBLen=         0.0
 IPart= 12 NShTot=           0 NBatch=           0 AvBLen=         0.0
 IPart=  5 NShTot=           0 NBatch=           0 AvBLen=         0.0
 IPart= 11 NShTot=           0 NBatch=           0 AvBLen=         0.0
 IPart= 35 NShTot=           0 NBatch=           0 AvBLen=         0.0
 IPart= 34 NShTot=           0 NBatch=           0 AvBLen=         0.0
 PRISM was handed   268432135 working-precision words and    36 shell-pairs
 IPart= 24 NShTot=           0 NBatch=           0 AvBLen=         0.0
 IPart= 25 NShTot=           0 NBatch=           0 AvBLen=         0.0
 PRISM was handed   268432135 working-precision words and    36 shell-pairs
 IPart= 22 NShTot=           0 NBatch=           0 AvBLen=         0.0
 PRISM was handed   268432135 working-precision words and    36 shell-pairs
 PRISM was handed   268432135 working-precision words and    36 shell-pairs
 PRISM was handed   268432135 working-precision words and    36 shell-pairs
 IPart= 16 NShTot=           0 NBatch=           0 AvBLen=         0.0
 IPart= 10 NShTot=           0 NBatch=           0 AvBLen=         0.0
 IPart= 15 NShTot=           0 NBatch=           0 AvBLen=         0.0
 IPart=  4 NShTot=           0 NBatch=           0 AvBLen=         0.0
 PRISM was handed   268432135 working-precision words and    36 shell-pairs
 PRISM was handed   268432135 working-precision words and    36 shell-pairs
 PRISM was handed   268432135 working-precision words and    36 shell-pairs
 PRISM was handed   268432135 working-precision words and    36 shell-pairs
 PRISM was handed   268432135 working-precision words and    36 shell-pairs
 PRISM was handed   268432135 working-precision words and    36 shell-pairs
 PRISM was handed   268432135 working-precision words and    36 shell-pairs
 PRISM was handed   268432135 working-precision words and    36 shell-pairs
 PRISM was handed   268432135 working-precision words and    36 shell-pairs
 IPart=  1 NShTot=          12 NBatch=          12 AvBLen=         1.0
 IPart=  0 NShTot=          20 NBatch=          20 AvBLen=         1.0
 IPart= 29 NShTot=           0 NBatch=           0 AvBLen=         0.0
 IPart=  3 NShTot=           1 NBatch=           1 AvBLen=         1.0
 IPart= 13 NShTot=           0 NBatch=           0 AvBLen=         0.0
 IPart= 26 NShTot=           0 NBatch=           0 AvBLen=         0.0
 IPart=  2 NShTot=           3 NBatch=           3 AvBLen=         1.0
 PRISM was handed   268432135 working-precision words and    36 shell-pairs
 PRISM was handed   268432135 working-precision words and    36 shell-pairs
 PRISM was handed   268432135 working-precision words and    36 shell-pairs
 PRISM was handed   268432135 working-precision words and    36 shell-pairs
 PRISM was handed   268432135 working-precision words and    36 shell-pairs
 IPart= 28 NShTot=           0 NBatch=           0 AvBLen=         0.0
 IPart=  9 NShTot=           0 NBatch=           0 AvBLen=         0.0
 IPart= 19 NShTot=           0 NBatch=           0 AvBLen=         0.0
 IPart= 32 NShTot=           0 NBatch=           0 AvBLen=         0.0
 PRISM was handed   268432135 working-precision words and    36 shell-pairs
 PRISM was handed   268432135 working-precision words and    36 shell-pairs
 PRISM was handed   268432135 working-precision words and    36 shell-pairs
 PRISM was handed   268432135 working-precision words and    36 shell-pairs
 PRISM was handed   268432135 working-precision words and    36 shell-pairs
 IPart= 18 NShTot=           0 NBatch=           0 AvBLen=         0.0
 IPart=  8 NShTot=           0 NBatch=           0 AvBLen=         0.0
 IPart= 31 NShTot=           0 NBatch=           0 AvBLen=         0.0
 PRISM was handed   268432135 working-precision words and    36 shell-pairs
 PRISM was handed   268432135 working-precision words and    36 shell-pairs
 IPart=  7 NShTot=           0 NBatch=           0 AvBLen=         0.0
 IPart= 17 NShTot=           0 NBatch=           0 AvBLen=         0.0
 IPart= 21 NShTot=           0 NBatch=           0 AvBLen=         0.0
 IPart= 33 NShTot=           0 NBatch=           0 AvBLen=         0.0
 IPart=  6 NShTot=           0 NBatch=           0 AvBLen=         0.0
 IPart= 23 NShTot=           0 NBatch=           0 AvBLen=         0.0
 IPart= 30 NShTot=           0 NBatch=           0 AvBLen=         0.0
 IPart= 27 NShTot=           0 NBatch=           0 AvBLen=         0.0
 IPart= 14 NShTot=           0 NBatch=           0 AvBLen=         0.0
 PrSmSu:  NxtVal=             37.
 *** Overlap *** 
                1             2             3             4             5 
      1  0.100000D+01
      2  0.916920D-02  0.100000D+01
      3  0.727333D-01  0.261907D+00  0.100000D+01
      4  0.000000D+00  0.000000D+00  0.000000D+00  0.100000D+01
      5  0.000000D+00  0.000000D+00  0.000000D+00  0.000000D+00  0.100000D+01
      6 -0.225143D-01  0.000000D+00  0.000000D+00  0.000000D+00  0.000000D+00
      7  0.368710D+00  0.101215D-01  0.334950D+00  0.000000D+00  0.000000D+00
      8  0.000000D+00  0.000000D+00  0.000000D+00  0.320730D+00  0.000000D+00
      9  0.000000D+00  0.000000D+00  0.000000D+00  0.000000D+00  0.320730D+00
     10 -0.330979D+00  0.000000D+00  0.000000D+00  0.000000D+00  0.000000D+00
     11  0.502217D+00 -0.323625D-03  0.781293D-02  0.000000D+00  0.000000D+00
     12  0.000000D+00  0.000000D+00  0.000000D+00  0.126594D-01  0.000000D+00
     13  0.000000D+00  0.000000D+00  0.000000D+00  0.000000D+00  0.126594D-01
     14 -0.436972D+00  0.000000D+00  0.000000D+00  0.000000D+00  0.000000D+00
     15  0.364261D+00  0.575699D-02  0.450232D-01  0.000000D+00  0.000000D+00
     16  0.000000D+00  0.000000D+00  0.000000D+00  0.361007D-02  0.000000D+00
     17  0.000000D+00  0.000000D+00  0.000000D+00  0.000000D+00  0.361007D-02
     18 -0.201738D+00  0.000000D+00  0.000000D+00  0.000000D+00  0.000000D+00
     19  0.102116D+00  0.000000D+00  0.000000D+00  0.000000D+00  0.000000D+00
     20  0.000000D+00  0.000000D+00  0.000000D+00  0.000000D+00  0.000000D+00
     21  0.000000D+00  0.000000D+00  0.000000D+00  0.000000D+00  0.000000D+00
     22  0.000000D+00  0.000000D+00  0.000000D+00  0.000000D+00  0.000000D+00
     23  0.000000D+00  0.000000D+00  0.000000D+00  0.000000D+00  0.000000D+00
     24  0.389706D+00  0.000000D+00  0.000000D+00  0.000000D+00  0.000000D+00
     25  0.000000D+00  0.000000D+00  0.000000D+00  0.000000D+00  0.000000D+00
     26  0.000000D+00  0.000000D+00  0.000000D+00  0.000000D+00  0.000000D+00
     27  0.000000D+00  0.000000D+00  0.000000D+00  0.000000D+00  0.000000D+00
     28  0.000000D+00  0.000000D+00  0.000000D+00  0.000000D+00  0.000000D+00
                6             7             8             9            10 
      6  0.100000D+01
      7  0.000000D+00  0.100000D+01
      8  0.000000D+00  0.000000D+00  0.100000D+01
      9  0.000000D+00  0.000000D+00  0.000000D+00  0.100000D+01
     10  0.320730D+00  0.000000D+00  0.000000D+00  0.000000D+00  0.100000D+01
     11  0.000000D+00  0.254017D+00  0.000000D+00  0.000000D+00  0.000000D+00
     12  0.000000D+00  0.000000D+00  0.217564D+00  0.000000D+00  0.000000D+00
     13  0.000000D+00  0.000000D+00  0.000000D+00  0.217564D+00  0.000000D+00
     14  0.126594D-01  0.000000D+00  0.000000D+00  0.000000D+00  0.217564D+00
     15  0.000000D+00  0.230277D+00  0.000000D+00  0.000000D+00  0.000000D+00
     16  0.000000D+00  0.000000D+00  0.710789D-01  0.000000D+00  0.000000D+00
     17  0.000000D+00  0.000000D+00  0.000000D+00  0.710789D-01  0.000000D+00
     18  0.361007D-02  0.000000D+00  0.000000D+00  0.000000D+00  0.710789D-01
     19  0.000000D+00  0.000000D+00  0.000000D+00  0.000000D+00  0.000000D+00
     20  0.000000D+00  0.000000D+00  0.000000D+00  0.000000D+00  0.000000D+00
     21  0.000000D+00  0.000000D+00  0.000000D+00  0.000000D+00  0.000000D+00
     22  0.000000D+00  0.000000D+00  0.000000D+00  0.000000D+00  0.000000D+00
     23  0.000000D+00  0.000000D+00  0.000000D+00  0.000000D+00  0.000000D+00
     24  0.000000D+00  0.000000D+00  0.000000D+00  0.000000D+00  0.000000D+00
     25  0.000000D+00  0.000000D+00  0.000000D+00  0.000000D+00  0.000000D+00
     26  0.000000D+00  0.000000D+00  0.000000D+00  0.000000D+00  0.000000D+00
     27  0.000000D+00  0.000000D+00  0.000000D+00  0.000000D+00  0.000000D+00
     28  0.000000D+00  0.000000D+00  0.000000D+00  0.000000D+00  0.000000D+00
               11            12            13            14            15 
     11  0.100000D+01
     12  0.000000D+00  0.100000D+01
     13  0.000000D+00  0.000000D+00  0.100000D+01
     14  0.000000D+00  0.000000D+00  0.000000D+00  0.100000D+01
     15  0.850437D+00  0.000000D+00  0.000000D+00  0.000000D+00  0.100000D+01
     16  0.000000D+00  0.734775D+00  0.000000D+00  0.000000D+00  0.000000D+00
     17  0.000000D+00  0.000000D+00  0.734775D+00  0.000000D+00  0.000000D+00
     18  0.000000D+00  0.000000D+00  0.000000D+00  0.734775D+00  0.000000D+00
     19  0.000000D+00  0.000000D+00  0.000000D+00  0.000000D+00  0.000000D+00
     20  0.000000D+00  0.000000D+00  0.000000D+00  0.000000D+00  0.000000D+00
     21  0.000000D+00  0.000000D+00  0.000000D+00  0.000000D+00  0.000000D+00
     22  0.000000D+00  0.000000D+00  0.000000D+00  0.000000D+00  0.000000D+00
     23  0.000000D+00  0.000000D+00  0.000000D+00  0.000000D+00  0.000000D+00
     24  0.000000D+00  0.000000D+00  0.000000D+00  0.000000D+00  0.000000D+00
     25  0.000000D+00  0.000000D+00  0.000000D+00  0.000000D+00  0.000000D+00
     26  0.000000D+00  0.000000D+00  0.000000D+00  0.000000D+00  0.000000D+00
     27  0.000000D+00  0.000000D+00  0.000000D+00  0.000000D+00  0.000000D+00
     28  0.000000D+00  0.000000D+00  0.000000D+00  0.000000D+00  0.000000D+00
               16            17            18            19            20 
     16  0.100000D+01
     17  0.000000D+00  0.100000D+01
     18  0.000000D+00  0.000000D+00  0.100000D+01
     19  0.000000D+00  0.000000D+00  0.000000D+00  0.100000D+01
     20  0.000000D+00  0.000000D+00  0.000000D+00  0.000000D+00  0.100000D+01
     21  0.000000D+00  0.000000D+00  0.000000D+00  0.000000D+00  0.000000D+00
     22  0.000000D+00  0.000000D+00  0.000000D+00  0.000000D+00  0.000000D+00
     23  0.000000D+00  0.000000D+00  0.000000D+00  0.000000D+00  0.000000D+00
     24  0.000000D+00  0.000000D+00  0.000000D+00  0.395959D+00  0.000000D+00
     25  0.000000D+00  0.000000D+00  0.000000D+00  0.000000D+00  0.395959D+00
     26  0.000000D+00  0.000000D+00  0.000000D+00  0.000000D+00  0.000000D+00
     27  0.000000D+00  0.000000D+00  0.000000D+00  0.000000D+00  0.000000D+00
     28  0.000000D+00  0.000000D+00  0.000000D+00  0.000000D+00  0.000000D+00
               21            22            23            24            25 
     21  0.100000D+01
     22  0.000000D+00  0.100000D+01
     23  0.000000D+00  0.000000D+00  0.100000D+01
     24  0.000000D+00  0.000000D+00  0.000000D+00  0.100000D+01
     25  0.000000D+00  0.000000D+00  0.000000D+00  0.000000D+00  0.100000D+01
     26  0.395959D+00  0.000000D+00  0.000000D+00  0.000000D+00  0.000000D+00
     27  0.000000D+00  0.395959D+00  0.000000D+00  0.000000D+00  0.000000D+00
     28  0.000000D+00  0.000000D+00  0.395959D+00  0.000000D+00  0.000000D+00
               26            27            28 
     26  0.100000D+01
     27  0.000000D+00  0.100000D+01
     28  0.000000D+00  0.000000D+00  0.100000D+01
 *** Kinetic Energy *** 
                1             2             3             4             5 
      1  0.760032D+00
      2 -0.146668D-02  0.238140D+03
      3 -0.637357D-02 -0.849715D+01  0.110812D+02
      4  0.000000D+00  0.000000D+00  0.000000D+00  0.405624D+02
      5  0.000000D+00  0.000000D+00  0.000000D+00  0.000000D+00  0.405624D+02
      6 -0.100831D-01  0.000000D+00  0.000000D+00  0.000000D+00  0.000000D+00
      7  0.787192D-01 -0.119187D+01 -0.935732D+00  0.000000D+00  0.000000D+00
      8  0.000000D+00  0.000000D+00  0.000000D+00  0.225504D+01  0.000000D+00
      9  0.000000D+00  0.000000D+00  0.000000D+00  0.000000D+00  0.225504D+01
     10 -0.231163D+00  0.000000D+00  0.000000D+00  0.000000D+00  0.000000D+00
     11  0.642965D-01 -0.207112D-01 -0.130608D+00  0.000000D+00  0.000000D+00
     12  0.000000D+00  0.000000D+00  0.000000D+00  0.467897D-02  0.000000D+00
     13  0.000000D+00  0.000000D+00  0.000000D+00  0.000000D+00  0.467897D-02
     14 -0.116156D+00  0.000000D+00  0.000000D+00  0.000000D+00  0.000000D+00
     15  0.245997D-01  0.458197D-03  0.356994D-02  0.000000D+00  0.000000D+00
     16  0.000000D+00  0.000000D+00  0.000000D+00  0.477331D-03  0.000000D+00
     17  0.000000D+00  0.000000D+00  0.000000D+00  0.000000D+00  0.477331D-03
     18 -0.233173D-01  0.000000D+00  0.000000D+00  0.000000D+00  0.000000D+00
     19  0.124979D+00  0.000000D+00  0.000000D+00  0.000000D+00  0.000000D+00
     20  0.000000D+00  0.000000D+00  0.000000D+00  0.000000D+00  0.000000D+00
     21  0.000000D+00  0.000000D+00  0.000000D+00  0.000000D+00  0.000000D+00
     22  0.000000D+00  0.000000D+00  0.000000D+00  0.000000D+00  0.000000D+00
     23  0.000000D+00  0.000000D+00  0.000000D+00  0.000000D+00  0.000000D+00
     24  0.483252D+00  0.000000D+00  0.000000D+00  0.000000D+00  0.000000D+00
     25  0.000000D+00  0.000000D+00  0.000000D+00  0.000000D+00  0.000000D+00
     26  0.000000D+00  0.000000D+00  0.000000D+00  0.000000D+00  0.000000D+00
     27  0.000000D+00  0.000000D+00  0.000000D+00  0.000000D+00  0.000000D+00
     28  0.000000D+00  0.000000D+00  0.000000D+00  0.000000D+00  0.000000D+00
                6             7             8             9            10 
      6  0.405624D+02
      7  0.000000D+00  0.139068D+01
      8  0.000000D+00  0.000000D+00  0.266954D+01
      9  0.000000D+00  0.000000D+00  0.000000D+00  0.266954D+01
     10  0.225504D+01  0.000000D+00  0.000000D+00  0.000000D+00  0.266954D+01
     11  0.000000D+00 -0.125868D+00  0.000000D+00  0.000000D+00  0.000000D+00
     12  0.000000D+00  0.000000D+00  0.727335D-01  0.000000D+00  0.000000D+00
     13  0.000000D+00  0.000000D+00  0.000000D+00  0.727335D-01  0.000000D+00
     14  0.467897D-02  0.000000D+00  0.000000D+00  0.000000D+00  0.727335D-01
     15  0.000000D+00  0.176460D-01  0.000000D+00  0.000000D+00  0.000000D+00
     16  0.000000D+00  0.000000D+00  0.909809D-02  0.000000D+00  0.000000D+00
     17  0.000000D+00  0.000000D+00  0.000000D+00  0.909809D-02  0.000000D+00
     18  0.477331D-03  0.000000D+00  0.000000D+00  0.000000D+00  0.909809D-02
     19  0.000000D+00  0.000000D+00  0.000000D+00  0.000000D+00  0.000000D+00
     20  0.000000D+00  0.000000D+00  0.000000D+00  0.000000D+00  0.000000D+00
     21  0.000000D+00  0.000000D+00  0.000000D+00  0.000000D+00  0.000000D+00
     22  0.000000D+00  0.000000D+00  0.000000D+00  0.000000D+00  0.000000D+00
     23  0.000000D+00  0.000000D+00  0.000000D+00  0.000000D+00  0.000000D+00
     24  0.000000D+00  0.000000D+00  0.000000D+00  0.000000D+00  0.000000D+00
     25  0.000000D+00  0.000000D+00  0.000000D+00  0.000000D+00  0.000000D+00
     26  0.000000D+00  0.000000D+00  0.000000D+00  0.000000D+00  0.000000D+00
     27  0.000000D+00  0.000000D+00  0.000000D+00  0.000000D+00  0.000000D+00
     28  0.000000D+00  0.000000D+00  0.000000D+00  0.000000D+00  0.000000D+00
               11            12            13            14            15 
     11  0.130956D+00
     12  0.000000D+00  0.182825D+00
     13  0.000000D+00  0.000000D+00  0.182825D+00
     14  0.000000D+00  0.000000D+00  0.000000D+00  0.182825D+00
     15  0.485464D-01  0.000000D+00  0.000000D+00  0.000000D+00  0.398069D-01
     16  0.000000D+00  0.715354D-01  0.000000D+00  0.000000D+00  0.000000D+00
     17  0.000000D+00  0.000000D+00  0.715354D-01  0.000000D+00  0.000000D+00
     18  0.000000D+00  0.000000D+00  0.000000D+00  0.715354D-01  0.000000D+00
     19  0.000000D+00  0.000000D+00  0.000000D+00  0.000000D+00  0.000000D+00
     20  0.000000D+00  0.000000D+00  0.000000D+00  0.000000D+00  0.000000D+00
     21  0.000000D+00  0.000000D+00  0.000000D+00  0.000000D+00  0.000000D+00
     22  0.000000D+00  0.000000D+00  0.000000D+00  0.000000D+00  0.000000D+00
     23  0.000000D+00  0.000000D+00  0.000000D+00  0.000000D+00  0.000000D+00
     24  0.000000D+00  0.000000D+00  0.000000D+00  0.000000D+00  0.000000D+00
     25  0.000000D+00  0.000000D+00  0.000000D+00  0.000000D+00  0.000000D+00
     26  0.000000D+00  0.000000D+00  0.000000D+00  0.000000D+00  0.000000D+00
     27  0.000000D+00  0.000000D+00  0.000000D+00  0.000000D+00  0.000000D+00
     28  0.000000D+00  0.000000D+00  0.000000D+00  0.000000D+00  0.000000D+00
               16            17            18            19            20 
     16  0.663448D-01
     17  0.000000D+00  0.663448D-01
     18  0.000000D+00  0.000000D+00  0.663448D-01
     19  0.000000D+00  0.000000D+00  0.000000D+00  0.800995D+01
     20  0.000000D+00  0.000000D+00  0.000000D+00  0.000000D+00  0.800995D+01
     21  0.000000D+00  0.000000D+00  0.000000D+00  0.000000D+00  0.000000D+00
     22  0.000000D+00  0.000000D+00  0.000000D+00  0.000000D+00  0.000000D+00
     23  0.000000D+00  0.000000D+00  0.000000D+00  0.000000D+00  0.000000D+00
     24  0.000000D+00  0.000000D+00  0.000000D+00  0.930872D+00  0.000000D+00
     25  0.000000D+00  0.000000D+00  0.000000D+00  0.000000D+00  0.930872D+00
     26  0.000000D+00  0.000000D+00  0.000000D+00  0.000000D+00  0.000000D+00
     27  0.000000D+00  0.000000D+00  0.000000D+00  0.000000D+00  0.000000D+00
     28  0.000000D+00  0.000000D+00  0.000000D+00  0.000000D+00  0.000000D+00
               21            22            23            24            25 
     21  0.800995D+01
     22  0.000000D+00  0.800995D+01
     23  0.000000D+00  0.000000D+00  0.800995D+01
     24  0.000000D+00  0.000000D+00  0.000000D+00  0.144943D+01
     25  0.000000D+00  0.000000D+00  0.000000D+00  0.000000D+00  0.144943D+01
     26  0.930872D+00  0.000000D+00  0.000000D+00  0.000000D+00  0.000000D+00
     27  0.000000D+00  0.930872D+00  0.000000D+00  0.000000D+00  0.000000D+00
     28  0.000000D+00  0.000000D+00  0.930872D+00  0.000000D+00  0.000000D+00
               26            27            28 
     26  0.144943D+01
     27  0.000000D+00  0.144943D+01
     28  0.000000D+00  0.000000D+00  0.144943D+01
 Entering OneElI...
 Calculate potential energy integrals
    NBasis =  28  MinDer = 0  MaxDer = 0
 Requested accuracy = 0.1000D-12
 Symmetry will be used
 PrmmSu-InSpLW:  IPartL=    0 NPrtUS=   36 NPrtUL=    1 DoSpLW=F IThBeg=    0 IThEnd=   35 NThAct=   36.
 PrSmSu:  IncTry=   512 NBBP=             72 NTPThr=   100 NPartT=   36 Incr=           1 LDynOK=F GPUOK=F.
 PrsmSu:  NPrtUS=  36 ThrOK=T IAlg=1 LenDen=           0 ISkipM=0 DoSpLW=F IThBeg=    0 IThEnd=   35.
 Prism:   IPart=     0 DynPar=F LinDyn=F Incr=           1.
 PRISM was handed   268432575 working-precision words and    36 shell-pairs
 PRISM was handed   268432575 working-precision words and    36 shell-pairs
 PRISM was handed   268432575 working-precision words and    36 shell-pairs
 PRISM was handed   268432575 working-precision words and    36 shell-pairs
 PRISM was handed   268432575 working-precision words and    36 shell-pairs
 PRISM was handed   268432575 working-precision words and    36 shell-pairs
 PRISM was handed   268432575 working-precision words and    36 shell-pairs
 PRISM was handed   268432575 working-precision words and    36 shell-pairs
 PRISM was handed   268432575 working-precision words and    36 shell-pairs
 PRISM was handed   268432575 working-precision words and    36 shell-pairs
 PRISM was handed   268432575 working-precision words and    36 shell-pairs
 PRISM was handed   268432575 working-precision words and    36 shell-pairs
 PRISM was handed   268432575 working-precision words and    36 shell-pairs
 PRISM was handed   268432575 working-precision words and    36 shell-pairs
 PRISM was handed   268432575 working-precision words and    36 shell-pairs
 PRISM was handed   268432575 working-precision words and    36 shell-pairs
 PRISM was handed   268432575 working-precision words and    36 shell-pairs
 PRISM was handed   268432575 working-precision words and    36 shell-pairs
 PRISM was handed   268432575 working-precision words and    36 shell-pairs
 PRISM was handed   268432575 working-precision words and    36 shell-pairs
 PRISM was handed   268432575 working-precision words and    36 shell-pairs
 PRISM was handed   268432575 working-precision words and    36 shell-pairs
 PRISM was handed   268432575 working-precision words and    36 shell-pairs
 PRISM was handed   268432575 working-precision words and    36 shell-pairs
 PRISM was handed   268432575 working-precision words and    36 shell-pairs
 PRISM was handed   268432575 working-precision words and    36 shell-pairs
 PRISM was handed   268432575 working-precision words and    36 shell-pairs
 PRISM was handed   268432575 working-precision words and    36 shell-pairs
 PRISM was handed   268432575 working-precision words and    36 shell-pairs
 PRISM was handed   268432575 working-precision words and    36 shell-pairs
 PRISM was handed   268432575 working-precision words and    36 shell-pairs
 PRISM was handed   268432575 working-precision words and    36 shell-pairs
 PRISM was handed   268432575 working-precision words and    36 shell-pairs
 PRISM was handed   268432575 working-precision words and    36 shell-pairs
 PRISM was handed   268432575 working-precision words and    36 shell-pairs
 PRISM was handed   268432575 working-precision words and    36 shell-pairs
 IPart= 12 NShTot=           0 NBatch=           0 AvBLen=         0.0
 IPart=  6 NShTot=           0 NBatch=           0 AvBLen=         0.0
 IPart=  7 NShTot=           0 NBatch=           0 AvBLen=         0.0
 IPart= 34 NShTot=           0 NBatch=           0 AvBLen=         0.0
 IPart= 30 NShTot=           0 NBatch=           0 AvBLen=         0.0
 IPart= 31 NShTot=           0 NBatch=           0 AvBLen=         0.0
 IPart= 14 NShTot=           0 NBatch=           0 AvBLen=         0.0
 IPart= 18 NShTot=           0 NBatch=           0 AvBLen=         0.0
 IPart= 21 NShTot=           0 NBatch=           0 AvBLen=         0.0
 IPart= 23 NShTot=           0 NBatch=           0 AvBLen=         0.0
 IPart= 27 NShTot=           0 NBatch=           0 AvBLen=         0.0
 IPart= 13 NShTot=           0 NBatch=           0 AvBLen=         0.0
 IPart= 29 NShTot=           0 NBatch=           0 AvBLen=         0.0
 IPart= 20 NShTot=           0 NBatch=           0 AvBLen=         0.0
 IPart= 17 NShTot=           0 NBatch=           0 AvBLen=         0.0
 IPart= 32 NShTot=           0 NBatch=           0 AvBLen=         0.0
 IPart=  0 NShTot=          40 NBatch=          20 AvBLen=         2.0
 IPart= 35 NShTot=           0 NBatch=           0 AvBLen=         0.0
 IPart=  3 NShTot=           2 NBatch=           1 AvBLen=         2.0
 IPart= 11 NShTot=           0 NBatch=           0 AvBLen=         0.0
 IPart= 28 NShTot=           0 NBatch=           0 AvBLen=         0.0
 IPart=  5 NShTot=           0 NBatch=           0 AvBLen=         0.0
 IPart=  1 NShTot=          24 NBatch=          12 AvBLen=         2.0
 IPart= 22 NShTot=           0 NBatch=           0 AvBLen=         0.0
 IPart= 15 NShTot=           0 NBatch=           0 AvBLen=         0.0
 IPart= 19 NShTot=           0 NBatch=           0 AvBLen=         0.0
 IPart= 25 NShTot=           0 NBatch=           0 AvBLen=         0.0
 IPart=  4 NShTot=           0 NBatch=           0 AvBLen=         0.0
 IPart= 16 NShTot=           0 NBatch=           0 AvBLen=         0.0
 IPart= 26 NShTot=           0 NBatch=           0 AvBLen=         0.0
 IPart=  2 NShTot=           6 NBatch=           3 AvBLen=         2.0
 IPart=  8 NShTot=           0 NBatch=           0 AvBLen=         0.0
 IPart= 33 NShTot=           0 NBatch=           0 AvBLen=         0.0
 IPart= 24 NShTot=           0 NBatch=           0 AvBLen=         0.0
 IPart=  9 NShTot=           0 NBatch=           0 AvBLen=         0.0
 IPart= 10 NShTot=           0 NBatch=           0 AvBLen=         0.0
 PrSmSu:  NxtVal=             37.
 ***** Potential Energy ***** 
                1             2             3             4             5 
      1  0.125107D+02
      2  0.239947D+01  0.479166D+03
      3  0.456902D+01  0.594853D+02  0.854767D+02
      4  0.000000D+00  0.000000D+00  0.000000D+00  0.993364D+02
      5  0.000000D+00  0.000000D+00  0.000000D+00  0.000000D+00  0.993364D+02
      6 -0.114511D+01 -0.675491D-02 -0.477409D-01  0.000000D+00  0.000000D+00
      7  0.787291D+01  0.186395D+01  0.176644D+02  0.000000D+00  0.000000D+00
      8  0.000000D+00  0.000000D+00  0.000000D+00  0.185370D+02  0.000000D+00
      9  0.000000D+00  0.000000D+00  0.000000D+00  0.000000D+00  0.185370D+02
     10 -0.592729D+01 -0.418731D-03 -0.254550D-01  0.000000D+00  0.000000D+00
     11  0.523221D+01 -0.977036D-01  0.275554D+00  0.000000D+00  0.000000D+00
     12  0.000000D+00  0.000000D+00  0.000000D+00  0.639401D+00  0.000000D+00
     13  0.000000D+00  0.000000D+00  0.000000D+00  0.000000D+00  0.639401D+00
     14 -0.418142D+01 -0.106265D-04 -0.109750D-02  0.000000D+00  0.000000D+00
     15  0.395537D+01  0.150739D+01  0.283996D+01  0.000000D+00  0.000000D+00
     16  0.000000D+00  0.000000D+00  0.000000D+00  0.181519D+00  0.000000D+00
     17  0.000000D+00  0.000000D+00  0.000000D+00  0.000000D+00  0.181519D+00
     18 -0.171603D+01 -0.298692D-05 -0.313774D-03  0.000000D+00  0.000000D+00
     19  0.207221D+01  0.257262D-04  0.657090D-02  0.000000D+00  0.000000D+00
     20  0.000000D+00  0.000000D+00  0.000000D+00 -0.216202D-01  0.000000D+00
     21  0.000000D+00  0.000000D+00  0.000000D+00  0.000000D+00 -0.216202D-01
     22  0.000000D+00  0.000000D+00  0.000000D+00  0.000000D+00  0.000000D+00
     23  0.000000D+00  0.000000D+00  0.000000D+00  0.000000D+00  0.000000D+00
     24  0.498483D+01  0.000000D+00  0.720952D-03  0.000000D+00  0.000000D+00
     25  0.000000D+00  0.000000D+00  0.000000D+00 -0.207831D-02  0.000000D+00
     26  0.000000D+00  0.000000D+00  0.000000D+00  0.000000D+00 -0.207831D-02
     27  0.000000D+00  0.000000D+00  0.000000D+00  0.000000D+00  0.000000D+00
     28  0.000000D+00  0.000000D+00  0.000000D+00  0.000000D+00  0.000000D+00
                6             7             8             9            10 
      6  0.993450D+02
      7 -0.249501D-01  0.268113D+02
      8  0.000000D+00  0.000000D+00  0.256780D+02
      9  0.000000D+00  0.000000D+00  0.000000D+00  0.256780D+02
     10  0.185443D+02 -0.159145D+00  0.000000D+00  0.000000D+00  0.257841D+02
     11 -0.846543D-03  0.417811D+01  0.000000D+00  0.000000D+00 -0.670006D-01
     12  0.000000D+00  0.000000D+00  0.351984D+01  0.000000D+00  0.000000D+00
     13  0.000000D+00  0.000000D+00  0.000000D+00  0.351984D+01  0.000000D+00
     14  0.639771D+00 -0.379494D-01  0.000000D+00  0.000000D+00  0.355725D+01
     15 -0.310280D-02  0.477090D+01  0.000000D+00  0.000000D+00 -0.514389D-01
     16  0.000000D+00  0.000000D+00  0.110761D+01  0.000000D+00  0.000000D+00
     17  0.000000D+00  0.000000D+00  0.000000D+00  0.110761D+01  0.000000D+00
     18  0.181625D+00 -0.121980D-01  0.000000D+00  0.000000D+00  0.111991D+01
     19 -0.274762D-01  0.597440D-01  0.000000D+00  0.000000D+00 -0.155241D+00
     20  0.000000D+00  0.000000D+00 -0.948854D-01  0.000000D+00  0.000000D+00
     21  0.000000D+00  0.000000D+00  0.000000D+00 -0.948854D-01  0.000000D+00
     22  0.000000D+00  0.000000D+00  0.000000D+00  0.000000D+00  0.000000D+00
     23  0.000000D+00  0.000000D+00  0.000000D+00  0.000000D+00  0.000000D+00
     24 -0.277029D-02  0.676994D-01  0.000000D+00  0.000000D+00 -0.169371D+00
     25  0.000000D+00  0.000000D+00 -0.764971D-01  0.000000D+00  0.000000D+00
     26  0.000000D+00  0.000000D+00  0.000000D+00 -0.764971D-01  0.000000D+00
     27  0.000000D+00  0.000000D+00  0.000000D+00  0.000000D+00  0.000000D+00
     28  0.000000D+00  0.000000D+00  0.000000D+00  0.000000D+00  0.000000D+00
               11            12            13            14            15 
     11  0.802005D+01
     12  0.000000D+00  0.659077D+01
     13  0.000000D+00  0.000000D+00  0.659077D+01
     14 -0.107930D+00  0.000000D+00  0.000000D+00  0.665326D+01
     15  0.619465D+01  0.000000D+00  0.000000D+00 -0.818426D-01  0.596351D+01
     16  0.000000D+00  0.400201D+01  0.000000D+00  0.000000D+00  0.000000D+00
     17  0.000000D+00  0.000000D+00  0.400201D+01  0.000000D+00  0.000000D+00
     18 -0.504980D-01  0.000000D+00  0.000000D+00  0.403099D+01 -0.476753D-01
     19  0.177707D-01  0.000000D+00  0.000000D+00 -0.269645D-01  0.150947D-01
     20  0.000000D+00 -0.138181D-01  0.000000D+00  0.000000D+00  0.000000D+00
     21  0.000000D+00  0.000000D+00 -0.138181D-01  0.000000D+00  0.000000D+00
     22  0.000000D+00  0.000000D+00  0.000000D+00  0.000000D+00  0.000000D+00
     23  0.000000D+00  0.000000D+00  0.000000D+00  0.000000D+00  0.000000D+00
     24  0.907749D-01  0.000000D+00  0.000000D+00 -0.129905D+00  0.579730D-01
     25  0.000000D+00 -0.565706D-01  0.000000D+00  0.000000D+00  0.000000D+00
     26  0.000000D+00  0.000000D+00 -0.565706D-01  0.000000D+00  0.000000D+00
     27  0.000000D+00  0.000000D+00  0.000000D+00  0.000000D+00  0.000000D+00
     28  0.000000D+00  0.000000D+00  0.000000D+00  0.000000D+00  0.000000D+00
               16            17            18            19            20 
     16  0.397972D+01
     17  0.000000D+00  0.397972D+01
     18  0.000000D+00  0.000000D+00  0.399694D+01
     19  0.000000D+00  0.000000D+00 -0.832565D-02  0.297453D+02
     20 -0.422057D-02  0.000000D+00  0.000000D+00  0.000000D+00  0.297071D+02
     21  0.000000D+00 -0.422057D-02  0.000000D+00  0.000000D+00  0.000000D+00
     22  0.000000D+00  0.000000D+00  0.000000D+00  0.000000D+00  0.000000D+00
     23  0.000000D+00  0.000000D+00  0.000000D+00  0.000000D+00  0.000000D+00
     24  0.000000D+00  0.000000D+00 -0.464699D-01  0.817664D+01  0.000000D+00
     25 -0.206214D-01  0.000000D+00  0.000000D+00  0.000000D+00  0.813962D+01
     26  0.000000D+00 -0.206214D-01  0.000000D+00  0.000000D+00  0.000000D+00
     27  0.000000D+00  0.000000D+00  0.000000D+00  0.000000D+00  0.000000D+00
     28  0.000000D+00  0.000000D+00  0.000000D+00  0.000000D+00  0.000000D+00
               21            22            23            24            25 
     21  0.297071D+02
     22  0.000000D+00  0.296636D+02
     23  0.000000D+00  0.000000D+00  0.296636D+02
     24  0.000000D+00  0.000000D+00  0.000000D+00  0.126855D+02
     25  0.000000D+00  0.000000D+00  0.000000D+00  0.000000D+00  0.125251D+02
     26  0.813962D+01  0.000000D+00  0.000000D+00  0.000000D+00  0.000000D+00
     27  0.000000D+00  0.811251D+01  0.000000D+00  0.000000D+00  0.000000D+00
     28  0.000000D+00  0.000000D+00  0.811251D+01  0.000000D+00  0.000000D+00
               26            27            28 
     26  0.125251D+02
     27  0.000000D+00  0.124433D+02
     28  0.000000D+00  0.000000D+00  0.124433D+02
 ****** Core Hamiltonian ****** 
                1             2             3             4             5 
      1 -0.117507D+02
      2 -0.240094D+01 -0.241026D+03
      3 -0.457539D+01 -0.679824D+02 -0.743956D+02
      4  0.000000D+00  0.000000D+00  0.000000D+00 -0.587740D+02
      5  0.000000D+00  0.000000D+00  0.000000D+00  0.000000D+00 -0.587740D+02
      6  0.113503D+01  0.675491D-02  0.477409D-01  0.000000D+00  0.000000D+00
      7 -0.779420D+01 -0.305582D+01 -0.186001D+02  0.000000D+00  0.000000D+00
      8  0.000000D+00  0.000000D+00  0.000000D+00 -0.162820D+02  0.000000D+00
      9  0.000000D+00  0.000000D+00  0.000000D+00  0.000000D+00 -0.162820D+02
     10  0.569613D+01  0.418731D-03  0.254550D-01  0.000000D+00  0.000000D+00
     11 -0.516791D+01  0.769924D-01 -0.406162D+00  0.000000D+00  0.000000D+00
     12  0.000000D+00  0.000000D+00  0.000000D+00 -0.634722D+00  0.000000D+00
     13  0.000000D+00  0.000000D+00  0.000000D+00  0.000000D+00 -0.634722D+00
     14  0.406527D+01  0.106265D-04  0.109750D-02  0.000000D+00  0.000000D+00
     15 -0.393077D+01 -0.150693D+01 -0.283639D+01  0.000000D+00  0.000000D+00
     16  0.000000D+00  0.000000D+00  0.000000D+00 -0.181041D+00  0.000000D+00
     17  0.000000D+00  0.000000D+00  0.000000D+00  0.000000D+00 -0.181041D+00
     18  0.169271D+01  0.298692D-05  0.313774D-03  0.000000D+00  0.000000D+00
     19 -0.194724D+01 -0.257262D-04 -0.657090D-02  0.000000D+00  0.000000D+00
     20  0.000000D+00  0.000000D+00  0.000000D+00  0.216202D-01  0.000000D+00
     21  0.000000D+00  0.000000D+00  0.000000D+00  0.000000D+00  0.216202D-01
     22  0.000000D+00  0.000000D+00  0.000000D+00  0.000000D+00  0.000000D+00
     23  0.000000D+00  0.000000D+00  0.000000D+00  0.000000D+00  0.000000D+00
     24 -0.450158D+01  0.000000D+00 -0.720952D-03  0.000000D+00  0.000000D+00
     25  0.000000D+00  0.000000D+00  0.000000D+00  0.207831D-02  0.000000D+00
     26  0.000000D+00  0.000000D+00  0.000000D+00  0.000000D+00  0.207831D-02
     27  0.000000D+00  0.000000D+00  0.000000D+00  0.000000D+00  0.000000D+00
     28  0.000000D+00  0.000000D+00  0.000000D+00  0.000000D+00  0.000000D+00
                6             7             8             9            10 
      6 -0.587827D+02
      7  0.249501D-01 -0.254207D+02
      8  0.000000D+00  0.000000D+00 -0.230085D+02
      9  0.000000D+00  0.000000D+00  0.000000D+00 -0.230085D+02
     10 -0.162893D+02  0.159145D+00  0.000000D+00  0.000000D+00 -0.231145D+02
     11  0.846543D-03 -0.430397D+01  0.000000D+00  0.000000D+00  0.670006D-01
     12  0.000000D+00  0.000000D+00 -0.344710D+01  0.000000D+00  0.000000D+00
     13  0.000000D+00  0.000000D+00  0.000000D+00 -0.344710D+01  0.000000D+00
     14 -0.635092D+00  0.379494D-01  0.000000D+00  0.000000D+00 -0.348452D+01
     15  0.310280D-02 -0.475326D+01  0.000000D+00  0.000000D+00  0.514389D-01
     16  0.000000D+00  0.000000D+00 -0.109851D+01  0.000000D+00  0.000000D+00
     17  0.000000D+00  0.000000D+00  0.000000D+00 -0.109851D+01  0.000000D+00
     18 -0.181148D+00  0.121980D-01  0.000000D+00  0.000000D+00 -0.111081D+01
     19  0.274762D-01 -0.597440D-01  0.000000D+00  0.000000D+00  0.155241D+00
     20  0.000000D+00  0.000000D+00  0.948854D-01  0.000000D+00  0.000000D+00
     21  0.000000D+00  0.000000D+00  0.000000D+00  0.948854D-01  0.000000D+00
     22  0.000000D+00  0.000000D+00  0.000000D+00  0.000000D+00  0.000000D+00
     23  0.000000D+00  0.000000D+00  0.000000D+00  0.000000D+00  0.000000D+00
     24  0.277029D-02 -0.676994D-01  0.000000D+00  0.000000D+00  0.169371D+00
     25  0.000000D+00  0.000000D+00  0.764971D-01  0.000000D+00  0.000000D+00
     26  0.000000D+00  0.000000D+00  0.000000D+00  0.764971D-01  0.000000D+00
     27  0.000000D+00  0.000000D+00  0.000000D+00  0.000000D+00  0.000000D+00
     28  0.000000D+00  0.000000D+00  0.000000D+00  0.000000D+00  0.000000D+00
               11            12            13            14            15 
     11 -0.788909D+01
     12  0.000000D+00 -0.640794D+01
     13  0.000000D+00  0.000000D+00 -0.640794D+01
     14  0.107930D+00  0.000000D+00  0.000000D+00 -0.647043D+01
     15 -0.614610D+01  0.000000D+00  0.000000D+00  0.818426D-01 -0.592370D+01
     16  0.000000D+00 -0.393047D+01  0.000000D+00  0.000000D+00  0.000000D+00
     17  0.000000D+00  0.000000D+00 -0.393047D+01  0.000000D+00  0.000000D+00
     18  0.504980D-01  0.000000D+00  0.000000D+00 -0.395946D+01  0.476753D-01
     19 -0.177707D-01  0.000000D+00  0.000000D+00  0.269645D-01 -0.150947D-01
     20  0.000000D+00  0.138181D-01  0.000000D+00  0.000000D+00  0.000000D+00
     21  0.000000D+00  0.000000D+00  0.138181D-01  0.000000D+00  0.000000D+00
     22  0.000000D+00  0.000000D+00  0.000000D+00  0.000000D+00  0.000000D+00
     23  0.000000D+00  0.000000D+00  0.000000D+00  0.000000D+00  0.000000D+00
     24 -0.907749D-01  0.000000D+00  0.000000D+00  0.129905D+00 -0.579730D-01
     25  0.000000D+00  0.565706D-01  0.000000D+00  0.000000D+00  0.000000D+00
     26  0.000000D+00  0.000000D+00  0.565706D-01  0.000000D+00  0.000000D+00
     27  0.000000D+00  0.000000D+00  0.000000D+00  0.000000D+00  0.000000D+00
     28  0.000000D+00  0.000000D+00  0.000000D+00  0.000000D+00  0.000000D+00
               16            17            18            19            20 
     16 -0.391337D+01
     17  0.000000D+00 -0.391337D+01
     18  0.000000D+00  0.000000D+00 -0.393060D+01
     19  0.000000D+00  0.000000D+00  0.832565D-02 -0.217354D+02
     20  0.422057D-02  0.000000D+00  0.000000D+00  0.000000D+00 -0.216972D+02
     21  0.000000D+00  0.422057D-02  0.000000D+00  0.000000D+00  0.000000D+00
     22  0.000000D+00  0.000000D+00  0.000000D+00  0.000000D+00  0.000000D+00
     23  0.000000D+00  0.000000D+00  0.000000D+00  0.000000D+00  0.000000D+00
     24  0.000000D+00  0.000000D+00  0.464699D-01 -0.724577D+01  0.000000D+00
     25  0.206214D-01  0.000000D+00  0.000000D+00  0.000000D+00 -0.720875D+01
     26  0.000000D+00  0.206214D-01  0.000000D+00  0.000000D+00  0.000000D+00
     27  0.000000D+00  0.000000D+00  0.000000D+00  0.000000D+00  0.000000D+00
     28  0.000000D+00  0.000000D+00  0.000000D+00  0.000000D+00  0.000000D+00
               21            22            23            24            25 
     21 -0.216972D+02
     22  0.000000D+00 -0.216536D+02
     23  0.000000D+00  0.000000D+00 -0.216536D+02
     24  0.000000D+00  0.000000D+00  0.000000D+00 -0.112361D+02
     25  0.000000D+00  0.000000D+00  0.000000D+00  0.000000D+00 -0.110756D+02
     26 -0.720875D+01  0.000000D+00  0.000000D+00  0.000000D+00  0.000000D+00
     27  0.000000D+00 -0.718164D+01  0.000000D+00  0.000000D+00  0.000000D+00
     28  0.000000D+00  0.000000D+00 -0.718164D+01  0.000000D+00  0.000000D+00
               26            27            28 
     26 -0.110756D+02
     27  0.000000D+00 -0.109938D+02
     28  0.000000D+00  0.000000D+00 -0.109938D+02
 SVDSVc IOpt=   1 NormSV=T IR=1
 SVDSVc V= 2.52D+00 1.87D+00 1.46D+00 1.40D+00 1.36D+00 1.28D+00 9.51D-01 7.68D-01 6.37D-01 6.04D-01
 SVDSVc V= 5.63D-01 3.23D-01 1.89D-01 8.58D-02
 SVDSVc IOpt=   1 NormSV=T IR=2
 SVDSVc V= 1.40D+00 6.04D-01
 SVDSVc IOpt=   1 NormSV=T IR=3
 SVDSVc V= 1.80D+00 1.40D+00 1.28D+00 6.73D-01 6.04D-01 2.48D-01
 SVDSVc IOpt=   1 NormSV=T IR=4
 SVDSVc V= 1.80D+00 1.40D+00 1.28D+00 6.73D-01 6.04D-01 2.48D-01
 TstOVc:  Largest diagonal error= 1.33D-15 IB=1 I=    1.
 TstOVc:  Largest same sym error= 1.48D-15 IB=1 I=   14 J=    8.
 TstOVc:  Largest diff sym error= 0.00D+00 IB=0 JB=0 I=    0 J=    0.
 Orthogonalized basis functions: 
                 1             2             3             4             5 
      1   0.336753D+00 -0.744676D-01  0.132675D+00  0.000000D+00 -0.208748D-03
      2   0.163625D-01  0.242733D-01 -0.210164D-01  0.000000D+00  0.448484D+00
      3   0.702547D-01  0.719217D-01 -0.369792D-01  0.000000D+00  0.601607D+00
      4   0.000000D+00  0.000000D+00  0.000000D+00  0.000000D+00  0.000000D+00
      5   0.000000D+00  0.000000D+00  0.000000D+00  0.000000D+00  0.000000D+00
      6  -0.302826D-01  0.817422D-01 -0.564937D-02  0.000000D+00  0.121574D-03
      7   0.189000D+00  0.141786D+00 -0.435744D-01  0.000000D+00  0.318575D+00
      8   0.000000D+00  0.000000D+00  0.000000D+00  0.000000D+00  0.000000D+00
      9   0.000000D+00  0.000000D+00  0.000000D+00  0.000000D+00  0.000000D+00
     10  -0.111491D+00  0.194740D+00 -0.622392D-02  0.000000D+00  0.131112D-03
     11   0.298356D+00  0.257274D+00 -0.109201D+00  0.000000D+00 -0.197846D+00
     12   0.000000D+00  0.000000D+00  0.000000D+00  0.000000D+00  0.000000D+00
     13   0.000000D+00  0.000000D+00  0.000000D+00  0.000000D+00  0.000000D+00
     14  -0.178578D+00  0.415216D+00  0.141925D+00  0.000000D+00 -0.196943D-03
     15   0.278027D+00  0.262944D+00 -0.123569D+00  0.000000D+00 -0.183279D+00
     16   0.000000D+00  0.000000D+00  0.000000D+00  0.000000D+00  0.000000D+00
     17   0.000000D+00  0.000000D+00  0.000000D+00  0.000000D+00  0.000000D+00
     18  -0.136119D+00  0.385990D+00  0.168941D+00  0.000000D+00 -0.260560D-03
     19   0.482908D-01 -0.304772D-01  0.520059D+00  0.000000D+00  0.133443D-02
     20   0.000000D+00  0.000000D+00  0.000000D+00  0.000000D+00  0.000000D+00
     21   0.000000D+00  0.000000D+00  0.000000D+00  0.000000D+00  0.000000D+00
     22   0.000000D+00  0.000000D+00  0.000000D+00  0.598479D+00  0.000000D+00
     23   0.000000D+00  0.000000D+00  0.000000D+00  0.000000D+00  0.000000D+00
     24   0.987835D-01 -0.474484D-01  0.564839D+00  0.000000D+00  0.125463D-02
     25   0.000000D+00  0.000000D+00  0.000000D+00  0.000000D+00  0.000000D+00
     26   0.000000D+00  0.000000D+00  0.000000D+00  0.000000D+00  0.000000D+00
     27   0.000000D+00  0.000000D+00  0.000000D+00  0.598479D+00  0.000000D+00
     28   0.000000D+00  0.000000D+00  0.000000D+00  0.000000D+00  0.000000D+00
                 6             7             8             9            10 
      1  -0.362635D-01 -0.111395D+00  0.406738D+00 -0.152497D+00  0.000000D+00
      2   0.659574D-02  0.754705D+00  0.211737D+00 -0.100097D+00  0.000000D+00
      3   0.761819D-02 -0.119881D+00 -0.194212D+00  0.144200D+00  0.000000D+00
      4   0.000000D+00  0.000000D+00  0.000000D+00  0.000000D+00  0.000000D+00
      5   0.000000D+00  0.000000D+00  0.000000D+00  0.000000D+00  0.000000D+00
      6   0.611528D+00 -0.836139D-01  0.626097D+00  0.517571D+00  0.000000D+00
      7   0.491470D-02 -0.583844D+00 -0.922540D-01 -0.577694D-01  0.000000D+00
      8   0.000000D+00  0.000000D+00  0.000000D+00  0.000000D+00  0.000000D+00
      9   0.000000D+00  0.000000D+00  0.000000D+00  0.000000D+00  0.000000D+00
     10   0.545474D+00  0.676109D-02 -0.429761D+00 -0.595617D+00  0.000000D+00
     11   0.228823D-01  0.193737D+00 -0.895601D-01  0.352353D-01  0.000000D+00
     12   0.000000D+00  0.000000D+00  0.000000D+00  0.000000D+00  0.000000D+00
     13   0.000000D+00  0.000000D+00  0.000000D+00  0.000000D+00  0.000000D+00
     14  -0.164480D+00 -0.264804D-01  0.411448D-01 -0.326147D-01  0.000000D+00
     15   0.274807D-01  0.230372D+00 -0.186347D+00  0.909240D-01  0.000000D+00
     16   0.000000D+00  0.000000D+00  0.000000D+00  0.000000D+00  0.000000D+00
     17   0.000000D+00  0.000000D+00  0.000000D+00  0.000000D+00  0.000000D+00
     18  -0.256852D+00 -0.650382D-01  0.345362D+00  0.928475D-01  0.000000D+00
     19   0.862836D-01  0.107730D+00 -0.515913D+00  0.706997D+00  0.000000D+00
     20   0.000000D+00  0.000000D+00  0.000000D+00  0.000000D+00  0.000000D+00
     21   0.000000D+00  0.000000D+00  0.000000D+00  0.000000D+00  0.000000D+00
     22   0.000000D+00  0.000000D+00  0.000000D+00  0.000000D+00  0.909812D+00
     23   0.000000D+00  0.000000D+00  0.000000D+00  0.000000D+00  0.000000D+00
     24   0.709120D-01  0.153663D-01  0.197330D+00 -0.608125D+00  0.000000D+00
     25   0.000000D+00  0.000000D+00  0.000000D+00  0.000000D+00  0.000000D+00
     26   0.000000D+00  0.000000D+00  0.000000D+00  0.000000D+00  0.000000D+00
     27   0.000000D+00  0.000000D+00  0.000000D+00  0.000000D+00 -0.909812D+00
     28   0.000000D+00  0.000000D+00  0.000000D+00  0.000000D+00  0.000000D+00
                11            12            13            14            15 
      1  -0.778550D-01  0.770705D+00 -0.704419D+00 -0.165076D+01  0.000000D+00
      2  -0.499560D+00 -0.647959D-01  0.414346D-01  0.158109D-01  0.000000D+00
      3   0.859598D+00  0.165198D+00 -0.144393D+00  0.185017D-01  0.000000D+00
      4   0.000000D+00  0.000000D+00  0.000000D+00  0.000000D+00  0.000000D+00
      5   0.000000D+00  0.000000D+00  0.000000D+00  0.000000D+00  0.000000D+00
      6   0.798267D-01 -0.262926D+00  0.183867D-01  0.113812D+00  0.000000D+00
      7  -0.744319D+00 -0.396365D+00  0.328431D+00  0.431183D+00  0.000000D+00
      8   0.000000D+00  0.000000D+00  0.000000D+00  0.000000D+00  0.000000D+00
      9   0.000000D+00  0.000000D+00  0.000000D+00  0.000000D+00  0.000000D+00
     10  -0.113856D+00  0.625800D+00 -0.599834D-01 -0.399808D+00  0.000000D+00
     11   0.803462D-01  0.104195D+00 -0.943870D+00  0.205733D+01  0.000000D+00
     12   0.000000D+00  0.000000D+00  0.000000D+00  0.000000D+00  0.000000D+00
     13   0.000000D+00  0.000000D+00  0.000000D+00  0.000000D+00  0.000000D+00
     14  -0.379708D-02 -0.683460D+00 -0.116373D+01 -0.120702D+01  0.000000D+00
     15   0.218959D+00 -0.421222D+00  0.121988D+01 -0.136571D+01  0.000000D+00
     16   0.000000D+00  0.000000D+00  0.000000D+00  0.000000D+00  0.000000D+00
     17   0.000000D+00  0.000000D+00  0.000000D+00  0.000000D+00  0.000000D+00
     18  -0.117071D-01  0.907233D+00  0.883768D+00  0.636485D+00  0.000000D+00
     19  -0.252273D+00  0.217773D+00 -0.100299D+00 -0.148187D+00  0.000000D+00
     20   0.000000D+00  0.000000D+00  0.000000D+00  0.000000D+00  0.000000D+00
     21   0.000000D+00  0.000000D+00  0.000000D+00  0.000000D+00  0.000000D+00
     22   0.000000D+00  0.000000D+00  0.000000D+00  0.000000D+00  0.000000D+00
     23   0.000000D+00  0.000000D+00  0.000000D+00  0.000000D+00  0.598479D+00
     24   0.298263D+00 -0.571071D+00  0.387225D+00  0.767867D+00  0.000000D+00
     25   0.000000D+00  0.000000D+00  0.000000D+00  0.000000D+00  0.000000D+00
     26   0.000000D+00  0.000000D+00  0.000000D+00  0.000000D+00  0.000000D+00
     27   0.000000D+00  0.000000D+00  0.000000D+00  0.000000D+00  0.000000D+00
     28   0.000000D+00  0.000000D+00  0.000000D+00  0.000000D+00  0.598479D+00
                16            17            18            19            20 
      1   0.000000D+00  0.000000D+00  0.000000D+00  0.000000D+00  0.000000D+00
      2   0.000000D+00  0.000000D+00  0.000000D+00  0.000000D+00  0.000000D+00
      3   0.000000D+00  0.000000D+00  0.000000D+00  0.000000D+00  0.000000D+00
      4   0.000000D+00  0.989007D-01  0.000000D+00  0.631613D+00 -0.834101D+00
      5   0.000000D+00  0.000000D+00  0.000000D+00  0.000000D+00  0.000000D+00
      6   0.000000D+00  0.000000D+00  0.000000D+00  0.000000D+00  0.000000D+00
      7   0.000000D+00  0.000000D+00  0.000000D+00  0.000000D+00  0.000000D+00
      8   0.000000D+00  0.221260D+00  0.000000D+00  0.556385D+00  0.851114D+00
      9   0.000000D+00  0.000000D+00  0.000000D+00  0.000000D+00  0.000000D+00
     10   0.000000D+00  0.000000D+00  0.000000D+00  0.000000D+00  0.000000D+00
     11   0.000000D+00  0.000000D+00  0.000000D+00  0.000000D+00  0.000000D+00
     12   0.000000D+00  0.509061D+00  0.000000D+00 -0.144130D+00  0.341821D-01
     13   0.000000D+00  0.000000D+00  0.000000D+00  0.000000D+00  0.000000D+00
     14   0.000000D+00  0.000000D+00  0.000000D+00  0.000000D+00  0.000000D+00
     15   0.000000D+00  0.000000D+00  0.000000D+00  0.000000D+00  0.000000D+00
     16   0.000000D+00  0.487367D+00  0.000000D+00 -0.230220D+00 -0.252838D+00
     17   0.000000D+00  0.000000D+00  0.000000D+00  0.000000D+00  0.000000D+00
     18   0.000000D+00  0.000000D+00  0.000000D+00  0.000000D+00  0.000000D+00
     19   0.000000D+00  0.000000D+00  0.000000D+00  0.000000D+00  0.000000D+00
     20   0.000000D+00  0.000000D+00  0.598479D+00  0.000000D+00  0.000000D+00
     21   0.000000D+00  0.000000D+00  0.000000D+00  0.000000D+00  0.000000D+00
     22   0.000000D+00  0.000000D+00  0.000000D+00  0.000000D+00  0.000000D+00
     23   0.909812D+00  0.000000D+00  0.000000D+00  0.000000D+00  0.000000D+00
     24   0.000000D+00  0.000000D+00  0.000000D+00  0.000000D+00  0.000000D+00
     25   0.000000D+00  0.000000D+00  0.598479D+00  0.000000D+00  0.000000D+00
     26   0.000000D+00  0.000000D+00  0.000000D+00  0.000000D+00  0.000000D+00
     27   0.000000D+00  0.000000D+00  0.000000D+00  0.000000D+00  0.000000D+00
     28  -0.909812D+00  0.000000D+00  0.000000D+00  0.000000D+00  0.000000D+00
                21            22            23            24            25 
      1   0.000000D+00  0.000000D+00  0.000000D+00  0.000000D+00  0.000000D+00
      2   0.000000D+00  0.000000D+00  0.000000D+00  0.000000D+00  0.000000D+00
      3   0.000000D+00  0.000000D+00  0.000000D+00  0.000000D+00  0.000000D+00
      4   0.000000D+00  0.126826D+00  0.000000D+00  0.000000D+00  0.000000D+00
      5   0.000000D+00  0.000000D+00  0.989007D-01  0.000000D+00  0.631613D+00
      6   0.000000D+00  0.000000D+00  0.000000D+00  0.000000D+00  0.000000D+00
      7   0.000000D+00  0.000000D+00  0.000000D+00  0.000000D+00  0.000000D+00
      8   0.000000D+00 -0.338446D+00  0.000000D+00  0.000000D+00  0.000000D+00
      9   0.000000D+00  0.000000D+00  0.221260D+00  0.000000D+00  0.556385D+00
     10   0.000000D+00  0.000000D+00  0.000000D+00  0.000000D+00  0.000000D+00
     11   0.000000D+00  0.000000D+00  0.000000D+00  0.000000D+00  0.000000D+00
     12   0.000000D+00  0.142883D+01  0.000000D+00  0.000000D+00  0.000000D+00
     13   0.000000D+00  0.000000D+00  0.509061D+00  0.000000D+00 -0.144130D+00
     14   0.000000D+00  0.000000D+00  0.000000D+00  0.000000D+00  0.000000D+00
     15   0.000000D+00  0.000000D+00  0.000000D+00  0.000000D+00  0.000000D+00
     16   0.000000D+00 -0.136452D+01  0.000000D+00  0.000000D+00  0.000000D+00
     17   0.000000D+00  0.000000D+00  0.487367D+00  0.000000D+00 -0.230220D+00
     18   0.000000D+00  0.000000D+00  0.000000D+00  0.000000D+00  0.000000D+00
     19   0.000000D+00  0.000000D+00  0.000000D+00  0.000000D+00  0.000000D+00
     20   0.909812D+00  0.000000D+00  0.000000D+00  0.000000D+00  0.000000D+00
     21   0.000000D+00  0.000000D+00  0.000000D+00  0.598479D+00  0.000000D+00
     22   0.000000D+00  0.000000D+00  0.000000D+00  0.000000D+00  0.000000D+00
     23   0.000000D+00  0.000000D+00  0.000000D+00  0.000000D+00  0.000000D+00
     24   0.000000D+00  0.000000D+00  0.000000D+00  0.000000D+00  0.000000D+00
     25  -0.909812D+00  0.000000D+00  0.000000D+00  0.000000D+00  0.000000D+00
     26   0.000000D+00  0.000000D+00  0.000000D+00  0.598479D+00  0.000000D+00
     27   0.000000D+00  0.000000D+00  0.000000D+00  0.000000D+00  0.000000D+00
     28   0.000000D+00  0.000000D+00  0.000000D+00  0.000000D+00  0.000000D+00
                26            27            28 
      1   0.000000D+00  0.000000D+00  0.000000D+00
      2   0.000000D+00  0.000000D+00  0.000000D+00
      3   0.000000D+00  0.000000D+00  0.000000D+00
      4   0.000000D+00  0.000000D+00  0.000000D+00
      5  -0.834101D+00  0.000000D+00  0.126826D+00
      6   0.000000D+00  0.000000D+00  0.000000D+00
      7   0.000000D+00  0.000000D+00  0.000000D+00
      8   0.000000D+00  0.000000D+00  0.000000D+00
      9   0.851114D+00  0.000000D+00 -0.338446D+00
     10   0.000000D+00  0.000000D+00  0.000000D+00
     11   0.000000D+00  0.000000D+00  0.000000D+00
     12   0.000000D+00  0.000000D+00  0.000000D+00
     13   0.341821D-01  0.000000D+00  0.142883D+01
     14   0.000000D+00  0.000000D+00  0.000000D+00
     15   0.000000D+00  0.000000D+00  0.000000D+00
     16   0.000000D+00  0.000000D+00  0.000000D+00
     17  -0.252838D+00  0.000000D+00 -0.136452D+01
     18   0.000000D+00  0.000000D+00  0.000000D+00
     19   0.000000D+00  0.000000D+00  0.000000D+00
     20   0.000000D+00  0.000000D+00  0.000000D+00
     21   0.000000D+00  0.909812D+00  0.000000D+00
     22   0.000000D+00  0.000000D+00  0.000000D+00
     23   0.000000D+00  0.000000D+00  0.000000D+00
     24   0.000000D+00  0.000000D+00  0.000000D+00
     25   0.000000D+00  0.000000D+00  0.000000D+00
     26   0.000000D+00 -0.909812D+00  0.000000D+00
     27   0.000000D+00  0.000000D+00  0.000000D+00
     28   0.000000D+00  0.000000D+00  0.000000D+00
 NBasis=    28 RedAO= T EigKep=  8.58D-02  NBF=    14     2     6     6
 NBsUse=    28 1.00D-06 EigRej= -1.00D+00 NBFU=    14     2     6     6
 Leave Link  302 at Mon Mar 28 12:46:33 2022, MaxMem=  9663676416 cpu:               3.7 elap:               0.1
 (Enter /nopt/nrel/apps/gaussian/g16C_1/g16/l303.exe)
 DipDrv will not compute anything.
 Fermi contact integrals: 
                 1             2 
      1   0.628247D+00  0.745326D-01
      2   0.000000D+00  0.499382D+02
      3   0.000000D+00  0.100937D+01
      4   0.000000D+00  0.000000D+00
      5   0.000000D+00  0.000000D+00
      6   0.000000D+00  0.000000D+00
      7   0.442091D-01  0.218861D-01
      8   0.000000D+00  0.000000D+00
      9   0.000000D+00  0.000000D+00
     10  -0.100909D+00  0.000000D+00
     11   0.702133D-01 -0.359953D-02
     12   0.000000D+00  0.000000D+00
     13   0.000000D+00  0.000000D+00
     14  -0.789256D-01  0.000000D+00
     15   0.426239D-01  0.468609D-01
     16   0.000000D+00  0.000000D+00
     17   0.000000D+00  0.000000D+00
     18  -0.262431D-01  0.000000D+00
     19   0.286870D-01  0.000000D+00
     20   0.000000D+00  0.000000D+00
     21   0.000000D+00  0.000000D+00
     22   0.000000D+00  0.000000D+00
     23   0.000000D+00  0.000000D+00
     24   0.286367D+00  0.000000D+00
     25   0.000000D+00  0.000000D+00
     26   0.000000D+00  0.000000D+00
     27   0.000000D+00  0.000000D+00
     28   0.000000D+00  0.000000D+00
 Leave Link  303 at Mon Mar 28 12:46:33 2022, MaxMem=  9663676416 cpu:               1.1 elap:               0.1
 (Enter /nopt/nrel/apps/gaussian/g16C_1/g16/l401.exe)
 ExpMin= 2.65D-02 ExpMax= 2.34D+03 ExpMxC= 2.34D+03 IAcc=3 IRadAn=         5 AccDes= 0.00D+00
 Harris functional with IExCor=  205 and IRadAn=       5 diagonalized for initial guess.
 HarFok:  IExCor=  205 AccDes= 0.00D+00 IRadAn=         5 IDoV= 1 UseB2=F ITyADJ=14
 ICtDFT=  3500011 ScaDFX=  1.000000  1.000000  1.000000  1.000000
 FoFCou: FMM=F IPFlag=           0 FMFlag=      100000 FMFlg1=           0
         NFxFlg=           0 DoJE=T BraDBF=F KetDBF=T FulRan=T
         wScrn=  0.000000 ICntrl=       500 IOpCl=  0 I1Cent=   200000004 NGrid=           0
         NMat0=    1 NMatS0=      1 NMatT0=    0 NMatD0=    1 NMtDS0=    0 NMtDT0=    0
 Petite list used in FoFCou.
 Harris En= -843.624432545007    
 JPrj=0 DoOrth=F DoCkMO=F.
 Initial guess orbital symmetries:
 Alpha Orbitals:
       Occupied  (SG) (SG) (SG) (PI) (PI) (SG) (SG) (PI) (PI) (SG)
                 (SG) (PI) (PI) (DLTA)
       Virtual   (DLTA) (SG) (PI) (PI) (SG) (SG) (PI) (PI) (SG)
                 (PI) (PI) (DLTA) (DLTA) (SG)
 Beta  Orbitals:
       Occupied  (SG) (SG) (SG) (PI) (PI) (SG) (SG) (PI) (PI)
       Virtual   (SG) (SG) (PI) (PI) (DLTA) (DLTA) (SG) (PI) (PI)
                 (SG) (SG) (PI) (PI) (SG) (PI) (PI) (DLTA) (DLTA)
                 (SG)
 Initial guess <Sx>= 0.0000 <Sy>= 0.0000 <Sz>= 2.5000 <S**2>= 8.7500 S= 2.5000
 Leave Link  401 at Mon Mar 28 12:46:33 2022, MaxMem=  9663676416 cpu:               4.3 elap:               0.2
 (Enter /nopt/nrel/apps/gaussian/g16C_1/g16/l502.exe)
 Keep R1 and R2 ints in memory in symmetry-blocked form, NReq=7478675.
 FoFCou: FMM=F IPFlag=           0 FMFlag=           0 FMFlg1=           0
         NFxFlg=           0 DoJE=F BraDBF=F KetDBF=F FulRan=T
         wScrn=  0.000000 ICntrl=       600 IOpCl=  0 I1Cent=           0 NGrid=           0
         NMat0=    1 NMatS0=    406 NMatT0=    0 NMatD0=    1 NMtDS0=    0 NMtDT0=    0
 Petite list used in FoFCou.
 UHF open shell SCF:
 Using DIIS extrapolation, IDIIS=  1040.
 NGot=  9663676416 LenX=  9663625622 LenY=  9663624281
 Requested convergence on RMS density matrix=1.00D-08 within 128 cycles.
 Requested convergence on MAX density matrix=1.00D-06.
 Requested convergence on             energy=1.00D-06.
 No special actions if energy rises.

 Cycle   1  Pass 1  IDiag  1:
 E= -844.183934878684    
 DIIS: error= 7.28D-02 at cycle   1 NSaved=   1.
 NSaved= 1 IEnMin= 1 EnMin= -844.183934878684     IErMin= 1 ErrMin= 7.28D-02
 ErrMax= 7.28D-02  0.00D+00 EMaxC= 1.00D-01 BMatC= 3.01D-01 BMatP= 3.01D-01
 IDIUse=3 WtCom= 2.72D-01 WtEn= 7.28D-01
 Coeff-Com:  0.100D+01
 Coeff-En:   0.100D+01
 Coeff:      0.100D+01
 Gap=     0.119 Goal=   None    Shift=    0.000
 Gap=     1.511 Goal=   None    Shift=    0.000
 GapD=    0.119 DampG=1.000 DampE=0.250 DampFc=0.2500 IDamp=-1.
 Damping current iteration by 2.50D-01
 RMSDP=1.89D-02 MaxDP=3.86D-01              OVMax= 3.77D-02

 Cycle   2  Pass 1  IDiag  1:
 E= -844.204766416075     Delta-E=       -0.020831537391 Rises=F Damp=T
 DIIS: error= 4.94D-02 at cycle   2 NSaved=   2.
 NSaved= 2 IEnMin= 2 EnMin= -844.204766416075     IErMin= 2 ErrMin= 4.94D-02
 ErrMax= 4.94D-02  0.00D+00 EMaxC= 1.00D-01 BMatC= 1.51D-01 BMatP= 3.01D-01
 IDIUse=3 WtCom= 5.06D-01 WtEn= 4.94D-01
 Coeff-Com: -0.225D+01 0.325D+01
 Coeff-En:   0.000D+00 0.100D+01
 Coeff:     -0.114D+01 0.214D+01
 Gap=     0.152 Goal=   None    Shift=    0.000
 Gap=     1.318 Goal=   None    Shift=    0.000
 RMSDP=1.57D-02 MaxDP=3.43D-01 DE=-2.08D-02 OVMax= 1.19D-02

 Cycle   3  Pass 1  IDiag  1:
 E= -844.268394937473     Delta-E=       -0.063628521398 Rises=F Damp=F
 DIIS: error= 8.25D-03 at cycle   3 NSaved=   3.
 NSaved= 3 IEnMin= 3 EnMin= -844.268394937473     IErMin= 3 ErrMin= 8.25D-03
 ErrMax= 8.25D-03  0.00D+00 EMaxC= 1.00D-01 BMatC= 7.13D-03 BMatP= 1.51D-01
 IDIUse=3 WtCom= 9.18D-01 WtEn= 8.25D-02
 Coeff-Com:  0.274D+01-0.372D+01 0.198D+01
 Coeff-En:   0.000D+00 0.000D+00 0.100D+01
 Coeff:      0.252D+01-0.342D+01 0.190D+01
 Gap=     0.206 Goal=   None    Shift=    0.000
 Gap=     1.402 Goal=   None    Shift=    0.000
 RMSDP=6.31D-03 MaxDP=1.63D-01 DE=-6.36D-02 OVMax= 1.30D-02

 Cycle   4  Pass 1  IDiag  1:
 E= -844.273819920049     Delta-E=       -0.005424982576 Rises=F Damp=F
 DIIS: error= 3.44D-03 at cycle   4 NSaved=   4.
[...]
 IFCWin=0 IBDFC=1 NFBD=     0     0 NFCmp=     0     0 NFFFC=     0     0
 Using original routines for 1st iteration.
 Using DD4UQ or CC4UQ for 2nd and later iterations.
 Keep R2 and R3 ints in memory in symmetry-blocked form, NReq=7481233.
 FoFCou: FMM=F IPFlag=           0 FMFlag=           0 FMFlg1=           0
         NFxFlg=           0 DoJE=F BraDBF=F KetDBF=F FulRan=T
         wScrn=  0.000000 ICntrl=       600 IOpCl=  0 I1Cent=           0 NGrid=           0
         NMat0=    1 NMatS0=    406 NMatT0=    0 NMatD0=    1 NMtDS0=    0 NMtDT0=    0
 Petite list used in FoFCou.
 CIDS: In Core Option IDoMem=           1.
 Coupled Cluster theory with single and double substitutions
 ===========================================================
 Iterations= 300 Convergence= 0.100D-06
 Produce multiple copies of IABC intergrals
 Iteration Nr.   1
 **********************
 DD1Dir will call FoFMem   1 times, MxPair=        10
 NAB=     0 NAA=    10 NBB=     0.
 MP4(R+Q)=  0.35461966D-04
 Maximum subspace dimension=  5
 A-vector RMS=  3.6100883D-03 Max=  1.3777363D-02 conv= 1.00D-05.
 RLE energy=       -0.0173712639
 E3=       -0.28230901D-02        EUMP3=      -0.84429280137D+03
 E4(DQ)=   -0.76613070D-03        UMP4(DQ)=   -0.84429356750D+03
 E4(SDQ)=  -0.96086862D-03        UMP4(SDQ)=  -0.84429376224D+03
 VARIATIONAL ENERGIES WITH THE FIRST-ORDER WAVEFUNCTION:
 DE(Corr)= -0.16668775E-01 E(Corr)=     -844.29276909    
 NORM(A)=   0.10055075D+01
 Iteration Nr.   2
 **********************
 DD1Dir will call FoFMem   1 times, MxPair=        10
 NAB=     0 NAA=    10 NBB=     0.
 A-vector RMS=  3.8726589D-03 Max=  1.6730889D-02 conv= 1.00D-05.
 RLE energy=       -0.0197951823
 DE(Corr)= -0.17865608E-01 E(CORR)=     -844.29396592     Delta=-1.20D-03
 NORM(A)=   0.10218726D+01
 Iteration Nr.   3
 **********************
 DD1Dir will call FoFMem   1 times, MxPair=        10
 NAB=     0 NAA=    10 NBB=     0.
 A-vector RMS=  4.7318190D-03 Max=  2.2805703D-02 conv= 1.00D-05.
 RLE energy=       -0.0416073675
 DE(Corr)= -0.19791309E-01 E(CORR)=     -844.29589162     Delta=-1.93D-03
 NORM(A)=   0.21640140D+01
 Iteration Nr.   4
 **********************
 DD1Dir will call FoFMem   1 times, MxPair=        10
 NAB=     0 NAA=    10 NBB=     0.
 A-vector RMS=  2.7435798D-02 Max=  3.2075088D-01 conv= 1.00D-05.
 RLE energy=       -0.0199634970
 DE(Corr)= -0.37030539E-01 E(CORR)=     -844.31313085     Delta=-1.72D-02
 NORM(A)=   0.10671150D+01
 Iteration Nr.   5
 **********************
 DD1Dir will call FoFMem   1 times, MxPair=        10
 NAB=     0 NAA=    10 NBB=     0.
 A-vector RMS=  6.7987882D-03 Max=  6.2249152D-02 conv= 1.00D-05.
 RLE energy=       -0.0244823599
 DE(Corr)= -0.20806598E-01 E(CORR)=     -844.29690691     Delta= 1.62D-02
 NORM(A)=   0.13422208D+01
 Iteration Nr.   6
 **********************
 DD1Dir will call FoFMem   1 times, MxPair=        10
 NAB=     0 NAA=    10 NBB=     0.
 A-vector RMS=  4.1812222D-03 Max=  2.4284411D-02 conv= 1.00D-05.
 RLE energy=        0.1408504409
 DE(Corr)= -0.25533191E-01 E(CORR)=     -844.30163351     Delta=-4.73D-03
 NORM(A)=   0.98418021D+01
 Iteration Nr.   7
 **********************
 DD1Dir will call FoFMem   1 times, MxPair=        10
 NAB=     0 NAA=    10 NBB=     0.
 A-vector RMS=  3.6165218D+00 Max=  6.1778382D+01 conv= 1.00D-05.
 RLE energy=       -0.0298159137
 DE(Corr)=  0.63282741     E(CORR)=     -843.64327291     Delta= 6.58D-01
 NORM(A)=   0.17543942D+01
 Iteration Nr.   8
 **********************
 DD1Dir will call FoFMem   1 times, MxPair=        10
 NAB=     0 NAA=    10 NBB=     0.
 A-vector RMS=  8.3479160D-03 Max=  1.4012354D-01 conv= 1.00D-05.
 RLE energy=       -0.0293119758
 DE(Corr)= -0.30605991E-01 E(CORR)=     -844.30670631     Delta=-6.63D-01
 NORM(A)=   0.17428707D+01
 Iteration Nr.   9
 **********************
 DD1Dir will call FoFMem   1 times, MxPair=        10
 NAB=     0 NAA=    10 NBB=     0.
 A-vector RMS=  7.9861336D-03 Max=  1.3969529D-01 conv= 1.00D-05.
 RLE energy=       -0.0308758942
 DE(Corr)= -0.30167355E-01 E(CORR)=     -844.30626767     Delta= 4.39D-04
 NORM(A)=   0.19808639D+01
 Iteration Nr.  10
 **********************
 DD1Dir will call FoFMem   1 times, MxPair=        10
 NAB=     0 NAA=    10 NBB=     0.
 A-vector RMS=  1.4554786D-02 Max=  2.1629520D-01 conv= 1.00D-05.
 RLE energy=       -0.0286041453
 DE(Corr)= -0.31812427E-01 E(CORR)=     -844.30791274     Delta=-1.65D-03
 NORM(A)=   0.17418304D+01
 Iteration Nr.  11
 **********************
 DD1Dir will call FoFMem   1 times, MxPair=        10
 NAB=     0 NAA=    10 NBB=     0.
 A-vector RMS=  7.5836989D-03 Max=  1.2464653D-01 conv= 1.00D-05.
 RLE energy=       -0.0294543064
 DE(Corr)= -0.29696787E-01 E(CORR)=     -844.30579710     Delta= 2.12D-03
 NORM(A)=   0.18253922D+01
 Iteration Nr.  12
 **********************
 DD1Dir will call FoFMem   1 times, MxPair=        10
 NAB=     0 NAA=    10 NBB=     0.
 A-vector RMS=  8.9236570D-03 Max=  1.4238622D-01 conv= 1.00D-05.
 RLE energy=       -0.0326083288
 DE(Corr)= -0.30399222E-01 E(CORR)=     -844.30649954     Delta=-7.02D-04
 NORM(A)=   0.20843591D+01
 Iteration Nr.  13
 **********************
 DD1Dir will call FoFMem   1 times, MxPair=        10
 NAB=     0 NAA=    10 NBB=     0.
 A-vector RMS=  2.4789260D-03 Max=  2.1498479D-02 conv= 1.00D-05.
 RLE energy=       -0.0312202071
 DE(Corr)= -0.32316123E-01 E(CORR)=     -844.30841644     Delta=-1.92D-03
 NORM(A)=   0.19329587D+01
 Iteration Nr.  14
 **********************
 DD1Dir will call FoFMem   1 times, MxPair=        10
 NAB=     0 NAA=    10 NBB=     0.
 A-vector RMS=  1.4450020D-03 Max=  5.9022528D-03 conv= 1.00D-05.
 RLE energy=       -0.0325240867
 DE(Corr)= -0.31299995E-01 E(CORR)=     -844.30740031     Delta= 1.02D-03
 NORM(A)=   0.20601444D+01
 Iteration Nr.  15
 **********************
 DD1Dir will call FoFMem   1 times, MxPair=        10
 NAB=     0 NAA=    10 NBB=     0.
 A-vector RMS=  1.0574580D-03 Max=  1.3652843D-02 conv= 1.00D-05.
 RLE energy=       -0.0321926733
 DE(Corr)= -0.32497636E-01 E(CORR)=     -844.30859795     Delta=-1.20D-03
 NORM(A)=   0.20284620D+01
 Iteration Nr.  16
 **********************
 DD1Dir will call FoFMem   1 times, MxPair=        10
 NAB=     0 NAA=    10 NBB=     0.
 A-vector RMS=  4.7600599D-04 Max=  3.2015430D-03 conv= 1.00D-05.
 RLE energy=       -0.0323520985
 DE(Corr)= -0.32198669E-01 E(CORR)=     -844.30829898     Delta= 2.99D-04
 NORM(A)=   0.20510734D+01
 Iteration Nr.  17
 **********************
 DD1Dir will call FoFMem   1 times, MxPair=        10
 NAB=     0 NAA=    10 NBB=     0.
 A-vector RMS=  3.8547499D-04 Max=  4.2785824D-03 conv= 1.00D-05.
 RLE energy=       -0.0322044240
 DE(Corr)= -0.32329283E-01 E(CORR)=     -844.30842960     Delta=-1.31D-04
 NORM(A)=   0.20384192D+01
 Iteration Nr.  18
 **********************
 DD1Dir will call FoFMem   1 times, MxPair=        10
 NAB=     0 NAA=    10 NBB=     0.
 A-vector RMS=  9.3625465D-05 Max=  9.8567446D-04 conv= 1.00D-05.
 RLE energy=       -0.0321631045
 DE(Corr)= -0.32200023E-01 E(CORR)=     -844.30830034     Delta= 1.29D-04
 NORM(A)=   0.20352165D+01
 Iteration Nr.  19
 **********************
 DD1Dir will call FoFMem   1 times, MxPair=        10
 NAB=     0 NAA=    10 NBB=     0.
 A-vector RMS=  3.8093299D-05 Max=  3.3050740D-04 conv= 1.00D-05.
 RLE energy=       -0.0321713828
 DE(Corr)= -0.32164532E-01 E(CORR)=     -844.30826485     Delta= 3.55D-05
 NORM(A)=   0.20359741D+01
 Iteration Nr.  20
 **********************
 DD1Dir will call FoFMem   1 times, MxPair=        10
 NAB=     0 NAA=    10 NBB=     0.
 A-vector RMS=  1.7748988D-05 Max=  8.5328535D-05 conv= 1.00D-05.
 RLE energy=       -0.0321297771
 DE(Corr)= -0.32170239E-01 E(CORR)=     -844.30827055     Delta=-5.71D-06
 NORM(A)=   0.20326050D+01
 Iteration Nr.  21
 **********************
 DD1Dir will call FoFMem   1 times, MxPair=        10
 NAB=     0 NAA=    10 NBB=     0.
 A-vector RMS=  5.0333718D-05 Max=  4.9644286D-04 conv= 1.00D-05.
 RLE energy=       -0.0321522895
 DE(Corr)= -0.32137825E-01 E(CORR)=     -844.30823814     Delta= 3.24D-05
 NORM(A)=   0.20340688D+01
 Iteration Nr.  22
 **********************
 DD1Dir will call FoFMem   1 times, MxPair=        10
 NAB=     0 NAA=    10 NBB=     0.
 A-vector RMS=  1.3269635D-05 Max=  6.4142810D-05 conv= 1.00D-05.
 RLE energy=       -0.0321706391
 DE(Corr)= -0.32153863E-01 E(CORR)=     -844.30825418     Delta=-1.60D-05
 NORM(A)=   0.20352833D+01
 Iteration Nr.  23
 **********************
 DD1Dir will call FoFMem   1 times, MxPair=        10
 NAB=     0 NAA=    10 NBB=     0.
 A-vector RMS=  1.5264106D-05 Max=  1.0246393D-04 conv= 1.00D-05.
 RLE energy=       -0.0321627858
 DE(Corr)= -0.32168304E-01 E(CORR)=     -844.30826862     Delta=-1.44D-05
 NORM(A)=   0.20346682D+01
 Iteration Nr.  24
 **********************
 DD1Dir will call FoFMem   1 times, MxPair=        10
 NAB=     0 NAA=    10 NBB=     0.
 A-vector RMS=  9.5228600D-06 Max=  8.0633398D-05 conv= 1.00D-05.
 RLE energy=       -0.0321233980
 DE(Corr)= -0.32161281E-01 E(CORR)=     -844.30826160     Delta= 7.02D-06
 NORM(A)=   0.20313432D+01
 Iteration Nr.  25
 **********************
 DD1Dir will call FoFMem   1 times, MxPair=        10
 NAB=     0 NAA=    10 NBB=     0.
 A-vector RMS=  3.9745782D-05 Max=  3.0694323D-04 conv= 1.00D-05.
 RLE energy=       -0.0321488856
 DE(Corr)= -0.32129708E-01 E(CORR)=     -844.30823002     Delta= 3.16D-05
 NORM(A)=   0.20330295D+01
 Iteration Nr.  26
 **********************
 DD1Dir will call FoFMem   1 times, MxPair=        10
 NAB=     0 NAA=    10 NBB=     0.
 A-vector RMS=  1.4395695D-05 Max=  2.2952468D-04 conv= 1.00D-05.
 RLE energy=       -0.0321578583
 DE(Corr)= -0.32147753E-01 E(CORR)=     -844.30824807     Delta=-1.80D-05
 NORM(A)=   0.20340928D+01
 Iteration Nr.  27
 **********************
 DD1Dir will call FoFMem   1 times, MxPair=        10
 NAB=     0 NAA=    10 NBB=     0.
 A-vector RMS=  6.9644500D-06 Max=  6.9529503D-05 conv= 1.00D-05.
 RLE energy=       -0.0321558529
 DE(Corr)= -0.32156624E-01 E(CORR)=     -844.30825694     Delta=-8.87D-06
 NORM(A)=   0.20340382D+01
 Iteration Nr.  28
 **********************
 DD1Dir will call FoFMem   1 times, MxPair=        10
 NAB=     0 NAA=    10 NBB=     0.
 A-vector RMS=  3.4714938D-06 Max=  2.3339195D-05 conv= 1.00D-05.
 RLE energy=       -0.0321530142
 DE(Corr)= -0.32155334E-01 E(CORR)=     -844.30825565     Delta= 1.29D-06
 NORM(A)=   0.20338130D+01
 Iteration Nr.  29
 **********************
 DD1Dir will call FoFMem   1 times, MxPair=        10
 NAB=     0 NAA=    10 NBB=     0.
 A-vector RMS=  2.5008140D-06 Max=  2.7337143D-05 conv= 1.00D-05.
 RLE energy=       -0.0321541123
 DE(Corr)= -0.32152973E-01 E(CORR)=     -844.30825329     Delta= 2.36D-06
 NORM(A)=   0.20339539D+01
 Iteration Nr.  30
 **********************
 DD1Dir will call FoFMem   1 times, MxPair=        10
 NAB=     0 NAA=    10 NBB=     0.
 A-vector RMS=  1.8855820D-06 Max=  1.3524307D-05 conv= 1.00D-05.
 RLE energy=       -0.0321542269
 DE(Corr)= -0.32153975E-01 E(CORR)=     -844.30825429     Delta=-1.00D-06
 NORM(A)=   0.20340150D+01
 Iteration Nr.  31
 **********************
 DD1Dir will call FoFMem   1 times, MxPair=        10
 NAB=     0 NAA=    10 NBB=     0.
 A-vector RMS=  3.0462482D-06 Max=  5.1567133D-05 conv= 1.00D-05.
 RLE energy=       -0.0321543714
 DE(Corr)= -0.32154463E-01 E(CORR)=     -844.30825478     Delta=-4.89D-07
 NORM(A)=   0.20339907D+01
 Iteration Nr.  32
 **********************
 DD1Dir will call FoFMem   1 times, MxPair=        10
 NAB=     0 NAA=    10 NBB=     0.
 A-vector RMS=  2.0799647D-06 Max=  3.0686525D-05 conv= 1.00D-05.
 RLE energy=       -0.0321550857
 DE(Corr)= -0.32154455E-01 E(CORR)=     -844.30825477     Delta= 8.24D-09
 NORM(A)=   0.20340186D+01
 Iteration Nr.  33
 **********************
 DD1Dir will call FoFMem   1 times, MxPair=        10
 NAB=     0 NAA=    10 NBB=     0.
 A-vector RMS=  1.2715250D-06 Max=  1.7849195D-05 conv= 1.00D-05.
 RLE energy=       -0.0321548860
 DE(Corr)= -0.32154869E-01 E(CORR)=     -844.30825518     Delta=-4.14D-07
 NORM(A)=   0.20340250D+01
 Iteration Nr.  34
 **********************
 DD1Dir will call FoFMem   1 times, MxPair=        10
 NAB=     0 NAA=    10 NBB=     0.
 A-vector RMS=  4.9703763D-07 Max=  2.0942653D-06 conv= 1.00D-05.
 RLE energy=       -0.0321544491
 DE(Corr)= -0.32154812E-01 E(CORR)=     -844.30825513     Delta= 5.73D-08
 NORM(A)=   0.20340068D+01
 CI/CC converged in   34 iterations to DelEn= 5.73D-08 Conv= 1.00D-07 ErrA1= 4.97D-07 Conv= 1.00D-05
 Wavefunction amplitudes converged. E(Corr)=     -844.30825513    
 Dominant configurations:
 ***********************
 Spin Case        I    J    A    B          Value
    AA           14        18            0.124517D+00
    AA           11        15           -0.908004D+00
    AA           11        20           -0.464924D+00
    AA           12        16           -0.908004D+00
    AA           12        19           -0.464924D+00
   AAAA          11   12   15   16      -0.670454D+00
   AAAA          11   12   15   19      -0.341725D+00
   AAAA          11   12   20   16      -0.341725D+00
   AAAA          11   12   20   19      -0.181612D+00
   AAAA          13   11   22   16      -0.210695D+00
   AAAA          13   11   22   19      -0.103220D+00
   AAAA          14   11   17   15       0.106797D+00
   AAAA          14   11   18   15      -0.212963D+00
   AAAA          13   12   22   15       0.210695D+00
   AAAA          13   12   22   20       0.103220D+00
   AAAA          14   12   17   16       0.106797D+00
   AAAA          14   12   18   16      -0.212963D+00
 Largest amplitude= 9.08D-01
 Discarding MO integrals.
 Leave Link  913 at Mon Mar 28 12:46:34 2022, MaxMem=  9663676416 cpu:               7.9 elap:               0.3
 (Enter /nopt/nrel/apps/gaussian/g16C_1/g16/l601.exe)
 Copying SCF densities to generalized density rwf, IOpCl= 1 IROHF=0.

 **********************************************************************

            Population analysis using the SCF Density.

 **********************************************************************

 Orbital symmetries:
 Alpha Orbitals:
       Occupied  (SG) (SG) (SG) (PI) (PI) (SG) (SG) (PI) (PI) (SG)
                 (PI) (PI) (?A) (SG)
       Virtual   (PI) (PI) (SG) (SG) (PI) (PI) (SG) (?A) (SG) (PI)
                 (PI) (?A) (?A) (SG)
 Beta  Orbitals:
       Occupied  (SG) (SG) (PI) (PI) (SG) (SG) (SG) (PI) (PI)
       Virtual   (SG) (SG) (PI) (PI) (SG) (SG) (PI) (PI) (SG) (PI)
                 (PI) (DLTA) (DLTA) (SG) (DLTA) (PI) (PI) (DLTA)
                 (SG)
 Unable to determine electronic state:  an orbital has unidentified symmetry.
 Alpha  occ. eigenvalues -- -181.72857 -21.00931 -17.36365 -17.35277 -17.35277
 Alpha  occ. eigenvalues --   -2.74350  -1.80154  -1.66819  -1.66819  -0.50344
 Alpha  occ. eigenvalues --   -0.22568  -0.22568  -0.20498  -0.16584
 Alpha virt. eigenvalues --    0.02584   0.02584   0.03150   0.14085   0.18521
 Alpha virt. eigenvalues --    0.18521   0.18728   0.39809   0.87738   1.87532
 Alpha virt. eigenvalues --    1.87532   1.89846   2.01821   2.02641
  Beta  occ. eigenvalues -- -181.72215 -20.96073 -17.31050 -17.31050 -17.30736
  Beta  occ. eigenvalues --   -2.51965  -1.48163  -1.41627  -1.41627
  Beta virt. eigenvalues --    0.01224   0.05301   0.05361   0.05361   0.16112
  Beta virt. eigenvalues --    0.23126   0.23299   0.23299   0.29744   0.47764
  Beta virt. eigenvalues --    0.47764   0.47997   0.50787   1.05995   2.07678
  Beta virt. eigenvalues --    2.08152   2.08152   2.10232   2.13249
          Condensed to atoms (all electrons):
               1          2
     1  H    0.761901   0.010355
     2  Ti   0.010355  22.217390
          Atomic-Atomic Spin Densities.
               1          2
     1  H    0.699713  -0.113214
     2  Ti  -0.113214   4.526715
 Mulliken charges and spin densities:
               1          2
     1  H    0.227745   0.586499
     2  Ti  -0.227745   4.413501
 Sum of Mulliken charges =  -0.00000   5.00000
 Mulliken charges and spin densities with hydrogens summed into heavy atoms:
               1          2
     2  Ti  -0.000000   5.000000
 N-N= 1.164189864024D+01 E-N=-2.033008608389D+03  KE= 8.466317732974D+02
 Symmetry A1   KE= 6.545222792962D+02
 Symmetry A2   KE= 1.054690969067D-31
 Symmetry B1   KE= 9.605474700061D+01
 Symmetry B2   KE= 9.605474700061D+01
 Symmetry A1   SP= 3.000000000000D+00
 Symmetry A2   SP= 2.999519565324D-32
 Symmetry B1   SP= 1.000000000000D+00
 Symmetry B2   SP= 1.000000000000D+00

 Atomic contributions to Alpha molecular orbitals:
 Alpha occ 1 OE=-181.729 is Ti2-s=1.0000
 Alpha occ 2 OE=-21.009 is Ti2-s=1.0008
 Alpha occ 3 OE=-17.364 is Ti2-p=1.0005
 Alpha occ 4 OE=-17.353 is Ti2-p=1.0000
 Alpha occ 5 OE=-17.353 is Ti2-p=1.0000
 Alpha occ 6 OE=-2.743 is Ti2-s=0.9645
 Alpha occ 7 OE=-1.802 is Ti2-p=0.8937
 Alpha occ 8 OE=-1.668 is Ti2-p=0.9996
 Alpha occ 9 OE=-1.668 is Ti2-p=0.9996
 Alpha occ 10 OE=-0.503 is H1-s=0.5706 Ti2-d=0.2754
 Alpha occ 11 OE=-0.226 is Ti2-d=0.9759
 Alpha occ 12 OE=-0.226 is Ti2-d=0.9759
 Alpha occ 13 OE=-0.205 is Ti2-d=1.0000
 Alpha occ 14 OE=-0.166 is Ti2-s=0.9168
 Alpha vir 15 OE=0.026 is Ti2-p=0.9857
 Alpha vir 16 OE=0.026 is Ti2-p=0.9857
 Alpha vir 17 OE=0.032 is Ti2-p=0.9604
 Alpha vir 18 OE=0.141 is Ti2-s=0.9229
 Alpha vir 19 OE=0.185 is Ti2-p=0.9906
 Alpha vir 20 OE=0.185 is Ti2-p=0.9906
 Alpha vir 21 OE=0.187 is Ti2-p=0.9218
 Alpha vir 22 OE=0.398 is Ti2-d=1.0000
 Alpha vir 23 OE=0.877 is Ti2-d=0.4234 H1-s=0.3926
 Alpha vir 24 OE=1.875 is Ti2-d=0.9999
 Alpha vir 25 OE=1.875 is Ti2-d=0.9999
 Alpha vir 26 OE=1.898 is Ti2-d=1.0000
 Alpha vir 27 OE=2.018 is Ti2-d=1.0000
 Alpha vir 28 OE=2.026 is Ti2-d=1.0308

 Atomic contributions to Beta  molecular orbitals:
 Beta  occ 1 OE=-181.722 is Ti2-s=1.0000
 Beta  occ 2 OE=-20.961 is Ti2-s=1.0008
 Beta  occ 3 OE=-17.311 is Ti2-p=1.0000
 Beta  occ 4 OE=-17.311 is Ti2-p=1.0000
 Beta  occ 5 OE=-17.307 is Ti2-p=1.0004
 Beta  occ 6 OE=-2.520 is Ti2-s=0.9657
 Beta  occ 7 OE=-1.482 is Ti2-p=0.9094
 Beta  occ 8 OE=-1.416 is Ti2-p=0.9990
 Beta  occ 9 OE=-1.416 is Ti2-p=0.9990
 Beta  vir 10 OE=0.012 is Ti2-s=0.8882
 Beta  vir 11 OE=0.053 is Ti2-p=0.9233
 Beta  vir 12 OE=0.054 is Ti2-p=1.0000
 Beta  vir 13 OE=0.054 is Ti2-p=1.0000
 Beta  vir 14 OE=0.161 is Ti2-s=0.5753 Ti2-p=0.2099 H1-s=0.1457
 Beta  vir 15 OE=0.231 is Ti2-p=0.7312 Ti2-s=0.2709
 Beta  vir 16 OE=0.233 is Ti2-p=0.9999
 Beta  vir 17 OE=0.233 is Ti2-p=0.9999
 Beta  vir 18 OE=0.297 is Ti2-d=0.5685 Ti2-s=0.1793 H1-s=0.1357 Ti2-p=0.1166
 Beta  vir 19 OE=0.478 is Ti2-d=0.9990
 Beta  vir 20 OE=0.478 is Ti2-d=0.9990
 Beta  vir 21 OE=0.480 is Ti2-d=1.0000
 Beta  vir 22 OE=0.508 is Ti2-d=1.0000
 Beta  vir 23 OE=1.060 is H1-s=0.6059 Ti2-d=0.3252
 Beta  vir 24 OE=2.077 is Ti2-d=1.0000
 Beta  vir 25 OE=2.082 is Ti2-d=0.9999
 Beta  vir 26 OE=2.082 is Ti2-d=0.9999
 Beta  vir 27 OE=2.102 is Ti2-d=1.0000
 Beta  vir 28 OE=2.132 is Ti2-d=1.0259
 
 Leave Link  601 at Mon Mar 28 12:46:34 2022, MaxMem=  9663676416 cpu:               2.0 elap:               0.1
 (Enter /nopt/nrel/apps/gaussian/g16C_1/g16/l9999.exe)

 Test job not archived.
 1\1\GINC-R3I7N35\SP\UCCSD-FC\Gen\H1Ti1(6)\USER\28-Mar-2022\0\\#P C
 CSD(MaxCyc=300,SaveAmplitudes,ReadAmplitudes)/GEN sp pop=AllOrbitals i
 op(3/33=1,3/36=-1)\\test\\0,6\H,0,0.,0.,0.\Ti,0,0.,0.,1.\\Version=ES64
 L-G16RevC.01\HF=-844.2761003\MP2=-844.2899783\MP3=-844.2928014\MP4D=-8
 44.293603\MP4DQ=-844.2935675\MP4SDQ=-844.2937622\CCSD=-844.3082551\S2=
 8.75285\S2-1=0.\S2A=8.75\RMSD=3.132e-09\PG=C*V [C*(H1Ti1)]\\@


 A HARD FALL SHOULD MEAN A HIGH BOUNCE 
 IF ONE IS MADE OF THE RIGHT MATERIAL.

                -- THE CHEMIST ANALYST, MARCH 1950
 Job cpu time:       0 days  0 hours  0 minutes 38.7 seconds.
 Elapsed time:       0 days  0 hours  0 minutes  1.4 seconds.
 File lengths (MBytes):  RWF=     13 Int=      0 D2E=      0 Chk=      1 Scr=      1
 Normal termination of Gaussian 16 at Mon Mar 28 12:46:34 2022.
