 Entering Gaussian System, Link 0=g16
 Initial command:
 /nopt/nrel/apps/gaussian/g16C_1/g16/l1.exe "/lustre/eaglefs/scratch/user/qc/tih-dissc-sto3g/tih-6-ccsd-2.7-sto3g/Gau-250169.inp" -scrdir="/lustre/eaglefs/scratch/user/qc/tih-dissc-sto3g/tih-6-ccsd-2.7-sto3g/"
 Default is to use a total of  36 processors:
                               36 via shared-memory
                                1 via Linda
 Entering Link 1 = /nopt/nrel/apps/gaussian/g16C_1/g16/l1.exe PID=    250170.
  
 Copyright (c) 1988-2019, Gaussian, Inc.  All Rights Reserved.
  
 This is part of the Gaussian(R) 16 program.  It is based on
 the Gaussian(R) 09 system (copyright 2009, Gaussian, Inc.),
 the Gaussian(R) 03 system (copyright 2003, Gaussian, Inc.),
 the Gaussian(R) 98 system (copyright 1998, Gaussian, Inc.),
 the Gaussian(R) 94 system (copyright 1995, Gaussian, Inc.),
 the Gaussian 92(TM) system (copyright 1992, Gaussian, Inc.),
 the Gaussian 90(TM) system (copyright 1990, Gaussian, Inc.),
 the Gaussian 88(TM) system (copyright 1988, Gaussian, Inc.),
 the Gaussian 86(TM) system (copyright 1986, Carnegie Mellon
 University), and the Gaussian 82(TM) system (copyright 1983,
 Carnegie Mellon University). Gaussian is a federally registered
 trademark of Gaussian, Inc.
  
 This software contains proprietary and confidential information,
 including trade secrets, belonging to Gaussian, Inc.
  
 This software is provided under written license and may be
 used, copied, transmitted, or stored only in accord with that
 written license.
  
 The following legend is applicable only to US Government
 contracts under FAR:
  
                    RESTRICTED RIGHTS LEGEND
  
 Use, reproduction and disclosure by the US Government is
 subject to restrictions as set forth in subparagraphs (a)
 and (c) of the Commercial Computer Software - Restricted
 Rights clause in FAR 52.227-19.
  
 Gaussian, Inc.
 340 Quinnipiac St., Bldg. 40, Wallingford CT 06492
  
  
 ---------------------------------------------------------------
 Warning -- This program may not be used in any manner that
 competes with the business of Gaussian, Inc. or will provide
 assistance to any competitor of Gaussian, Inc.  The licensee
 of this program is prohibited from giving any competitor of
 Gaussian, Inc. access to this program.  By using this program,
 the user acknowledges that Gaussian, Inc. is engaged in the
 business of creating and licensing software in the field of
 computational chemistry and represents and warrants to the
 licensee that it is not a competitor of Gaussian, Inc. and that
 it will not use this program in any manner prohibited above.
 ---------------------------------------------------------------
  

 Cite this work as:
 Gaussian 16, Revision C.01,
 M. J. Frisch, G. W. Trucks, H. B. Schlegel, G. E. Scuseria, 
 M. A. Robb, J. R. Cheeseman, G. Scalmani, V. Barone, 
 G. A. Petersson, H. Nakatsuji, X. Li, M. Caricato, A. V. Marenich, 
 J. Bloino, B. G. Janesko, R. Gomperts, B. Mennucci, H. P. Hratchian, 
 J. V. Ortiz, A. F. Izmaylov, J. L. Sonnenberg, D. Williams-Young, 
 F. Ding, F. Lipparini, F. Egidi, J. Goings, B. Peng, A. Petrone, 
 T. Henderson, D. Ranasinghe, V. G. Zakrzewski, J. Gao, N. Rega, 
 G. Zheng, W. Liang, M. Hada, M. Ehara, K. Toyota, R. Fukuda, 
 J. Hasegawa, M. Ishida, T. Nakajima, Y. Honda, O. Kitao, H. Nakai, 
 T. Vreven, K. Throssell, J. A. Montgomery, Jr., J. E. Peralta, 
 F. Ogliaro, M. J. Bearpark, J. J. Heyd, E. N. Brothers, K. N. Kudin, 
 V. N. Staroverov, T. A. Keith, R. Kobayashi, J. Normand, 
 K. Raghavachari, A. P. Rendell, J. C. Burant, S. S. Iyengar, 
 J. Tomasi, M. Cossi, J. M. Millam, M. Klene, C. Adamo, R. Cammi, 
 J. W. Ochterski, R. L. Martin, K. Morokuma, O. Farkas, 
 J. B. Foresman, and D. J. Fox, Gaussian, Inc., Wallingford CT, 2019.
 
 ******************************************
 Gaussian 16:  ES64L-G16RevC.01  3-Jul-2019
                28-Mar-2022 
 ******************************************
 %chk=molecule
 Default route: CacheSize=180224 MaxDisk=256GB
 ----------------------------------------------------------------------
 #P CCSD(MaxCyc=300,SaveAmplitudes,ReadAmplitudes)/GEN sp pop=AllOrbita
 ls iop(3/33=1,3/36=-1)
 ----------------------------------------------------------------------
 1/4=180224,38=1,172=1/1;
 2/4=180224,12=2,17=6,18=5,40=1/2;
 3/4=180224,5=7,11=9,25=1,30=1,33=1,36=-1/1,2,3;
 4/4=180224/1;
 5/4=180224,5=2,38=5/2;
 8/4=180224,6=4,9=120000,10=1,24=1/1,4;
 9/4=180224,5=7,6=300,77=1/13;
 6/4=180224,7=2,8=2,9=2,10=2,96=-1/1;
 99/4=180224,5=1,9=1/99;
 Leave Link    1 at Mon Mar 28 12:46:06 2022, MaxMem=           0 cpu:               2.0 elap:               0.1
 (Enter /nopt/nrel/apps/gaussian/g16C_1/g16/l101.exe)
 ----
 test
 ----
 Symbolic Z-matrix:
 Charge =  0 Multiplicity = 6
 H                     0.        0.        0. 
 Ti                    0.        0.        2.7 
 
 ITRead=  0  0
 MicOpt= -1 -1
 NAtoms=      2 NQM=        2 NQMF=       0 NMMI=      0 NMMIF=      0
                NMic=       0 NMicF=      0.
                    Isotopes and Nuclear Properties:
 (Nuclear quadrupole moments (NQMom) in fm**2, nuclear magnetic moments (NMagM)
  in nuclear magnetons)

  Atom         1           2
 IAtWgt=           1          48
 AtmWgt=   1.0078250  47.9479467
 NucSpn=           1           0
 AtZEff=  -0.0000000  -0.0000000
 NQMom=    0.0000000   0.0000000
 NMagM=    2.7928460   0.0000000
 AtZNuc=   1.0000000  22.0000000
 Leave Link  101 at Mon Mar 28 12:46:06 2022, MaxMem=  9663676416 cpu:               3.1 elap:               0.1
 (Enter /nopt/nrel/apps/gaussian/g16C_1/g16/l202.exe)
                          Input orientation:                          
 ---------------------------------------------------------------------
 Center     Atomic      Atomic             Coordinates (Angstroms)
 Number     Number       Type             X           Y           Z
 ---------------------------------------------------------------------
      1          1           0        0.000000    0.000000    0.000000
      2         22           0        0.000000    0.000000    2.700000
 ---------------------------------------------------------------------
 Stoichiometry    HTi(6)
 Framework group  C*V[C*(HTi)]
 Deg. of freedom     1
 Full point group                 C*V     NOp   4
 Largest Abelian subgroup         C2V     NOp   4
 Largest concise Abelian subgroup C1      NOp   1
                         Standard orientation:                         
 ---------------------------------------------------------------------
 Center     Atomic      Atomic             Coordinates (Angstroms)
 Number     Number       Type             X           Y           Z
 ---------------------------------------------------------------------
      1          1           0        0.000000    0.000000   -2.582609
      2         22           0        0.000000    0.000000    0.117391
 ---------------------------------------------------------------------
 Rotational constants (GHZ):           0.0000000          70.2325465          70.2325465
 Leave Link  202 at Mon Mar 28 12:46:06 2022, MaxMem=  9663676416 cpu:               1.6 elap:               0.1
 (Enter /nopt/nrel/apps/gaussian/g16C_1/g16/l301.exe)
 General basis read from cards:  (5D, 7F)
                         Coordinates in L301:                         
 ---------------------------------------------------------------------
 Center     Atomic      Atomic             Coordinates (Angstroms)
 Number     Number       Type             X           Y           Z
 ---------------------------------------------------------------------
      1          1           0        0.000000    0.000000   -2.582609
      2         22           0        0.000000    0.000000    0.117391
 ---------------------------------------------------------------------
 Centers:       1
 STO-3G
 ****
 Centers:       2
 STO-3G
 ****
 FixB: optimizing general contractions.
 Ernie: Thresh=  0.10000D-02 Tol=  0.10000D-05 Strict=F.
 IA=     1 ShT= 0 ShC= 0 NL=   1 NS=   0.
 IA=     1 L=0 SC=0 ISt=    0 NBk=    0 NP=    0 IndPr=    0.
 IA=     2 ShT= 0 ShC= 0 NL=   1 NS=   0.
 IA=     2 L=0 SC=0 ISt=    0 NBk=    0 NP=    0 IndPr=    0.
 IA=     2 ShT= 1 ShC= 0 NL=   3 NS=   0.
 IA=     2 L=1 SC=0 ISt=    1 NBk=    3 NP=    9 IndPr=    0.
 DoElim1:  L=1 select primitive    1 from    2 using    1 C=-1.00D-01
 DoElim1:  L=1 select primitive    1 from    3 using    1 C=-1.00D-01
 DoElim1:  L=1 select primitive    4 from    3 using    2 C=-2.28D-01
 DoElim2:  L=1 select primitive    9 from    2 using    3 C= 1.13D+00
 DoElim2:  L=1 select primitive    9 from    1 using    3 C= 1.13D+00
 DoElim2:  L=1 select primitive    7 from    1 using    2 C= 9.17D-01
 DoElim1:  L=1 select primitive    1 from    2 using    1 C= 1.56D-01
 DoElim1:  L=1 select primitive    1 from    3 using    1 C= 1.56D-01
 DoElim1:  L=1 select primitive    4 from    3 using    2 C= 4.95D-03
 DoElim2:  L=1 select primitive    8 from    2 using    3 C= 5.72D-01
 DoElim2:  L=1 select primitive    8 from    1 using    3 C= 5.72D-01
 DoElim2:  L=1 select primitive    5 from    1 using    2 C= 5.78D-01
 Delete L=1 primitive    7 from    3 C=  0.00D+00.
 Delete L=1 primitive    5 from    3 C=  0.00D+00.
 Delete L=1 primitive    4 from    3 C=  0.00D+00.
 Delete L=1 primitive    3 from    3 C=  0.00D+00.
 Delete L=1 primitive    2 from    3 C=  0.00D+00.
 Delete L=1 primitive    1 from    3 C=  0.00D+00.
 Delete L=1 primitive    9 from    2 C=  0.00D+00.
 Delete L=1 primitive    8 from    2 C=  0.00D+00.
 Delete L=1 primitive    6 from    2 C=  0.00D+00.
 Delete L=1 primitive    3 from    2 C=  0.00D+00.
 Delete L=1 primitive    2 from    2 C=  0.00D+00.
 Delete L=1 primitive    1 from    2 C=  0.00D+00.
 Delete L=1 primitive    9 from    1 C=  0.00D+00.
 Delete L=1 primitive    8 from    1 C=  0.00D+00.
 Delete L=1 primitive    7 from    1 C=  0.00D+00.
 Delete L=1 primitive    6 from    1 C=  0.00D+00.
 Delete L=1 primitive    5 from    1 C=  0.00D+00.
 Delete L=1 primitive    4 from    1 C=  0.00D+00.
 IA=     2 L=1 SC=0 ISt=    0 NBk=    0 NP=    0 IndPr=    9.
 IA=     2 ShT= 2 ShC= 2 NL=   1 NS=   0.
 IA=     2 L=2 SC=2 ISt=    0 NBk=    0 NP=    0 IndPr=    0.
 LdAtmC:  AtmChg=     1.000000    22.000000
 AtZEff=     -1.0000000    -23.9800000
 NEqShl: 
              1            2            3            4
     1            1            1            1            1
     2            2            2            2            2
     3            3            3            3            3
     4            4            4            4            4
     5            5            5            5            5
     6            6            6            6            6
 NEqBas: 
              1            2            3            4
     1            1            1            1            1
     2            2            2            2            2
     3            3            3            3            3
     4            4           -4           -4            4
     5            5           -5            5           -5
     6            6            6            6            6
     7            7            7            7            7
     8            8           -8           -8            8
     9            9           -9            9           -9
    10           10           10           10           10
    11           11           11           11           11
    12           12          -12          -12           12
    13           13          -13           13          -13
    14           14           14           14           14
    15           15           15           15           15
    16           16           16           16           16
    17           17           17           17           17
    18           18           18          -18          -18
    19           19          -19          -19           19
    20           20          -20           20          -20
 There are    11 symmetry adapted cartesian basis functions of A1  symmetry.
   1         1   1   1   1
   2         2   2   2   2
   3         3   3   3   3
   4         6   6   6   6
   5         7   7   7   7
   6        10  10  10  10
   7        11  11  11  11
   8        14  14  14  14
   9        15  15  15  15
  10        16  16  16  16
  11        17  17  17  17
 There are     1 symmetry adapted cartesian basis functions of A2  symmetry.
  12        18  18  18  18
 There are     4 symmetry adapted cartesian basis functions of B1  symmetry.
  13         4   4   4   4
  14         8   8   8   8
  15        12  12  12  12
  16        19  19  19  19
 There are     4 symmetry adapted cartesian basis functions of B2  symmetry.
  17         5   5   5   5
  18         9   9   9   9
  19        13  13  13  13
  20        20  20  20  20
 Order= 1 2 4 3
 Reordered character table:
              1            2            3            4            5
     1            1            1            1            1            1
     2            2            1            1           -1           -1
     3            4            1           -1           -1            1
     4            3            1           -1            1           -1
 NEqShl: 
              1            2            3            4
     1            1            1            1            1
     2            2            2            2            2
     3            3            3            3            3
     4            4            4            4            4
     5            5            5            5            5
     6            6            6            6            6
 NEqBas: 
              1            2            3            4
     1            1            1            1            1
     2            2            2            2            2
     3            3            3            3            3
     4            4           -4           -4            4
     5            5           -5            5           -5
     6            6            6            6            6
     7            7            7            7            7
     8            8           -8           -8            8
     9            9           -9            9           -9
    10           10           10           10           10
    11           11           11           11           11
    12           12          -12          -12           12
    13           13          -13           13          -13
    14           14           14           14           14
    15           15           15           15           15
    16           16          -16          -16           16
    17           17          -17           17          -17
    18           18           18           18           18
    19           19           19          -19          -19
 There are    10 symmetry adapted basis functions of A1  symmetry.
   1         1   1   1   1
   2         2   2   2   2
   3         3   3   3   3
   4         6   6   6   6
   5         7   7   7   7
   6        10  10  10  10
   7        11  11  11  11
   8        14  14  14  14
   9        15  15  15  15
  10        18  18  18  18
 There are     1 symmetry adapted basis functions of A2  symmetry.
  11        19  19  19  19
 There are     4 symmetry adapted basis functions of B1  symmetry.
  12         4   4   4   4
  13         8   8   8   8
  14        12  12  12  12
  15        16  16  16  16
 There are     4 symmetry adapted basis functions of B2  symmetry.
  16         5   5   5   5
  17         9   9   9   9
  18        13  13  13  13
  19        17  17  17  17
 Order= 1 2 4 3
 Reordered character table:
              1            2            3            4            5
     1            1            1            1            1            1
     2            2            1            1           -1           -1
     3            4            1           -1           -1            1
     4            3            1           -1            1           -1
    19 basis functions,    60 primitive gaussians,    20 cartesian basis functions
    14 alpha electrons        9 beta electrons
       nuclear repulsion energy         4.3118143112 Hartrees.
 IS=     1 IAt=     1 ISR=     1 T=0 IP=      1 IndIP=      1 IndIPD=      0 C=  2.769344D-01  0.000000D+00                             NZ=T
 IS=     1 IAt=     1 ISR=     1 T=0 IP=      2 IndIP=      2 IndIPD=      1 C=  2.678389D-01  0.000000D+00                             NZ=T
 IS=     1 IAt=     1 ISR=     1 T=0 IP=      3 IndIP=      3 IndIPD=      2 C=  8.347367D-02  0.000000D+00                             NZ=T
 IS=     2 IAt=     2 ISR=     1 T=0 IP=      1 IndIP=      4 IndIPD=      0 C=  2.004993D+01  0.000000D+00                             NZ=T
 IS=     2 IAt=     2 ISR=     1 T=0 IP=      2 IndIP=      5 IndIPD=      1 C=  1.939142D+01  0.000000D+00                             NZ=T
 IS=     2 IAt=     2 ISR=     1 T=0 IP=      3 IndIP=      6 IndIPD=      2 C=  6.043458D+00  0.000000D+00                             NZ=T
 IS=     3 IAt=     2 ISR=     2 T=1 IP=      1 IndIP=      7 IndIPD=      0 C= -1.820341D+00  4.925761D+01                             NZ=T
 IS=     3 IAt=     2 ISR=     2 T=1 IP=      2 IndIP=      8 IndIPD=      1 C=  2.434854D+00  3.097451D+01                             NZ=T
 IS=     3 IAt=     2 ISR=     2 T=1 IP=      3 IndIP=      9 IndIPD=      2 C=  1.837620D+00  4.906883D+00                             NZ=T
 IS=     4 IAt=     2 ISR=     3 T=1 IP=      1 IndIP=     10 IndIPD=      0 C= -5.746721D-01  5.803915D-02                             NZ=T
 IS=     4 IAt=     2 ISR=     3 T=1 IP=      2 IndIP=     11 IndIPD=      1 C=  2.252897D-01  1.535208D+00                             NZ=T
 IS=     4 IAt=     2 ISR=     3 T=1 IP=      3 IndIP=     12 IndIPD=      2 C=  4.647390D-01  3.915940D-01                             NZ=T
 IS=     5 IAt=     2 ISR=     4 T=1 IP=      1 IndIP=     13 IndIPD=      0 C= -1.706594D-01 -1.133666D-01                             NZ=T
 IS=     5 IAt=     2 ISR=     4 T=1 IP=      2 IndIP=     14 IndIPD=      1 C=  5.129963D-03  1.533382D-01                             NZ=T
 IS=     5 IAt=     2 ISR=     4 T=1 IP=      3 IndIP=     15 IndIPD=      2 C=  1.603140D-01  5.311239D-02                             NZ=T
 IS=     6 IAt=     2 ISR=     5 T=2 IP=      1 IndIP=     16 IndIPD=      1 C=  0.000000D+00  0.000000D+00  8.652016D-01  0.000000D+00 NZ=T
 IS=     6 IAt=     2 ISR=     5 T=2 IP=      2 IndIP=     17 IndIPD=      2 C=  0.000000D+00  0.000000D+00  3.231180D-01  0.000000D+00 NZ=T
 IS=     6 IAt=     2 ISR=     5 T=2 IP=      3 IndIP=     18 IndIPD=      3 C=  0.000000D+00  0.000000D+00  2.668013D-02  0.000000D+00 NZ=T
 IExCor=    0 DFT=F Ex=HF Corr=None ExCW=0 ScaHFX=  1.000000
 ScaDFX=  1.000000  1.000000  1.000000  1.000000 ScalE2=  1.000000  1.000000
 IRadAn=      5 IRanWt=     -1 IRanGd=            0 ICorTp=0 IEmpDi=  4
 NAtoms=    2 NActive=    2 NUniq=    2 SFac= 1.00D+00 NAtFMM=   60 NAOKFM=F Big=F
 Integral buffers will be    131072 words long.
 Raffenetti 2 integral format.
 Two-electron integral symmetry is turned on.
 Leave Link  301 at Mon Mar 28 12:46:06 2022, MaxMem=  9663676416 cpu:               2.2 elap:               0.1
 (Enter /nopt/nrel/apps/gaussian/g16C_1/g16/l302.exe)
 NPDir=0 NMtPBC=     1 NCelOv=     1 NCel=       1 NClECP=     1 NCelD=      1
         NCelK=      1 NCelE2=     1 NClLst=     1 CellRange=     0.0.
 One-electron integrals computed using PRISM.
 One-electron integral symmetry used in STVInt
 Entering OneElI...
 Calculate overlap and kinetic energy integrals
    NBasis =  19  MinDer = 0  MaxDer = 0
 Requested accuracy = 0.1000D-12
 Symmetry will be used
 PrmmSu-InSpLW:  IPartL=    0 NPrtUS=   36 NPrtUL=    1 DoSpLW=F IThBeg=    0 IThEnd=   35 NThAct=   36.
 PrSmSu:  IncTry=   512 NBBP=             21 NTPThr=   100 NPartT=   36 Incr=           1 LDynOK=F GPUOK=F.
 PrsmSu:  NPrtUS=  36 ThrOK=T IAlg=1 LenDen=           0 ISkipM=0 DoSpLW=F IThBeg=    0 IThEnd=   35.
 Prism:   IPart=     0 DynPar=F LinDyn=F Incr=           1.
 PRISM was handed   268432687 working-precision words and    21 shell-pairs
 PRISM was handed   268432687 working-precision words and    21 shell-pairs
 PRISM was handed   268432687 working-precision words and    21 shell-pairs
 PRISM was handed   268432687 working-precision words and    21 shell-pairs
 PRISM was handed   268432687 working-precision words and    21 shell-pairs
 PRISM was handed   268432687 working-precision words and    21 shell-pairs
 PRISM was handed   268432687 working-precision words and    21 shell-pairs
 PRISM was handed   268432687 working-precision words and    21 shell-pairs
 PRISM was handed   268432687 working-precision words and    21 shell-pairs
 PRISM was handed   268432687 working-precision words and    21 shell-pairs
 PRISM was handed   268432687 working-precision words and    21 shell-pairs
 IPart= 11 NShTot=           0 NBatch=           0 AvBLen=         0.0
 IPart= 16 NShTot=           0 NBatch=           0 AvBLen=         0.0
 IPart= 20 NShTot=           0 NBatch=           0 AvBLen=         0.0
 IPart= 22 NShTot=           0 NBatch=           0 AvBLen=         0.0
 IPart= 10 NShTot=           0 NBatch=           0 AvBLen=         0.0
 IPart=  8 NShTot=           0 NBatch=           0 AvBLen=         0.0
 IPart= 32 NShTot=           0 NBatch=           0 AvBLen=         0.0
 IPart= 33 NShTot=           0 NBatch=           0 AvBLen=         0.0
 IPart=  7 NShTot=           0 NBatch=           0 AvBLen=         0.0
 PRISM was handed   268432687 working-precision words and    21 shell-pairs
 PRISM was handed   268432687 working-precision words and    21 shell-pairs
 IPart= 12 NShTot=           0 NBatch=           0 AvBLen=         0.0
 PRISM was handed   268432687 working-precision words and    21 shell-pairs
 IPart= 14 NShTot=           0 NBatch=           0 AvBLen=         0.0
 PRISM was handed   268432687 working-precision words and    21 shell-pairs
 PRISM was handed   268432687 working-precision words and    21 shell-pairs
 PRISM was handed   268432687 working-precision words and    21 shell-pairs
 IPart=  9 NShTot=           0 NBatch=           0 AvBLen=         0.0
 IPart= 27 NShTot=           0 NBatch=           0 AvBLen=         0.0
 PRISM was handed   268432687 working-precision words and    21 shell-pairs
 IPart= 28 NShTot=           0 NBatch=           0 AvBLen=         0.0
 PRISM was handed   268432687 working-precision words and    21 shell-pairs
 PRISM was handed   268432687 working-precision words and    21 shell-pairs
 IPart=  3 NShTot=           2 NBatch=           2 AvBLen=         1.0
 IPart=  1 NShTot=           5 NBatch=           5 AvBLen=         1.0
 IPart= 24 NShTot=           0 NBatch=           0 AvBLen=         0.0
 PRISM was handed   268432687 working-precision words and    21 shell-pairs
 PRISM was handed   268432687 working-precision words and    21 shell-pairs
 PRISM was handed   268432687 working-precision words and    21 shell-pairs
 PRISM was handed   268432687 working-precision words and    21 shell-pairs
 PRISM was handed   268432687 working-precision words and    21 shell-pairs
 PRISM was handed   268432687 working-precision words and    21 shell-pairs
 IPart= 31 NShTot=           0 NBatch=           0 AvBLen=         0.0
 PRISM was handed   268432687 working-precision words and    21 shell-pairs
 IPart=  0 NShTot=           9 NBatch=           9 AvBLen=         1.0
 IPart= 21 NShTot=           0 NBatch=           0 AvBLen=         0.0
 IPart= 23 NShTot=           0 NBatch=           0 AvBLen=         0.0
 PRISM was handed   268432687 working-precision words and    21 shell-pairs
 PRISM was handed   268432687 working-precision words and    21 shell-pairs
 PRISM was handed   268432687 working-precision words and    21 shell-pairs
 PRISM was handed   268432687 working-precision words and    21 shell-pairs
 PRISM was handed   268432687 working-precision words and    21 shell-pairs
 PRISM was handed   268432687 working-precision words and    21 shell-pairs
 PRISM was handed   268432687 working-precision words and    21 shell-pairs
 PRISM was handed   268432687 working-precision words and    21 shell-pairs
 PRISM was handed   268432687 working-precision words and    21 shell-pairs
 IPart= 26 NShTot=           0 NBatch=           0 AvBLen=         0.0
 IPart= 34 NShTot=           0 NBatch=           0 AvBLen=         0.0
 IPart= 18 NShTot=           0 NBatch=           0 AvBLen=         0.0
 IPart= 35 NShTot=           0 NBatch=           0 AvBLen=         0.0
 IPart=  5 NShTot=           1 NBatch=           1 AvBLen=         1.0
 IPart=  4 NShTot=           1 NBatch=           1 AvBLen=         1.0
 IPart= 29 NShTot=           0 NBatch=           0 AvBLen=         0.0
 IPart= 25 NShTot=           0 NBatch=           0 AvBLen=         0.0
 IPart= 30 NShTot=           0 NBatch=           0 AvBLen=         0.0
 IPart=  2 NShTot=           3 NBatch=           3 AvBLen=         1.0
 IPart= 13 NShTot=           0 NBatch=           0 AvBLen=         0.0
 IPart=  6 NShTot=           0 NBatch=           0 AvBLen=         0.0
 IPart= 17 NShTot=           0 NBatch=           0 AvBLen=         0.0
 IPart= 15 NShTot=           0 NBatch=           0 AvBLen=         0.0
 IPart= 19 NShTot=           0 NBatch=           0 AvBLen=         0.0
 PrSmSu:  NxtVal=             37.
 *** Overlap *** 
                1             2             3             4             5 
      1  0.100000D+01
      2  0.142728D-03  0.100000D+01
      3  0.102365D-02  0.371775D+00  0.100000D+01
      4  0.000000D+00  0.000000D+00  0.000000D+00  0.100000D+01
      5  0.000000D+00  0.000000D+00  0.000000D+00  0.000000D+00  0.100000D+01
      6 -0.458219D-03  0.000000D+00  0.000000D+00  0.000000D+00  0.000000D+00
      7  0.994834D-02  0.223608D-01  0.300384D+00  0.000000D+00  0.000000D+00
      8  0.000000D+00  0.000000D+00  0.000000D+00  0.313309D+00  0.000000D+00
      9  0.000000D+00  0.000000D+00  0.000000D+00  0.000000D+00  0.313309D+00
     10 -0.112750D-01  0.000000D+00  0.000000D+00  0.000000D+00  0.000000D+00
     11  0.110984D+00 -0.412730D-03  0.136941D-01  0.000000D+00  0.000000D+00
     12  0.000000D+00  0.000000D+00  0.000000D+00  0.250808D-01  0.000000D+00
     13  0.000000D+00  0.000000D+00  0.000000D+00  0.000000D+00  0.250808D-01
     14 -0.167921D+00  0.000000D+00  0.000000D+00  0.000000D+00  0.000000D+00
     15  0.690103D-01  0.000000D+00  0.000000D+00  0.000000D+00  0.000000D+00
     16  0.000000D+00  0.000000D+00  0.000000D+00  0.000000D+00  0.000000D+00
     17  0.000000D+00  0.000000D+00  0.000000D+00  0.000000D+00  0.000000D+00
     18  0.000000D+00  0.000000D+00  0.000000D+00  0.000000D+00  0.000000D+00
     19  0.000000D+00  0.000000D+00  0.000000D+00  0.000000D+00  0.000000D+00
                6             7             8             9            10 
      6  0.100000D+01
      7  0.000000D+00  0.100000D+01
      8  0.000000D+00  0.000000D+00  0.100000D+01
      9  0.000000D+00  0.000000D+00  0.000000D+00  0.100000D+01
     10  0.313309D+00  0.000000D+00  0.000000D+00  0.000000D+00  0.100000D+01
     11  0.000000D+00  0.395149D+00  0.000000D+00  0.000000D+00  0.000000D+00
     12  0.000000D+00  0.000000D+00  0.407435D+00  0.000000D+00  0.000000D+00
     13  0.000000D+00  0.000000D+00  0.000000D+00  0.407435D+00  0.000000D+00
     14  0.250808D-01  0.000000D+00  0.000000D+00  0.000000D+00  0.407435D+00
     15  0.000000D+00  0.000000D+00  0.000000D+00  0.000000D+00  0.000000D+00
     16  0.000000D+00  0.000000D+00  0.000000D+00  0.000000D+00  0.000000D+00
     17  0.000000D+00  0.000000D+00  0.000000D+00  0.000000D+00  0.000000D+00
     18  0.000000D+00  0.000000D+00  0.000000D+00  0.000000D+00  0.000000D+00
     19  0.000000D+00  0.000000D+00  0.000000D+00  0.000000D+00  0.000000D+00
               11            12            13            14            15 
     11  0.100000D+01
     12  0.000000D+00  0.100000D+01
     13  0.000000D+00  0.000000D+00  0.100000D+01
     14  0.000000D+00  0.000000D+00  0.000000D+00  0.100000D+01
     15  0.000000D+00  0.000000D+00  0.000000D+00  0.000000D+00  0.100000D+01
     16  0.000000D+00  0.000000D+00  0.000000D+00  0.000000D+00  0.000000D+00
     17  0.000000D+00  0.000000D+00  0.000000D+00  0.000000D+00  0.000000D+00
     18  0.000000D+00  0.000000D+00  0.000000D+00  0.000000D+00  0.000000D+00
     19  0.000000D+00  0.000000D+00  0.000000D+00  0.000000D+00  0.000000D+00
               16            17            18            19 
     16  0.100000D+01
     17  0.000000D+00  0.100000D+01
     18  0.000000D+00  0.000000D+00  0.100000D+01
     19  0.000000D+00  0.000000D+00  0.000000D+00  0.100000D+01
 *** Kinetic Energy *** 
                1             2             3             4             5 
      1  0.760032D+00
      2 -0.138768D-03  0.229340D+03
      3 -0.938884D-03  0.137973D+01  0.120824D+02
      4  0.000000D+00  0.000000D+00  0.000000D+00  0.378073D+02
      5  0.000000D+00  0.000000D+00  0.000000D+00  0.000000D+00  0.378073D+02
      6  0.272584D-03  0.000000D+00  0.000000D+00  0.000000D+00  0.000000D+00
      7 -0.582115D-02 -0.798994D+00 -0.840664D+00  0.000000D+00  0.000000D+00
      8  0.000000D+00  0.000000D+00  0.000000D+00  0.187471D+01  0.000000D+00
      9  0.000000D+00  0.000000D+00  0.000000D+00  0.000000D+00  0.187471D+01
     10  0.445382D-02  0.000000D+00  0.000000D+00  0.000000D+00  0.000000D+00
     11 -0.849656D-02 -0.407071D-01 -0.207745D+00  0.000000D+00  0.000000D+00
     12  0.000000D+00  0.000000D+00  0.000000D+00 -0.209473D-01  0.000000D+00
     13  0.000000D+00  0.000000D+00  0.000000D+00  0.000000D+00 -0.209473D-01
     14  0.613017D-03  0.000000D+00  0.000000D+00  0.000000D+00  0.000000D+00
     15 -0.130750D-03  0.000000D+00  0.000000D+00  0.000000D+00  0.000000D+00
     16  0.000000D+00  0.000000D+00  0.000000D+00  0.000000D+00  0.000000D+00
     17  0.000000D+00  0.000000D+00  0.000000D+00  0.000000D+00  0.000000D+00
     18  0.000000D+00  0.000000D+00  0.000000D+00  0.000000D+00  0.000000D+00
     19  0.000000D+00  0.000000D+00  0.000000D+00  0.000000D+00  0.000000D+00
                6             7             8             9            10 
      6  0.378073D+02
      7  0.000000D+00  0.116813D+01
      8  0.000000D+00  0.000000D+00  0.275070D+01
      9  0.000000D+00  0.000000D+00  0.000000D+00  0.275070D+01
     10  0.187471D+01  0.000000D+00  0.000000D+00  0.000000D+00  0.275070D+01
     11  0.000000D+00 -0.927537D-01  0.000000D+00  0.000000D+00  0.000000D+00
     12  0.000000D+00  0.000000D+00  0.199329D+00  0.000000D+00  0.000000D+00
     13  0.000000D+00  0.000000D+00  0.000000D+00  0.199329D+00  0.000000D+00
     14 -0.209473D-01  0.000000D+00  0.000000D+00  0.000000D+00  0.199329D+00
     15  0.000000D+00  0.000000D+00  0.000000D+00  0.000000D+00  0.000000D+00
     16  0.000000D+00  0.000000D+00  0.000000D+00  0.000000D+00  0.000000D+00
     17  0.000000D+00  0.000000D+00  0.000000D+00  0.000000D+00  0.000000D+00
     18  0.000000D+00  0.000000D+00  0.000000D+00  0.000000D+00  0.000000D+00
     19  0.000000D+00  0.000000D+00  0.000000D+00  0.000000D+00  0.000000D+00
               11            12            13            14            15 
     11  0.207443D+00
     12  0.000000D+00  0.409500D+00
     13  0.000000D+00  0.000000D+00  0.409500D+00
     14  0.000000D+00  0.000000D+00  0.000000D+00  0.409500D+00
     15  0.000000D+00  0.000000D+00  0.000000D+00  0.000000D+00  0.180044D+01
     16  0.000000D+00  0.000000D+00  0.000000D+00  0.000000D+00  0.000000D+00
     17  0.000000D+00  0.000000D+00  0.000000D+00  0.000000D+00  0.000000D+00
     18  0.000000D+00  0.000000D+00  0.000000D+00  0.000000D+00  0.000000D+00
     19  0.000000D+00  0.000000D+00  0.000000D+00  0.000000D+00  0.000000D+00
               16            17            18            19 
     16  0.180044D+01
     17  0.000000D+00  0.180044D+01
     18  0.000000D+00  0.000000D+00  0.180044D+01
     19  0.000000D+00  0.000000D+00  0.000000D+00  0.180044D+01
 Entering OneElI...
 Calculate potential energy integrals
    NBasis =  19  MinDer = 0  MaxDer = 0
 Requested accuracy = 0.1000D-12
 Symmetry will be used
 PrmmSu-InSpLW:  IPartL=    0 NPrtUS=   36 NPrtUL=    1 DoSpLW=F IThBeg=    0 IThEnd=   35 NThAct=   36.
 PrSmSu:  IncTry=   512 NBBP=             42 NTPThr=   100 NPartT=   36 Incr=           1 LDynOK=F GPUOK=F.
 PrsmSu:  NPrtUS=  36 ThrOK=T IAlg=1 LenDen=           0 ISkipM=0 DoSpLW=F IThBeg=    0 IThEnd=   35.
 Prism:   IPart=     0 DynPar=F LinDyn=F Incr=           1.
 PRISM was handed   268432888 working-precision words and    21 shell-pairs
 PRISM was handed   268432888 working-precision words and    21 shell-pairs
 PRISM was handed   268432888 working-precision words and    21 shell-pairs
 PRISM was handed   268432888 working-precision words and    21 shell-pairs
 PRISM was handed   268432888 working-precision words and    21 shell-pairs
 PRISM was handed   268432888 working-precision words and    21 shell-pairs
 PRISM was handed   268432888 working-precision words and    21 shell-pairs
 PRISM was handed   268432888 working-precision words and    21 shell-pairs
 PRISM was handed   268432888 working-precision words and    21 shell-pairs
 PRISM was handed   268432888 working-precision words and    21 shell-pairs
 PRISM was handed   268432888 working-precision words and    21 shell-pairs
 PRISM was handed   268432888 working-precision words and    21 shell-pairs
 PRISM was handed   268432888 working-precision words and    21 shell-pairs
 PRISM was handed   268432888 working-precision words and    21 shell-pairs
 PRISM was handed   268432888 working-precision words and    21 shell-pairs
 PRISM was handed   268432888 working-precision words and    21 shell-pairs
 PRISM was handed   268432888 working-precision words and    21 shell-pairs
 PRISM was handed   268432888 working-precision words and    21 shell-pairs
 PRISM was handed   268432888 working-precision words and    21 shell-pairs
 PRISM was handed   268432888 working-precision words and    21 shell-pairs
 PRISM was handed   268432888 working-precision words and    21 shell-pairs
 PRISM was handed   268432888 working-precision words and    21 shell-pairs
 PRISM was handed   268432888 working-precision words and    21 shell-pairs
 PRISM was handed   268432888 working-precision words and    21 shell-pairs
 PRISM was handed   268432888 working-precision words and    21 shell-pairs
 PRISM was handed   268432888 working-precision words and    21 shell-pairs
 PRISM was handed   268432888 working-precision words and    21 shell-pairs
 PRISM was handed   268432888 working-precision words and    21 shell-pairs
 PRISM was handed   268432888 working-precision words and    21 shell-pairs
 PRISM was handed   268432888 working-precision words and    21 shell-pairs
 PRISM was handed   268432888 working-precision words and    21 shell-pairs
 PRISM was handed   268432888 working-precision words and    21 shell-pairs
 PRISM was handed   268432888 working-precision words and    21 shell-pairs
 PRISM was handed   268432888 working-precision words and    21 shell-pairs
 PRISM was handed   268432888 working-precision words and    21 shell-pairs
 PRISM was handed   268432888 working-precision words and    21 shell-pairs
 IPart=  4 NShTot=           2 NBatch=           1 AvBLen=         2.0
 IPart=  6 NShTot=           0 NBatch=           0 AvBLen=         0.0
 IPart= 17 NShTot=           0 NBatch=           0 AvBLen=         0.0
 IPart= 11 NShTot=           0 NBatch=           0 AvBLen=         0.0
 IPart= 15 NShTot=           0 NBatch=           0 AvBLen=         0.0
 IPart= 13 NShTot=           0 NBatch=           0 AvBLen=         0.0
 IPart= 14 NShTot=           0 NBatch=           0 AvBLen=         0.0
 IPart= 19 NShTot=           0 NBatch=           0 AvBLen=         0.0
 IPart= 22 NShTot=           0 NBatch=           0 AvBLen=         0.0
 IPart= 20 NShTot=           0 NBatch=           0 AvBLen=         0.0
 IPart=  9 NShTot=           0 NBatch=           0 AvBLen=         0.0
 IPart=  1 NShTot=          10 NBatch=           5 AvBLen=         2.0
 IPart= 12 NShTot=           0 NBatch=           0 AvBLen=         0.0
 IPart=  8 NShTot=           0 NBatch=           0 AvBLen=         0.0
 IPart=  0 NShTot=          18 NBatch=           9 AvBLen=         2.0
 IPart= 21 NShTot=           0 NBatch=           0 AvBLen=         0.0
 IPart=  7 NShTot=           0 NBatch=           0 AvBLen=         0.0
 IPart= 16 NShTot=           0 NBatch=           0 AvBLen=         0.0
 IPart=  5 NShTot=           2 NBatch=           1 AvBLen=         2.0
 IPart= 10 NShTot=           0 NBatch=           0 AvBLen=         0.0
 IPart=  3 NShTot=           4 NBatch=           2 AvBLen=         2.0
 IPart=  2 NShTot=           6 NBatch=           3 AvBLen=         2.0
 IPart= 26 NShTot=           0 NBatch=           0 AvBLen=         0.0
 IPart= 18 NShTot=           0 NBatch=           0 AvBLen=         0.0
 IPart= 24 NShTot=           0 NBatch=           0 AvBLen=         0.0
 IPart= 29 NShTot=           0 NBatch=           0 AvBLen=         0.0
 IPart= 35 NShTot=           0 NBatch=           0 AvBLen=         0.0
 IPart= 32 NShTot=           0 NBatch=           0 AvBLen=         0.0
 IPart= 25 NShTot=           0 NBatch=           0 AvBLen=         0.0
 IPart= 33 NShTot=           0 NBatch=           0 AvBLen=         0.0
 IPart= 28 NShTot=           0 NBatch=           0 AvBLen=         0.0
 IPart= 27 NShTot=           0 NBatch=           0 AvBLen=         0.0
 IPart= 30 NShTot=           0 NBatch=           0 AvBLen=         0.0
 IPart= 34 NShTot=           0 NBatch=           0 AvBLen=         0.0
 IPart= 23 NShTot=           0 NBatch=           0 AvBLen=         0.0
 IPart= 31 NShTot=           0 NBatch=           0 AvBLen=         0.0
 PrSmSu:  NxtVal=             37.
 ***** Potential Energy ***** 
                1             2             3             4             5 
      1  0.553840D+01
      2  0.344481D-01  0.468960D+03
      3  0.655406D-01  0.902188D+02  0.964481D+02
      4  0.000000D+00  0.000000D+00  0.000000D+00  0.956774D+02
      5  0.000000D+00  0.000000D+00  0.000000D+00  0.000000D+00  0.956774D+02
      6 -0.221603D-01 -0.104651D-02 -0.636961D-02  0.000000D+00  0.000000D+00
      7  0.168674D+00  0.472447D+01  0.170205D+02  0.000000D+00  0.000000D+00
      8  0.000000D+00  0.000000D+00  0.000000D+00  0.174475D+02  0.000000D+00
      9  0.000000D+00  0.000000D+00  0.000000D+00  0.000000D+00  0.174475D+02
     10 -0.164319D+00 -0.726847D-04 -0.318677D-02  0.000000D+00  0.000000D+00
     11  0.759829D+00 -0.133749D+00  0.484092D+00  0.000000D+00  0.000000D+00
     12  0.000000D+00  0.000000D+00  0.000000D+00  0.120325D+01  0.000000D+00
     13  0.000000D+00  0.000000D+00  0.000000D+00  0.000000D+00  0.120325D+01
     14 -0.111513D+01 -0.370723D-05 -0.282008D-03  0.000000D+00  0.000000D+00
     15  0.513678D+00  0.000000D+00  0.848189D-04  0.000000D+00  0.000000D+00
     16  0.000000D+00  0.000000D+00  0.000000D+00 -0.759188D-03  0.000000D+00
     17  0.000000D+00  0.000000D+00  0.000000D+00  0.000000D+00 -0.759188D-03
     18  0.000000D+00  0.000000D+00  0.000000D+00  0.000000D+00  0.000000D+00
     19  0.000000D+00  0.000000D+00  0.000000D+00  0.000000D+00  0.000000D+00
                6             7             8             9            10 
      6  0.956778D+02
      7 -0.332818D-02  0.254299D+02
      8  0.000000D+00  0.000000D+00  0.254720D+02
      9  0.000000D+00  0.000000D+00  0.000000D+00  0.254720D+02
     10  0.174478D+02 -0.225496D-01  0.000000D+00  0.000000D+00  0.254773D+02
     11 -0.224646D-03  0.651920D+01  0.000000D+00  0.000000D+00 -0.138979D-01
     12  0.000000D+00  0.000000D+00  0.683677D+01  0.000000D+00  0.000000D+00
     13  0.000000D+00  0.000000D+00  0.000000D+00  0.683677D+01  0.000000D+00
     14  0.120330D+01 -0.133325D-01  0.000000D+00  0.000000D+00  0.684167D+01
     15 -0.893458D-03  0.471429D-02  0.000000D+00  0.000000D+00 -0.203738D-01
     16  0.000000D+00  0.000000D+00 -0.159313D-01  0.000000D+00  0.000000D+00
     17  0.000000D+00  0.000000D+00  0.000000D+00 -0.159313D-01  0.000000D+00
     18  0.000000D+00  0.000000D+00  0.000000D+00  0.000000D+00  0.000000D+00
     19  0.000000D+00  0.000000D+00  0.000000D+00  0.000000D+00  0.000000D+00
               11            12            13            14            15 
     11  0.955116D+01
     12  0.000000D+00  0.953973D+01
     13  0.000000D+00  0.000000D+00  0.953973D+01
     14 -0.584363D-01  0.000000D+00  0.000000D+00  0.957442D+01
     15  0.163460D-01  0.000000D+00  0.000000D+00 -0.451135D-01  0.141040D+02
     16  0.000000D+00 -0.295626D-01  0.000000D+00  0.000000D+00  0.000000D+00
     17  0.000000D+00  0.000000D+00 -0.295626D-01  0.000000D+00  0.000000D+00
     18  0.000000D+00  0.000000D+00  0.000000D+00  0.000000D+00  0.000000D+00
     19  0.000000D+00  0.000000D+00  0.000000D+00  0.000000D+00  0.000000D+00
               16            17            18            19 
     16  0.140964D+02
     17  0.000000D+00  0.140964D+02
     18  0.000000D+00  0.000000D+00  0.140856D+02
     19  0.000000D+00  0.000000D+00  0.000000D+00  0.140856D+02
 ****** Core Hamiltonian ****** 
                1             2             3             4             5 
      1 -0.477837D+01
      2 -0.345869D-01 -0.239620D+03
      3 -0.664795D-01 -0.888390D+02 -0.843656D+02
      4  0.000000D+00  0.000000D+00  0.000000D+00 -0.578700D+02
      5  0.000000D+00  0.000000D+00  0.000000D+00  0.000000D+00 -0.578700D+02
      6  0.224329D-01  0.104651D-02  0.636961D-02  0.000000D+00  0.000000D+00
      7 -0.174495D+00 -0.552347D+01 -0.178611D+02  0.000000D+00  0.000000D+00
      8  0.000000D+00  0.000000D+00  0.000000D+00 -0.155727D+02  0.000000D+00
      9  0.000000D+00  0.000000D+00  0.000000D+00  0.000000D+00 -0.155727D+02
     10  0.168773D+00  0.726847D-04  0.318677D-02  0.000000D+00  0.000000D+00
     11 -0.768325D+00  0.930417D-01 -0.691838D+00  0.000000D+00  0.000000D+00
     12  0.000000D+00  0.000000D+00  0.000000D+00 -0.122420D+01  0.000000D+00
     13  0.000000D+00  0.000000D+00  0.000000D+00  0.000000D+00 -0.122420D+01
     14  0.111575D+01  0.370723D-05  0.282008D-03  0.000000D+00  0.000000D+00
     15 -0.513809D+00  0.000000D+00 -0.848189D-04  0.000000D+00  0.000000D+00
     16  0.000000D+00  0.000000D+00  0.000000D+00  0.759188D-03  0.000000D+00
     17  0.000000D+00  0.000000D+00  0.000000D+00  0.000000D+00  0.759188D-03
     18  0.000000D+00  0.000000D+00  0.000000D+00  0.000000D+00  0.000000D+00
     19  0.000000D+00  0.000000D+00  0.000000D+00  0.000000D+00  0.000000D+00
                6             7             8             9            10 
      6 -0.578705D+02
      7  0.332818D-02 -0.242618D+02
      8  0.000000D+00  0.000000D+00 -0.227213D+02
      9  0.000000D+00  0.000000D+00  0.000000D+00 -0.227213D+02
     10 -0.155731D+02  0.225496D-01  0.000000D+00  0.000000D+00 -0.227266D+02
     11  0.224646D-03 -0.661195D+01  0.000000D+00  0.000000D+00  0.138979D-01
     12  0.000000D+00  0.000000D+00 -0.663744D+01  0.000000D+00  0.000000D+00
     13  0.000000D+00  0.000000D+00  0.000000D+00 -0.663744D+01  0.000000D+00
     14 -0.122424D+01  0.133325D-01  0.000000D+00  0.000000D+00 -0.664234D+01
     15  0.893458D-03 -0.471429D-02  0.000000D+00  0.000000D+00  0.203738D-01
     16  0.000000D+00  0.000000D+00  0.159313D-01  0.000000D+00  0.000000D+00
     17  0.000000D+00  0.000000D+00  0.000000D+00  0.159313D-01  0.000000D+00
     18  0.000000D+00  0.000000D+00  0.000000D+00  0.000000D+00  0.000000D+00
     19  0.000000D+00  0.000000D+00  0.000000D+00  0.000000D+00  0.000000D+00
               11            12            13            14            15 
     11 -0.934372D+01
     12  0.000000D+00 -0.913023D+01
     13  0.000000D+00  0.000000D+00 -0.913023D+01
     14  0.584363D-01  0.000000D+00  0.000000D+00 -0.916492D+01
     15 -0.163460D-01  0.000000D+00  0.000000D+00  0.451135D-01 -0.123035D+02
     16  0.000000D+00  0.295626D-01  0.000000D+00  0.000000D+00  0.000000D+00
     17  0.000000D+00  0.000000D+00  0.295626D-01  0.000000D+00  0.000000D+00
     18  0.000000D+00  0.000000D+00  0.000000D+00  0.000000D+00  0.000000D+00
     19  0.000000D+00  0.000000D+00  0.000000D+00  0.000000D+00  0.000000D+00
               16            17            18            19 
     16 -0.122960D+02
     17  0.000000D+00 -0.122960D+02
     18  0.000000D+00  0.000000D+00 -0.122851D+02
     19  0.000000D+00  0.000000D+00  0.000000D+00 -0.122851D+02
 SVDSVc IOpt=   1 NormSV=T IR=1
 SVDSVc V= 1.59D+00 1.54D+00 1.26D+00 1.10D+00 1.00D+00 9.92D-01 8.74D-01 7.09D-01 4.83D-01 4.49D-01
 SVDSVc IOpt=   1 NormSV=T IR=2
 SVDSVc V= 1.00D+00
 SVDSVc IOpt=   1 NormSV=T IR=3
 SVDSVc V= 1.53D+00 1.00D+00 9.76D-01 4.98D-01
 SVDSVc IOpt=   1 NormSV=T IR=4
 SVDSVc V= 1.53D+00 1.00D+00 9.76D-01 4.98D-01
 TstOVc:  Largest diagonal error= 2.00D-15 IB=1 I=    9.
 TstOVc:  Largest same sym error= 8.88D-16 IB=1 I=    7 J=    6.
 TstOVc:  Largest diff sym error= 0.00D+00 IB=0 JB=0 I=    0 J=    0.
 Orthogonalized basis functions: 
                 1             2             3             4             5 
      1   0.111505D+00 -0.136768D+00 -0.236788D+00  0.599661D+00  0.000000D+00
      2   0.284513D+00  0.959560D-01  0.507001D+00  0.179305D+00  0.000000D+00
      3   0.421956D+00  0.133431D+00  0.375844D+00  0.585807D-01  0.000000D+00
      4   0.000000D+00  0.000000D+00  0.000000D+00  0.000000D+00  0.000000D+00
      5   0.000000D+00  0.000000D+00  0.000000D+00  0.000000D+00  0.000000D+00
      6  -0.724748D-01  0.323033D+00 -0.963092D-01  0.426589D+00  0.000000D+00
      7   0.456373D+00  0.120761D+00 -0.274162D+00 -0.199560D+00  0.000000D+00
      8   0.000000D+00  0.000000D+00  0.000000D+00  0.000000D+00  0.000000D+00
      9   0.000000D+00  0.000000D+00  0.000000D+00  0.000000D+00  0.000000D+00
     10  -0.125783D+00  0.525316D+00 -0.825731D-01  0.155354D+00  0.000000D+00
     11   0.338054D+00  0.630275D-01 -0.491496D+00 -0.118928D+00  0.000000D+00
     12   0.000000D+00  0.000000D+00  0.000000D+00  0.000000D+00  0.000000D+00
     13   0.000000D+00  0.000000D+00  0.000000D+00  0.000000D+00  0.000000D+00
     14  -0.122341D+00  0.450024D+00  0.140354D-01 -0.274333D+00  0.000000D+00
     15   0.131133D-01 -0.173297D-01 -0.619343D-01  0.425194D+00  0.000000D+00
     16   0.000000D+00  0.000000D+00  0.000000D+00  0.000000D+00  0.000000D+00
     17   0.000000D+00  0.000000D+00  0.000000D+00  0.000000D+00  0.000000D+00
     18   0.000000D+00  0.000000D+00  0.000000D+00  0.000000D+00  0.100000D+01
     19   0.000000D+00  0.000000D+00  0.000000D+00  0.000000D+00  0.000000D+00
                 6             7             8             9            10 
      1  -0.914165D-01  0.667653D+00 -0.260965D+00 -0.231673D+00  0.176325D+00
      2  -0.205648D-01  0.182135D+00  0.694430D+00  0.144774D+00  0.507912D+00
      3  -0.107887D-02 -0.493986D-01 -0.520122D+00 -0.212660D+00 -0.806256D+00
      4   0.000000D+00  0.000000D+00  0.000000D+00  0.000000D+00  0.000000D+00
      5   0.000000D+00  0.000000D+00  0.000000D+00  0.000000D+00  0.000000D+00
      6  -0.446939D+00 -0.546900D+00  0.109225D+00 -0.548763D+00  0.110376D+00
      7   0.256185D-01 -0.210466D+00 -0.383705D+00  0.191420D+00  0.878828D+00
      8   0.000000D+00  0.000000D+00  0.000000D+00  0.000000D+00  0.000000D+00
      9   0.000000D+00  0.000000D+00  0.000000D+00  0.000000D+00  0.000000D+00
     10  -0.165682D-01  0.191082D+00 -0.100357D+00  0.969442D+00 -0.210157D+00
     11   0.378997D-02  0.777197D-01  0.645473D+00 -0.909094D-01 -0.645480D+00
     12   0.000000D+00  0.000000D+00  0.000000D+00  0.000000D+00  0.000000D+00
     13   0.000000D+00  0.000000D+00  0.000000D+00  0.000000D+00  0.000000D+00
     14   0.341467D+00  0.379786D+00 -0.194748D-01 -0.813393D+00  0.204154D+00
     15   0.825603D+00 -0.364734D+00  0.618349D-01  0.309536D-01 -0.220884D-01
     16   0.000000D+00  0.000000D+00  0.000000D+00  0.000000D+00  0.000000D+00
     17   0.000000D+00  0.000000D+00  0.000000D+00  0.000000D+00  0.000000D+00
     18   0.000000D+00  0.000000D+00  0.000000D+00  0.000000D+00  0.000000D+00
     19   0.000000D+00  0.000000D+00  0.000000D+00  0.000000D+00  0.000000D+00
                11            12            13            14            15 
      1   0.000000D+00  0.000000D+00  0.000000D+00  0.000000D+00  0.000000D+00
      2   0.000000D+00  0.000000D+00  0.000000D+00  0.000000D+00  0.000000D+00
      3   0.000000D+00  0.000000D+00  0.000000D+00  0.000000D+00  0.000000D+00
      4   0.000000D+00  0.358362D+00  0.000000D+00  0.802807D+00 -0.593005D+00
      5   0.000000D+00  0.000000D+00  0.000000D+00  0.000000D+00  0.000000D+00
      6   0.000000D+00  0.000000D+00  0.000000D+00  0.000000D+00  0.000000D+00
      7   0.000000D+00  0.000000D+00  0.000000D+00  0.000000D+00  0.000000D+00
      8   0.000000D+00  0.565532D+00  0.000000D+00 -0.127423D-01  0.101370D+01
      9   0.000000D+00  0.000000D+00  0.000000D+00  0.000000D+00  0.000000D+00
     10   0.000000D+00  0.000000D+00  0.000000D+00  0.000000D+00  0.000000D+00
     11   0.000000D+00  0.000000D+00  0.000000D+00  0.000000D+00  0.000000D+00
     12   0.000000D+00  0.454909D+00  0.000000D+00 -0.616584D+00 -0.793056D+00
     13   0.000000D+00  0.000000D+00  0.000000D+00  0.000000D+00  0.000000D+00
     14   0.000000D+00  0.000000D+00  0.000000D+00  0.000000D+00  0.000000D+00
     15   0.000000D+00  0.000000D+00  0.000000D+00  0.000000D+00  0.000000D+00
     16   0.000000D+00  0.000000D+00  0.100000D+01  0.000000D+00  0.000000D+00
     17   0.000000D+00  0.000000D+00  0.000000D+00  0.000000D+00  0.000000D+00
     18   0.000000D+00  0.000000D+00  0.000000D+00  0.000000D+00  0.000000D+00
     19   0.100000D+01  0.000000D+00  0.000000D+00  0.000000D+00  0.000000D+00
                16            17            18            19 
      1   0.000000D+00  0.000000D+00  0.000000D+00  0.000000D+00
      2   0.000000D+00  0.000000D+00  0.000000D+00  0.000000D+00
      3   0.000000D+00  0.000000D+00  0.000000D+00  0.000000D+00
      4   0.000000D+00  0.000000D+00  0.000000D+00  0.000000D+00
      5   0.358362D+00  0.000000D+00  0.802807D+00 -0.593005D+00
      6   0.000000D+00  0.000000D+00  0.000000D+00  0.000000D+00
      7   0.000000D+00  0.000000D+00  0.000000D+00  0.000000D+00
      8   0.000000D+00  0.000000D+00  0.000000D+00  0.000000D+00
      9   0.565532D+00  0.000000D+00 -0.127423D-01  0.101370D+01
     10   0.000000D+00  0.000000D+00  0.000000D+00  0.000000D+00
     11   0.000000D+00  0.000000D+00  0.000000D+00  0.000000D+00
     12   0.000000D+00  0.000000D+00  0.000000D+00  0.000000D+00
     13   0.454909D+00  0.000000D+00 -0.616584D+00 -0.793056D+00
     14   0.000000D+00  0.000000D+00  0.000000D+00  0.000000D+00
     15   0.000000D+00  0.000000D+00  0.000000D+00  0.000000D+00
     16   0.000000D+00  0.000000D+00  0.000000D+00  0.000000D+00
     17   0.000000D+00  0.100000D+01  0.000000D+00  0.000000D+00
     18   0.000000D+00  0.000000D+00  0.000000D+00  0.000000D+00
     19   0.000000D+00  0.000000D+00  0.000000D+00  0.000000D+00
 NBasis=    19 RedAO= T EigKep=  4.49D-01  NBF=    10     1     4     4
 NBsUse=    19 1.00D-06 EigRej= -1.00D+00 NBFU=    10     1     4     4
 Leave Link  302 at Mon Mar 28 12:46:06 2022, MaxMem=  9663676416 cpu:               3.5 elap:               0.1
 (Enter /nopt/nrel/apps/gaussian/g16C_1/g16/l303.exe)
 DipDrv will not compute anything.
 Fermi contact integrals: 
                 1             2 
      1   0.628247D+00  0.102915D-02
      2   0.000000D+00  0.454848D+02
      3   0.000000D+00  0.245213D+01
      4   0.000000D+00  0.000000D+00
      5   0.000000D+00  0.000000D+00
      6   0.000000D+00  0.000000D+00
      7   0.000000D+00  0.115357D+00
      8   0.000000D+00  0.000000D+00
      9   0.000000D+00  0.000000D+00
     10   0.000000D+00  0.000000D+00
     11   0.781273D-02 -0.521539D-02
     12   0.000000D+00  0.000000D+00
     13   0.000000D+00  0.000000D+00
     14  -0.140318D-01  0.000000D+00
     15   0.450050D-02  0.000000D+00
     16   0.000000D+00  0.000000D+00
     17   0.000000D+00  0.000000D+00
     18   0.000000D+00  0.000000D+00
     19   0.000000D+00  0.000000D+00
 Leave Link  303 at Mon Mar 28 12:46:06 2022, MaxMem=  9663676416 cpu:               1.1 elap:               0.1
 (Enter /nopt/nrel/apps/gaussian/g16C_1/g16/l401.exe)
 ExpMin= 1.16D-01 ExpMax= 1.03D+03 ExpMxC= 1.03D+03 IAcc=3 IRadAn=         5 AccDes= 0.00D+00
 Harris functional with IExCor=  205 and IRadAn=       5 diagonalized for initial guess.
 HarFok:  IExCor=  205 AccDes= 0.00D+00 IRadAn=         5 IDoV= 1 UseB2=F ITyADJ=14
 ICtDFT=  3500011 ScaDFX=  1.000000  1.000000  1.000000  1.000000
 FoFCou: FMM=F IPFlag=           0 FMFlag=      100000 FMFlg1=           0
         NFxFlg=           0 DoJE=T BraDBF=F KetDBF=T FulRan=T
         wScrn=  0.000000 ICntrl=       500 IOpCl=  0 I1Cent=   200000004 NGrid=           0
         NMat0=    1 NMatS0=      1 NMatT0=    0 NMatD0=    1 NMtDS0=    0 NMtDT0=    0
 Petite list used in FoFCou.
 Harris En= -839.032172197609    
 JPrj=0 DoOrth=F DoCkMO=F.
 Initial guess orbital symmetries:
 Alpha Orbitals:
       Occupied  (SG) (SG) (SG) (PI) (PI) (SG) (SG) (PI) (PI) (SG)
                 (SG) (PI) (PI) (DLTA)
       Virtual   (DLTA) (SG) (PI) (PI) (SG)
 Beta  Orbitals:
       Occupied  (SG) (SG) (SG) (PI) (PI) (SG) (SG) (PI) (PI)
       Virtual   (SG) (SG) (PI) (PI) (DLTA) (DLTA) (SG) (PI) (PI)
                 (SG)
 Initial guess <Sx>= 0.0000 <Sy>= 0.0000 <Sz>= 2.5000 <S**2>= 8.7500 S= 2.5000
 Leave Link  401 at Mon Mar 28 12:46:06 2022, MaxMem=  9663676416 cpu:               3.9 elap:               0.1
 (Enter /nopt/nrel/apps/gaussian/g16C_1/g16/l502.exe)
 Keep R1 and R2 ints in memory in symmetry-blocked form, NReq=7412976.
 FoFCou: FMM=F IPFlag=           0 FMFlag=           0 FMFlg1=           0
         NFxFlg=           0 DoJE=F BraDBF=F KetDBF=F FulRan=T
         wScrn=  0.000000 ICntrl=       600 IOpCl=  0 I1Cent=           0 NGrid=           0
         NMat0=    1 NMatS0=    190 NMatT0=    0 NMatD0=    1 NMtDS0=    0 NMtDT0=    0
 Petite list used in FoFCou.
 UHF open shell SCF:
 Using DIIS extrapolation, IDIIS=  1040.
 NGot=  9663676416 LenX=  9663662661 LenY=  9663661779
 Requested convergence on RMS density matrix=1.00D-08 within 128 cycles.
 Requested convergence on MAX density matrix=1.00D-06.
 Requested convergence on             energy=1.00D-06.
 No special actions if energy rises.

 Cycle   1  Pass 1  IDiag  1:
 E= -839.882360368809    
 DIIS: error= 6.69D-02 at cycle   1 NSaved=   1.
 NSaved= 1 IEnMin= 1 EnMin= -839.882360368809     IErMin= 1 ErrMin= 6.69D-02
 ErrMax= 6.69D-02  0.00D+00 EMaxC= 1.00D-01 BMatC= 2.18D-01 BMatP= 2.18D-01
 IDIUse=3 WtCom= 3.31D-01 WtEn= 6.69D-01
 Coeff-Com:  0.100D+01
 Coeff-En:   0.100D+01
 Coeff:      0.100D+01
 Gap=     0.354 Goal=   None    Shift=    0.000
 Gap=     1.809 Goal=   None    Shift=    0.000
 GapD=    0.354 DampG=1.000 DampE=0.250 DampFc=0.2500 IDamp=-1.
 Damping current iteration by 2.50D-01
 RMSDP=9.64D-03 MaxDP=8.65D-02              OVMax= 0.00D+00

 Cycle   2  Pass 1  IDiag  1:
 E= -839.889811703464     Delta-E=       -0.007451334654 Rises=F Damp=T
 DIIS: error= 5.05D-02 at cycle   2 NSaved=   2.
 NSaved= 2 IEnMin= 2 EnMin= -839.889811703464     IErMin= 2 ErrMin= 5.05D-02
 ErrMax= 5.05D-02  0.00D+00 EMaxC= 1.00D-01 BMatC= 1.27D-01 BMatP= 2.18D-01
 IDIUse=3 WtCom= 4.95D-01 WtEn= 5.05D-01
 Coeff-Com: -0.315D+01 0.415D+01
 Coeff-En:   0.000D+00 0.100D+01
 Coeff:     -0.156D+01 0.256D+01
 Gap=     0.349 Goal=   None    Shift=    0.000
 Gap=     1.802 Goal=   None    Shift=    0.000
 RMSDP=8.53D-03 MaxDP=8.34D-02 DE=-7.45D-03 OVMax= 0.00D+00

 Cycle   3  Pass 1  IDiag  1:
 E= -839.916686887109     Delta-E=       -0.026875183645 Rises=F Damp=F
 DIIS: error= 4.30D-03 at cycle   3 NSaved=   3.
 NSaved= 3 IEnMin= 3 EnMin= -839.916686887109     IErMin= 3 ErrMin= 4.30D-03
 ErrMax= 4.30D-03  0.00D+00 EMaxC= 1.00D-01 BMatC= 7.69D-04 BMatP= 1.27D-01
 IDIUse=3 WtCom= 9.57D-01 WtEn= 4.30D-02
 Coeff-Com:  0.328D+01-0.437D+01 0.210D+01
 Coeff-En:   0.000D+00 0.000D+00 0.100D+01
 Coeff:      0.314D+01-0.419D+01 0.205D+01
 Gap=     0.347 Goal=   None    Shift=    0.000
 Gap=     1.806 Goal=   None    Shift=    0.000
 RMSDP=1.77D-03 MaxDP=2.19D-02 DE=-2.69D-02 OVMax= 0.00D+00

 Cycle   4  Pass 1  IDiag  1:
 E= -839.917183070057     Delta-E=       -0.000496182948 Rises=F Damp=F
 DIIS: error= 3.69D-04 at cycle   4 NSaved=   4.
 NSaved= 4 IEnMin= 4 EnMin= -839.917183070057     IErMin= 4 ErrMin= 3.69D-04
 ErrMax= 3.69D-04  0.00D+00 EMaxC= 1.00D-01 BMatC= 5.59D-06 BMatP= 7.69D-04
 IDIUse=3 WtCom= 9.96D-01 WtEn= 3.69D-03
 Coeff-Com: -0.263D+00 0.352D+00-0.192D+00 0.110D+01
 Coeff-En:   0.000D+00 0.000D+00 0.000D+00 0.100D+01
 Coeff:     -0.262D+00 0.350D+00-0.191D+00 0.110D+01
 Gap=     0.347 Goal=   None    Shift=    0.000
 Gap=     1.805 Goal=   None    Shift=    0.000
 RMSDP=3.05D-04 MaxDP=3.33D-03 DE=-4.96D-04 OVMax= 0.00D+00

 Cycle   5  Pass 1  IDiag  1:
 E= -839.917196827121     Delta-E=       -0.000013757064 Rises=F Damp=F
 DIIS: error= 3.67D-04 at cycle   5 NSaved=   5.
 NSaved= 5 IEnMin= 5 EnMin= -839.917196827121     IErMin= 5 ErrMin= 3.67D-04
 ErrMax= 3.67D-04  0.00D+00 EMaxC= 1.00D-01 BMatC= 4.28D-06 BMatP= 5.59D-06
 IDIUse=3 WtCom= 9.96D-01 WtEn= 3.67D-03
 Coeff-Com:  0.142D+00-0.190D+00 0.110D+00-0.947D+00 0.188D+01
 Coeff-En:   0.000D+00 0.000D+00 0.000D+00 0.000D+00 0.100D+01
 Coeff:      0.142D+00-0.190D+00 0.110D+00-0.944D+00 0.188D+01
 Gap=     0.347 Goal=   None    Shift=    0.000
 Gap=     1.806 Goal=   None    Shift=    0.000
 RMSDP=4.93D-04 MaxDP=5.64D-03 DE=-1.38D-05 OVMax= 0.00D+00

 Cycle   6  Pass 1  IDiag  1:
 E= -839.917217268285     Delta-E=       -0.000020441164 Rises=F Damp=F
 DIIS: error= 3.62D-04 at cycle   6 NSaved=   6.
 NSaved= 6 IEnMin= 6 EnMin= -839.917217268285     IErMin= 6 ErrMin= 3.62D-04
 ErrMax= 3.62D-04  0.00D+00 EMaxC= 1.00D-01 BMatC= 3.80D-06 BMatP= 4.28D-06
 IDIUse=3 WtCom= 9.96D-01 WtEn= 3.62D-03
 Coeff-Com: -0.660D-01 0.883D-01-0.585D-01 0.840D+00-0.216D+01 0.236D+01
 Coeff-En:   0.000D+00 0.000D+00 0.000D+00 0.000D+00 0.000D+00 0.100D+01
 Coeff:     -0.657D-01 0.879D-01-0.583D-01 0.837D+00-0.215D+01 0.235D+01
 Gap=     0.347 Goal=   None    Shift=    0.000
 Gap=     1.806 Goal=   None    Shift=    0.000
 RMSDP=6.89D-04 MaxDP=7.97D-03 DE=-2.04D-05 OVMax= 0.00D+00

 Cycle   7  Pass 1  IDiag  1:
 E= -839.917244807092     Delta-E=       -0.000027538807 Rises=F Damp=F
 DIIS: error= 3.55D-04 at cycle   7 NSaved=   7.
 NSaved= 7 IEnMin= 7 EnMin= -839.917244807092     IErMin= 7 ErrMin= 3.55D-04
 ErrMax= 3.55D-04  0.00D+00 EMaxC= 1.00D-01 BMatC= 3.64D-06 BMatP= 3.80D-06
 IDIUse=3 WtCom= 9.96D-01 WtEn= 3.55D-03
 Large coefficients: NSaved=  7 BigCof=   16.51 CofMax=   10.00 Det=-1.34D-09
 Inversion failed.  Reducing to  6 matrices.
 Large coefficients: NSaved=  6 BigCof=   15.51 CofMax=   10.00 Det=-1.46D-09
 Inversion failed.  Reducing to  5 matrices.
 Large coefficients: NSaved=  5 BigCof=   13.72 CofMax=   10.00 Det=-1.68D-09
 Inversion failed.  Reducing to  4 matrices.
 Large coefficients: NSaved=  4 BigCof=   13.18 CofMax=   10.00 Det=-2.09D-09
 Inversion failed.  Reducing to  3 matrices.
 Large coefficients: NSaved=  3 BigCof=   10.88 CofMax=   10.00 Det=-2.91D-09
 Inversion failed.  Reducing to  2 matrices.
 Coeff-Com: -0.109D+01 0.209D+01
 Coeff-En:   0.000D+00 0.100D+01
 Coeff:     -0.109D+01 0.209D+01
 Gap=     0.347 Goal=   None    Shift=    0.000
 Gap=     1.807 Goal=   None    Shift=    0.000
 RMSDP=9.92D-04 MaxDP=1.15D-02 DE=-2.75D-05 OVMax= 0.00D+00

 Cycle   8  Pass 1  IDiag  1:
 E= -839.917283473793     Delta-E=       -0.000038666701 Rises=F Damp=F
 DIIS: error= 3.46D-04 at cycle   8 NSaved=   3.
 NSaved= 3 IEnMin= 3 EnMin= -839.917283473793     IErMin= 3 ErrMin= 3.46D-04
 ErrMax= 3.46D-04  0.00D+00 EMaxC= 1.00D-01 BMatC= 3.47D-06 BMatP= 3.64D-06
 IDIUse=3 WtCom= 9.97D-01 WtEn= 3.46D-03
 Large coefficients: NSaved=  3 BigCof=   26.56 CofMax=   10.00 Det=-1.42D-09
 Inversion failed.  Reducing to  2 matrices.
 Coeff-Com: -0.442D+01 0.542D+01
 Coeff-En:   0.000D+00 0.100D+01
 Coeff:     -0.441D+01 0.541D+01
 Gap=     0.348 Goal=   None    Shift=    0.000
 Gap=     1.812 Goal=   None    Shift=    0.000
 RMSDP=4.56D-03 MaxDP=5.22D-02 DE=-3.87D-05 OVMax= 0.00D+00

 Cycle   9  Pass 1  IDiag  1:
 E= -839.917445978661     Delta-E=       -0.000162504868 Rises=F Damp=F
 DIIS: error= 3.04D-04 at cycle   9 NSaved=   3.
 NSaved= 3 IEnMin= 3 EnMin= -839.917445978661     IErMin= 3 ErrMin= 3.04D-04
 ErrMax= 3.04D-04  0.00D+00 EMaxC= 1.00D-01 BMatC= 3.21D-06 BMatP= 3.47D-06
 IDIUse=3 WtCom= 9.97D-01 WtEn= 3.04D-03
 Coeff-Com: -0.272D+01 0.333D+01 0.383D+00
 Coeff-En:   0.000D+00 0.000D+00 0.100D+01
 Coeff:     -0.271D+01 0.332D+01 0.384D+00
 Gap=     0.349 Goal=   None    Shift=    0.000
 Gap=     1.812 Goal=   None    Shift=    0.000
 RMSDP=7.53D-05 MaxDP=8.33D-04 DE=-1.63D-04 OVMax= 0.00D+00

 Cycle  10  Pass 1  IDiag  1:
 E= -839.917448576267     Delta-E=       -0.000002597606 Rises=F Damp=F
 DIIS: error= 3.00D-04 at cycle  10 NSaved=   4.
 NSaved= 4 IEnMin= 4 EnMin= -839.917448576267     IErMin= 4 ErrMin= 3.00D-04
 ErrMax= 3.00D-04  0.00D+00 EMaxC= 1.00D-01 BMatC= 2.87D-06 BMatP= 3.21D-06
 IDIUse=3 WtCom= 9.97D-01 WtEn= 3.00D-03
 Large coefficients: NSaved=  4 BigCof=   20.11 CofMax=   10.00 Det=-3.48D-09
 Inversion failed.  Reducing to  3 matrices.
 Large coefficients: NSaved=  3 BigCof=   15.99 CofMax=   10.00 Det=-1.84D-08
 Inversion failed.  Reducing to  2 matrices.
 Coeff-Com: -0.217D+01 0.317D+01
 Coeff-En:   0.000D+00 0.100D+01
 Coeff:     -0.217D+01 0.317D+01
 Gap=     0.348 Goal=   None    Shift=    0.000
 Gap=     1.813 Goal=   None    Shift=    0.000
 RMSDP=3.66D-04 MaxDP=4.10D-03 DE=-2.60D-06 OVMax= 0.00D+00

 Cycle  11  Pass 1  IDiag  1:
 E= -839.917460662169     Delta-E=       -0.000012085902 Rises=F Damp=F
 DIIS: error= 2.91D-04 at cycle  11 NSaved=   3.
 NSaved= 3 IEnMin= 3 EnMin= -839.917460662169     IErMin= 3 ErrMin= 2.91D-04
 ErrMax= 2.91D-04  0.00D+00 EMaxC= 1.00D-01 BMatC= 2.46D-06 BMatP= 2.87D-06
 IDIUse=3 WtCom= 9.97D-01 WtEn= 2.91D-03
 Coeff-Com:  0.464D+01-0.728D+01 0.364D+01
 Coeff-En:   0.000D+00 0.000D+00 0.100D+01
 Coeff:      0.463D+01-0.726D+01 0.363D+01
 Gap=     0.348 Goal=   None    Shift=    0.000
 Gap=     1.814 Goal=   None    Shift=    0.000
 RMSDP=8.12D-04 MaxDP=9.12D-03 DE=-1.21D-05 OVMax= 0.00D+00

 Cycle  12  Pass 1  IDiag  1:
 E= -839.917486350483     Delta-E=       -0.000025688314 Rises=F Damp=F
 DIIS: error= 2.81D-04 at cycle  12 NSaved=   4.
 NSaved= 4 IEnMin= 4 EnMin= -839.917486350483     IErMin= 4 ErrMin= 2.81D-04
 ErrMax= 2.81D-04  0.00D+00 EMaxC= 1.00D-01 BMatC= 2.27D-06 BMatP= 2.46D-06
 IDIUse=3 WtCom= 9.97D-01 WtEn= 2.81D-03
 Large coefficients: NSaved=  4 BigCof=   24.03 CofMax=   10.00 Det=-2.05D-10
 Inversion failed.  Reducing to  3 matrices.
 Coeff-Com:  0.117D+00-0.106D+01 0.195D+01
 Coeff-En:   0.000D+00 0.000D+00 0.100D+01
 Coeff:      0.116D+00-0.106D+01 0.194D+01
 Gap=     0.348 Goal=   None    Shift=    0.000
 Gap=     1.815 Goal=   None    Shift=    0.000
 RMSDP=9.12D-04 MaxDP=1.02D-02 DE=-2.57D-05 OVMax= 0.00D+00

 Cycle  13  Pass 1  IDiag  1:
 E= -839.917514095638     Delta-E=       -0.000027745154 Rises=F Damp=F
 DIIS: error= 2.71D-04 at cycle  13 NSaved=   4.
 NSaved= 4 IEnMin= 4 EnMin= -839.917514095638     IErMin= 4 ErrMin= 2.71D-04
 ErrMax= 2.71D-04  0.00D+00 EMaxC= 1.00D-01 BMatC= 2.11D-06 BMatP= 2.27D-06
 IDIUse=3 WtCom= 9.97D-01 WtEn= 2.71D-03
 Large coefficients: NSaved=  4 BigCof=   36.55 CofMax=   10.00 Det=-1.18D-09
 Inversion failed.  Reducing to  3 matrices.
 Large coefficients: NSaved=  3 BigCof=   25.83 CofMax=   10.00 Det=-1.75D-09
 Inversion failed.  Reducing to  2 matrices.
 Coeff-Com: -0.662D+01 0.762D+01
 Coeff-En:   0.000D+00 0.100D+01
 Coeff:     -0.660D+01 0.760D+01
 Gap=     0.348 Goal=   None    Shift=    0.000
 Gap=     1.822 Goal=   None    Shift=    0.000
 RMSDP=6.12D-03 MaxDP=6.66D-02 DE=-2.77D-05 OVMax= 0.00D+00

 Cycle  14  Pass 1  IDiag  1:
 E= -839.917668495931     Delta-E=       -0.000154400293 Rises=F Damp=F
 DIIS: error= 2.13D-04 at cycle  14 NSaved=   3.
 NSaved= 3 IEnMin= 3 EnMin= -839.917668495931     IErMin= 3 ErrMin= 2.13D-04
 ErrMax= 2.13D-04  0.00D+00 EMaxC= 1.00D-01 BMatC= 2.54D-06 BMatP= 2.11D-06
 IDIUse=3 WtCom= 9.97D-01 WtEn= 2.71D-03
 Coeff-Com: -0.601D+01 0.692D+01 0.864D-01
 Coeff-En:   0.000D+00 0.000D+00 0.100D+01
 Coeff:     -0.599D+01 0.690D+01 0.888D-01
 Gap=     0.351 Goal=   None    Shift=    0.000
 Gap=     1.822 Goal=   None    Shift=    0.000
 RMSDP=9.76D-06 MaxDP=9.86D-05 DE=-1.54D-04 OVMax= 0.00D+00

 Cycle  15  Pass 1  IDiag  1:
 E= -839.917668377923     Delta-E=        0.000000118008 Rises=F Damp=F
 DIIS: error= 2.11D-04 at cycle  15 NSaved=   4.
 NSaved= 4 IEnMin= 3 EnMin= -839.917668495931     IErMin= 4 ErrMin= 2.11D-04
 ErrMax= 2.11D-04  0.00D+00 EMaxC= 1.00D-01 BMatC= 2.28D-06 BMatP= 2.11D-06
 IDIUse=3 WtCom= 9.98D-01 WtEn= 2.11D-03
 Large coefficients: NSaved=  4 BigCof=   36.48 CofMax=   10.00 Det=-1.37D-09
 Inversion failed.  Reducing to  3 matrices.
 Large coefficients: NSaved=  3 BigCof=   35.47 CofMax=   10.00 Det=-1.67D-09
 Inversion failed.  Reducing to  2 matrices.
 Large coefficients: NSaved=  2 BigCof=   11.11 CofMax=   10.00 Det=-1.21D-08
 Coeff-Com: -0.101D+02 0.111D+02
 Coeff-En:   0.000D+00 0.100D+01
 Coeff:     -0.101D+02 0.111D+02
 Gap=     0.348 Goal=   None    Shift=    0.000
 Gap=     1.822 Goal=   None    Shift=    0.000
 RMSDP=5.76D-05 MaxDP=5.30D-04 DE= 1.18D-07 OVMax= 0.00D+00

 Cycle  16  Pass 1  IDiag  1:
 E= -839.917669542696     Delta-E=       -0.000001164773 Rises=F Damp=F
 DIIS: error= 1.87D-04 at cycle  16 NSaved=   3.
 NSaved= 3 IEnMin= 3 EnMin= -839.917669542696     IErMin= 3 ErrMin= 1.87D-04
 ErrMax= 1.87D-04  0.00D+00 EMaxC= 1.00D-01 BMatC= 9.93D-07 BMatP= 2.28D-06
 IDIUse=3 WtCom= 9.98D-01 WtEn= 1.87D-03
 Large coefficients: NSaved=  3 BigCof=   22.52 CofMax=   10.00 Det=-8.83D-11
 Inversion failed.  Reducing to  2 matrices.
 Coeff-Com: -0.343D-01 0.103D+01
 Coeff-En:   0.000D+00 0.100D+01
 Coeff:     -0.342D-01 0.103D+01
 Gap=     0.348 Goal=   None    Shift=    0.000
 Gap=     1.823 Goal=   None    Shift=    0.000
 RMSDP=1.31D-04 MaxDP=1.38D-03 DE=-1.16D-06 OVMax= 0.00D+00

 Cycle  17  Pass 1  IDiag  1:
 E= -839.917672210598     Delta-E=       -0.000002667902 Rises=F Damp=F
 DIIS: error= 1.85D-04 at cycle  17 NSaved=   3.
 NSaved= 3 IEnMin= 3 EnMin= -839.917672210598     IErMin= 3 ErrMin= 1.85D-04
 ErrMax= 1.85D-04  0.00D+00 EMaxC= 1.00D-01 BMatC= 9.68D-07 BMatP= 9.93D-07
 IDIUse=3 WtCom= 9.98D-01 WtEn= 1.85D-03
 Coeff-Com:  0.414D-01-0.522D+01 0.618D+01
 Coeff-En:   0.000D+00 0.000D+00 0.100D+01
 Coeff:      0.413D-01-0.521D+01 0.617D+01
 Gap=     0.348 Goal=   None    Shift=    0.000
 Gap=     1.824 Goal=   None    Shift=    0.000
 RMSDP=7.96D-04 MaxDP=8.34D-03 DE=-2.67D-06 OVMax= 0.00D+00

 Cycle  18  Pass 1  IDiag  1:
 E= -839.917687744629     Delta-E=       -0.000015534031 Rises=F Damp=F
 DIIS: error= 1.73D-04 at cycle  18 NSaved=   4.
 NSaved= 4 IEnMin= 4 EnMin= -839.917687744629     IErMin= 4 ErrMin= 1.73D-04
 ErrMax= 1.73D-04  0.00D+00 EMaxC= 1.00D-01 BMatC= 8.67D-07 BMatP= 9.68D-07
 IDIUse=3 WtCom= 9.98D-01 WtEn= 1.73D-03
 Large coefficients: NSaved=  4 BigCof=   59.24 CofMax=   10.00 Det=-7.83D-11
 Inversion failed.  Reducing to  3 matrices.
 Large coefficients: NSaved=  3 BigCof=   35.40 CofMax=   10.00 Det=-1.34D-10
 Inversion failed.  Reducing to  2 matrices.
 Coeff-Com: -0.114D+01 0.214D+01
 Coeff-En:   0.000D+00 0.100D+01
 Coeff:     -0.114D+01 0.214D+01
 Gap=     0.348 Goal=   None    Shift=    0.000
 Gap=     1.825 Goal=   None    Shift=    0.000
 RMSDP=1.02D-03 MaxDP=1.06D-02 DE=-1.55D-05 OVMax= 0.00D+00

 Cycle  19  Pass 1  IDiag  1:
 E= -839.917706046640     Delta-E=       -0.000018302011 Rises=F Damp=F
 DIIS: error= 1.58D-04 at cycle  19 NSaved=   3.
 NSaved= 3 IEnMin= 3 EnMin= -839.917706046640     IErMin= 3 ErrMin= 1.58D-04
 ErrMax= 1.58D-04  0.00D+00 EMaxC= 1.00D-01 BMatC= 7.52D-07 BMatP= 8.67D-07
 IDIUse=3 WtCom= 9.98D-01 WtEn= 1.58D-03
 Large coefficients: NSaved=  3 BigCof=   19.05 CofMax=   10.00 Det=-1.25D-09
 Inversion failed.  Reducing to  2 matrices.
 Coeff-Com: -0.364D+01 0.464D+01
 Coeff-En:   0.000D+00 0.100D+01
 Coeff:     -0.364D+01 0.464D+01
 Gap=     0.348 Goal=   None    Shift=    0.000
 Gap=     1.830 Goal=   None    Shift=    0.000
 RMSDP=3.76D-03 MaxDP=3.80D-02 DE=-1.83D-05 OVMax= 0.00D+00

 Cycle  20  Pass 1  IDiag  1:
 E= -839.917758341221     Delta-E=       -0.000052294581 Rises=F Damp=F
 DIIS: error= 1.08D-04 at cycle  20 NSaved=   3.
 NSaved= 3 IEnMin= 3 EnMin= -839.917758341221     IErMin= 3 ErrMin= 1.08D-04
 ErrMax= 1.08D-04  0.00D+00 EMaxC= 1.00D-01 BMatC= 6.50D-07 BMatP= 7.52D-07
 IDIUse=3 WtCom= 9.99D-01 WtEn= 1.08D-03
 Coeff-Com: -0.292D+01 0.373D+01 0.189D+00
 Coeff-En:   0.000D+00 0.000D+00 0.100D+01
 Coeff:     -0.292D+01 0.373D+01 0.190D+00
 Gap=     0.349 Goal=   None    Shift=    0.000
 Gap=     1.830 Goal=   None    Shift=    0.000
 RMSDP=1.67D-05 MaxDP=1.51D-04 DE=-5.23D-05 OVMax= 0.00D+00

 Cycle  21  Pass 1  IDiag  1:
 E= -839.917758240751     Delta-E=        0.000000100470 Rises=F Damp=F
 DIIS: error= 1.06D-04 at cycle  21 NSaved=   4.
 NSaved= 4 IEnMin= 3 EnMin= -839.917758341221     IErMin= 4 ErrMin= 1.06D-04
 ErrMax= 1.06D-04  0.00D+00 EMaxC= 1.00D-01 BMatC= 5.49D-07 BMatP= 6.50D-07
 IDIUse=3 WtCom= 9.99D-01 WtEn= 1.06D-03
 Large coefficients: NSaved=  4 BigCof=   17.09 CofMax=   10.00 Det=-2.01D-09
 Inversion failed.  Reducing to  3 matrices.
 Large coefficients: NSaved=  3 BigCof=   13.00 CofMax=   10.00 Det=-4.03D-09
 Inversion failed.  Reducing to  2 matrices.
 Coeff-Com: -0.455D+01 0.555D+01
 Coeff-En:   0.000D+00 0.100D+01
 Coeff:     -0.454D+01 0.554D+01
 Gap=     0.348 Goal=   None    Shift=    0.000
 Gap=     1.830 Goal=   None    Shift=    0.000
 RMSDP=4.62D-05 MaxDP=6.25D-04 DE= 1.00D-07 OVMax= 0.00D+00

 Cycle  22  Pass 1  IDiag  1:
 E= -839.917758472903     Delta-E=       -0.000000232152 Rises=F Damp=F
 DIIS: error= 9.79D-05 at cycle  22 NSaved=   3.
 NSaved= 3 IEnMin= 3 EnMin= -839.917758472903     IErMin= 3 ErrMin= 9.79D-05
 ErrMax= 9.79D-05  0.00D+00 EMaxC= 1.00D-01 BMatC= 2.97D-07 BMatP= 5.49D-07
 IDIUse=1 WtCom= 1.00D+00 WtEn= 0.00D+00
 Coeff-Com:  0.738D+01-0.920D+01 0.281D+01
 Coeff:      0.738D+01-0.920D+01 0.281D+01
 Gap=     0.348 Goal=   None    Shift=    0.000
 Gap=     1.831 Goal=   None    Shift=    0.000
 RMSDP=1.81D-04 MaxDP=1.77D-03 DE=-2.32D-07 OVMax= 0.00D+00

 Cycle  23  Pass 1  IDiag  1:
 E= -839.917760396262     Delta-E=       -0.000001923358 Rises=F Damp=F
 DIIS: error= 9.59D-05 at cycle  23 NSaved=   4.
 NSaved= 4 IEnMin= 4 EnMin= -839.917760396262     IErMin= 4 ErrMin= 9.59D-05
 ErrMax= 9.59D-05  0.00D+00 EMaxC= 1.00D-01 BMatC= 2.59D-07 BMatP= 2.97D-07
 IDIUse=1 WtCom= 1.00D+00 WtEn= 0.00D+00
 Coeff-Com: -0.354D+01 0.444D+01-0.188D+01 0.197D+01
 Coeff:     -0.354D+01 0.444D+01-0.188D+01 0.197D+01
 Gap=     0.348 Goal=   None    Shift=    0.000
 Gap=     1.831 Goal=   None    Shift=    0.000
 RMSDP=1.86D-04 MaxDP=1.83D-03 DE=-1.92D-06 OVMax= 0.00D+00

 Cycle  24  Pass 1  IDiag  1:
 E= -839.917762292174     Delta-E=       -0.000001895912 Rises=F Damp=F
 DIIS: error= 9.32D-05 at cycle  24 NSaved=   5.
 NSaved= 5 IEnMin= 5 EnMin= -839.917762292174     IErMin= 5 ErrMin= 9.32D-05
 ErrMax= 9.32D-05  0.00D+00 EMaxC= 1.00D-01 BMatC= 2.42D-07 BMatP= 2.59D-07
 IDIUse=1 WtCom= 1.00D+00 WtEn= 0.00D+00
 Large coefficients: NSaved=  5 BigCof=   29.33 CofMax=   10.00 Det=-3.60D-11
 Inversion failed.  Reducing to  4 matrices.
 Large coefficients: NSaved=  4 BigCof=   22.72 CofMax=   10.00 Det=-2.37D-10
 Inversion failed.  Reducing to  3 matrices.
 Large coefficients: NSaved=  3 BigCof=   18.85 CofMax=   10.00 Det=-2.92D-10
 Inversion failed.  Reducing to  2 matrices.
 Coeff-Com: -0.612D+01 0.712D+01
 Coeff:     -0.612D+01 0.712D+01
 Gap=     0.348 Goal=   None    Shift=    0.000
 Gap=     1.832 Goal=   None    Shift=    0.000
 RMSDP=1.19D-03 MaxDP=1.16D-02 DE=-1.90D-06 OVMax= 0.00D+00

 Cycle  25  Pass 1  IDiag  1:
 E= -839.917772943872     Delta-E=       -0.000010651699 Rises=F Damp=F
 DIIS: error= 7.55D-05 at cycle  25 NSaved=   3.
 NSaved= 3 IEnMin= 3 EnMin= -839.917772943872     IErMin= 3 ErrMin= 7.55D-05
 ErrMax= 7.55D-05  0.00D+00 EMaxC= 1.00D-01 BMatC= 1.65D-07 BMatP= 2.42D-07
 IDIUse=1 WtCom= 1.00D+00 WtEn= 0.00D+00
 Large coefficients: NSaved=  3 BigCof=   23.24 CofMax=   10.00 Det=-1.25D-10
 Inversion failed.  Reducing to  2 matrices.
 Coeff-Com: -0.128D+01 0.228D+01
 Coeff:     -0.128D+01 0.228D+01
 Gap=     0.348 Goal=   None    Shift=    0.000
 Gap=     1.835 Goal=   None    Shift=    0.000
 RMSDP=1.55D-03 MaxDP=1.48D-02 DE=-1.07D-05 OVMax= 0.00D+00

 Cycle  26  Pass 1  IDiag  1:
 E= -839.917783014017     Delta-E=       -0.000010070145 Rises=F Damp=F
 DIIS: error= 5.14D-05 at cycle  26 NSaved=   3.
 NSaved= 3 IEnMin= 3 EnMin= -839.917783014017     IErMin= 3 ErrMin= 5.14D-05
 ErrMax= 5.14D-05  0.00D+00 EMaxC= 1.00D-01 BMatC= 9.39D-08 BMatP= 1.65D-07
 IDIUse=1 WtCom= 1.00D+00 WtEn= 0.00D+00
 Coeff-Com:  0.145D+01-0.348D+01 0.303D+01
 Coeff:      0.145D+01-0.348D+01 0.303D+01
 Gap=     0.348 Goal=   None    Shift=    0.000
 Gap=     1.837 Goal=   None    Shift=    0.000
 RMSDP=1.45D-03 MaxDP=1.35D-02 DE=-1.01D-05 OVMax= 0.00D+00

 Cycle  27  Pass 1  IDiag  1:
 E= -839.917788411156     Delta-E=       -0.000005397139 Rises=F Damp=F
 DIIS: error= 2.18D-05 at cycle  27 NSaved=   4.
 NSaved= 4 IEnMin= 4 EnMin= -839.917788411156     IErMin= 4 ErrMin= 2.18D-05
 ErrMax= 2.18D-05  0.00D+00 EMaxC= 1.00D-01 BMatC= 1.38D-08 BMatP= 9.39D-08
 IDIUse=1 WtCom= 1.00D+00 WtEn= 0.00D+00
 Coeff-Com: -0.375D+00 0.913D-01 0.633D-02 0.128D+01
 Coeff:     -0.375D+00 0.913D-01 0.633D-02 0.128D+01
 Gap=     0.348 Goal=   None    Shift=    0.000
 Gap=     1.839 Goal=   None    Shift=    0.000
 RMSDP=1.29D-03 MaxDP=1.17D-02 DE=-5.40D-06 OVMax= 0.00D+00

 Cycle  28  Pass 1  IDiag  1:
 E= -839.917789877888     Delta-E=       -0.000001466732 Rises=F Damp=F
 DIIS: error= 2.26D-05 at cycle  28 NSaved=   5.
 NSaved= 5 IEnMin= 5 EnMin= -839.917789877888     IErMin= 4 ErrMin= 2.18D-05
 ErrMax= 2.26D-05  0.00D+00 EMaxC= 1.00D-01 BMatC= 4.38D-08 BMatP= 1.38D-08
 IDIUse=1 WtCom= 1.00D+00 WtEn= 0.00D+00
 Coeff-Com: -0.733D+00 0.114D+01-0.871D+00 0.118D+01 0.282D+00
 Coeff:     -0.733D+00 0.114D+01-0.871D+00 0.118D+01 0.282D+00
 Gap=     0.348 Goal=   None    Shift=    0.000
 Gap=     1.839 Goal=   None    Shift=    0.000
 RMSDP=2.12D-05 MaxDP=1.91D-04 DE=-1.47D-06 OVMax= 0.00D+00

 Cycle  29  Pass 1  IDiag  1:
 E= -839.917789884385     Delta-E=       -0.000000006497 Rises=F Damp=F
 DIIS: error= 1.70D-05 at cycle  29 NSaved=   6.
 NSaved= 6 IEnMin= 6 EnMin= -839.917789884385     IErMin= 6 ErrMin= 1.70D-05
 ErrMax= 1.70D-05  0.00D+00 EMaxC= 1.00D-01 BMatC= 2.47D-08 BMatP= 1.38D-08
 IDIUse=1 WtCom= 1.00D+00 WtEn= 0.00D+00
 Coeff-Com:  0.464D+00-0.112D+01 0.952D+00-0.335D+00-0.439D+01 0.543D+01
 Coeff:      0.464D+00-0.112D+01 0.952D+00-0.335D+00-0.439D+01 0.543D+01
 Gap=     0.348 Goal=   None    Shift=    0.000
 Gap=     1.839 Goal=   None    Shift=    0.000
 RMSDP=8.73D-06 MaxDP=7.10D-05 DE=-6.50D-09 OVMax= 0.00D+00

 Cycle  30  Pass 1  IDiag  1:
 E= -839.917789891956     Delta-E=       -0.000000007571 Rises=F Damp=F
 DIIS: error= 3.35D-07 at cycle  30 NSaved=   7.
 NSaved= 7 IEnMin= 7 EnMin= -839.917789891956     IErMin= 7 ErrMin= 3.35D-07
 ErrMax= 3.35D-07  0.00D+00 EMaxC= 1.00D-01 BMatC= 8.60D-12 BMatP= 1.38D-08
 IDIUse=1 WtCom= 1.00D+00 WtEn= 0.00D+00
 Coeff-Com: -0.833D-01 0.200D+00-0.173D+00 0.739D-01 0.850D+00-0.108D+01
 Coeff-Com:  0.121D+01
 Coeff:     -0.833D-01 0.200D+00-0.173D+00 0.739D-01 0.850D+00-0.108D+01
 Coeff:      0.121D+01
 Gap=     0.348 Goal=   None    Shift=    0.000
 Gap=     1.839 Goal=   None    Shift=    0.000
 RMSDP=7.49D-06 MaxDP=6.76D-05 DE=-7.57D-09 OVMax= 0.00D+00

 Cycle  31  Pass 1  IDiag  1:
 E= -839.917789892003     Delta-E=       -0.000000000047 Rises=F Damp=F
 DIIS: error= 3.87D-08 at cycle  31 NSaved=   8.
 NSaved= 8 IEnMin= 8 EnMin= -839.917789892003     IErMin= 8 ErrMin= 3.87D-08
 ErrMax= 3.87D-08  0.00D+00 EMaxC= 1.00D-01 BMatC= 1.56D-13 BMatP= 8.60D-12
 IDIUse=1 WtCom= 1.00D+00 WtEn= 0.00D+00
 Coeff-Com:  0.482D-02-0.128D-01 0.116D-01-0.464D-02-0.464D-01 0.626D-01
 Coeff-Com: -0.180D+00 0.116D+01
 Coeff:      0.482D-02-0.128D-01 0.116D-01-0.464D-02-0.464D-01 0.626D-01
 Coeff:     -0.180D+00 0.116D+01
 Gap=     0.348 Goal=   None    Shift=    0.000
 Gap=     1.839 Goal=   None    Shift=    0.000
 RMSDP=6.58D-07 MaxDP=5.94D-06 DE=-4.74D-11 OVMax= 0.00D+00

 Cycle  32  Pass 1  IDiag  1:
 E= -839.917789892004     Delta-E=       -0.000000000001 Rises=F Damp=F
 DIIS: error= 3.56D-08 at cycle  32 NSaved=   9.
 NSaved= 9 IEnMin= 9 EnMin= -839.917789892004     IErMin= 9 ErrMin= 3.56D-08
 ErrMax= 3.56D-08  0.00D+00 EMaxC= 1.00D-01 BMatC= 1.08D-13 BMatP= 1.56D-13
 IDIUse=1 WtCom= 1.00D+00 WtEn= 0.00D+00
 Coeff-Com: -0.635D-03 0.156D-02-0.144D-02 0.102D-02-0.852D-03-0.279D-02
 Coeff-Com:  0.313D-01-0.448D+00 0.142D+01
 Coeff:     -0.635D-03 0.156D-02-0.144D-02 0.102D-02-0.852D-03-0.279D-02
 Coeff:      0.313D-01-0.448D+00 0.142D+01
 Gap=     0.348 Goal=   None    Shift=    0.000
 Gap=     1.839 Goal=   None    Shift=    0.000
 RMSDP=1.04D-07 MaxDP=9.36D-07 DE=-9.09D-13 OVMax= 0.00D+00

 Cycle  33  Pass 1  IDiag  1:
 E= -839.917789892004     Delta-E=        0.000000000000 Rises=F Damp=F
 DIIS: error= 1.46D-09 at cycle  33 NSaved=  10.
 NSaved=10 IEnMin= 9 EnMin= -839.917789892004     IErMin=10 ErrMin= 1.46D-09
 ErrMax= 1.46D-09  0.00D+00 EMaxC= 1.00D-01 BMatC= 2.34D-16 BMatP= 1.08D-13
 IDIUse=1 WtCom= 1.00D+00 WtEn= 0.00D+00
 Coeff-Com:  0.468D-03-0.121D-02 0.110D-02-0.530D-03-0.424D-04 0.236D-02
 Coeff-Com: -0.183D-01 0.229D+00-0.855D+00 0.164D+01
 Coeff:      0.468D-03-0.121D-02 0.110D-02-0.530D-03-0.424D-04 0.236D-02
 Coeff:     -0.183D-01 0.229D+00-0.855D+00 0.164D+01
 Gap=     0.348 Goal=   None    Shift=    0.000
 Gap=     1.839 Goal=   None    Shift=    0.000
 RMSDP=2.72D-09 MaxDP=2.33D-08 DE= 0.00D+00 OVMax= 0.00D+00

 SCF Done:  E(UHF) =  -839.917789892     A.U. after   33 cycles
            NFock= 33  Conv=0.27D-08     -V/T= 2.0042
 <Sx>= 0.0000 <Sy>= 0.0000 <Sz>= 2.5000 <S**2>= 8.7532 S= 2.5005
 <L.S>= 0.000000000000E+00
 KE= 8.364174831416D+02 PE=-1.996671311306D+03 EE= 3.160242239617D+02
 Annihilation of the first spin contaminant:
 S**2 before annihilation     8.7532,   after     8.7500
 Leave Link  502 at Mon Mar 28 12:46:07 2022, MaxMem=  9663676416 cpu:               7.1 elap:               0.2
 (Enter /nopt/nrel/apps/gaussian/g16C_1/g16/l801.exe)
 Windowed orbitals will be sorted by symmetry type.
 ExpMin= 1.16D-01 ExpMax= 1.03D+03 ExpMxC= 1.03D+03 IAcc=3 IRadAn=         5 AccDes= 0.00D+00
 HarFok:  IExCor=  205 AccDes= 0.00D+00 IRadAn=         5 IDoV=-2 UseB2=F ITyADJ=14
 ICtDFT= 12500011 ScaDFX=  1.000000  1.000000  1.000000  1.000000
 Largest valence mixing into a core orbital is  4.14D-04
 Largest core mixing into a valence orbital is  2.28D-04
 Range of M.O.s used for correlation:    10    19
 NBasis=    19 NAE=    14 NBE=     9 NFC=     9 NFV=     0
 NROrb=     10 NOA=     5 NOB=     0 NVA=     5 NVB=    10
 Leave Link  801 at Mon Mar 28 12:46:07 2022, MaxMem=  9663676416 cpu:               1.4 elap:               0.1
 (Enter /nopt/nrel/apps/gaussian/g16C_1/g16/l804.exe)
 Open-shell transformation, MDV=  9663676416 ITran=4 ISComp=2.
 Unit  1 TFree=         25012 TCopy=        222819.
 Semi-Direct transformation.
 ModeAB=           2 MOrb=             5 LenV=    9663501448
 LASXX=          328 LTotXX=         328 LenRXX=         328
 LTotAB=         622 MaxLAS=       10500 LenRXY=       10500
[...]
 NORM(A)=   0.19935601D+01
 Iteration Nr. 244
 **********************
 DD1Dir will call FoFMem   1 times, MxPair=        10
 NAB=     0 NAA=    10 NBB=     0.
 A-vector RMS=  6.4290035D-04 Max=  2.3299637D-03 conv= 1.00D-05.
 RLE energy=        0.0206778969
 DE(Corr)=  0.22309081E-01 E(CORR)=     -839.89548081     Delta= 7.26D-03
 NORM(A)=   0.19274019D+01
 Iteration Nr. 245
 **********************
 DD1Dir will call FoFMem   1 times, MxPair=        10
 NAB=     0 NAA=    10 NBB=     0.
 A-vector RMS=  1.1388782D-03 Max=  3.7798134D-03 conv= 1.00D-05.
 RLE energy=        0.0321238060
 DE(Corr)=  0.20560725E-01 E(CORR)=     -839.89722917     Delta=-1.75D-03
 NORM(A)=   0.25939030D+01
 Iteration Nr. 246
 **********************
 DD1Dir will call FoFMem   1 times, MxPair=        10
 NAB=     0 NAA=    10 NBB=     0.
 A-vector RMS=  7.7552636D-03 Max=  2.5714244D-02 conv= 1.00D-05.
 RLE energy=        0.0131437464
 DE(Corr)=  0.32997959E-01 E(CORR)=     -839.88479193     Delta= 1.24D-02
 NORM(A)=   0.26644858D+01
 Iteration Nr. 247
 **********************
 DD1Dir will call FoFMem   1 times, MxPair=        10
 NAB=     0 NAA=    10 NBB=     0.
 A-vector RMS=  1.3036902D-02 Max=  3.4685058D-02 conv= 1.00D-05.
 RLE energy=       -0.0395243879
 DE(Corr)=  0.12865113E-01 E(CORR)=     -839.90492478     Delta=-2.01D-02
 NORM(A)=   0.33644811D+01
 Iteration Nr. 248
 **********************
 DD1Dir will call FoFMem   1 times, MxPair=        10
 NAB=     0 NAA=    10 NBB=     0.
 A-vector RMS=  3.8921731D-02 Max=  1.6895997D-01 conv= 1.00D-05.
 RLE energy=        0.0298815630
 DE(Corr)= -0.38589510E-01 E(CORR)=     -839.95637940     Delta=-5.15D-02
 NORM(A)=   0.24773762D+01
 Iteration Nr. 249
 **********************
 DD1Dir will call FoFMem   1 times, MxPair=        10
 NAB=     0 NAA=    10 NBB=     0.
 A-vector RMS=  5.6595653D-03 Max=  1.4968931D-02 conv= 1.00D-05.
 RLE energy=        0.0209267245
 DE(Corr)=  0.30406550E-01 E(CORR)=     -839.88738334     Delta= 6.90D-02
 NORM(A)=   0.19363648D+01
 Iteration Nr. 250
 **********************
 DD1Dir will call FoFMem   1 times, MxPair=        10
 NAB=     0 NAA=    10 NBB=     0.
 A-vector RMS=  2.0899524D-03 Max=  5.7190129D-03 conv= 1.00D-05.
 RLE energy=        0.0248828792
 DE(Corr)=  0.20800813E-01 E(CORR)=     -839.89698908     Delta=-9.61D-03
 NORM(A)=   0.21513721D+01
 Iteration Nr. 251
 **********************
 DD1Dir will call FoFMem   1 times, MxPair=        10
 NAB=     0 NAA=    10 NBB=     0.
 A-vector RMS=  2.5603251D-03 Max=  6.7849018D-03 conv= 1.00D-05.
 RLE energy=        0.0318317214
 DE(Corr)=  0.25022539E-01 E(CORR)=     -839.89276735     Delta= 4.22D-03
 NORM(A)=   0.26958204D+01
 Iteration Nr. 252
 **********************
 DD1Dir will call FoFMem   1 times, MxPair=        10
 NAB=     0 NAA=    10 NBB=     0.
 A-vector RMS=  7.0034043D-03 Max=  1.8180432D-02 conv= 1.00D-05.
 RLE energy=        0.0222948787
 DE(Corr)=  0.32596223E-01 E(CORR)=     -839.88519367     Delta= 7.57D-03
 NORM(A)=   0.19904290D+01
 Iteration Nr. 253
 **********************
 DD1Dir will call FoFMem   1 times, MxPair=        10
 NAB=     0 NAA=    10 NBB=     0.
 A-vector RMS=  8.3641643D-04 Max=  2.0429961D-03 conv= 1.00D-05.
 RLE energy=        0.0515524215
 DE(Corr)=  0.22293763E-01 E(CORR)=     -839.89549613     Delta=-1.03D-02
 NORM(A)=   0.38771576D+01
 Iteration Nr. 254
 **********************
 DD1Dir will call FoFMem   1 times, MxPair=        10
 NAB=     0 NAA=    10 NBB=     0.
 A-vector RMS=  2.1234108D-02 Max=  1.1316960D-01 conv= 1.00D-05.
 RLE energy=        0.0149105344
 DE(Corr)=  0.54576370E-01 E(CORR)=     -839.86321352     Delta= 3.23D-02
 NORM(A)=   0.15503238D+01
 Iteration Nr. 255
 **********************
 DD1Dir will call FoFMem   1 times, MxPair=        10
 NAB=     0 NAA=    10 NBB=     0.
 A-vector RMS=  3.8373387D-03 Max=  1.4343061D-02 conv= 1.00D-05.
 RLE energy=        0.0217220341
 DE(Corr)=  0.14511938E-01 E(CORR)=     -839.90327795     Delta=-4.01D-02
 NORM(A)=   0.19822989D+01
 Iteration Nr. 256
 **********************
 DD1Dir will call FoFMem   1 times, MxPair=        10
 NAB=     0 NAA=    10 NBB=     0.
 A-vector RMS=  1.8843767D-03 Max=  4.5367270D-03 conv= 1.00D-05.
 RLE energy=        0.0241427215
 DE(Corr)=  0.21729293E-01 E(CORR)=     -839.89606060     Delta= 7.22D-03
 NORM(A)=   0.20792634D+01
 Iteration Nr. 257
 **********************
 DD1Dir will call FoFMem   1 times, MxPair=        10
 NAB=     0 NAA=    10 NBB=     0.
 A-vector RMS=  1.3519094D-03 Max=  3.2892569D-03 conv= 1.00D-05.
 RLE energy=       -0.0571530197
 DE(Corr)=  0.24213953E-01 E(CORR)=     -839.89357594     Delta= 2.48D-03
 NORM(A)=   0.45987362D+01
 Iteration Nr. 258
 **********************
 DD1Dir will call FoFMem   1 times, MxPair=        10
 NAB=     0 NAA=    10 NBB=     0.
 A-vector RMS=  6.0353169D-02 Max=  1.8320626D-01 conv= 1.00D-05.
 RLE energy=        0.0200359141
 DE(Corr)= -0.53818839E-01 E(CORR)=     -839.97160873     Delta=-7.80D-02
 NORM(A)=   0.18213641D+01
 Iteration Nr. 259
 **********************
 DD1Dir will call FoFMem   1 times, MxPair=        10
 NAB=     0 NAA=    10 NBB=     0.
 A-vector RMS=  1.6548085D-03 Max=  6.2760264D-03 conv= 1.00D-05.
 RLE energy=        0.0164998225
 DE(Corr)=  0.19828036E-01 E(CORR)=     -839.89796186     Delta= 7.36D-02
 NORM(A)=   0.16425048D+01
 Iteration Nr. 260
 **********************
 DD1Dir will call FoFMem   1 times, MxPair=        10
 NAB=     0 NAA=    10 NBB=     0.
 A-vector RMS=  2.5508180D-03 Max=  1.0801341D-02 conv= 1.00D-05.
 RLE energy=        0.0188092312
 DE(Corr)=  0.16164237E-01 E(CORR)=     -839.90162566     Delta=-3.66D-03
 NORM(A)=   0.18111881D+01
 Iteration Nr. 261
 **********************
 DD1Dir will call FoFMem   1 times, MxPair=        10
 NAB=     0 NAA=    10 NBB=     0.
 A-vector RMS=  2.3023171D-03 Max=  6.4900826D-03 conv= 1.00D-05.
 RLE energy=        0.0218849652
 DE(Corr)=  0.18657315E-01 E(CORR)=     -839.89913258     Delta= 2.49D-03
 NORM(A)=   0.19597360D+01
 Iteration Nr. 262
 **********************
 DD1Dir will call FoFMem   1 times, MxPair=        10
 NAB=     0 NAA=    10 NBB=     0.
 A-vector RMS=  6.8314505D-04 Max=  2.1347305D-03 conv= 1.00D-05.
 RLE energy=        0.0299647276
 DE(Corr)=  0.21852691E-01 E(CORR)=     -839.89593720     Delta= 3.20D-03
 NORM(A)=   0.24411847D+01
 Iteration Nr. 263
 **********************
 DD1Dir will call FoFMem   1 times, MxPair=        10
 NAB=     0 NAA=    10 NBB=     0.
 A-vector RMS=  3.8918520D-03 Max=  1.5598628D-02 conv= 1.00D-05.
 RLE energy=        0.0201392946
 DE(Corr)=  0.30488415E-01 E(CORR)=     -839.88730148     Delta= 8.64D-03
 NORM(A)=   0.18445875D+01
 Iteration Nr. 264
 **********************
 DD1Dir will call FoFMem   1 times, MxPair=        10
 NAB=     0 NAA=    10 NBB=     0.
 A-vector RMS=  1.1874935D-03 Max=  5.3497566D-03 conv= 1.00D-05.
 RLE energy=        0.0232756668
 DE(Corr)=  0.19978340E-01 E(CORR)=     -839.89781155     Delta=-1.05D-02
 NORM(A)=   0.20284806D+01
 Iteration Nr. 265
 **********************
 DD1Dir will call FoFMem   1 times, MxPair=        10
 NAB=     0 NAA=    10 NBB=     0.
 A-vector RMS=  5.7177429D-04 Max=  1.7683996D-03 conv= 1.00D-05.
 RLE energy=        0.0221644289
 DE(Corr)=  0.23294342E-01 E(CORR)=     -839.89449555     Delta= 3.32D-03
 NORM(A)=   0.19627610D+01
 Iteration Nr. 266
 **********************
 DD1Dir will call FoFMem   1 times, MxPair=        10
 NAB=     0 NAA=    10 NBB=     0.
 A-vector RMS=  6.6884769D-04 Max=  1.6819058D-03 conv= 1.00D-05.
 RLE energy=        0.0224219346
 DE(Corr)=  0.22116586E-01 E(CORR)=     -839.89567331     Delta=-1.18D-03
 NORM(A)=   0.19727223D+01
 Iteration Nr. 267
 **********************
 DD1Dir will call FoFMem   1 times, MxPair=        10
 NAB=     0 NAA=    10 NBB=     0.
 A-vector RMS=  9.4035016D-04 Max=  3.0716559D-03 conv= 1.00D-05.
 RLE energy=        0.0222647844
 DE(Corr)=  0.22371902E-01 E(CORR)=     -839.89541799     Delta= 2.55D-04
 NORM(A)=   0.19708670D+01
 Iteration Nr. 268
 **********************
 DD1Dir will call FoFMem   1 times, MxPair=        10
 NAB=     0 NAA=    10 NBB=     0.
 A-vector RMS=  5.6644751D-04 Max=  1.4589261D-03 conv= 1.00D-05.
 RLE energy=        0.0225456972
 DE(Corr)=  0.22234068E-01 E(CORR)=     -839.89555582     Delta=-1.38D-04
 NORM(A)=   0.19858563D+01
 Iteration Nr. 269
 **********************
 DD1Dir will call FoFMem   1 times, MxPair=        10
 NAB=     0 NAA=    10 NBB=     0.
 A-vector RMS=  4.5357579D-04 Max=  9.3747609D-04 conv= 1.00D-05.
 RLE energy=        0.0226706857
 DE(Corr)=  0.22528946E-01 E(CORR)=     -839.89526095     Delta= 2.95D-04
 NORM(A)=   0.19842890D+01
 Iteration Nr. 270
 **********************
 DD1Dir will call FoFMem   1 times, MxPair=        10
 NAB=     0 NAA=    10 NBB=     0.
 A-vector RMS=  7.7772793D-04 Max=  2.1763505D-03 conv= 1.00D-05.
 RLE energy=        0.0265605332
 DE(Corr)=  0.22642823E-01 E(CORR)=     -839.89514707     Delta= 1.14D-04
 NORM(A)=   0.22263242D+01
 Iteration Nr. 271
 **********************
 DD1Dir will call FoFMem   1 times, MxPair=        10
 NAB=     0 NAA=    10 NBB=     0.
 A-vector RMS=  2.8069469D-03 Max=  7.0013186D-03 conv= 1.00D-05.
 RLE energy=        0.0281292135
 DE(Corr)=  0.26824005E-01 E(CORR)=     -839.89096589     Delta= 4.18D-03
 NORM(A)=   0.23227188D+01
 Iteration Nr. 272
 **********************
 DD1Dir will call FoFMem   1 times, MxPair=        10
 NAB=     0 NAA=    10 NBB=     0.
 A-vector RMS=  2.8734918D-03 Max=  1.0809332D-02 conv= 1.00D-05.
 RLE energy=        0.0213424345
 DE(Corr)=  0.28509080E-01 E(CORR)=     -839.88928081     Delta= 1.69D-03
 NORM(A)=   0.19142299D+01
 Iteration Nr. 273
 **********************
 DD1Dir will call FoFMem   1 times, MxPair=        10
 NAB=     0 NAA=    10 NBB=     0.
 A-vector RMS=  1.4112416D-03 Max=  3.6614675D-03 conv= 1.00D-05.
 RLE energy=        0.0212963274
 DE(Corr)=  0.21232361E-01 E(CORR)=     -839.89655753     Delta=-7.28D-03
 NORM(A)=   0.19069020D+01
 Iteration Nr. 274
 **********************
 DD1Dir will call FoFMem   1 times, MxPair=        10
 NAB=     0 NAA=    10 NBB=     0.
 A-vector RMS=  9.2412122D-04 Max=  3.4085241D-03 conv= 1.00D-05.
 RLE energy=        0.0137371482
 DE(Corr)=  0.21187405E-01 E(CORR)=     -839.89660249     Delta=-4.50D-05
 NORM(A)=   0.15695558D+01
 Iteration Nr. 275
 **********************
 DD1Dir will call FoFMem   1 times, MxPair=        10
 NAB=     0 NAA=    10 NBB=     0.
 A-vector RMS=  6.5865981D-03 Max=  2.0428999D-02 conv= 1.00D-05.
 RLE energy=        0.0229004711
 DE(Corr)=  0.13222742E-01 E(CORR)=     -839.90456715     Delta=-7.96D-03
 NORM(A)=   0.20040189D+01
 Iteration Nr. 276
 **********************
 DD1Dir will call FoFMem   1 times, MxPair=        10
 NAB=     0 NAA=    10 NBB=     0.
 A-vector RMS=  4.3006811D-04 Max=  1.2746800D-03 conv= 1.00D-05.
 RLE energy=        0.0222570341
 DE(Corr)=  0.22896145E-01 E(CORR)=     -839.89489375     Delta= 9.67D-03
 NORM(A)=   0.19634247D+01
 Iteration Nr. 277
 **********************
 DD1Dir will call FoFMem   1 times, MxPair=        10
 NAB=     0 NAA=    10 NBB=     0.
 A-vector RMS=  5.4509970D-04 Max=  1.7253138D-03 conv= 1.00D-05.
 RLE energy=        0.0233511326
 DE(Corr)=  0.22205894E-01 E(CORR)=     -839.89558400     Delta=-6.90D-04
 NORM(A)=   0.20294602D+01
 Iteration Nr. 278
 **********************
 DD1Dir will call FoFMem   1 times, MxPair=        10
 NAB=     0 NAA=    10 NBB=     0.
 A-vector RMS=  3.0504541D-04 Max=  8.3357930D-04 conv= 1.00D-05.
 RLE energy=        0.0228273262
 DE(Corr)=  0.23375969E-01 E(CORR)=     -839.89441392     Delta= 1.17D-03
 NORM(A)=   0.19972303D+01
 Iteration Nr. 279
 **********************
 DD1Dir will call FoFMem   1 times, MxPair=        10
 NAB=     0 NAA=    10 NBB=     0.
 A-vector RMS=  1.8730923D-04 Max=  5.4486500D-04 conv= 1.00D-05.
 RLE energy=        0.0210957123
 DE(Corr)=  0.22815735E-01 E(CORR)=     -839.89497416     Delta=-5.60D-04
 NORM(A)=   0.18986116D+01
 Iteration Nr. 280
 **********************
 DD1Dir will call FoFMem   1 times, MxPair=        10
 NAB=     0 NAA=    10 NBB=     0.
 A-vector RMS=  1.8017231D-03 Max=  4.0716062D-03 conv= 1.00D-05.
 RLE energy=        0.0240985356
 DE(Corr)=  0.20960428E-01 E(CORR)=     -839.89682946     Delta=-1.86D-03
 NORM(A)=   0.20804584D+01
 Iteration Nr. 281
 **********************
 DD1Dir will call FoFMem   1 times, MxPair=        10
 NAB=     0 NAA=    10 NBB=     0.
 A-vector RMS=  6.3993795D-04 Max=  2.0789092D-03 conv= 1.00D-05.
 RLE energy=        0.0122291776
 DE(Corr)=  0.24182917E-01 E(CORR)=     -839.89360697     Delta= 3.22D-03
 NORM(A)=   0.13182659D+01
 Iteration Nr. 282
 **********************
 DD1Dir will call FoFMem   1 times, MxPair=        10
 NAB=     0 NAA=    10 NBB=     0.
 A-vector RMS=  5.6203311D-03 Max=  1.8185295D-02 conv= 1.00D-05.
 RLE energy=        0.0248550402
 DE(Corr)=  0.11522165E-01 E(CORR)=     -839.90626773     Delta=-1.27D-02
 NORM(A)=   0.21009250D+01
 Iteration Nr. 283
 **********************
 DD1Dir will call FoFMem   1 times, MxPair=        10
 NAB=     0 NAA=    10 NBB=     0.
 A-vector RMS=  2.2147890D-03 Max=  7.1294667D-03 conv= 1.00D-05.
 RLE energy=        0.0201115566
 DE(Corr)=  0.24978552E-01 E(CORR)=     -839.89281134     Delta= 1.35D-02
 NORM(A)=   0.18398977D+01
 Iteration Nr. 284
 **********************
 DD1Dir will call FoFMem   1 times, MxPair=        10
 NAB=     0 NAA=    10 NBB=     0.
 A-vector RMS=  1.2197573D-03 Max=  5.3215287D-03 conv= 1.00D-05.
 RLE energy=        0.0229028004
 DE(Corr)=  0.19931690E-01 E(CORR)=     -839.89785820     Delta=-5.05D-03
 NORM(A)=   0.20092971D+01
 Iteration Nr. 285
 **********************
 DD1Dir will call FoFMem   1 times, MxPair=        10
 NAB=     0 NAA=    10 NBB=     0.
 A-vector RMS=  3.3013266D-04 Max=  7.9980474D-04 conv= 1.00D-05.
 RLE energy=        0.0233107085
 DE(Corr)=  0.22905406E-01 E(CORR)=     -839.89488449     Delta= 2.97D-03
 NORM(A)=   0.20233632D+01
 Iteration Nr. 286
 **********************
 DD1Dir will call FoFMem   1 times, MxPair=        10
 NAB=     0 NAA=    10 NBB=     0.
 A-vector RMS=  3.3482625D-04 Max=  1.2903577D-03 conv= 1.00D-05.
 RLE energy=        0.0236144707
 DE(Corr)=  0.23334402E-01 E(CORR)=     -839.89445549     Delta= 4.29D-04
 NORM(A)=   0.20418494D+01
 Iteration Nr. 287
 **********************
 DD1Dir will call FoFMem   1 times, MxPair=        10
 NAB=     0 NAA=    10 NBB=     0.
 A-vector RMS=  5.6870422D-04 Max=  1.5492148D-03 conv= 1.00D-05.
 RLE energy=        0.0333974043
 DE(Corr)=  0.23659959E-01 E(CORR)=     -839.89412993     Delta= 3.26D-04
 NORM(A)=   0.25430979D+01
 Iteration Nr. 288
 **********************
 DD1Dir will call FoFMem   1 times, MxPair=        10
 NAB=     0 NAA=    10 NBB=     0.
 A-vector RMS=  7.0471760D-03 Max=  2.3034036D-02 conv= 1.00D-05.
 RLE energy=        0.0246074647
 DE(Corr)=  0.34195313E-01 E(CORR)=     -839.88359458     Delta= 1.05D-02
 NORM(A)=   0.20726412D+01
 Iteration Nr. 289
 **********************
 DD1Dir will call FoFMem   1 times, MxPair=        10
 NAB=     0 NAA=    10 NBB=     0.
 A-vector RMS=  9.8410144D-04 Max=  2.6061352D-03 conv= 1.00D-05.
 RLE energy=        0.0245392340
 DE(Corr)=  0.24707241E-01 E(CORR)=     -839.89308265     Delta=-9.49D-03
 NORM(A)=   0.20718072D+01
 Iteration Nr. 290
 **********************
 DD1Dir will call FoFMem   1 times, MxPair=        10
 NAB=     0 NAA=    10 NBB=     0.
 A-vector RMS=  9.1582695D-04 Max=  2.7733985D-03 conv= 1.00D-05.
 RLE energy=        0.0246620665
 DE(Corr)=  0.24641577E-01 E(CORR)=     -839.89314832     Delta=-6.57D-05
 NORM(A)=   0.20795834D+01
 Iteration Nr. 291
 **********************
 DD1Dir will call FoFMem   1 times, MxPair=        10
 NAB=     0 NAA=    10 NBB=     0.
 A-vector RMS=  9.6238980D-04 Max=  3.0607076D-03 conv= 1.00D-05.
 RLE energy=        0.0208837940
 DE(Corr)=  0.24774214E-01 E(CORR)=     -839.89301568     Delta= 1.33D-04
 NORM(A)=   0.18300587D+01
 Iteration Nr. 292
 **********************
 DD1Dir will call FoFMem   1 times, MxPair=        10
 NAB=     0 NAA=    10 NBB=     0.
 A-vector RMS=  2.1255422D-03 Max=  5.9549675D-03 conv= 1.00D-05.
 RLE energy=        0.0349440085
 DE(Corr)=  0.20724332E-01 E(CORR)=     -839.89706556     Delta=-4.05D-03
 NORM(A)=   0.25654980D+01
 Iteration Nr. 293
 **********************
 DD1Dir will call FoFMem   1 times, MxPair=        10
 NAB=     0 NAA=    10 NBB=     0.
 A-vector RMS=  1.3617299D-02 Max=  3.7221591D-02 conv= 1.00D-05.
 RLE energy=        0.0215138025
 DE(Corr)=  0.35719855E-01 E(CORR)=     -839.88207004     Delta= 1.50D-02
 NORM(A)=   0.18697928D+01
 Iteration Nr. 294
 **********************
 DD1Dir will call FoFMem   1 times, MxPair=        10
 NAB=     0 NAA=    10 NBB=     0.
 A-vector RMS=  1.4121920D-03 Max=  4.2321137D-03 conv= 1.00D-05.
 RLE energy=        0.0251693297
 DE(Corr)=  0.21395738E-01 E(CORR)=     -839.89639415     Delta=-1.43D-02
 NORM(A)=   0.21096055D+01
 Iteration Nr. 295
 **********************
 DD1Dir will call FoFMem   1 times, MxPair=        10
 NAB=     0 NAA=    10 NBB=     0.
 A-vector RMS=  1.3560079D-03 Max=  3.8426025D-03 conv= 1.00D-05.
 RLE energy=        0.0259184355
 DE(Corr)=  0.25317136E-01 E(CORR)=     -839.89247276     Delta= 3.92D-03
 NORM(A)=   0.21605034D+01
 Iteration Nr. 296
 **********************
 DD1Dir will call FoFMem   1 times, MxPair=        10
 NAB=     0 NAA=    10 NBB=     0.
 A-vector RMS=  1.7621843D-03 Max=  5.5656031D-03 conv= 1.00D-05.
 RLE energy=        0.0784285837
 DE(Corr)=  0.26124868E-01 E(CORR)=     -839.89166502     Delta= 8.08D-04
 NORM(A)=   0.61585937D+01
 Iteration Nr. 297
 **********************
 DD1Dir will call FoFMem   1 times, MxPair=        10
 NAB=     0 NAA=    10 NBB=     0.
 A-vector RMS=  7.2713211D-02 Max=  1.9008245D-01 conv= 1.00D-05.
 RLE energy=        0.0248783294
 DE(Corr)=  0.87259936E-01 E(CORR)=     -839.83052996     Delta= 6.11D-02
 NORM(A)=   0.21157250D+01
 Iteration Nr. 298
 **********************
 DD1Dir will call FoFMem   1 times, MxPair=        10
 NAB=     0 NAA=    10 NBB=     0.
 A-vector RMS=  1.0898960D-03 Max=  3.4961458D-03 conv= 1.00D-05.
 RLE energy=        0.0219756248
 DE(Corr)=  0.25016650E-01 E(CORR)=     -839.89277324     Delta=-6.22D-02
 NORM(A)=   0.19576656D+01
 Iteration Nr. 299
 **********************
 DD1Dir will call FoFMem   1 times, MxPair=        10
 NAB=     0 NAA=    10 NBB=     0.
 A-vector RMS=  5.0143758D-04 Max=  2.0642012D-03 conv= 1.00D-05.
 RLE energy=        0.0232669237
 DE(Corr)=  0.21915898E-01 E(CORR)=     -839.89587399     Delta=-3.10D-03
 NORM(A)=   0.20129712D+01
 Iteration Nr. 300
 **********************
 DD1Dir will call FoFMem   1 times, MxPair=        10
 NAB=     0 NAA=    10 NBB=     0.
 A-vector RMS=  4.1074897D-04 Max=  8.8517457D-04 conv= 1.00D-05.
 RLE energy=        0.0236361098
 DE(Corr)=  0.23285470E-01 E(CORR)=     -839.89450442     Delta= 1.37D-03
 NORM(A)=   0.20282391D+01
 *************
 *MAX. CYCLES*
 *************
 Dominant configurations:
 ***********************
 Spin Case        I    J    A    B          Value
    AA           14        16           -0.136680D+00
    AA           13        15           -0.122007D+00
   AAAA          14   13   16   15       0.767397D+00
   AAAA          12   14   17   16      -0.461647D+00
   AAAA          12   14   19   16      -0.735175D+00
   AAAA          12   14   18   15       0.673874D+00
   AAAA          12   13   17   15       0.450729D+00
   AAAA          12   13   19   15       0.731417D+00
   AAAA          12   13   18   16      -0.686725D+00
 Largest amplitude= 7.67D-01
 Error termination via Lnk1e in /nopt/nrel/apps/gaussian/g16C_1/g16/l913.exe at Mon Mar 28 12:46:08 2022.
 Job cpu time:       0 days  0 hours  1 minutes  5.8 seconds.
 Elapsed time:       0 days  0 hours  0 minutes  2.2 seconds.
 File lengths (MBytes):  RWF=     13 Int=      0 D2E=      0 Chk=      1 Scr=      1
