 Entering Gaussian System, Link 0=g16
 Initial command:
 /nopt/nrel/apps/gaussian/g16C_1/g16/l1.exe "/lustre/eaglefs/scratch/user/qc/nah-dissc/nah-1-ccsd-1.9-631g/Gau-15361.inp" -scrdir="/lustre/eaglefs/scratch/user/qc/nah-dissc/nah-1-ccsd-1.9-631g/"
 Default is to use a total of  36 processors:
                               36 via shared-memory
                                1 via Linda
 Entering Link 1 = /nopt/nrel/apps/gaussian/g16C_1/g16/l1.exe PID=     15362.
  
 Copyright (c) 1988-2019, Gaussian, Inc.  All Rights Reserved.
  
 This is part of the Gaussian(R) 16 program.  It is based on
 the Gaussian(R) 09 system (copyright 2009, Gaussian, Inc.),
 the Gaussian(R) 03 system (copyright 2003, Gaussian, Inc.),
 the Gaussian(R) 98 system (copyright 1998, Gaussian, Inc.),
 the Gaussian(R) 94 system (copyright 1995, Gaussian, Inc.),
 the Gaussian 92(TM) system (copyright 1992, Gaussian, Inc.),
 the Gaussian 90(TM) system (copyright 1990, Gaussian, Inc.),
 the Gaussian 88(TM) system (copyright 1988, Gaussian, Inc.),
 the Gaussian 86(TM) system (copyright 1986, Carnegie Mellon
 University), and the Gaussian 82(TM) system (copyright 1983,
 Carnegie Mellon University). Gaussian is a federally registered
 trademark of Gaussian, Inc.
  
 This software contains proprietary and confidential information,
 including trade secrets, belonging to Gaussian, Inc.
  
 This software is provided under written license and may be
 used, copied, transmitted, or stored only in accord with that
 written license.
  
 The following legend is applicable only to US Government
 contracts under FAR:
  
                    RESTRICTED RIGHTS LEGEND
  
 Use, reproduction and disclosure by the US Government is
 subject to restrictions as set forth in subparagraphs (a)
 and (c) of the Commercial Computer Software - Restricted
 Rights clause in FAR 52.227-19.
  
 Gaussian, Inc.
 340 Quinnipiac St., Bldg. 40, Wallingford CT 06492
  
  
 ---------------------------------------------------------------
 Warning -- This program may not be used in any manner that
 competes with the business of Gaussian, Inc. or will provide
 assistance to any competitor of Gaussian, Inc.  The licensee
 of this program is prohibited from giving any competitor of
 Gaussian, Inc. access to this program.  By using this program,
 the user acknowledges that Gaussian, Inc. is engaged in the
 business of creating and licensing software in the field of
 computational chemistry and represents and warrants to the
 licensee that it is not a competitor of Gaussian, Inc. and that
 it will not use this program in any manner prohibited above.
 ---------------------------------------------------------------
  

 Cite this work as:
 Gaussian 16, Revision C.01,
 M. J. Frisch, G. W. Trucks, H. B. Schlegel, G. E. Scuseria, 
 M. A. Robb, J. R. Cheeseman, G. Scalmani, V. Barone, 
 G. A. Petersson, H. Nakatsuji, X. Li, M. Caricato, A. V. Marenich, 
 J. Bloino, B. G. Janesko, R. Gomperts, B. Mennucci, H. P. Hratchian, 
 J. V. Ortiz, A. F. Izmaylov, J. L. Sonnenberg, D. Williams-Young, 
 F. Ding, F. Lipparini, F. Egidi, J. Goings, B. Peng, A. Petrone, 
 T. Henderson, D. Ranasinghe, V. G. Zakrzewski, J. Gao, N. Rega, 
 G. Zheng, W. Liang, M. Hada, M. Ehara, K. Toyota, R. Fukuda, 
 J. Hasegawa, M. Ishida, T. Nakajima, Y. Honda, O. Kitao, H. Nakai, 
 T. Vreven, K. Throssell, J. A. Montgomery, Jr., J. E. Peralta, 
 F. Ogliaro, M. J. Bearpark, J. J. Heyd, E. N. Brothers, K. N. Kudin, 
 V. N. Staroverov, T. A. Keith, R. Kobayashi, J. Normand, 
 K. Raghavachari, A. P. Rendell, J. C. Burant, S. S. Iyengar, 
 J. Tomasi, M. Cossi, J. M. Millam, M. Klene, C. Adamo, R. Cammi, 
 J. W. Ochterski, R. L. Martin, K. Morokuma, O. Farkas, 
 J. B. Foresman, and D. J. Fox, Gaussian, Inc., Wallingford CT, 2019.
 
 ******************************************
 Gaussian 16:  ES64L-G16RevC.01  3-Jul-2019
                28-Mar-2022 
 ******************************************
 %chk=molecule
 Default route: CacheSize=180224 MaxDisk=256GB
 ----------------------------------------------------------------------
 #P CCSD(MaxCyc=200,SaveAmplitudes,ReadAmplitudes)/GEN sp pop=AllOrbita
 ls iop(3/33=1,3/36=-1)
 ----------------------------------------------------------------------
 1/4=180224,38=1,172=1/1;
 2/4=180224,12=2,17=6,18=5,40=1/2;
 3/4=180224,5=7,11=9,25=1,30=1,33=1,36=-1/1,2,3;
 4/4=180224/1;
 5/4=180224,5=2,38=5/2;
 8/4=180224,6=4,9=120000,10=1,24=1/1,4;
 9/4=180224,5=7,6=200,77=1/13;
 6/4=180224,7=2,8=2,9=2,10=2,96=-1/1;
 99/4=180224,5=1,9=1/99;
 Leave Link    1 at Mon Mar 28 14:20:11 2022, MaxMem=           0 cpu:               3.0 elap:               0.1
 (Enter /nopt/nrel/apps/gaussian/g16C_1/g16/l101.exe)
 ----
 test
 ----
 Symbolic Z-matrix:
 Charge =  0 Multiplicity = 1
 H                     0.        0.        0. 
 Na                    0.        0.        1.9 
 
 ITRead=  0  0
 MicOpt= -1 -1
 NAtoms=      2 NQM=        2 NQMF=       0 NMMI=      0 NMMIF=      0
                NMic=       0 NMicF=      0.
                    Isotopes and Nuclear Properties:
 (Nuclear quadrupole moments (NQMom) in fm**2, nuclear magnetic moments (NMagM)
  in nuclear magnetons)

  Atom         1           2
 IAtWgt=           1          23
 AtmWgt=   1.0078250  22.9897697
 NucSpn=           1           3
 AtZEff=  -0.0000000  -0.0000000
 NQMom=    0.0000000  10.4000000
 NMagM=    2.7928460   2.2175200
 AtZNuc=   1.0000000  11.0000000
 Leave Link  101 at Mon Mar 28 14:20:11 2022, MaxMem=  9663676416 cpu:               3.0 elap:               0.1
 (Enter /nopt/nrel/apps/gaussian/g16C_1/g16/l202.exe)
                          Input orientation:                          
 ---------------------------------------------------------------------
 Center     Atomic      Atomic             Coordinates (Angstroms)
 Number     Number       Type             X           Y           Z
 ---------------------------------------------------------------------
      1          1           0        0.000000    0.000000    0.000000
      2         11           0        0.000000    0.000000    1.900000
 ---------------------------------------------------------------------
 Stoichiometry    HNa
 Framework group  C*V[C*(HNa)]
 Deg. of freedom     1
 Full point group                 C*V     NOp   4
 Largest Abelian subgroup         C2V     NOp   4
 Largest concise Abelian subgroup C1      NOp   1
                         Standard orientation:                         
 ---------------------------------------------------------------------
 Center     Atomic      Atomic             Coordinates (Angstroms)
 Number     Number       Type             X           Y           Z
 ---------------------------------------------------------------------
      1          1           0        0.000000    0.000000   -1.741667
      2         11           0        0.000000    0.000000    0.158333
 ---------------------------------------------------------------------
 Rotational constants (GHZ):           0.0000000         144.9966434         144.9966434
 Leave Link  202 at Mon Mar 28 14:20:11 2022, MaxMem=  9663676416 cpu:               0.9 elap:               0.0
 (Enter /nopt/nrel/apps/gaussian/g16C_1/g16/l301.exe)
 General basis read from cards:  (5D, 7F)
                         Coordinates in L301:                         
 ---------------------------------------------------------------------
 Center     Atomic      Atomic             Coordinates (Angstroms)
 Number     Number       Type             X           Y           Z
 ---------------------------------------------------------------------
      1          1           0        0.000000    0.000000   -1.741667
      2         11           0        0.000000    0.000000    0.158333
 ---------------------------------------------------------------------
 Centers:       1
 STO-3G
 ****
 Centers:       2
 6-31G
 ****
 FixB: optimizing general contractions.
 Ernie: Thresh=  0.10000D-02 Tol=  0.10000D-05 Strict=F.
 IA=     1 ShT= 0 ShC= 0 NL=   1 NS=   0.
 IA=     1 L=0 SC=0 ISt=    0 NBk=    0 NP=    0 IndPr=    0.
 IA=     2 ShT= 0 ShC= 0 NL=   1 NS=   0.
 IA=     2 L=0 SC=0 ISt=    0 NBk=    0 NP=    0 IndPr=    0.
 IA=     2 ShT= 1 ShC= 0 NL=   3 NS=   1.
 IA=     2 L=1 SC=0 ISt=    1 NBk=    2 NP=    9 IndPr=    0.
 DoElim1:  L=1 select primitive    1 from    2 using    1 C=-3.54D-03
 DoElim2:  L=1 select primitive    9 from    1 using    2 C= 1.23D+00
 DoElim1:  L=1 select primitive    1 from    2 using    1 C= 5.00D-03
 DoElim2:  L=1 select primitive    8 from    1 using    2 C= 9.50D-01
 Delete L=1 primitive    7 from    2 C=  0.00D+00.
 Delete L=1 primitive    5 from    2 C=  0.00D+00.
 Delete L=1 primitive    4 from    2 C=  0.00D+00.
 Delete L=1 primitive    3 from    2 C=  0.00D+00.
 Delete L=1 primitive    2 from    2 C=  0.00D+00.
 Delete L=1 primitive    1 from    2 C=  0.00D+00.
 Delete L=1 primitive    9 from    1 C=  0.00D+00.
 Delete L=1 primitive    8 from    1 C=  0.00D+00.
 Delete L=1 primitive    6 from    1 C=  0.00D+00.
 IA=     2 L=1 SC=0 ISt=    0 NBk=    0 NP=    0 IndPr=    9.
 LdAtmC:  AtmChg=     1.000000    11.000000
 AtZEff=     -1.0000000    -10.0400000
 NEqShl: 
              1            2            3            4
     1            1            1            1            1
     2            2            2            2            2
     3            3            3            3            3
     4            4            4            4            4
     5            5            5            5            5
 NEqBas: 
              1            2            3            4
     1            1            1            1            1
     2            2            2            2            2
     3            3            3            3            3
     4            4           -4           -4            4
     5            5           -5            5           -5
     6            6            6            6            6
     7            7            7            7            7
     8            8           -8           -8            8
     9            9           -9            9           -9
    10           10           10           10           10
    11           11           11           11           11
    12           12          -12          -12           12
    13           13          -13           13          -13
    14           14           14           14           14
 There are     8 symmetry adapted cartesian basis functions of A1  symmetry.
   1         1   1   1   1
   2         2   2   2   2
   3         3   3   3   3
   4         6   6   6   6
   5         7   7   7   7
   6        10  10  10  10
   7        11  11  11  11
   8        14  14  14  14
 There are     0 symmetry adapted cartesian basis functions of A2  symmetry.
 There are     3 symmetry adapted cartesian basis functions of B1  symmetry.
   9         4   4   4   4
  10         8   8   8   8
  11        12  12  12  12
 There are     3 symmetry adapted cartesian basis functions of B2  symmetry.
  12         5   5   5   5
  13         9   9   9   9
  14        13  13  13  13
 Order= 1 2 4 3
 Reordered character table:
              1            2            3            4            5
     1            1            1            1            1            1
     2            2            1            1           -1           -1
     3            4            1           -1           -1            1
     4            3            1           -1            1           -1
 NEqShl: 
              1            2            3            4
     1            1            1            1            1
     2            2            2            2            2
     3            3            3            3            3
     4            4            4            4            4
     5            5            5            5            5
 NEqBas: 
              1            2            3            4
     1            1            1            1            1
     2            2            2            2            2
     3            3            3            3            3
     4            4           -4           -4            4
     5            5           -5            5           -5
     6            6            6            6            6
     7            7            7            7            7
     8            8           -8           -8            8
     9            9           -9            9           -9
    10           10           10           10           10
    11           11           11           11           11
    12           12          -12          -12           12
    13           13          -13           13          -13
    14           14           14           14           14
 There are     8 symmetry adapted basis functions of A1  symmetry.
   1         1   1   1   1
   2         2   2   2   2
   3         3   3   3   3
   4         6   6   6   6
   5         7   7   7   7
   6        10  10  10  10
   7        11  11  11  11
   8        14  14  14  14
 There are     0 symmetry adapted basis functions of A2  symmetry.
 There are     3 symmetry adapted basis functions of B1  symmetry.
   9         4   4   4   4
  10         8   8   8   8
  11        12  12  12  12
 There are     3 symmetry adapted basis functions of B2  symmetry.
  12         5   5   5   5
  13         9   9   9   9
  14        13  13  13  13
 Order= 1 2 4 3
 Reordered character table:
              1            2            3            4            5
     1            1            1            1            1            1
     2            2            1            1           -1           -1
     3            4            1           -1           -1            1
     4            3            1           -1            1           -1
    14 basis functions,    49 primitive gaussians,    14 cartesian basis functions
     6 alpha electrons        6 beta electrons
       nuclear repulsion energy         3.0636575369 Hartrees.
 IS=     1 IAt=     1 ISR=     1 T=0 IP=      1 IndIP=      1 IndIPD=      0 C=  2.769344D-01  0.000000D+00                             NZ=T
 IS=     1 IAt=     1 ISR=     1 T=0 IP=      2 IndIP=      2 IndIPD=      1 C=  2.678389D-01  0.000000D+00                             NZ=T
 IS=     1 IAt=     1 ISR=     1 T=0 IP=      3 IndIP=      3 IndIPD=      2 C=  8.347367D-02  0.000000D+00                             NZ=T
 IS=     2 IAt=     2 ISR=     1 T=0 IP=      1 IndIP=      4 IndIPD=      0 C=  1.380276D+00  0.000000D+00                             NZ=T
 IS=     2 IAt=     2 ISR=     1 T=0 IP=      2 IndIP=      5 IndIPD=      1 C=  2.543440D+00  0.000000D+00                             NZ=T
 IS=     2 IAt=     2 ISR=     1 T=0 IP=      3 IndIP=      6 IndIPD=      2 C=  4.120502D+00  0.000000D+00                             NZ=T
 IS=     2 IAt=     2 ISR=     1 T=0 IP=      4 IndIP=      7 IndIPD=      3 C=  5.464941D+00  0.000000D+00                             NZ=T
 IS=     2 IAt=     2 ISR=     1 T=0 IP=      5 IndIP=      8 IndIPD=      4 C=  4.476262D+00  0.000000D+00                             NZ=T
 IS=     2 IAt=     2 ISR=     1 T=0 IP=      6 IndIP=      9 IndIPD=      5 C=  1.255723D+00  0.000000D+00                             NZ=T
 IS=     3 IAt=     2 ISR=     2 T=1 IP=      1 IndIP=     10 IndIPD=      0 C= -1.087231D-01  3.772614D+00                             NZ=T
 IS=     3 IAt=     2 ISR=     2 T=1 IP=      2 IndIP=     11 IndIPD=      1 C= -4.564910D-01  4.399752D+00                             NZ=T
 IS=     3 IAt=     2 ISR=     2 T=1 IP=      3 IndIP=     12 IndIPD=      2 C= -4.778739D-01  4.156503D+00                             NZ=T
 IS=     3 IAt=     2 ISR=     2 T=1 IP=      4 IndIP=     13 IndIPD=      3 C=  3.708017D-01  2.647056D+00                             NZ=T
 IS=     3 IAt=     2 ISR=     2 T=1 IP=      5 IndIP=     14 IndIPD=      4 C=  5.874076D-01  9.643141D-01                             NZ=T
 IS=     3 IAt=     2 ISR=     2 T=1 IP=      6 IndIP=     15 IndIPD=      5 C=  1.231036D-01  1.501277D-01                             NZ=T
 IS=     4 IAt=     2 ISR=     3 T=1 IP=      1 IndIP=     16 IndIPD=      0 C= -1.049885D-01 -1.372752D-02                             NZ=T
 IS=     4 IAt=     2 ISR=     3 T=1 IP=      2 IndIP=     17 IndIPD=      1 C= -1.469212D-02  6.158186D-02                             NZ=T
 IS=     4 IAt=     2 ISR=     3 T=1 IP=      3 IndIP=     18 IndIPD=      2 C=  1.153011D-01  2.888614D-03                             NZ=T
 IS=     5 IAt=     2 ISR=     4 T=1 IP=      1 IndIP=     19 IndIPD=      0 C=  4.608593D-02  1.484923D-02                             NZ=T
 IExCor=    0 DFT=F Ex=HF Corr=None ExCW=0 ScaHFX=  1.000000
 ScaDFX=  1.000000  1.000000  1.000000  1.000000 ScalE2=  1.000000  1.000000
 IRadAn=      5 IRanWt=     -1 IRanGd=            0 ICorTp=0 IEmpDi=  4
 NAtoms=    2 NActive=    2 NUniq=    2 SFac= 1.00D+00 NAtFMM=   60 NAOKFM=F Big=F
 Integral buffers will be    131072 words long.
 Raffenetti 1 integral format.
 Two-electron integral symmetry is turned on.
 Leave Link  301 at Mon Mar 28 14:20:11 2022, MaxMem=  9663676416 cpu:               2.1 elap:               0.1
 (Enter /nopt/nrel/apps/gaussian/g16C_1/g16/l302.exe)
 NPDir=0 NMtPBC=     1 NCelOv=     1 NCel=       1 NClECP=     1 NCelD=      1
         NCelK=      1 NCelE2=     1 NClLst=     1 CellRange=     0.0.
 One-electron integrals computed using PRISM.
 One-electron integral symmetry used in STVInt
 Entering OneElI...
 Calculate overlap and kinetic energy integrals
    NBasis =  14  MinDer = 0  MaxDer = 0
 Requested accuracy = 0.1000D-12
 Symmetry will be used
 PrmmSu-InSpLW:  IPartL=    0 NPrtUS=   36 NPrtUL=    1 DoSpLW=F IThBeg=    0 IThEnd=   35 NThAct=   36.
 PrSmSu:  IncTry=   512 NBBP=             15 NTPThr=   100 NPartT=   36 Incr=           1 LDynOK=F GPUOK=F.
 PrsmSu:  NPrtUS=  36 ThrOK=T IAlg=1 LenDen=           0 ISkipM=0 DoSpLW=F IThBeg=    0 IThEnd=   35.
 Prism:   IPart=     0 DynPar=F LinDyn=F Incr=           1.
 PRISM was handed   268432468 working-precision words and    15 shell-pairs
 PRISM was handed   268432468 working-precision words and    15 shell-pairs
 PRISM was handed   268432468 working-precision words and    15 shell-pairs
 PRISM was handed   268432468 working-precision words and    15 shell-pairs
 PRISM was handed   268432468 working-precision words and    15 shell-pairs
 PRISM was handed   268432468 working-precision words and    15 shell-pairs
 PRISM was handed   268432468 working-precision words and    15 shell-pairs
 PRISM was handed   268432468 working-precision words and    15 shell-pairs
 IPart=  7 NShTot=           0 NBatch=           0 AvBLen=         0.0
 IPart=  2 NShTot=           0 NBatch=           0 AvBLen=         0.0
 IPart= 13 NShTot=           0 NBatch=           0 AvBLen=         0.0
 IPart= 20 NShTot=           0 NBatch=           0 AvBLen=         0.0
 IPart= 32 NShTot=           0 NBatch=           0 AvBLen=         0.0
 IPart= 11 NShTot=           0 NBatch=           0 AvBLen=         0.0
 IPart= 23 NShTot=           0 NBatch=           0 AvBLen=         0.0
 PRISM was handed   268432468 working-precision words and    15 shell-pairs
 PRISM was handed   268432468 working-precision words and    15 shell-pairs
 IPart=  0 NShTot=          14 NBatch=          14 AvBLen=         1.0
 IPart= 28 NShTot=           0 NBatch=           0 AvBLen=         0.0
 IPart= 26 NShTot=           0 NBatch=           0 AvBLen=         0.0
 PRISM was handed   268432468 working-precision words and    15 shell-pairs
 PRISM was handed   268432468 working-precision words and    15 shell-pairs
 PRISM was handed   268432468 working-precision words and    15 shell-pairs
 PRISM was handed   268432468 working-precision words and    15 shell-pairs
 PRISM was handed   268432468 working-precision words and    15 shell-pairs
 PRISM was handed   268432468 working-precision words and    15 shell-pairs
 IPart= 19 NShTot=           0 NBatch=           0 AvBLen=         0.0
 IPart= 22 NShTot=           0 NBatch=           0 AvBLen=         0.0
 IPart= 12 NShTot=           0 NBatch=           0 AvBLen=         0.0
 IPart= 14 NShTot=           0 NBatch=           0 AvBLen=         0.0
 PRISM was handed   268432468 working-precision words and    15 shell-pairs
 PRISM was handed   268432468 working-precision words and    15 shell-pairs
 IPart= 29 NShTot=           0 NBatch=           0 AvBLen=         0.0
 IPart= 18 NShTot=           0 NBatch=           0 AvBLen=         0.0
 PRISM was handed   268432468 working-precision words and    15 shell-pairs
 PRISM was handed   268432468 working-precision words and    15 shell-pairs
 IPart=  8 NShTot=           0 NBatch=           0 AvBLen=         0.0
 PRISM was handed   268432468 working-precision words and    15 shell-pairs
 PRISM was handed   268432468 working-precision words and    15 shell-pairs
 PRISM was handed   268432468 working-precision words and    15 shell-pairs
 IPart= 10 NShTot=           0 NBatch=           0 AvBLen=         0.0
 IPart= 17 NShTot=           0 NBatch=           0 AvBLen=         0.0
 IPart= 15 NShTot=           0 NBatch=           0 AvBLen=         0.0
 PRISM was handed   268432468 working-precision words and    15 shell-pairs
 PRISM was handed   268432468 working-precision words and    15 shell-pairs
 PRISM was handed   268432468 working-precision words and    15 shell-pairs
 PRISM was handed   268432468 working-precision words and    15 shell-pairs
 PRISM was handed   268432468 working-precision words and    15 shell-pairs
 PRISM was handed   268432468 working-precision words and    15 shell-pairs
 PRISM was handed   268432468 working-precision words and    15 shell-pairs
 IPart= 35 NShTot=           0 NBatch=           0 AvBLen=         0.0
 IPart= 27 NShTot=           0 NBatch=           0 AvBLen=         0.0
 PRISM was handed   268432468 working-precision words and    15 shell-pairs
 PRISM was handed   268432468 working-precision words and    15 shell-pairs
 PRISM was handed   268432468 working-precision words and    15 shell-pairs
 PRISM was handed   268432468 working-precision words and    15 shell-pairs
 PRISM was handed   268432468 working-precision words and    15 shell-pairs
 PRISM was handed   268432468 working-precision words and    15 shell-pairs
 IPart=  5 NShTot=           0 NBatch=           0 AvBLen=         0.0
 IPart= 16 NShTot=           0 NBatch=           0 AvBLen=         0.0
 IPart= 21 NShTot=           0 NBatch=           0 AvBLen=         0.0
 IPart= 34 NShTot=           0 NBatch=           0 AvBLen=         0.0
 IPart= 31 NShTot=           0 NBatch=           0 AvBLen=         0.0
 IPart= 25 NShTot=           0 NBatch=           0 AvBLen=         0.0
 IPart=  4 NShTot=           0 NBatch=           0 AvBLen=         0.0
 IPart= 24 NShTot=           0 NBatch=           0 AvBLen=         0.0
 IPart=  3 NShTot=           0 NBatch=           0 AvBLen=         0.0
 IPart=  1 NShTot=           1 NBatch=           1 AvBLen=         1.0
 IPart=  9 NShTot=           0 NBatch=           0 AvBLen=         0.0
 IPart= 30 NShTot=           0 NBatch=           0 AvBLen=         0.0
 IPart= 33 NShTot=           0 NBatch=           0 AvBLen=         0.0
 IPart=  6 NShTot=           0 NBatch=           0 AvBLen=         0.0
 PrSmSu:  NxtVal=             37.
 *** Overlap *** 
                1             2             3             4             5 
      1  0.100000D+01
      2  0.397112D-02  0.100000D+01
      3  0.515386D-01  0.230835D+00  0.100000D+01
      4  0.000000D+00  0.000000D+00  0.000000D+00  0.100000D+01
      5  0.000000D+00  0.000000D+00  0.000000D+00  0.000000D+00  0.100000D+01
      6 -0.586179D-01  0.000000D+00  0.000000D+00  0.000000D+00  0.000000D+00
      7  0.340264D+00 -0.127644D-04  0.161245D+00  0.000000D+00  0.000000D+00
      8  0.000000D+00  0.000000D+00  0.000000D+00  0.186871D+00  0.000000D+00
      9  0.000000D+00  0.000000D+00  0.000000D+00  0.000000D+00  0.186871D+00
     10 -0.490456D+00  0.000000D+00  0.000000D+00  0.000000D+00  0.000000D+00
     11  0.289517D+00  0.189170D-01  0.190082D+00  0.000000D+00  0.000000D+00
     12  0.000000D+00  0.000000D+00  0.000000D+00  0.574619D-01  0.000000D+00
     13  0.000000D+00  0.000000D+00  0.000000D+00  0.000000D+00  0.574619D-01
     14 -0.301739D+00  0.000000D+00  0.000000D+00  0.000000D+00  0.000000D+00
                6             7             8             9            10 
      6  0.100000D+01
      7  0.000000D+00  0.100000D+01
      8  0.000000D+00  0.000000D+00  0.100000D+01
      9  0.000000D+00  0.000000D+00  0.000000D+00  0.100000D+01
     10  0.186871D+00  0.000000D+00  0.000000D+00  0.000000D+00  0.100000D+01
     11  0.000000D+00  0.876272D+00  0.000000D+00  0.000000D+00  0.000000D+00
     12  0.000000D+00  0.000000D+00  0.672925D+00  0.000000D+00  0.000000D+00
     13  0.000000D+00  0.000000D+00  0.000000D+00  0.672925D+00  0.000000D+00
     14  0.574619D-01  0.000000D+00  0.000000D+00  0.000000D+00  0.672925D+00
               11            12            13            14 
     11  0.100000D+01
     12  0.000000D+00  0.100000D+01
     13  0.000000D+00  0.000000D+00  0.100000D+01
     14  0.000000D+00  0.000000D+00  0.000000D+00  0.100000D+01
 *** Kinetic Energy *** 
                1             2             3             4             5 
      1  0.760032D+00
      2 -0.119825D-02  0.565455D+02
      3 -0.137722D-01 -0.266647D+01  0.196759D+01
      4  0.000000D+00  0.000000D+00  0.000000D+00  0.588848D+01
      5  0.000000D+00  0.000000D+00  0.000000D+00  0.000000D+00  0.588848D+01
      6  0.589606D-02  0.000000D+00  0.000000D+00  0.000000D+00  0.000000D+00
      7  0.360276D-01 -0.516638D-01 -0.152029D+00  0.000000D+00  0.000000D+00
      8  0.000000D+00  0.000000D+00  0.000000D+00  0.478086D-01  0.000000D+00
      9  0.000000D+00  0.000000D+00  0.000000D+00  0.000000D+00  0.478086D-01
     10 -0.104699D+00  0.000000D+00  0.000000D+00  0.000000D+00  0.000000D+00
     11  0.162167D-01  0.147038D-02  0.142898D-01  0.000000D+00  0.000000D+00
     12  0.000000D+00  0.000000D+00  0.000000D+00  0.716353D-02  0.000000D+00
     13  0.000000D+00  0.000000D+00  0.000000D+00  0.000000D+00  0.716353D-02
     14 -0.310816D-01  0.000000D+00  0.000000D+00  0.000000D+00  0.000000D+00
                6             7             8             9            10 
      6  0.588848D+01
      7  0.000000D+00  0.116833D+00
      8  0.000000D+00  0.000000D+00  0.205703D+00
      9  0.000000D+00  0.000000D+00  0.000000D+00  0.205703D+00
     10  0.478086D-01  0.000000D+00  0.000000D+00  0.000000D+00  0.205703D+00
     11  0.000000D+00  0.474660D-01  0.000000D+00  0.000000D+00  0.000000D+00
     12  0.000000D+00  0.000000D+00  0.664432D-01  0.000000D+00  0.000000D+00
     13  0.000000D+00  0.000000D+00  0.000000D+00  0.664432D-01  0.000000D+00
     14  0.716353D-02  0.000000D+00  0.000000D+00  0.000000D+00  0.664432D-01
               11            12            13            14 
     11  0.389316D-01
     12  0.000000D+00  0.648860D-01
     13  0.000000D+00  0.000000D+00  0.648860D-01
     14  0.000000D+00  0.000000D+00  0.000000D+00  0.648860D-01
 Entering OneElI...
 Calculate potential energy integrals
    NBasis =  14  MinDer = 0  MaxDer = 0
 Requested accuracy = 0.1000D-12
 Symmetry will be used
 PrmmSu-InSpLW:  IPartL=    0 NPrtUS=   36 NPrtUL=    1 DoSpLW=F IThBeg=    0 IThEnd=   35 NThAct=   36.
 PrSmSu:  IncTry=   512 NBBP=             30 NTPThr=   100 NPartT=   36 Incr=           1 LDynOK=F GPUOK=F.
 PrsmSu:  NPrtUS=  36 ThrOK=T IAlg=1 LenDen=           0 ISkipM=0 DoSpLW=F IThBeg=    0 IThEnd=   35.
 Prism:   IPart=     0 DynPar=F LinDyn=F Incr=           1.
 PRISM was handed   268432635 working-precision words and    15 shell-pairs
 PRISM was handed   268432635 working-precision words and    15 shell-pairs
 PRISM was handed   268432635 working-precision words and    15 shell-pairs
 PRISM was handed   268432635 working-precision words and    15 shell-pairs
 PRISM was handed   268432635 working-precision words and    15 shell-pairs
 PRISM was handed   268432635 working-precision words and    15 shell-pairs
 PRISM was handed   268432635 working-precision words and    15 shell-pairs
 PRISM was handed   268432635 working-precision words and    15 shell-pairs
 PRISM was handed   268432635 working-precision words and    15 shell-pairs
 PRISM was handed   268432635 working-precision words and    15 shell-pairs
 PRISM was handed   268432635 working-precision words and    15 shell-pairs
 PRISM was handed   268432635 working-precision words and    15 shell-pairs
 PRISM was handed   268432635 working-precision words and    15 shell-pairs
 PRISM was handed   268432635 working-precision words and    15 shell-pairs
 PRISM was handed   268432635 working-precision words and    15 shell-pairs
 PRISM was handed   268432635 working-precision words and    15 shell-pairs
 PRISM was handed   268432635 working-precision words and    15 shell-pairs
 PRISM was handed   268432635 working-precision words and    15 shell-pairs
 PRISM was handed   268432635 working-precision words and    15 shell-pairs
 PRISM was handed   268432635 working-precision words and    15 shell-pairs
 PRISM was handed   268432635 working-precision words and    15 shell-pairs
 PRISM was handed   268432635 working-precision words and    15 shell-pairs
 PRISM was handed   268432635 working-precision words and    15 shell-pairs
 PRISM was handed   268432635 working-precision words and    15 shell-pairs
 PRISM was handed   268432635 working-precision words and    15 shell-pairs
 PRISM was handed   268432635 working-precision words and    15 shell-pairs
 PRISM was handed   268432635 working-precision words and    15 shell-pairs
 PRISM was handed   268432635 working-precision words and    15 shell-pairs
 PRISM was handed   268432635 working-precision words and    15 shell-pairs
 PRISM was handed   268432635 working-precision words and    15 shell-pairs
 PRISM was handed   268432635 working-precision words and    15 shell-pairs
 PRISM was handed   268432635 working-precision words and    15 shell-pairs
 PRISM was handed   268432635 working-precision words and    15 shell-pairs
 PRISM was handed   268432635 working-precision words and    15 shell-pairs
 PRISM was handed   268432635 working-precision words and    15 shell-pairs
 PRISM was handed   268432635 working-precision words and    15 shell-pairs
 IPart= 33 NShTot=           0 NBatch=           0 AvBLen=         0.0
 IPart=  4 NShTot=           0 NBatch=           0 AvBLen=         0.0
 IPart= 15 NShTot=           0 NBatch=           0 AvBLen=         0.0
 IPart= 11 NShTot=           0 NBatch=           0 AvBLen=         0.0
 IPart= 27 NShTot=           0 NBatch=           0 AvBLen=         0.0
 IPart= 14 NShTot=           0 NBatch=           0 AvBLen=         0.0
 IPart= 30 NShTot=           0 NBatch=           0 AvBLen=         0.0
 IPart= 23 NShTot=           0 NBatch=           0 AvBLen=         0.0
 IPart= 32 NShTot=           0 NBatch=           0 AvBLen=         0.0
 IPart=  2 NShTot=           0 NBatch=           0 AvBLen=         0.0
 IPart= 17 NShTot=           0 NBatch=           0 AvBLen=         0.0
 IPart= 20 NShTot=           0 NBatch=           0 AvBLen=         0.0
 IPart=  8 NShTot=           0 NBatch=           0 AvBLen=         0.0
 IPart= 18 NShTot=           0 NBatch=           0 AvBLen=         0.0
 IPart=  7 NShTot=           0 NBatch=           0 AvBLen=         0.0
 IPart=  9 NShTot=           0 NBatch=           0 AvBLen=         0.0
 IPart= 13 NShTot=           0 NBatch=           0 AvBLen=         0.0
 IPart= 16 NShTot=           0 NBatch=           0 AvBLen=         0.0
 IPart= 10 NShTot=           0 NBatch=           0 AvBLen=         0.0
 IPart= 34 NShTot=           0 NBatch=           0 AvBLen=         0.0
 IPart=  5 NShTot=           0 NBatch=           0 AvBLen=         0.0
 IPart= 29 NShTot=           0 NBatch=           0 AvBLen=         0.0
 IPart= 35 NShTot=           0 NBatch=           0 AvBLen=         0.0
 IPart= 28 NShTot=           0 NBatch=           0 AvBLen=         0.0
 IPart= 24 NShTot=           0 NBatch=           0 AvBLen=         0.0
 IPart= 19 NShTot=           0 NBatch=           0 AvBLen=         0.0
 IPart= 12 NShTot=           0 NBatch=           0 AvBLen=         0.0
 IPart=  3 NShTot=           0 NBatch=           0 AvBLen=         0.0
 IPart= 31 NShTot=           0 NBatch=           0 AvBLen=         0.0
 IPart= 26 NShTot=           0 NBatch=           0 AvBLen=         0.0
 IPart=  1 NShTot=           0 NBatch=           0 AvBLen=         0.0
 IPart= 22 NShTot=           0 NBatch=           0 AvBLen=         0.0
 IPart= 25 NShTot=           0 NBatch=           0 AvBLen=         0.0
 IPart= 21 NShTot=           0 NBatch=           0 AvBLen=         0.0
 IPart=  6 NShTot=           0 NBatch=           0 AvBLen=         0.0
 IPart=  0 NShTot=          30 NBatch=          15 AvBLen=         2.0
 PrSmSu:  NxtVal=             37.
 ***** Potential Energy ***** 
                1             2             3             4             5 
      1  0.428834D+01
      2  0.231844D+00  0.117239D+03
      3  0.566256D+00  0.106710D+02  0.181047D+02
      4  0.000000D+00  0.000000D+00  0.000000D+00  0.189324D+02
      5  0.000000D+00  0.000000D+00  0.000000D+00  0.000000D+00  0.189324D+02
      6 -0.455941D+00 -0.356681D-02 -0.346249D-01  0.000000D+00  0.000000D+00
      7  0.141122D+01 -0.498352D-01  0.133257D+01  0.000000D+00  0.000000D+00
      8  0.000000D+00  0.000000D+00  0.000000D+00  0.156400D+01  0.000000D+00
      9  0.000000D+00  0.000000D+00  0.000000D+00  0.000000D+00  0.156400D+01
     10 -0.196312D+01 -0.545615D-04 -0.101336D-01  0.000000D+00  0.000000D+00
     11  0.114705D+01  0.111107D+01  0.230007D+01  0.000000D+00  0.000000D+00
     12  0.000000D+00  0.000000D+00  0.000000D+00  0.464699D+00  0.000000D+00
     13  0.000000D+00  0.000000D+00  0.000000D+00  0.000000D+00  0.464699D+00
     14 -0.105731D+01 -0.158106D-04 -0.314501D-02  0.000000D+00  0.000000D+00
                6             7             8             9            10 
      6  0.189429D+02
      7 -0.163165D-01  0.385516D+01
      8  0.000000D+00  0.000000D+00  0.354105D+01
      9  0.000000D+00  0.000000D+00  0.000000D+00  0.354105D+01
     10  0.157222D+01 -0.112960D+00  0.000000D+00  0.000000D+00  0.363748D+01
     11 -0.137868D-01  0.311492D+01  0.000000D+00  0.000000D+00 -0.933998D-01
     12  0.000000D+00  0.000000D+00  0.196069D+01  0.000000D+00  0.000000D+00
     13  0.000000D+00  0.000000D+00  0.000000D+00  0.196069D+01  0.000000D+00
     14  0.467458D+00 -0.629462D-01  0.000000D+00  0.000000D+00  0.201491D+01
               11            12            13            14 
     11  0.303756D+01
     12  0.000000D+00  0.203666D+01
     13  0.000000D+00  0.000000D+00  0.203666D+01
     14 -0.673987D-01  0.000000D+00  0.000000D+00  0.207978D+01
 ****** Core Hamiltonian ****** 
                1             2             3             4             5 
      1 -0.352831D+01
      2 -0.233043D+00 -0.606937D+02
      3 -0.580028D+00 -0.133375D+02 -0.161371D+02
      4  0.000000D+00  0.000000D+00  0.000000D+00 -0.130439D+02
      5  0.000000D+00  0.000000D+00  0.000000D+00  0.000000D+00 -0.130439D+02
      6  0.461837D+00  0.356681D-02  0.346249D-01  0.000000D+00  0.000000D+00
      7 -0.137519D+01 -0.182862D-02 -0.148460D+01  0.000000D+00  0.000000D+00
      8  0.000000D+00  0.000000D+00  0.000000D+00 -0.151620D+01  0.000000D+00
      9  0.000000D+00  0.000000D+00  0.000000D+00  0.000000D+00 -0.151620D+01
     10  0.185842D+01  0.545615D-04  0.101336D-01  0.000000D+00  0.000000D+00
     11 -0.113083D+01 -0.110960D+01 -0.228578D+01  0.000000D+00  0.000000D+00
     12  0.000000D+00  0.000000D+00  0.000000D+00 -0.457535D+00  0.000000D+00
     13  0.000000D+00  0.000000D+00  0.000000D+00  0.000000D+00 -0.457535D+00
     14  0.102623D+01  0.158106D-04  0.314501D-02  0.000000D+00  0.000000D+00
                6             7             8             9            10 
      6 -0.130545D+02
      7  0.163165D-01 -0.373833D+01
      8  0.000000D+00  0.000000D+00 -0.333535D+01
      9  0.000000D+00  0.000000D+00  0.000000D+00 -0.333535D+01
     10 -0.152441D+01  0.112960D+00  0.000000D+00  0.000000D+00 -0.343178D+01
     11  0.137868D-01 -0.306745D+01  0.000000D+00  0.000000D+00  0.933998D-01
     12  0.000000D+00  0.000000D+00 -0.189425D+01  0.000000D+00  0.000000D+00
     13  0.000000D+00  0.000000D+00  0.000000D+00 -0.189425D+01  0.000000D+00
     14 -0.460295D+00  0.629462D-01  0.000000D+00  0.000000D+00 -0.194847D+01
               11            12            13            14 
     11 -0.299863D+01
     12  0.000000D+00 -0.197177D+01
     13  0.000000D+00  0.000000D+00 -0.197177D+01
     14  0.673987D-01  0.000000D+00  0.000000D+00 -0.201489D+01
 SVDSVc IOpt=   1 NormSV=T IR=1
 SVDSVc V= 2.25D+00 1.84D+00 1.19D+00 9.76D-01 7.48D-01 6.08D-01 2.69D-01 1.20D-01
 SVDSVc IOpt=   1 NormSV=T IR=3
 SVDSVc V= 1.72D+00 9.71D-01 3.14D-01
 SVDSVc IOpt=   1 NormSV=T IR=4
 SVDSVc V= 1.72D+00 9.71D-01 3.14D-01
 TstOVc:  Largest diagonal error= 3.11D-15 IB=1 I=    8.
 TstOVc:  Largest same sym error= 7.79D-16 IB=1 I=    8 J=    5.
 TstOVc:  Largest diff sym error= 0.00D+00 IB=0 JB=0 I=    0 J=    0.
 Orthogonalized basis functions: 
                 1             2             3             4             5 
      1   0.323629D+00 -0.119606D+00 -0.644443D-01  0.980373D-01 -0.173973D+00
      2   0.261294D-01  0.453960D-01  0.682751D+00  0.307718D-01 -0.760574D+00
      3   0.109508D+00  0.140088D+00  0.575514D+00 -0.184254D-02  0.836991D+00
      4   0.000000D+00  0.000000D+00  0.000000D+00  0.000000D+00  0.000000D+00
      5   0.000000D+00  0.000000D+00  0.000000D+00  0.000000D+00  0.000000D+00
      6  -0.631180D-01  0.120939D+00 -0.339249D-01  0.984903D+00  0.124207D-01
      7   0.328119D+00  0.317987D+00 -0.142712D+00 -0.316535D-01 -0.902749D-01
      8   0.000000D+00  0.000000D+00  0.000000D+00  0.000000D+00  0.000000D+00
      9   0.000000D+00  0.000000D+00  0.000000D+00  0.000000D+00  0.000000D+00
     10  -0.253648D+00  0.391534D+00 -0.398797D-01 -0.330308D-01 -0.353046D-01
     11   0.322112D+00  0.324389D+00 -0.111991D+00 -0.368687D-01 -0.605507D-01
     12   0.000000D+00  0.000000D+00  0.000000D+00  0.000000D+00  0.000000D+00
     13   0.000000D+00  0.000000D+00  0.000000D+00  0.000000D+00  0.000000D+00
     14  -0.217632D+00  0.366219D+00 -0.488742D-01 -0.200885D+00 -0.117047D+00
                 6             7             8             9            10 
      1   0.989082D+00  0.611070D+00 -0.215904D+00  0.000000D+00  0.000000D+00
      2  -0.950754D-01 -0.406801D-02  0.285326D-01  0.000000D+00  0.000000D+00
      3   0.170295D+00  0.209666D-01  0.585644D-01  0.000000D+00  0.000000D+00
      4   0.000000D+00  0.000000D+00  0.000000D+00  0.180764D+00  0.976429D+00
      5   0.000000D+00  0.000000D+00  0.000000D+00  0.000000D+00  0.000000D+00
      6   0.279951D-01 -0.238098D+00  0.165467D-01  0.000000D+00  0.000000D+00
      7  -0.219930D+00 -0.170381D-01  0.205993D+01  0.000000D+00  0.000000D+00
      8   0.000000D+00  0.000000D+00  0.000000D+00  0.532957D+00 -0.716361D-01
      9   0.000000D+00  0.000000D+00  0.000000D+00  0.000000D+00  0.000000D+00
     10   0.393371D-01  0.145032D+01 -0.160179D+00  0.000000D+00  0.000000D+00
     11  -0.317093D+00 -0.226928D+00 -0.199451D+01  0.000000D+00  0.000000D+00
     12   0.000000D+00  0.000000D+00  0.000000D+00  0.516103D+00 -0.268016D+00
     13   0.000000D+00  0.000000D+00  0.000000D+00  0.000000D+00  0.000000D+00
     14   0.690211D+00 -0.106409D+01  0.474018D-01  0.000000D+00  0.000000D+00
                11            12            13            14 
      1   0.000000D+00  0.000000D+00  0.000000D+00  0.000000D+00
      2   0.000000D+00  0.000000D+00  0.000000D+00  0.000000D+00
      3   0.000000D+00  0.000000D+00  0.000000D+00  0.000000D+00
      4  -0.243572D+00  0.000000D+00  0.000000D+00  0.000000D+00
      5   0.000000D+00  0.180764D+00  0.976429D+00 -0.243572D+00
      6   0.000000D+00  0.000000D+00  0.000000D+00  0.000000D+00
      7   0.000000D+00  0.000000D+00  0.000000D+00  0.000000D+00
      8   0.127086D+01  0.000000D+00  0.000000D+00  0.000000D+00
      9   0.000000D+00  0.532957D+00 -0.716361D-01  0.127086D+01
     10   0.000000D+00  0.000000D+00  0.000000D+00  0.000000D+00
     11   0.000000D+00  0.000000D+00  0.000000D+00  0.000000D+00
     12  -0.122706D+01  0.000000D+00  0.000000D+00  0.000000D+00
     13   0.000000D+00  0.516103D+00 -0.268016D+00 -0.122706D+01
     14   0.000000D+00  0.000000D+00  0.000000D+00  0.000000D+00
 NBasis=    14 RedAO= T EigKep=  1.20D-01  NBF=     8     0     3     3
 NBsUse=    14 1.00D-06 EigRej= -1.00D+00 NBFU=     8     0     3     3
 Leave Link  302 at Mon Mar 28 14:20:11 2022, MaxMem=  9663676416 cpu:               3.4 elap:               0.1
 (Enter /nopt/nrel/apps/gaussian/g16C_1/g16/l303.exe)
 DipDrv will not compute anything.
 Fermi contact integrals: 
                 1             2 
      1   0.628247D+00  0.955222D-02
      2   0.000000D+00  0.192411D+02
      3   0.301398D-03  0.382249D-01
      4   0.000000D+00  0.000000D+00
      5   0.000000D+00  0.000000D+00
      6  -0.131974D-02  0.000000D+00
      7   0.437150D-01 -0.437955D-02
      8   0.000000D+00  0.000000D+00
      9   0.000000D+00  0.000000D+00
     10  -0.788437D-01  0.000000D+00
     11   0.329805D-01  0.460859D-01
     12   0.000000D+00  0.000000D+00
     13   0.000000D+00  0.000000D+00
     14  -0.381544D-01  0.000000D+00
 Leave Link  303 at Mon Mar 28 14:20:12 2022, MaxMem=  9663676416 cpu:               1.3 elap:               0.1
 (Enter /nopt/nrel/apps/gaussian/g16C_1/g16/l401.exe)
 ExpMin= 2.60D-02 ExpMax= 9.99D+03 ExpMxC= 1.50D+03 IAcc=3 IRadAn=         5 AccDes= 0.00D+00
 Harris functional with IExCor=  205 and IRadAn=       5 diagonalized for initial guess.
 HarFok:  IExCor=  205 AccDes= 0.00D+00 IRadAn=         5 IDoV= 1 UseB2=F ITyADJ=14
 ICtDFT=  3500011 ScaDFX=  1.000000  1.000000  1.000000  1.000000
 FoFCou: FMM=F IPFlag=           0 FMFlag=      100000 FMFlg1=           0
         NFxFlg=           0 DoJE=T BraDBF=F KetDBF=T FulRan=T
         wScrn=  0.000000 ICntrl=       500 IOpCl=  0 I1Cent=   200000004 NGrid=           0
         NMat0=    1 NMatS0=      1 NMatT0=    0 NMatD0=    1 NMtDS0=    0 NMtDT0=    0
 Petite list used in FoFCou.
 Harris En= -162.218055957280    
 JPrj=0 DoOrth=F DoCkMO=F.
 Initial guess orbital symmetries:
       Occupied  (SG) (SG) (SG) (PI) (PI) (SG)
       Virtual   (SG) (PI) (PI) (SG) (SG) (PI) (PI) (SG)
 The electronic state of the initial guess is 1-SG.
 Leave Link  401 at Mon Mar 28 14:20:12 2022, MaxMem=  9663676416 cpu:               4.1 elap:               0.1
 (Enter /nopt/nrel/apps/gaussian/g16C_1/g16/l502.exe)
 Keep R1 ints in memory in symmetry-blocked form, NReq=7223019.
 FoFCou: FMM=F IPFlag=           0 FMFlag=           0 FMFlg1=           0
         NFxFlg=           0 DoJE=F BraDBF=F KetDBF=F FulRan=T
         wScrn=  0.000000 ICntrl=       600 IOpCl=  0 I1Cent=           0 NGrid=           0
         NMat0=    1 NMatS0=    105 NMatT0=    0 NMatD0=    1 NMtDS0=    0 NMtDT0=    0
 Petite list used in FoFCou.
 Closed shell SCF:
 Using DIIS extrapolation, IDIIS=  1040.
 NGot=  9663676416 LenX=  9663671753 LenY=  9663670871
 Requested convergence on RMS density matrix=1.00D-08 within 128 cycles.
 Requested convergence on MAX density matrix=1.00D-06.
 Requested convergence on             energy=1.00D-06.
 No special actions if energy rises.

 Cycle   1  Pass 1  IDiag  1:
 E= -162.316837176580    
 DIIS: error= 3.56D-02 at cycle   1 NSaved=   1.
 NSaved= 1 IEnMin= 1 EnMin= -162.316837176580     IErMin= 1 ErrMin= 3.56D-02
 ErrMax= 3.56D-02  0.00D+00 EMaxC= 1.00D-01 BMatC= 1.29D-02 BMatP= 1.29D-02
 IDIUse=3 WtCom= 6.44D-01 WtEn= 3.56D-01
 Coeff-Com:  0.100D+01
 Coeff-En:   0.100D+01
 Coeff:      0.100D+01
 Gap=     0.225 Goal=   None    Shift=    0.000
 GapD=    0.225 DampG=1.000 DampE=0.500 DampFc=0.5000 IDamp=-1.
 Damping current iteration by 5.00D-01
 RMSDP=1.72D-02 MaxDP=1.89D-01              OVMax= 1.07D-02

 Cycle   2  Pass 1  IDiag  1:
 E= -162.333247557611     Delta-E=       -0.016410381032 Rises=F Damp=T
 DIIS: error= 1.81D-02 at cycle   2 NSaved=   2.
 NSaved= 2 IEnMin= 2 EnMin= -162.333247557611     IErMin= 2 ErrMin= 1.81D-02
 ErrMax= 1.81D-02  0.00D+00 EMaxC= 1.00D-01 BMatC= 3.38D-03 BMatP= 1.29D-02
 IDIUse=3 WtCom= 8.19D-01 WtEn= 1.81D-01
 Coeff-Com: -0.104D+01 0.204D+01
 Coeff-En:   0.000D+00 0.100D+01
 Coeff:     -0.850D+00 0.185D+01
 Gap=     0.271 Goal=   None    Shift=    0.000
 RMSDP=8.87D-03 MaxDP=9.48D-02 DE=-1.64D-02 OVMax= 5.78D-04

 Cycle   3  Pass 1  IDiag  1:
 E= -162.350241206944     Delta-E=       -0.016993649332 Rises=F Damp=F
 DIIS: error= 3.76D-04 at cycle   3 NSaved=   3.
 NSaved= 3 IEnMin= 3 EnMin= -162.350241206944     IErMin= 3 ErrMin= 3.76D-04
 ErrMax= 3.76D-04  0.00D+00 EMaxC= 1.00D-01 BMatC= 2.12D-06 BMatP= 3.38D-03
 IDIUse=3 WtCom= 9.96D-01 WtEn= 3.76D-03
 Coeff-Com:  0.322D+00-0.634D+00 0.131D+01
 Coeff-En:   0.000D+00 0.000D+00 0.100D+01
 Coeff:      0.321D+00-0.631D+00 0.131D+01
 Gap=     0.276 Goal=   None    Shift=    0.000
 RMSDP=4.00D-04 MaxDP=1.95D-03 DE=-1.70D-02 OVMax= 1.52D-04

 Cycle   4  Pass 1  IDiag  1:
 E= -162.350253455838     Delta-E=       -0.000012248895 Rises=F Damp=F
 DIIS: error= 1.14D-04 at cycle   4 NSaved=   4.
 NSaved= 4 IEnMin= 4 EnMin= -162.350253455838     IErMin= 4 ErrMin= 1.14D-04
 ErrMax= 1.14D-04  0.00D+00 EMaxC= 1.00D-01 BMatC= 1.01D-07 BMatP= 2.12D-06
 IDIUse=3 WtCom= 9.99D-01 WtEn= 1.14D-03
 Coeff-Com:  0.620D-01-0.120D+00 0.775D-01 0.981D+00
 Coeff-En:   0.000D+00 0.000D+00 0.000D+00 0.100D+01
 Coeff:      0.619D-01-0.120D+00 0.774D-01 0.981D+00
 Gap=     0.276 Goal=   None    Shift=    0.000
 RMSDP=7.76D-05 MaxDP=4.02D-04 DE=-1.22D-05 OVMax= 2.06D-06

 Cycle   5  Pass 1  IDiag  1:
 E= -162.350254304669     Delta-E=       -0.000000848830 Rises=F Damp=F
 DIIS: error= 4.65D-05 at cycle   5 NSaved=   5.
 NSaved= 5 IEnMin= 5 EnMin= -162.350254304669     IErMin= 5 ErrMin= 4.65D-05
 ErrMax= 4.65D-05  0.00D+00 EMaxC= 1.00D-01 BMatC= 1.41D-08 BMatP= 1.01D-07
 IDIUse=1 WtCom= 1.00D+00 WtEn= 0.00D+00
 Coeff-Com: -0.105D-01 0.205D-01 0.679D-02-0.807D+00 0.179D+01
 Coeff:     -0.105D-01 0.205D-01 0.679D-02-0.807D+00 0.179D+01
 Gap=     0.276 Goal=   None    Shift=    0.000
 RMSDP=4.25D-05 MaxDP=2.06D-04 DE=-8.49D-07 OVMax= 4.37D-06

 Cycle   6  Pass 1  IDiag  1:
 E= -162.350254458508     Delta-E=       -0.000000153839 Rises=F Damp=F
 DIIS: error= 4.61D-06 at cycle   6 NSaved=   6.
 NSaved= 6 IEnMin= 6 EnMin= -162.350254458508     IErMin= 6 ErrMin= 4.61D-06
 ErrMax= 4.61D-06  0.00D+00 EMaxC= 1.00D-01 BMatC= 2.04D-10 BMatP= 1.41D-08
 IDIUse=1 WtCom= 1.00D+00 WtEn= 0.00D+00
 Coeff-Com: -0.619D-03 0.124D-02-0.154D-01 0.351D+00-0.776D+00 0.144D+01
 Coeff:     -0.619D-03 0.124D-02-0.154D-01 0.351D+00-0.776D+00 0.144D+01
 Gap=     0.276 Goal=   None    Shift=    0.000
 RMSDP=7.86D-06 MaxDP=3.99D-05 DE=-1.54D-07 OVMax= 2.72D-07

 Cycle   7  Pass 1  IDiag  1:
 E= -162.350254459815     Delta-E=       -0.000000001307 Rises=F Damp=F
 DIIS: error= 1.80D-07 at cycle   7 NSaved=   7.
 NSaved= 7 IEnMin= 7 EnMin= -162.350254459815     IErMin= 7 ErrMin= 1.80D-07
 ErrMax= 1.80D-07  0.00D+00 EMaxC= 1.00D-01 BMatC= 4.68D-13 BMatP= 2.04D-10
 IDIUse=1 WtCom= 1.00D+00 WtEn= 0.00D+00
 Coeff-Com: -0.101D-04 0.146D-04 0.229D-02-0.622D-01 0.141D+00-0.275D+00
 Coeff-Com:  0.119D+01
 Coeff:     -0.101D-04 0.146D-04 0.229D-02-0.622D-01 0.141D+00-0.275D+00
 Coeff:      0.119D+01
 Gap=     0.276 Goal=   None    Shift=    0.000
 RMSDP=2.96D-07 MaxDP=1.70D-06 DE=-1.31D-09 OVMax= 6.86D-08

 Cycle   8  Pass 1  IDiag  1:
 E= -162.350254459818     Delta-E=       -0.000000000003 Rises=F Damp=F
 DIIS: error= 1.31D-08 at cycle   8 NSaved=   8.
 NSaved= 8 IEnMin= 8 EnMin= -162.350254459818     IErMin= 8 ErrMin= 1.31D-08
 ErrMax= 1.31D-08  0.00D+00 EMaxC= 1.00D-01 BMatC= 2.30D-15 BMatP= 4.68D-13
 IDIUse=1 WtCom= 1.00D+00 WtEn= 0.00D+00
 Coeff-Com: -0.102D-04 0.210D-04-0.393D-03 0.943D-02-0.213D-01 0.426D-01
 Coeff-Com: -0.222D+00 0.119D+01
 Coeff:     -0.102D-04 0.210D-04-0.393D-03 0.943D-02-0.213D-01 0.426D-01
 Coeff:     -0.222D+00 0.119D+01
 Gap=     0.276 Goal=   None    Shift=    0.000
 RMSDP=2.33D-08 MaxDP=1.26D-07 DE=-2.90D-12 OVMax= 9.00D-10

 Cycle   9  Pass 1  IDiag  1:
 E= -162.350254459818     Delta-E=        0.000000000000 Rises=F Damp=F
 DIIS: error= 3.10D-09 at cycle   9 NSaved=   9.
 NSaved= 9 IEnMin= 8 EnMin= -162.350254459818     IErMin= 9 ErrMin= 3.10D-09
 ErrMax= 3.10D-09  0.00D+00 EMaxC= 1.00D-01 BMatC= 1.17D-16 BMatP= 2.30D-15
 IDIUse=1 WtCom= 1.00D+00 WtEn= 0.00D+00
 Coeff-Com:  0.297D-05-0.606D-05 0.757D-04-0.165D-02 0.378D-02-0.773D-02
 Coeff-Com:  0.386D-01-0.287D+00 0.125D+01
 Coeff:      0.297D-05-0.606D-05 0.757D-04-0.165D-02 0.378D-02-0.773D-02
 Coeff:      0.386D-01-0.287D+00 0.125D+01
 Gap=     0.276 Goal=   None    Shift=    0.000
 RMSDP=6.53D-09 MaxDP=3.92D-08 DE= 0.00D+00 OVMax= 2.52D-11

 SCF Done:  E(RHF) =  -162.350254460     A.U. after    9 cycles
            NFock=  9  Conv=0.65D-08     -V/T= 2.0002
 KE= 1.623101418954D+02 PE=-3.969921741530D+02 EE= 6.926812026093D+01
 Leave Link  502 at Mon Mar 28 14:20:12 2022, MaxMem=  9663676416 cpu:               4.1 elap:               0.2
 (Enter /nopt/nrel/apps/gaussian/g16C_1/g16/l801.exe)
 Windowed orbitals will be sorted by symmetry type.
 ExpMin= 2.60D-02 ExpMax= 9.99D+03 ExpMxC= 1.50D+03 IAcc=3 IRadAn=         5 AccDes= 0.00D+00
 HarFok:  IExCor=  205 AccDes= 0.00D+00 IRadAn=         5 IDoV=-2 UseB2=F ITyADJ=14
 ICtDFT= 12500011 ScaDFX=  1.000000  1.000000  1.000000  1.000000
 Largest valence mixing into a core orbital is  1.12D-04
 Largest core mixing into a valence orbital is  2.91D-05
 Range of M.O.s used for correlation:     6    14
 NBasis=    14 NAE=     6 NBE=     6 NFC=     5 NFV=     0
 NROrb=      9 NOA=     1 NOB=     1 NVA=     8 NVB=     8
 Leave Link  801 at Mon Mar 28 14:20:12 2022, MaxMem=  9663676416 cpu:               4.4 elap:               0.2
 (Enter /nopt/nrel/apps/gaussian/g16C_1/g16/l804.exe)
 Closed-shell transformation, MDV=  9663676416 ITran=4 ISComp=2.
 Unit  1 TFree=          8118 TCopy=        116807.
 Semi-Direct transformation.
 ModeAB=           2 MOrb=             1 LenV=    9663552905
 LASXX=           88 LTotXX=          88 LenRXX=          88
 LTotAB=         141 MaxLAS=         945 LenRXY=         945
 NonZer=        1107 LenScr=      785920 LnRSAI=           0
 LnScr1=           0 LExtra=      220231 Total=      1007184
 MaxDsk= 34359738368 SrtSym=           F ITran=            4
 DoSDTr:  NPSUse= 36
 JobTyp=0 Pass  1:  I=   1 to   1.
 (rs|ai) integrals will be sorted in core.
 Complete sort for first half transformation.
 First half transformation complete.
 Complete sort for second half transformation.
 Second half transformation complete.
 Spin components of T(2) and E(2):
     alpha-alpha T2 =       0.0000000000D+00 E2=      0.0000000000D+00
     alpha-beta  T2 =       0.1514281062D-01 E2=     -0.1674058905D-01
     beta-beta   T2 =       0.0000000000D+00 E2=      0.0000000000D+00
 ANorm=    0.1007542957D+01
 E2 =    -0.1674058905D-01 EUMP2 =    -0.16236699504887D+03
 Leave Link  804 at Mon Mar 28 14:20:12 2022, MaxMem=  9663676416 cpu:               3.4 elap:               0.1
 (Enter /nopt/nrel/apps/gaussian/g16C_1/g16/l913.exe)
 CIDS:  MDV=  9663676416.
 Frozen-core window:  NFC=   5 NFV=   0.
 IFCWin=0 IBDFC=1 NFBD=     0     0 NFCmp=     0     0 NFFFC=     0     0
 Using DD3R+UMP44R for 1st iteration.
 Using DD4RQ for 2nd and later iterations.
 Keep R2 and R3 ints in memory in symmetry-blocked form, NReq=7225413.
 FoFCou: FMM=F IPFlag=           0 FMFlag=           0 FMFlg1=           0
         NFxFlg=           0 DoJE=F BraDBF=F KetDBF=F FulRan=T
         wScrn=  0.000000 ICntrl=       600 IOpCl=  0 I1Cent=           0 NGrid=           0
         NMat0=    1 NMatS0=    105 NMatT0=    0 NMatD0=    1 NMtDS0=    0 NMtDT0=    0
 Petite list used in FoFCou.
 CIDS: In Core Option IDoMem=           1.
 Coupled Cluster theory with single and double substitutions
 ===========================================================
 Iterations= 200 Convergence= 0.100D-06
 Produce multiple copies of IABC intergrals
 Iteration Nr.   1
 **********************
 DD1Dir will call FoFMem   1 times, MxPair=         2
 NAB=     1 NAA=     0 NBB=     0.
 MP4(R+Q)=  0.25349957D-03
 Maximum subspace dimension=  5
 A-vector RMS=  1.7684383D-02 Max=  2.6414972D-02 conv= 1.00D-05.
 RLE energy=       -0.0265038038
 E3=       -0.64242831D-02        EUMP3=      -0.16237341933D+03
 E4(DQ)=   -0.25100372D-02        UMP4(DQ)=   -0.16237592937D+03
 E4(SDQ)=  -0.26852569D-02        UMP4(SDQ)=  -0.16237610459D+03
 VARIATIONAL ENERGIES WITH THE FIRST-ORDER WAVEFUNCTION:
 DE(Corr)= -0.22907327E-01 E(Corr)=     -162.37316179    
 NORM(A)=   0.10194608D+01
 Iteration Nr.   2
 **********************
 DD1Dir will call FoFMem   1 times, MxPair=         2
 NAB=     1 NAA=     0 NBB=     0.
 A-vector RMS=  8.4463318D-03 Max=  8.5096896D-03 conv= 1.00D-05.
 RLE energy=       -0.0276125703
 DE(Corr)= -0.27038039E-01 E(CORR)=     -162.37729250     Delta=-4.13D-03
 NORM(A)=   0.10226582D+01
 Iteration Nr.   3
 **********************
 DD1Dir will call FoFMem   1 times, MxPair=         2
 NAB=     1 NAA=     0 NBB=     0.
 A-vector RMS=  5.9972890D-03 Max=  7.0337629D-03 conv= 1.00D-05.
 RLE energy=       -0.0279977187
 DE(Corr)= -0.27644214E-01 E(CORR)=     -162.37789867     Delta=-6.06D-04
 NORM(A)=   0.10257857D+01
 Iteration Nr.   4
 **********************
 DD1Dir will call FoFMem   1 times, MxPair=         2
 NAB=     1 NAA=     0 NBB=     0.
 A-vector RMS=  1.8986144D-03 Max=  2.5000407D-03 conv= 1.00D-05.
 RLE energy=       -0.0281741005
 DE(Corr)= -0.28035565E-01 E(CORR)=     -162.37829002     Delta=-3.91D-04
 NORM(A)=   0.10273041D+01
 Iteration Nr.   5
 **********************
 DD1Dir will call FoFMem   1 times, MxPair=         2
 NAB=     1 NAA=     0 NBB=     0.
 A-vector RMS=  5.1808166D-04 Max=  4.2147877D-04 conv= 1.00D-05.
 RLE energy=       -0.0281417391
 DE(Corr)= -0.28153259E-01 E(CORR)=     -162.37840772     Delta=-1.18D-04
 NORM(A)=   0.10273409D+01
 Iteration Nr.   6
 **********************
 DD1Dir will call FoFMem   1 times, MxPair=         2
 NAB=     1 NAA=     0 NBB=     0.
 A-vector RMS=  2.0362345D-04 Max=  2.1299544D-04 conv= 1.00D-05.
 RLE energy=       -0.0281420334
 DE(Corr)= -0.28143115E-01 E(CORR)=     -162.37839757     Delta= 1.01D-05
 NORM(A)=   0.10273549D+01
 Iteration Nr.   7
 **********************
 DD1Dir will call FoFMem   1 times, MxPair=         2
 NAB=     1 NAA=     0 NBB=     0.
 A-vector RMS=  6.2033905D-05 Max=  6.8088292D-05 conv= 1.00D-05.
 RLE energy=       -0.0281456114
 DE(Corr)= -0.28143792E-01 E(CORR)=     -162.37839825     Delta=-6.78D-07
 NORM(A)=   0.10273642D+01
 Iteration Nr.   8
 **********************
 DD1Dir will call FoFMem   1 times, MxPair=         2
 NAB=     1 NAA=     0 NBB=     0.
 A-vector RMS=  9.5610812D-06 Max=  6.8944642D-06 conv= 1.00D-05.
 RLE energy=       -0.0281446920
 DE(Corr)= -0.28145102E-01 E(CORR)=     -162.37839956     Delta=-1.31D-06
 NORM(A)=   0.10273600D+01
 Iteration Nr.   9
 **********************
 DD1Dir will call FoFMem   1 times, MxPair=         2
 NAB=     1 NAA=     0 NBB=     0.
 A-vector RMS=  3.1244297D-06 Max=  3.3986354D-06 conv= 1.00D-05.
 RLE energy=       -0.0281449782
 DE(Corr)= -0.28144831E-01 E(CORR)=     -162.37839929     Delta= 2.71D-07
 NORM(A)=   0.10273608D+01
 Iteration Nr.  10
 **********************
 DD1Dir will call FoFMem   1 times, MxPair=         2
 NAB=     1 NAA=     0 NBB=     0.
 A-vector RMS=  1.7560778D-06 Max=  1.9847696D-06 conv= 1.00D-05.
 RLE energy=       -0.0281449507
 DE(Corr)= -0.28144944E-01 E(CORR)=     -162.37839940     Delta=-1.13D-07
 NORM(A)=   0.10273610D+01
 Iteration Nr.  11
 **********************
 DD1Dir will call FoFMem   1 times, MxPair=         2
 NAB=     1 NAA=     0 NBB=     0.
 A-vector RMS=  5.1713618D-07 Max=  8.3414998D-07 conv= 1.00D-05.
 RLE energy=       -0.0281449892
 DE(Corr)= -0.28144969E-01 E(CORR)=     -162.37839943     Delta=-2.49D-08
 NORM(A)=   0.10273613D+01
 CI/CC converged in   11 iterations to DelEn=-2.49D-08 Conv= 1.00D-07 ErrA1= 5.17D-07 Conv= 1.00D-05
 Wavefunction amplitudes converged. E(Corr)=     -162.37839943    
 Dominant configurations:
 ***********************
 Spin Case        I    J    A    B          Value
   ABAB           6    6   14   14      -0.109606D+00
 Largest amplitude= 1.10D-01
 Discarding MO integrals.
 Leave Link  913 at Mon Mar 28 14:20:12 2022, MaxMem=  9663676416 cpu:               4.2 elap:               0.1
 (Enter /nopt/nrel/apps/gaussian/g16C_1/g16/l601.exe)
 Copying SCF densities to generalized density rwf, IOpCl= 0 IROHF=0.

 **********************************************************************

            Population analysis using the SCF Density.

 **********************************************************************

 Orbital symmetries:
       Occupied  (SG) (SG) (SG) (PI) (PI) (SG)
       Virtual   (SG) (PI) (PI) (SG) (SG) (PI) (PI) (SG)
 The electronic state is 1-SG.
 Alpha  occ. eigenvalues --  -40.47398  -2.79146  -1.51196  -1.51190  -1.51190
 Alpha  occ. eigenvalues --   -0.27169
 Alpha virt. eigenvalues --    0.00439   0.04504   0.04504   0.12955   0.15041
 Alpha virt. eigenvalues --    0.21477   0.21477   0.45403
          Condensed to atoms (all electrons):
               1          2
     1  H    0.601367   0.341110
     2  Na   0.341110  10.716413
 Mulliken charges:
               1
     1  H    0.057523
     2  Na  -0.057523
 Sum of Mulliken charges =  -0.00000
 Mulliken charges with hydrogens summed into heavy atoms:
               1
     2  Na  -0.000000
 N-N= 3.063657536905D+00 E-N=-3.969921741873D+02  KE= 1.623101418954D+02
 Symmetry A1   KE= 1.388443943028D+02
 Symmetry A2   KE= 0.000000000000D+00
 Symmetry B1   KE= 1.173287379627D+01
 Symmetry B2   KE= 1.173287379627D+01

 Atomic contributions to Alpha molecular orbitals:
 Alpha occ 1 OE=-40.474 is Na2-s=1.0000
 Alpha occ 2 OE=-2.791 is Na2-s=0.9996
 Alpha occ 3 OE=-1.512 is Na2-p=0.9991
 Alpha occ 4 OE=-1.512 is Na2-p=1.0000
 Alpha occ 5 OE=-1.512 is Na2-p=1.0000
 Alpha occ 6 OE=-0.272 is H1-s=0.4705 Na2-s=0.3438 Na2-p=0.1857
 Alpha vir 7 OE=0.004 is Na2-p=0.4985 Na2-s=0.4824
 Alpha vir 8 OE=0.045 is Na2-p=1.0000
 Alpha vir 9 OE=0.045 is Na2-p=1.0000
 Alpha vir 10 OE=0.130 is Na2-p=0.6307 Na2-s=0.2974
 Alpha vir 11 OE=0.150 is Na2-s=0.7329 Na2-p=0.2593
 Alpha vir 12 OE=0.215 is Na2-p=1.0000
 Alpha vir 13 OE=0.215 is Na2-p=1.0000
 Alpha vir 14 OE=0.454 is H1-s=0.4299 Na2-p=0.4265 Na2-s=0.1437
 
 Leave Link  601 at Mon Mar 28 14:20:12 2022, MaxMem=  9663676416 cpu:               2.1 elap:               0.1
 (Enter /nopt/nrel/apps/gaussian/g16C_1/g16/l9999.exe)

 Test job not archived.
 1\1\GINC-R102U34\SP\RCCSD-FC\Gen\H1Na1\USER\28-Mar-2022\0\\#P CCSD
 (MaxCyc=200,SaveAmplitudes,ReadAmplitudes)/GEN sp pop=AllOrbitals iop(
 3/33=1,3/36=-1)\\test\\0,1\H,0,0.,0.,0.\Na,0,0.,0.,1.9\\Version=ES64L-
 G16RevC.01\State=1-SG\HF=-162.3502545\MP2=-162.366995\MP3=-162.3734193
 \MP4D=-162.3761829\MP4DQ=-162.3759294\MP4SDQ=-162.3761046\CCSD=-162.37
 83994\RMSD=6.534e-09\PG=C*V [C*(H1Na1)]\\@


 EVERYBODY NEEDS BEAUTY AS WELL AS BREAD, PLACES TO PLAY IN AND PRAY IN,
 WHERE NATURE MAY HEAL AND CHEER AND GIVE STRENGTH TO BODY AND SOUL ALIKE.

                                    -- JOHN MUIR
 Job cpu time:       0 days  0 hours  0 minutes 37.9 seconds.
 Elapsed time:       0 days  0 hours  0 minutes  1.4 seconds.
 File lengths (MBytes):  RWF=     13 Int=      0 D2E=      0 Chk=      1 Scr=      1
 Normal termination of Gaussian 16 at Mon Mar 28 14:20:13 2022.
