 Entering Gaussian System, Link 0=g16
 Initial command:
 /nopt/nrel/apps/gaussian/g16C_1/g16/l1.exe "/lustre/eaglefs/scratch/user/qc/nah-dissc/nah-1-ccsd-2.1-321g/Gau-1169.inp" -scrdir="/lustre/eaglefs/scratch/user/qc/nah-dissc/nah-1-ccsd-2.1-321g/"
 Default is to use a total of  36 processors:
                               36 via shared-memory
                                1 via Linda
 Entering Link 1 = /nopt/nrel/apps/gaussian/g16C_1/g16/l1.exe PID=      1170.
  
 Copyright (c) 1988-2019, Gaussian, Inc.  All Rights Reserved.
  
 This is part of the Gaussian(R) 16 program.  It is based on
 the Gaussian(R) 09 system (copyright 2009, Gaussian, Inc.),
 the Gaussian(R) 03 system (copyright 2003, Gaussian, Inc.),
 the Gaussian(R) 98 system (copyright 1998, Gaussian, Inc.),
 the Gaussian(R) 94 system (copyright 1995, Gaussian, Inc.),
 the Gaussian 92(TM) system (copyright 1992, Gaussian, Inc.),
 the Gaussian 90(TM) system (copyright 1990, Gaussian, Inc.),
 the Gaussian 88(TM) system (copyright 1988, Gaussian, Inc.),
 the Gaussian 86(TM) system (copyright 1986, Carnegie Mellon
 University), and the Gaussian 82(TM) system (copyright 1983,
 Carnegie Mellon University). Gaussian is a federally registered
 trademark of Gaussian, Inc.
  
 This software contains proprietary and confidential information,
 including trade secrets, belonging to Gaussian, Inc.
  
 This software is provided under written license and may be
 used, copied, transmitted, or stored only in accord with that
 written license.
  
 The following legend is applicable only to US Government
 contracts under FAR:
  
                    RESTRICTED RIGHTS LEGEND
  
 Use, reproduction and disclosure by the US Government is
 subject to restrictions as set forth in subparagraphs (a)
 and (c) of the Commercial Computer Software - Restricted
 Rights clause in FAR 52.227-19.
  
 Gaussian, Inc.
 340 Quinnipiac St., Bldg. 40, Wallingford CT 06492
  
  
 ---------------------------------------------------------------
 Warning -- This program may not be used in any manner that
 competes with the business of Gaussian, Inc. or will provide
 assistance to any competitor of Gaussian, Inc.  The licensee
 of this program is prohibited from giving any competitor of
 Gaussian, Inc. access to this program.  By using this program,
 the user acknowledges that Gaussian, Inc. is engaged in the
 business of creating and licensing software in the field of
 computational chemistry and represents and warrants to the
 licensee that it is not a competitor of Gaussian, Inc. and that
 it will not use this program in any manner prohibited above.
 ---------------------------------------------------------------
  

 Cite this work as:
 Gaussian 16, Revision C.01,
 M. J. Frisch, G. W. Trucks, H. B. Schlegel, G. E. Scuseria, 
 M. A. Robb, J. R. Cheeseman, G. Scalmani, V. Barone, 
 G. A. Petersson, H. Nakatsuji, X. Li, M. Caricato, A. V. Marenich, 
 J. Bloino, B. G. Janesko, R. Gomperts, B. Mennucci, H. P. Hratchian, 
 J. V. Ortiz, A. F. Izmaylov, J. L. Sonnenberg, D. Williams-Young, 
 F. Ding, F. Lipparini, F. Egidi, J. Goings, B. Peng, A. Petrone, 
 T. Henderson, D. Ranasinghe, V. G. Zakrzewski, J. Gao, N. Rega, 
 G. Zheng, W. Liang, M. Hada, M. Ehara, K. Toyota, R. Fukuda, 
 J. Hasegawa, M. Ishida, T. Nakajima, Y. Honda, O. Kitao, H. Nakai, 
 T. Vreven, K. Throssell, J. A. Montgomery, Jr., J. E. Peralta, 
 F. Ogliaro, M. J. Bearpark, J. J. Heyd, E. N. Brothers, K. N. Kudin, 
 V. N. Staroverov, T. A. Keith, R. Kobayashi, J. Normand, 
 K. Raghavachari, A. P. Rendell, J. C. Burant, S. S. Iyengar, 
 J. Tomasi, M. Cossi, J. M. Millam, M. Klene, C. Adamo, R. Cammi, 
 J. W. Ochterski, R. L. Martin, K. Morokuma, O. Farkas, 
 J. B. Foresman, and D. J. Fox, Gaussian, Inc., Wallingford CT, 2019.
 
 ******************************************
 Gaussian 16:  ES64L-G16RevC.01  3-Jul-2019
                28-Mar-2022 
 ******************************************
 %chk=molecule
 Default route: CacheSize=180224 MaxDisk=256GB
 ----------------------------------------------------------------------
 #P CCSD(MaxCyc=200,SaveAmplitudes,ReadAmplitudes)/GEN sp pop=AllOrbita
 ls iop(3/33=1,3/36=-1)
 ----------------------------------------------------------------------
 1/4=180224,38=1,172=1/1;
 2/4=180224,12=2,17=6,18=5,40=1/2;
 3/4=180224,5=7,11=9,25=1,30=1,33=1,36=-1/1,2,3;
 4/4=180224/1;
 5/4=180224,5=2,38=5/2;
 8/4=180224,6=4,9=120000,10=1,24=1/1,4;
 9/4=180224,5=7,6=200,77=1/13;
 6/4=180224,7=2,8=2,9=2,10=2,96=-1/1;
 99/4=180224,5=1,9=1/99;
 Leave Link    1 at Mon Mar 28 14:19:26 2022, MaxMem=           0 cpu:               2.2 elap:               0.1
 (Enter /nopt/nrel/apps/gaussian/g16C_1/g16/l101.exe)
 ----
 test
 ----
 Symbolic Z-matrix:
 Charge =  0 Multiplicity = 1
 H                     0.        0.        0. 
 Na                    0.        0.        2.1 
 
 ITRead=  0  0
 MicOpt= -1 -1
 NAtoms=      2 NQM=        2 NQMF=       0 NMMI=      0 NMMIF=      0
                NMic=       0 NMicF=      0.
                    Isotopes and Nuclear Properties:
 (Nuclear quadrupole moments (NQMom) in fm**2, nuclear magnetic moments (NMagM)
  in nuclear magnetons)

  Atom         1           2
 IAtWgt=           1          23
 AtmWgt=   1.0078250  22.9897697
 NucSpn=           1           3
 AtZEff=  -0.0000000  -0.0000000
 NQMom=    0.0000000  10.4000000
 NMagM=    2.7928460   2.2175200
 AtZNuc=   1.0000000  11.0000000
 Leave Link  101 at Mon Mar 28 14:19:26 2022, MaxMem=  9663676416 cpu:               3.1 elap:               0.1
 (Enter /nopt/nrel/apps/gaussian/g16C_1/g16/l202.exe)
                          Input orientation:                          
 ---------------------------------------------------------------------
 Center     Atomic      Atomic             Coordinates (Angstroms)
 Number     Number       Type             X           Y           Z
 ---------------------------------------------------------------------
      1          1           0        0.000000    0.000000    0.000000
      2         11           0        0.000000    0.000000    2.100000
 ---------------------------------------------------------------------
 Stoichiometry    HNa
 Framework group  C*V[C*(HNa)]
 Deg. of freedom     1
 Full point group                 C*V     NOp   4
 Largest Abelian subgroup         C2V     NOp   4
 Largest concise Abelian subgroup C1      NOp   1
                         Standard orientation:                         
 ---------------------------------------------------------------------
 Center     Atomic      Atomic             Coordinates (Angstroms)
 Number     Number       Type             X           Y           Z
 ---------------------------------------------------------------------
      1          1           0        0.000000    0.000000   -1.925000
      2         11           0        0.000000    0.000000    0.175000
 ---------------------------------------------------------------------
 Rotational constants (GHZ):           0.0000000         118.6933974         118.6933974
 Leave Link  202 at Mon Mar 28 14:19:26 2022, MaxMem=  9663676416 cpu:               0.7 elap:               0.0
 (Enter /nopt/nrel/apps/gaussian/g16C_1/g16/l301.exe)
 General basis read from cards:  (5D, 7F)
                         Coordinates in L301:                         
 ---------------------------------------------------------------------
 Center     Atomic      Atomic             Coordinates (Angstroms)
 Number     Number       Type             X           Y           Z
 ---------------------------------------------------------------------
      1          1           0        0.000000    0.000000   -1.925000
      2         11           0        0.000000    0.000000    0.175000
 ---------------------------------------------------------------------
 Centers:       1
 STO-3G
 ****
 Centers:       2
 3-21G
 ****
 FixB: optimizing general contractions.
 Ernie: Thresh=  0.10000D-02 Tol=  0.10000D-05 Strict=F.
 IA=     1 ShT= 0 ShC= 0 NL=   1 NS=   0.
 IA=     1 L=0 SC=0 ISt=    0 NBk=    0 NP=    0 IndPr=    0.
 IA=     2 ShT= 0 ShC= 0 NL=   1 NS=   0.
 IA=     2 L=0 SC=0 ISt=    0 NBk=    0 NP=    0 IndPr=    0.
 IA=     2 ShT= 1 ShC= 0 NL=   3 NS=   1.
 IA=     2 L=1 SC=0 ISt=    1 NBk=    2 NP=    5 IndPr=    0.
 DoElim1:  L=1 select primitive    1 from    2 using    1 C=-1.12D-01
 DoElim2:  L=1 select primitive    5 from    1 using    2 C= 1.09D+00
 DoElim1:  L=1 select primitive    1 from    2 using    1 C= 1.28D-01
 DoElim2:  L=1 select primitive    5 from    1 using    2 C= 9.97D-01
 Delete L=1 primitive    3 from    2 C=  0.00D+00.
 Delete L=1 primitive    2 from    2 C=  0.00D+00.
 Delete L=1 primitive    1 from    2 C=  0.00D+00.
 Delete L=1 primitive    5 from    1 C=  0.00D+00.
 Delete L=1 primitive    4 from    1 C=  0.00D+00.
 IA=     2 L=1 SC=0 ISt=    0 NBk=    0 NP=    0 IndPr=    5.
 LdAtmC:  AtmChg=     1.000000    11.000000
 AtZEff=     -1.0000000    -10.0400000
 NEqShl: 
              1            2            3            4
     1            1            1            1            1
     2            2            2            2            2
     3            3            3            3            3
     4            4            4            4            4
     5            5            5            5            5
 NEqBas: 
              1            2            3            4
     1            1            1            1            1
     2            2            2            2            2
     3            3            3            3            3
     4            4           -4           -4            4
     5            5           -5            5           -5
     6            6            6            6            6
     7            7            7            7            7
     8            8           -8           -8            8
     9            9           -9            9           -9
    10           10           10           10           10
    11           11           11           11           11
    12           12          -12          -12           12
    13           13          -13           13          -13
    14           14           14           14           14
 There are     8 symmetry adapted cartesian basis functions of A1  symmetry.
   1         1   1   1   1
   2         2   2   2   2
   3         3   3   3   3
   4         6   6   6   6
   5         7   7   7   7
   6        10  10  10  10
   7        11  11  11  11
   8        14  14  14  14
 There are     0 symmetry adapted cartesian basis functions of A2  symmetry.
 There are     3 symmetry adapted cartesian basis functions of B1  symmetry.
   9         4   4   4   4
  10         8   8   8   8
  11        12  12  12  12
 There are     3 symmetry adapted cartesian basis functions of B2  symmetry.
  12         5   5   5   5
  13         9   9   9   9
  14        13  13  13  13
 Order= 1 2 4 3
 Reordered character table:
              1            2            3            4            5
     1            1            1            1            1            1
     2            2            1            1           -1           -1
     3            4            1           -1           -1            1
     4            3            1           -1            1           -1
 NEqShl: 
              1            2            3            4
     1            1            1            1            1
     2            2            2            2            2
     3            3            3            3            3
     4            4            4            4            4
     5            5            5            5            5
 NEqBas: 
              1            2            3            4
     1            1            1            1            1
     2            2            2            2            2
     3            3            3            3            3
     4            4           -4           -4            4
     5            5           -5            5           -5
     6            6            6            6            6
     7            7            7            7            7
     8            8           -8           -8            8
     9            9           -9            9           -9
    10           10           10           10           10
    11           11           11           11           11
    12           12          -12          -12           12
    13           13          -13           13          -13
    14           14           14           14           14
 There are     8 symmetry adapted basis functions of A1  symmetry.
   1         1   1   1   1
   2         2   2   2   2
   3         3   3   3   3
   4         6   6   6   6
   5         7   7   7   7
   6        10  10  10  10
   7        11  11  11  11
   8        14  14  14  14
 There are     0 symmetry adapted basis functions of A2  symmetry.
 There are     3 symmetry adapted basis functions of B1  symmetry.
   9         4   4   4   4
  10         8   8   8   8
  11        12  12  12  12
 There are     3 symmetry adapted basis functions of B2  symmetry.
  12         5   5   5   5
  13         9   9   9   9
  14        13  13  13  13
 Order= 1 2 4 3
 Reordered character table:
              1            2            3            4            5
     1            1            1            1            1            1
     2            2            1            1           -1           -1
     3            4            1           -1           -1            1
     4            3            1           -1            1           -1
    14 basis functions,    30 primitive gaussians,    14 cartesian basis functions
     6 alpha electrons        6 beta electrons
       nuclear repulsion energy         2.7718806286 Hartrees.
 IS=     1 IAt=     1 ISR=     1 T=0 IP=      1 IndIP=      1 IndIPD=      0 C=  2.769344D-01  0.000000D+00                             NZ=T
 IS=     1 IAt=     1 ISR=     1 T=0 IP=      2 IndIP=      2 IndIPD=      1 C=  2.678389D-01  0.000000D+00                             NZ=T
 IS=     1 IAt=     1 ISR=     1 T=0 IP=      3 IndIP=      3 IndIPD=      2 C=  8.347367D-02  0.000000D+00                             NZ=T
 IS=     2 IAt=     2 ISR=     1 T=0 IP=      1 IndIP=      4 IndIPD=      0 C=  5.445177D+00  0.000000D+00                             NZ=T
 IS=     2 IAt=     2 ISR=     1 T=0 IP=      2 IndIP=      5 IndIPD=      1 C=  7.646982D+00  0.000000D+00                             NZ=T
 IS=     2 IAt=     2 ISR=     1 T=0 IP=      3 IndIP=      6 IndIPD=      2 C=  4.092173D+00  0.000000D+00                             NZ=T
 IS=     3 IAt=     2 ISR=     2 T=1 IP=      1 IndIP=      7 IndIPD=      0 C= -6.837842D-01  6.561431D+00                             NZ=T
 IS=     3 IAt=     2 ISR=     2 T=1 IP=      2 IndIP=      8 IndIPD=      1 C=  4.933805D-01  3.558943D+00                             NZ=T
 IS=     3 IAt=     2 ISR=     2 T=1 IP=      3 IndIP=      9 IndIPD=      2 C=  5.590773D-01  7.618119D-01                             NZ=T
 IS=     4 IAt=     2 ISR=     3 T=1 IP=      1 IndIP=     10 IndIPD=      0 C= -9.334168D-02  5.458439D-03                             NZ=T
 IS=     4 IAt=     2 ISR=     3 T=1 IP=      2 IndIP=     11 IndIPD=      1 C=  9.521265D-02  4.304303D-02                             NZ=T
 IS=     5 IAt=     2 ISR=     4 T=1 IP=      1 IndIP=     12 IndIPD=      0 C=  4.404717D-02  1.377061D-02                             NZ=T
 IExCor=    0 DFT=F Ex=HF Corr=None ExCW=0 ScaHFX=  1.000000
 ScaDFX=  1.000000  1.000000  1.000000  1.000000 ScalE2=  1.000000  1.000000
 IRadAn=      5 IRanWt=     -1 IRanGd=            0 ICorTp=0 IEmpDi=  4
 NAtoms=    2 NActive=    2 NUniq=    2 SFac= 1.00D+00 NAtFMM=   60 NAOKFM=F Big=F
 Integral buffers will be    131072 words long.
 Raffenetti 1 integral format.
 Two-electron integral symmetry is turned on.
 Leave Link  301 at Mon Mar 28 14:19:26 2022, MaxMem=  9663676416 cpu:               1.9 elap:               0.1
 (Enter /nopt/nrel/apps/gaussian/g16C_1/g16/l302.exe)
 NPDir=0 NMtPBC=     1 NCelOv=     1 NCel=       1 NClECP=     1 NCelD=      1
         NCelK=      1 NCelE2=     1 NClLst=     1 CellRange=     0.0.
 One-electron integrals computed using PRISM.
 One-electron integral symmetry used in STVInt
 Entering OneElI...
 Calculate overlap and kinetic energy integrals
    NBasis =  14  MinDer = 0  MaxDer = 0
 Requested accuracy = 0.1000D-12
 Symmetry will be used
 PrmmSu-InSpLW:  IPartL=    0 NPrtUS=   36 NPrtUL=    1 DoSpLW=F IThBeg=    0 IThEnd=   35 NThAct=   36.
 PrSmSu:  IncTry=   512 NBBP=             15 NTPThr=   100 NPartT=   36 Incr=           1 LDynOK=F GPUOK=F.
 PrsmSu:  NPrtUS=  36 ThrOK=T IAlg=1 LenDen=           0 ISkipM=0 DoSpLW=F IThBeg=    0 IThEnd=   35.
 Prism:   IPart=     0 DynPar=F LinDyn=F Incr=           1.
 PRISM was handed   268433825 working-precision words and    15 shell-pairs
 PRISM was handed   268433825 working-precision words and    15 shell-pairs
 PRISM was handed   268433825 working-precision words and    15 shell-pairs
 PRISM was handed   268433825 working-precision words and    15 shell-pairs
 PRISM was handed   268433825 working-precision words and    15 shell-pairs
 PRISM was handed   268433825 working-precision words and    15 shell-pairs
 PRISM was handed   268433825 working-precision words and    15 shell-pairs
 PRISM was handed   268433825 working-precision words and    15 shell-pairs
 PRISM was handed   268433825 working-precision words and    15 shell-pairs
 PRISM was handed   268433825 working-precision words and    15 shell-pairs
 IPart= 10 NShTot=           0 NBatch=           0 AvBLen=         0.0
 IPart=  5 NShTot=           0 NBatch=           0 AvBLen=         0.0
 IPart= 18 NShTot=           0 NBatch=           0 AvBLen=         0.0
 IPart=  4 NShTot=           0 NBatch=           0 AvBLen=         0.0
 IPart=  3 NShTot=           0 NBatch=           0 AvBLen=         0.0
 IPart= 16 NShTot=           0 NBatch=           0 AvBLen=         0.0
 IPart= 15 NShTot=           0 NBatch=           0 AvBLen=         0.0
 IPart= 22 NShTot=           0 NBatch=           0 AvBLen=         0.0
 IPart= 17 NShTot=           0 NBatch=           0 AvBLen=         0.0
 PRISM was handed   268433825 working-precision words and    15 shell-pairs
 PRISM was handed   268433825 working-precision words and    15 shell-pairs
 IPart= 25 NShTot=           0 NBatch=           0 AvBLen=         0.0
 IPart= 27 NShTot=           0 NBatch=           0 AvBLen=         0.0
 PRISM was handed   268433825 working-precision words and    15 shell-pairs
 PRISM was handed   268433825 working-precision words and    15 shell-pairs
 PRISM was handed   268433825 working-precision words and    15 shell-pairs
 PRISM was handed   268433825 working-precision words and    15 shell-pairs
 PRISM was handed   268433825 working-precision words and    15 shell-pairs
 PRISM was handed   268433825 working-precision words and    15 shell-pairs
 IPart= 24 NShTot=           0 NBatch=           0 AvBLen=         0.0
 PRISM was handed   268433825 working-precision words and    15 shell-pairs
 PRISM was handed   268433825 working-precision words and    15 shell-pairs
 PRISM was handed   268433825 working-precision words and    15 shell-pairs
 IPart= 34 NShTot=           0 NBatch=           0 AvBLen=         0.0
 PRISM was handed   268433825 working-precision words and    15 shell-pairs
 IPart= 11 NShTot=           0 NBatch=           0 AvBLen=         0.0
 PRISM was handed   268433825 working-precision words and    15 shell-pairs
 PRISM was handed   268433825 working-precision words and    15 shell-pairs
 IPart= 20 NShTot=           0 NBatch=           0 AvBLen=         0.0
 IPart= 33 NShTot=           0 NBatch=           0 AvBLen=         0.0
 IPart= 23 NShTot=           0 NBatch=           0 AvBLen=         0.0
 IPart=  9 NShTot=           0 NBatch=           0 AvBLen=         0.0
 IPart= 13 NShTot=           0 NBatch=           0 AvBLen=         0.0
 PRISM was handed   268433825 working-precision words and    15 shell-pairs
 PRISM was handed   268433825 working-precision words and    15 shell-pairs
 PRISM was handed   268433825 working-precision words and    15 shell-pairs
 IPart=  1 NShTot=           4 NBatch=           4 AvBLen=         1.0
 IPart= 31 NShTot=           0 NBatch=           0 AvBLen=         0.0
 IPart=  2 NShTot=           1 NBatch=           1 AvBLen=         1.0
 IPart= 21 NShTot=           0 NBatch=           0 AvBLen=         0.0
 PRISM was handed   268433825 working-precision words and    15 shell-pairs
 PRISM was handed   268433825 working-precision words and    15 shell-pairs
 PRISM was handed   268433825 working-precision words and    15 shell-pairs
 IPart= 28 NShTot=           0 NBatch=           0 AvBLen=         0.0
 PRISM was handed   268433825 working-precision words and    15 shell-pairs
 IPart= 26 NShTot=           0 NBatch=           0 AvBLen=         0.0
 IPart= 30 NShTot=           0 NBatch=           0 AvBLen=         0.0
 PRISM was handed   268433825 working-precision words and    15 shell-pairs
 PRISM was handed   268433825 working-precision words and    15 shell-pairs
 PRISM was handed   268433825 working-precision words and    15 shell-pairs
 PRISM was handed   268433825 working-precision words and    15 shell-pairs
 PRISM was handed   268433825 working-precision words and    15 shell-pairs
 IPart= 29 NShTot=           0 NBatch=           0 AvBLen=         0.0
 IPart=  0 NShTot=          10 NBatch=          10 AvBLen=         1.0
 IPart=  6 NShTot=           0 NBatch=           0 AvBLen=         0.0
 IPart= 32 NShTot=           0 NBatch=           0 AvBLen=         0.0
 IPart=  7 NShTot=           0 NBatch=           0 AvBLen=         0.0
 IPart= 35 NShTot=           0 NBatch=           0 AvBLen=         0.0
 IPart= 14 NShTot=           0 NBatch=           0 AvBLen=         0.0
 IPart= 19 NShTot=           0 NBatch=           0 AvBLen=         0.0
 IPart=  8 NShTot=           0 NBatch=           0 AvBLen=         0.0
 IPart= 12 NShTot=           0 NBatch=           0 AvBLen=         0.0
 PrSmSu:  NxtVal=             37.
 *** Overlap *** 
                1             2             3             4             5 
      1  0.100000D+01
      2  0.216506D-02  0.100000D+01
      3  0.280678D-01  0.226762D+00  0.100000D+01
      4  0.000000D+00  0.000000D+00  0.000000D+00  0.100000D+01
      5  0.000000D+00  0.000000D+00  0.000000D+00  0.000000D+00  0.100000D+01
      6 -0.268824D-01  0.000000D+00  0.000000D+00  0.000000D+00  0.000000D+00
      7  0.299465D+00  0.175172D-02  0.143132D+00  0.000000D+00  0.000000D+00
      8  0.000000D+00  0.000000D+00  0.000000D+00  0.120813D+00  0.000000D+00
      9  0.000000D+00  0.000000D+00  0.000000D+00  0.000000D+00  0.120813D+00
     10 -0.448715D+00  0.000000D+00  0.000000D+00  0.000000D+00  0.000000D+00
     11  0.266267D+00  0.160858D-01  0.166618D+00  0.000000D+00  0.000000D+00
     12  0.000000D+00  0.000000D+00  0.000000D+00  0.399192D-01  0.000000D+00
     13  0.000000D+00  0.000000D+00  0.000000D+00  0.000000D+00  0.399192D-01
     14 -0.299223D+00  0.000000D+00  0.000000D+00  0.000000D+00  0.000000D+00
                6             7             8             9            10 
      6  0.100000D+01
      7  0.000000D+00  0.100000D+01
      8  0.000000D+00  0.000000D+00  0.100000D+01
      9  0.000000D+00  0.000000D+00  0.000000D+00  0.100000D+01
     10  0.120813D+00  0.000000D+00  0.000000D+00  0.000000D+00  0.100000D+01
     11  0.000000D+00  0.876080D+00  0.000000D+00  0.000000D+00  0.000000D+00
     12  0.000000D+00  0.000000D+00  0.775774D+00  0.000000D+00  0.000000D+00
     13  0.000000D+00  0.000000D+00  0.000000D+00  0.775774D+00  0.000000D+00
     14  0.399192D-01  0.000000D+00  0.000000D+00  0.000000D+00  0.775774D+00
               11            12            13            14 
     11  0.100000D+01
     12  0.000000D+00  0.100000D+01
     13  0.000000D+00  0.000000D+00  0.100000D+01
     14  0.000000D+00  0.000000D+00  0.000000D+00  0.100000D+01
 *** Kinetic Energy *** 
                1             2             3             4             5 
      1  0.760032D+00
      2 -0.888129D-03  0.570648D+02
      3 -0.101928D-01 -0.145971D+01  0.183414D+01
      4  0.000000D+00  0.000000D+00  0.000000D+00  0.585712D+01
      5  0.000000D+00  0.000000D+00  0.000000D+00  0.000000D+00  0.585712D+01
      6  0.608745D-02  0.000000D+00  0.000000D+00  0.000000D+00  0.000000D+00
      7  0.257361D-01 -0.420609D-01 -0.141303D+00  0.000000D+00  0.000000D+00
      8  0.000000D+00  0.000000D+00  0.000000D+00  0.441422D-01  0.000000D+00
      9  0.000000D+00  0.000000D+00  0.000000D+00  0.000000D+00  0.441422D-01
     10 -0.756423D-01  0.000000D+00  0.000000D+00  0.000000D+00  0.000000D+00
     11  0.135618D-01  0.117775D-02  0.119127D-01  0.000000D+00  0.000000D+00
     12  0.000000D+00  0.000000D+00  0.000000D+00  0.476129D-02  0.000000D+00
     13  0.000000D+00  0.000000D+00  0.000000D+00  0.000000D+00  0.476129D-02
     14 -0.285411D-01  0.000000D+00  0.000000D+00  0.000000D+00  0.000000D+00
                6             7             8             9            10 
      6  0.585712D+01
      7  0.000000D+00  0.106538D+00
      8  0.000000D+00  0.000000D+00  0.153112D+00
      9  0.000000D+00  0.000000D+00  0.000000D+00  0.153112D+00
     10  0.441422D-01  0.000000D+00  0.000000D+00  0.000000D+00  0.153112D+00
     11  0.000000D+00  0.447876D-01  0.000000D+00  0.000000D+00  0.000000D+00
     12  0.000000D+00  0.000000D+00  0.676855D-01  0.000000D+00  0.000000D+00
     13  0.000000D+00  0.000000D+00  0.000000D+00  0.676855D-01  0.000000D+00
     14  0.476129D-02  0.000000D+00  0.000000D+00  0.000000D+00  0.676855D-01
               11            12            13            14 
     11  0.366524D-01
     12  0.000000D+00  0.610873D-01
     13  0.000000D+00  0.000000D+00  0.610873D-01
     14  0.000000D+00  0.000000D+00  0.000000D+00  0.610873D-01
 Entering OneElI...
 Calculate potential energy integrals
    NBasis =  14  MinDer = 0  MaxDer = 0
 Requested accuracy = 0.1000D-12
 Symmetry will be used
 PrmmSu-InSpLW:  IPartL=    0 NPrtUS=   36 NPrtUL=    1 DoSpLW=F IThBeg=    0 IThEnd=   35 NThAct=   36.
 PrSmSu:  IncTry=   512 NBBP=             30 NTPThr=   100 NPartT=   36 Incr=           1 LDynOK=F GPUOK=F.
 PrsmSu:  NPrtUS=  36 ThrOK=T IAlg=1 LenDen=           0 ISkipM=0 DoSpLW=F IThBeg=    0 IThEnd=   35.
 Prism:   IPart=     0 DynPar=F LinDyn=F Incr=           1.
 PRISM was handed   268433948 working-precision words and    15 shell-pairs
 PRISM was handed   268433948 working-precision words and    15 shell-pairs
 PRISM was handed   268433948 working-precision words and    15 shell-pairs
 PRISM was handed   268433948 working-precision words and    15 shell-pairs
 PRISM was handed   268433948 working-precision words and    15 shell-pairs
 PRISM was handed   268433948 working-precision words and    15 shell-pairs
 PRISM was handed   268433948 working-precision words and    15 shell-pairs
 PRISM was handed   268433948 working-precision words and    15 shell-pairs
 PRISM was handed   268433948 working-precision words and    15 shell-pairs
 PRISM was handed   268433948 working-precision words and    15 shell-pairs
 PRISM was handed   268433948 working-precision words and    15 shell-pairs
 PRISM was handed   268433948 working-precision words and    15 shell-pairs
 PRISM was handed   268433948 working-precision words and    15 shell-pairs
 PRISM was handed   268433948 working-precision words and    15 shell-pairs
 PRISM was handed   268433948 working-precision words and    15 shell-pairs
 PRISM was handed   268433948 working-precision words and    15 shell-pairs
 PRISM was handed   268433948 working-precision words and    15 shell-pairs
 PRISM was handed   268433948 working-precision words and    15 shell-pairs
 PRISM was handed   268433948 working-precision words and    15 shell-pairs
 PRISM was handed   268433948 working-precision words and    15 shell-pairs
 PRISM was handed   268433948 working-precision words and    15 shell-pairs
 PRISM was handed   268433948 working-precision words and    15 shell-pairs
 PRISM was handed   268433948 working-precision words and    15 shell-pairs
 PRISM was handed   268433948 working-precision words and    15 shell-pairs
 PRISM was handed   268433948 working-precision words and    15 shell-pairs
 PRISM was handed   268433948 working-precision words and    15 shell-pairs
 PRISM was handed   268433948 working-precision words and    15 shell-pairs
 PRISM was handed   268433948 working-precision words and    15 shell-pairs
 PRISM was handed   268433948 working-precision words and    15 shell-pairs
 PRISM was handed   268433948 working-precision words and    15 shell-pairs
 PRISM was handed   268433948 working-precision words and    15 shell-pairs
 PRISM was handed   268433948 working-precision words and    15 shell-pairs
 PRISM was handed   268433948 working-precision words and    15 shell-pairs
 PRISM was handed   268433948 working-precision words and    15 shell-pairs
 PRISM was handed   268433948 working-precision words and    15 shell-pairs
 PRISM was handed   268433948 working-precision words and    15 shell-pairs
 IPart=  8 NShTot=           0 NBatch=           0 AvBLen=         0.0
 IPart= 28 NShTot=           0 NBatch=           0 AvBLen=         0.0
 IPart= 15 NShTot=           0 NBatch=           0 AvBLen=         0.0
 IPart= 19 NShTot=           0 NBatch=           0 AvBLen=         0.0
 IPart= 12 NShTot=           0 NBatch=           0 AvBLen=         0.0
 IPart=  3 NShTot=           0 NBatch=           0 AvBLen=         0.0
 IPart= 26 NShTot=           0 NBatch=           0 AvBLen=         0.0
 IPart=  2 NShTot=           0 NBatch=           0 AvBLen=         0.0
 IPart= 17 NShTot=           0 NBatch=           0 AvBLen=         0.0
 IPart= 13 NShTot=           0 NBatch=           0 AvBLen=         0.0
 IPart=  7 NShTot=           0 NBatch=           0 AvBLen=         0.0
 IPart= 16 NShTot=           0 NBatch=           0 AvBLen=         0.0
 IPart= 20 NShTot=           0 NBatch=           0 AvBLen=         0.0
 IPart= 23 NShTot=           0 NBatch=           0 AvBLen=         0.0
 IPart= 18 NShTot=           0 NBatch=           0 AvBLen=         0.0
 IPart= 27 NShTot=           0 NBatch=           0 AvBLen=         0.0
 IPart= 34 NShTot=           0 NBatch=           0 AvBLen=         0.0
 IPart=  5 NShTot=           0 NBatch=           0 AvBLen=         0.0
 IPart= 11 NShTot=           0 NBatch=           0 AvBLen=         0.0
 IPart= 29 NShTot=           0 NBatch=           0 AvBLen=         0.0
 IPart= 10 NShTot=           0 NBatch=           0 AvBLen=         0.0
 IPart= 24 NShTot=           0 NBatch=           0 AvBLen=         0.0
 IPart= 31 NShTot=           0 NBatch=           0 AvBLen=         0.0
 IPart= 30 NShTot=           0 NBatch=           0 AvBLen=         0.0
 IPart=  6 NShTot=           0 NBatch=           0 AvBLen=         0.0
 IPart= 32 NShTot=           0 NBatch=           0 AvBLen=         0.0
 IPart= 35 NShTot=           0 NBatch=           0 AvBLen=         0.0
 IPart= 33 NShTot=           0 NBatch=           0 AvBLen=         0.0
 IPart= 25 NShTot=           0 NBatch=           0 AvBLen=         0.0
 IPart= 14 NShTot=           0 NBatch=           0 AvBLen=         0.0
 IPart= 21 NShTot=           0 NBatch=           0 AvBLen=         0.0
 IPart=  4 NShTot=           0 NBatch=           0 AvBLen=         0.0
 IPart= 22 NShTot=           0 NBatch=           0 AvBLen=         0.0
 IPart=  9 NShTot=           0 NBatch=           0 AvBLen=         0.0
 IPart=  1 NShTot=           6 NBatch=           3 AvBLen=         2.0
 IPart=  0 NShTot=          24 NBatch=          12 AvBLen=         2.0
 PrSmSu:  NxtVal=             37.
 ***** Potential Energy ***** 
                1             2             3             4             5 
      1  0.399789D+01
      2  0.136749D+00  0.117406D+03
      3  0.335484D+00  0.127999D+02  0.183682D+02
      4  0.000000D+00  0.000000D+00  0.000000D+00  0.188868D+02
      5  0.000000D+00  0.000000D+00  0.000000D+00  0.000000D+00  0.188868D+02
      6 -0.243431D+00 -0.239484D-02 -0.280434D-01  0.000000D+00  0.000000D+00
      7  0.116623D+01  0.828703D-01  0.136817D+01  0.000000D+00  0.000000D+00
      8  0.000000D+00  0.000000D+00  0.000000D+00  0.117038D+01  0.000000D+00
      9  0.000000D+00  0.000000D+00  0.000000D+00  0.000000D+00  0.117038D+01
     10 -0.163210D+01 -0.273255D-04 -0.498791D-02  0.000000D+00  0.000000D+00
     11  0.977430D+00  0.102110D+01  0.214523D+01  0.000000D+00  0.000000D+00
     12  0.000000D+00  0.000000D+00  0.000000D+00  0.372848D+00  0.000000D+00
     13  0.000000D+00  0.000000D+00  0.000000D+00  0.000000D+00  0.372848D+00
     14 -0.988385D+00 -0.784803D-05 -0.166887D-02  0.000000D+00  0.000000D+00
                6             7             8             9            10 
      6  0.188941D+02
      7 -0.911437D-02  0.379437D+01
      8  0.000000D+00  0.000000D+00  0.310002D+01
      9  0.000000D+00  0.000000D+00  0.000000D+00  0.310002D+01
     10  0.117303D+01 -0.979652D-01  0.000000D+00  0.000000D+00  0.318390D+01
     11 -0.810792D-02  0.305186D+01  0.000000D+00  0.000000D+00 -0.880055D-01
     12  0.000000D+00  0.000000D+00  0.201471D+01  0.000000D+00  0.000000D+00
     13  0.000000D+00  0.000000D+00  0.000000D+00  0.201471D+01  0.000000D+00
     14  0.373779D+00 -0.595844D-01  0.000000D+00  0.000000D+00  0.206969D+01
               11            12            13            14 
     11  0.294178D+01
     12  0.000000D+00  0.197365D+01
     13  0.000000D+00  0.000000D+00  0.197365D+01
     14 -0.663671D-01  0.000000D+00  0.000000D+00  0.201859D+01
 ****** Core Hamiltonian ****** 
                1             2             3             4             5 
      1 -0.323785D+01
      2 -0.137637D+00 -0.603415D+02
      3 -0.345677D+00 -0.142596D+02 -0.165341D+02
      4  0.000000D+00  0.000000D+00  0.000000D+00 -0.130297D+02
      5  0.000000D+00  0.000000D+00  0.000000D+00  0.000000D+00 -0.130297D+02
      6  0.249518D+00  0.239484D-02  0.280434D-01  0.000000D+00  0.000000D+00
      7 -0.114049D+01 -0.124931D+00 -0.150947D+01  0.000000D+00  0.000000D+00
      8  0.000000D+00  0.000000D+00  0.000000D+00 -0.112624D+01  0.000000D+00
      9  0.000000D+00  0.000000D+00  0.000000D+00  0.000000D+00 -0.112624D+01
     10  0.155646D+01  0.273255D-04  0.498791D-02  0.000000D+00  0.000000D+00
     11 -0.963868D+00 -0.101992D+01 -0.213332D+01  0.000000D+00  0.000000D+00
     12  0.000000D+00  0.000000D+00  0.000000D+00 -0.368086D+00  0.000000D+00
     13  0.000000D+00  0.000000D+00  0.000000D+00  0.000000D+00 -0.368086D+00
     14  0.959843D+00  0.784803D-05  0.166887D-02  0.000000D+00  0.000000D+00
                6             7             8             9            10 
      6 -0.130369D+02
      7  0.911437D-02 -0.368783D+01
      8  0.000000D+00  0.000000D+00 -0.294691D+01
      9  0.000000D+00  0.000000D+00  0.000000D+00 -0.294691D+01
     10 -0.112888D+01  0.979652D-01  0.000000D+00  0.000000D+00 -0.303079D+01
     11  0.810792D-02 -0.300707D+01  0.000000D+00  0.000000D+00  0.880055D-01
     12  0.000000D+00  0.000000D+00 -0.194703D+01  0.000000D+00  0.000000D+00
     13  0.000000D+00  0.000000D+00  0.000000D+00 -0.194703D+01  0.000000D+00
     14 -0.369017D+00  0.595844D-01  0.000000D+00  0.000000D+00 -0.200201D+01
               11            12            13            14 
     11 -0.290513D+01
     12  0.000000D+00 -0.191256D+01
     13  0.000000D+00  0.000000D+00 -0.191256D+01
     14  0.663671D-01  0.000000D+00  0.000000D+00 -0.195750D+01
 SVDSVc IOpt=   1 NormSV=T IR=1
 SVDSVc V= 2.22D+00 1.87D+00 1.20D+00 9.91D-01 7.61D-01 6.41D-01 1.99D-01 1.22D-01
 SVDSVc IOpt=   1 NormSV=T IR=3
 SVDSVc V= 1.79D+00 9.88D-01 2.20D-01
 SVDSVc IOpt=   1 NormSV=T IR=4
 SVDSVc V= 1.79D+00 9.88D-01 2.20D-01
 TstOVc:  Largest diagonal error= 1.78D-15 IB=3 I=   11.
 TstOVc:  Largest same sym error= 7.84D-16 IB=1 I=    7 J=    4.
 TstOVc:  Largest diff sym error= 0.00D+00 IB=0 JB=0 I=    0 J=    0.
 Orthogonalized basis functions: 
                 1             2             3             4             5 
      1   0.317187D+00 -0.781865D-01 -0.721280D-01  0.807979D-01 -0.244080D+00
      2   0.216028D-01  0.415626D-01  0.672531D+00  0.258469D-01 -0.761070D+00
      3   0.889690D-01  0.132978D+00  0.590194D+00  0.367028D-03  0.806887D+00
      4   0.000000D+00  0.000000D+00  0.000000D+00  0.000000D+00  0.000000D+00
      5   0.000000D+00  0.000000D+00  0.000000D+00  0.000000D+00  0.000000D+00
      6  -0.445353D-01  0.688964D-01 -0.236837D-01  0.994142D+00  0.221634D-01
      7   0.306849D+00  0.349417D+00 -0.125306D+00 -0.248254D-01 -0.567378D-01
      8   0.000000D+00  0.000000D+00  0.000000D+00  0.000000D+00  0.000000D+00
      9   0.000000D+00  0.000000D+00  0.000000D+00  0.000000D+00  0.000000D+00
     10  -0.290283D+00  0.363643D+00 -0.386810D-01 -0.187681D-01 -0.560582D-01
     11   0.302963D+00  0.353028D+00 -0.101152D+00 -0.274810D-01 -0.314000D-01
     12   0.000000D+00  0.000000D+00  0.000000D+00  0.000000D+00  0.000000D+00
     13   0.000000D+00  0.000000D+00  0.000000D+00  0.000000D+00  0.000000D+00
     14  -0.264670D+00  0.353173D+00 -0.478051D-01 -0.107873D+00 -0.127365D+00
                 6             7             8             9            10 
      1   0.102043D+01  0.434810D+00 -0.131302D+00  0.000000D+00  0.000000D+00
      2  -0.143569D+00 -0.271004D-02  0.208086D-01  0.000000D+00  0.000000D+00
      3   0.239837D+00  0.172482D-01  0.467741D-01  0.000000D+00  0.000000D+00
      4   0.000000D+00  0.000000D+00  0.000000D+00  0.106366D+00  0.993078D+00
      5   0.000000D+00  0.000000D+00  0.000000D+00  0.000000D+00  0.000000D+00
      6  -0.333647D-01 -0.163524D+00  0.108030D-01  0.000000D+00  0.000000D+00
      7  -0.233544D+00  0.189439D-01  0.203202D+01  0.000000D+00  0.000000D+00
      8   0.000000D+00  0.000000D+00  0.000000D+00  0.525558D+00 -0.486986D-01
      9   0.000000D+00  0.000000D+00  0.000000D+00  0.000000D+00  0.000000D+00
     10   0.152681D+00  0.165396D+01 -0.130991D+00  0.000000D+00  0.000000D+00
     11  -0.292101D+00 -0.168764D+00 -0.199814D+01  0.000000D+00  0.000000D+00
     12   0.000000D+00  0.000000D+00  0.000000D+00  0.520070D+00 -0.153894D+00
     13   0.000000D+00  0.000000D+00  0.000000D+00  0.000000D+00  0.000000D+00
     14   0.524839D+00 -0.143106D+01  0.705401D-01  0.000000D+00  0.000000D+00
                11            12            13            14 
      1   0.000000D+00  0.000000D+00  0.000000D+00  0.000000D+00
      2   0.000000D+00  0.000000D+00  0.000000D+00  0.000000D+00
      3   0.000000D+00  0.000000D+00  0.000000D+00  0.000000D+00
      4  -0.157598D+00  0.000000D+00  0.000000D+00  0.000000D+00
      5   0.000000D+00  0.106366D+00  0.993078D+00 -0.157598D+00
      6   0.000000D+00  0.000000D+00  0.000000D+00  0.000000D+00
      7   0.000000D+00  0.000000D+00  0.000000D+00  0.000000D+00
      8   0.151160D+01  0.000000D+00  0.000000D+00  0.000000D+00
      9   0.000000D+00  0.525558D+00 -0.486986D-01  0.151160D+01
     10   0.000000D+00  0.000000D+00  0.000000D+00  0.000000D+00
     11   0.000000D+00  0.000000D+00  0.000000D+00  0.000000D+00
     12  -0.149532D+01  0.000000D+00  0.000000D+00  0.000000D+00
     13   0.000000D+00  0.520070D+00 -0.153894D+00 -0.149532D+01
     14   0.000000D+00  0.000000D+00  0.000000D+00  0.000000D+00
 NBasis=    14 RedAO= T EigKep=  1.22D-01  NBF=     8     0     3     3
 NBsUse=    14 1.00D-06 EigRej= -1.00D+00 NBFU=     8     0     3     3
 Leave Link  302 at Mon Mar 28 14:19:26 2022, MaxMem=  9663676416 cpu:               3.2 elap:               0.1
 (Enter /nopt/nrel/apps/gaussian/g16C_1/g16/l303.exe)
 DipDrv will not compute anything.
 Fermi contact integrals: 
                 1             2 
      1   0.628247D+00  0.585797D-02
      2   0.000000D+00  0.171843D+02
      3   0.000000D+00  0.368674D+00
      4   0.000000D+00  0.000000D+00
      5   0.000000D+00  0.000000D+00
      6  -0.190948D-05  0.000000D+00
      7   0.364291D-01  0.187097D-02
      8   0.000000D+00  0.000000D+00
      9   0.000000D+00  0.000000D+00
     10  -0.654243D-01  0.000000D+00
     11   0.299776D-01  0.440472D-01
     12   0.000000D+00  0.000000D+00
     13   0.000000D+00  0.000000D+00
     14  -0.371921D-01  0.000000D+00
 Leave Link  303 at Mon Mar 28 14:19:26 2022, MaxMem=  9663676416 cpu:               0.8 elap:               0.0
 (Enter /nopt/nrel/apps/gaussian/g16C_1/g16/l401.exe)
 ExpMin= 2.44D-02 ExpMax= 5.48D+02 ExpMxC= 5.48D+02 IAcc=3 IRadAn=         5 AccDes= 0.00D+00
 Harris functional with IExCor=  205 and IRadAn=       5 diagonalized for initial guess.
 HarFok:  IExCor=  205 AccDes= 0.00D+00 IRadAn=         5 IDoV= 1 UseB2=F ITyADJ=14
 ICtDFT=  3500011 ScaDFX=  1.000000  1.000000  1.000000  1.000000
 FoFCou: FMM=F IPFlag=           0 FMFlag=      100000 FMFlg1=           0
         NFxFlg=           0 DoJE=T BraDBF=F KetDBF=T FulRan=T
         wScrn=  0.000000 ICntrl=       500 IOpCl=  0 I1Cent=   200000004 NGrid=           0
         NMat0=    1 NMatS0=      1 NMatT0=    0 NMatD0=    1 NMtDS0=    0 NMtDT0=    0
 Petite list used in FoFCou.
 Harris En= -161.211447538833    
 JPrj=0 DoOrth=F DoCkMO=F.
 Initial guess orbital symmetries:
       Occupied  (SG) (SG) (SG) (PI) (PI) (SG)
       Virtual   (SG) (PI) (PI) (SG) (SG) (PI) (PI) (SG)
 The electronic state of the initial guess is 1-SG.
 Leave Link  401 at Mon Mar 28 14:19:27 2022, MaxMem=  9663676416 cpu:               4.5 elap:               0.2
 (Enter /nopt/nrel/apps/gaussian/g16C_1/g16/l502.exe)
 Keep R1 ints in memory in symmetry-blocked form, NReq=7213080.
 FoFCou: FMM=F IPFlag=           0 FMFlag=           0 FMFlg1=           0
         NFxFlg=           0 DoJE=F BraDBF=F KetDBF=F FulRan=T
         wScrn=  0.000000 ICntrl=       600 IOpCl=  0 I1Cent=           0 NGrid=           0
         NMat0=    1 NMatS0=    105 NMatT0=    0 NMatD0=    1 NMtDS0=    0 NMtDT0=    0
 Petite list used in FoFCou.
 Closed shell SCF:
 Using DIIS extrapolation, IDIIS=  1040.
 NGot=  9663676416 LenX=  9663671753 LenY=  9663670871
 Requested convergence on RMS density matrix=1.00D-08 within 128 cycles.
 Requested convergence on MAX density matrix=1.00D-06.
 Requested convergence on             energy=1.00D-06.
 No special actions if energy rises.

 Cycle   1  Pass 1  IDiag  1:
 E= -161.320387193372    
 DIIS: error= 3.69D-02 at cycle   1 NSaved=   1.
 NSaved= 1 IEnMin= 1 EnMin= -161.320387193372     IErMin= 1 ErrMin= 3.69D-02
 ErrMax= 3.69D-02  0.00D+00 EMaxC= 1.00D-01 BMatC= 1.51D-02 BMatP= 1.51D-02
 IDIUse=3 WtCom= 6.31D-01 WtEn= 3.69D-01
 Coeff-Com:  0.100D+01
 Coeff-En:   0.100D+01
 Coeff:      0.100D+01
 Gap=     0.208 Goal=   None    Shift=    0.000
 GapD=    0.208 DampG=1.000 DampE=0.500 DampFc=0.5000 IDamp=-1.
 Damping current iteration by 5.00D-01
 RMSDP=1.86D-02 MaxDP=1.98D-01              OVMax= 1.31D-02

 Cycle   2  Pass 1  IDiag  1:
 E= -161.338716332760     Delta-E=       -0.018329139389 Rises=F Damp=T
 DIIS: error= 1.82D-02 at cycle   2 NSaved=   2.
 NSaved= 2 IEnMin= 2 EnMin= -161.338716332760     IErMin= 2 ErrMin= 1.82D-02
 ErrMax= 1.82D-02  0.00D+00 EMaxC= 1.00D-01 BMatC= 3.87D-03 BMatP= 1.51D-02
 IDIUse=3 WtCom= 8.18D-01 WtEn= 1.82D-01
 Coeff-Com: -0.102D+01 0.202D+01
 Coeff-En:   0.000D+00 0.100D+01
 Coeff:     -0.830D+00 0.183D+01
 Gap=     0.257 Goal=   None    Shift=    0.000
 RMSDP=9.29D-03 MaxDP=9.53D-02 DE=-1.83D-02 OVMax= 6.94D-04

 Cycle   3  Pass 1  IDiag  1:
 E= -161.357261979408     Delta-E=       -0.018545646648 Rises=F Damp=F
 DIIS: error= 3.35D-04 at cycle   3 NSaved=   3.
 NSaved= 3 IEnMin= 3 EnMin= -161.357261979408     IErMin= 3 ErrMin= 3.35D-04
 ErrMax= 3.35D-04  0.00D+00 EMaxC= 1.00D-01 BMatC= 1.98D-06 BMatP= 3.87D-03
 IDIUse=3 WtCom= 9.97D-01 WtEn= 3.35D-03
 Coeff-Com:  0.277D+00-0.555D+00 0.128D+01
 Coeff-En:   0.000D+00 0.000D+00 0.100D+01
 Coeff:      0.276D+00-0.553D+00 0.128D+01
 Gap=     0.261 Goal=   None    Shift=    0.000
 RMSDP=4.35D-04 MaxDP=2.22D-03 DE=-1.85D-02 OVMax= 1.97D-04

 Cycle   4  Pass 1  IDiag  1:
 E= -161.357270549322     Delta-E=       -0.000008569914 Rises=F Damp=F
 DIIS: error= 8.21D-05 at cycle   4 NSaved=   4.
 NSaved= 4 IEnMin= 4 EnMin= -161.357270549322     IErMin= 4 ErrMin= 8.21D-05
 ErrMax= 8.21D-05  0.00D+00 EMaxC= 1.00D-01 BMatC= 6.56D-08 BMatP= 1.98D-06
 IDIUse=1 WtCom= 1.00D+00 WtEn= 0.00D+00
 Coeff-Com:  0.111D+00-0.221D+00 0.415D+00 0.695D+00
 Coeff:      0.111D+00-0.221D+00 0.415D+00 0.695D+00
 Gap=     0.262 Goal=   None    Shift=    0.000
 RMSDP=6.04D-05 MaxDP=3.33D-04 DE=-8.57D-06 OVMax= 1.54D-06

 Cycle   5  Pass 1  IDiag  1:
 E= -161.357270986558     Delta-E=       -0.000000437236 Rises=F Damp=F
 DIIS: error= 4.98D-05 at cycle   5 NSaved=   5.
 NSaved= 5 IEnMin= 5 EnMin= -161.357270986558     IErMin= 5 ErrMin= 4.98D-05
 ErrMax= 4.98D-05  0.00D+00 EMaxC= 1.00D-01 BMatC= 2.08D-08 BMatP= 6.56D-08
 IDIUse=1 WtCom= 1.00D+00 WtEn= 0.00D+00
 Coeff-Com:  0.130D-01-0.259D-01 0.747D-01-0.128D+01 0.222D+01
 Coeff:      0.130D-01-0.259D-01 0.747D-01-0.128D+01 0.222D+01
 Gap=     0.262 Goal=   None    Shift=    0.000
 RMSDP=6.09D-05 MaxDP=3.61D-04 DE=-4.37D-07 OVMax= 2.64D-06

 Cycle   6  Pass 1  IDiag  1:
 E= -161.357271200508     Delta-E=       -0.000000213950 Rises=F Damp=F
 DIIS: error= 8.07D-06 at cycle   6 NSaved=   6.
 NSaved= 6 IEnMin= 6 EnMin= -161.357271200508     IErMin= 6 ErrMin= 8.07D-06
 ErrMax= 8.07D-06  0.00D+00 EMaxC= 1.00D-01 BMatC= 4.05D-10 BMatP= 2.08D-08
 IDIUse=1 WtCom= 1.00D+00 WtEn= 0.00D+00
 Coeff-Com: -0.808D-03 0.161D-02-0.103D-01 0.730D+00-0.145D+01 0.173D+01
 Coeff:     -0.808D-03 0.161D-02-0.103D-01 0.730D+00-0.145D+01 0.173D+01
 Gap=     0.262 Goal=   None    Shift=    0.000
 RMSDP=8.15D-06 MaxDP=4.11D-05 DE=-2.14D-07 OVMax= 7.68D-07

 Cycle   7  Pass 1  IDiag  1:
 E= -161.357271205538     Delta-E=       -0.000000005030 Rises=F Damp=F
 DIIS: error= 2.27D-07 at cycle   7 NSaved=   7.
 NSaved= 7 IEnMin= 7 EnMin= -161.357271205538     IErMin= 7 ErrMin= 2.27D-07
 ErrMax= 2.27D-07  0.00D+00 EMaxC= 1.00D-01 BMatC= 6.93D-13 BMatP= 4.05D-10
 IDIUse=1 WtCom= 1.00D+00 WtEn= 0.00D+00
 Coeff-Com: -0.650D-04 0.131D-03 0.540D-03-0.934D-01 0.194D+00-0.254D+00
 Coeff-Com:  0.115D+01
 Coeff:     -0.650D-04 0.131D-03 0.540D-03-0.934D-01 0.194D+00-0.254D+00
 Coeff:      0.115D+01
 Gap=     0.262 Goal=   None    Shift=    0.000
 RMSDP=4.32D-07 MaxDP=2.18D-06 DE=-5.03D-09 OVMax= 1.17D-07

 Cycle   8  Pass 1  IDiag  1:
 E= -161.357271205542     Delta-E=       -0.000000000004 Rises=F Damp=F
 DIIS: error= 2.68D-08 at cycle   8 NSaved=   8.
 NSaved= 8 IEnMin= 8 EnMin= -161.357271205542     IErMin= 8 ErrMin= 2.68D-08
 ErrMax= 2.68D-08  0.00D+00 EMaxC= 1.00D-01 BMatC= 6.23D-15 BMatP= 6.93D-13
 IDIUse=1 WtCom= 1.00D+00 WtEn= 0.00D+00
 Coeff-Com:  0.405D-05-0.814D-05-0.145D-03 0.183D-01-0.377D-01 0.503D-01
 Coeff-Com: -0.253D+00 0.122D+01
 Coeff:      0.405D-05-0.814D-05-0.145D-03 0.183D-01-0.377D-01 0.503D-01
 Coeff:     -0.253D+00 0.122D+01
 Gap=     0.262 Goal=   None    Shift=    0.000
 RMSDP=3.95D-08 MaxDP=2.27D-07 DE=-4.04D-12 OVMax= 1.99D-09

 Cycle   9  Pass 1  IDiag  1:
 E= -161.357271205542     Delta-E=       -0.000000000000 Rises=F Damp=F
 DIIS: error= 2.08D-09 at cycle   9 NSaved=   9.
 NSaved= 9 IEnMin= 9 EnMin= -161.357271205542     IErMin= 9 ErrMin= 2.08D-09
 ErrMax= 2.08D-09  0.00D+00 EMaxC= 1.00D-01 BMatC= 2.99D-17 BMatP= 6.23D-15
 IDIUse=1 WtCom= 1.00D+00 WtEn= 0.00D+00
 Coeff-Com: -0.426D-07 0.705D-07 0.546D-04-0.605D-02 0.124D-01-0.165D-01
 Coeff-Com:  0.826D-01-0.421D+00 0.135D+01
 Coeff:     -0.426D-07 0.705D-07 0.546D-04-0.605D-02 0.124D-01-0.165D-01
 Coeff:      0.826D-01-0.421D+00 0.135D+01
 Gap=     0.262 Goal=   None    Shift=    0.000
 RMSDP=3.04D-09 MaxDP=1.82D-08 DE=-2.27D-13 OVMax= 2.01D-10

 SCF Done:  E(RHF) =  -161.357271206     A.U. after    9 cycles
            NFock=  9  Conv=0.30D-08     -V/T= 2.0033
 KE= 1.608199696710D+02 PE=-3.936706349546D+02 EE= 6.872151344943D+01
 Leave Link  502 at Mon Mar 28 14:19:27 2022, MaxMem=  9663676416 cpu:               3.8 elap:               0.1
 (Enter /nopt/nrel/apps/gaussian/g16C_1/g16/l801.exe)
 Windowed orbitals will be sorted by symmetry type.
 ExpMin= 2.44D-02 ExpMax= 5.48D+02 ExpMxC= 5.48D+02 IAcc=3 IRadAn=         5 AccDes= 0.00D+00
 HarFok:  IExCor=  205 AccDes= 0.00D+00 IRadAn=         5 IDoV=-2 UseB2=F ITyADJ=14
 ICtDFT= 12500011 ScaDFX=  1.000000  1.000000  1.000000  1.000000
 Largest valence mixing into a core orbital is  2.11D-04
 Largest core mixing into a valence orbital is  1.41D-04
 Range of M.O.s used for correlation:     6    14
 NBasis=    14 NAE=     6 NBE=     6 NFC=     5 NFV=     0
 NROrb=      9 NOA=     1 NOB=     1 NVA=     8 NVB=     8
 Leave Link  801 at Mon Mar 28 14:19:27 2022, MaxMem=  9663676416 cpu:               2.4 elap:               0.1
 (Enter /nopt/nrel/apps/gaussian/g16C_1/g16/l804.exe)
 Closed-shell transformation, MDV=  9663676416 ITran=4 ISComp=2.
 Unit  1 TFree=          8118 TCopy=        116765.
 Semi-Direct transformation.
 ModeAB=           2 MOrb=             1 LenV=    9663555876
 LASXX=           88 LTotXX=          88 LenRXX=          88
 LTotAB=         141 MaxLAS=         945 LenRXY=         945
 NonZer=        1107 LenScr=      785920 LnRSAI=           0
 LnScr1=           0 LExtra=      220189 Total=      1007142
 MaxDsk= 34359738368 SrtSym=           F ITran=            4
 DoSDTr:  NPSUse= 36
 JobTyp=0 Pass  1:  I=   1 to   1.
 (rs|ai) integrals will be sorted in core.
 Complete sort for first half transformation.
 First half transformation complete.
 Complete sort for second half transformation.
 Second half transformation complete.
 Spin components of T(2) and E(2):
     alpha-alpha T2 =       0.0000000000D+00 E2=      0.0000000000D+00
     alpha-beta  T2 =       0.1692910203D-01 E2=     -0.1777341617D-01
     beta-beta   T2 =       0.0000000000D+00 E2=      0.0000000000D+00
 ANorm=    0.1008429027D+01
 E2 =    -0.1777341617D-01 EUMP2 =    -0.16137504462171D+03
 Leave Link  804 at Mon Mar 28 14:19:27 2022, MaxMem=  9663676416 cpu:               1.9 elap:               0.1
 (Enter /nopt/nrel/apps/gaussian/g16C_1/g16/l913.exe)
 CIDS:  MDV=  9663676416.
 Frozen-core window:  NFC=   5 NFV=   0.
 IFCWin=0 IBDFC=1 NFBD=     0     0 NFCmp=     0     0 NFFFC=     0     0
 Using DD3R+UMP44R for 1st iteration.
 Using DD4RQ for 2nd and later iterations.
 Keep R2 and R3 ints in memory in symmetry-blocked form, NReq=7215474.
 FoFCou: FMM=F IPFlag=           0 FMFlag=           0 FMFlg1=           0
         NFxFlg=           0 DoJE=F BraDBF=F KetDBF=F FulRan=T
         wScrn=  0.000000 ICntrl=       600 IOpCl=  0 I1Cent=           0 NGrid=           0
         NMat0=    1 NMatS0=    105 NMatT0=    0 NMatD0=    1 NMtDS0=    0 NMtDT0=    0
 Petite list used in FoFCou.
 CIDS: In Core Option IDoMem=           1.
 Coupled Cluster theory with single and double substitutions
 ===========================================================
 Iterations= 200 Convergence= 0.100D-06
 Produce multiple copies of IABC intergrals
 Iteration Nr.   1
 **********************
 DD1Dir will call FoFMem   1 times, MxPair=         2
 NAB=     1 NAA=     0 NBB=     0.
 MP4(R+Q)=  0.30088798D-03
 Maximum subspace dimension=  5
 A-vector RMS=  1.8690782D-02 Max=  3.3236382D-02 conv= 1.00D-05.
 RLE energy=       -0.0288776576
 E3=       -0.71382061D-02        EUMP3=      -0.16138218283D+03
 E4(DQ)=   -0.28753146D-02        UMP4(DQ)=   -0.16138505814D+03
 E4(SDQ)=  -0.30501261D-02        UMP4(SDQ)=  -0.16138523295D+03
 VARIATIONAL ENERGIES WITH THE FIRST-ORDER WAVEFUNCTION:
 DE(Corr)= -0.24607777E-01 E(Corr)=     -161.38187898    
 NORM(A)=   0.10228402D+01
 Iteration Nr.   2
 **********************
 DD1Dir will call FoFMem   1 times, MxPair=         2
 NAB=     1 NAA=     0 NBB=     0.
 A-vector RMS=  9.2230234D-03 Max=  9.6905591D-03 conv= 1.00D-05.
 RLE energy=       -0.0299306922
 DE(Corr)= -0.29380457E-01 E(CORR)=     -161.38665166     Delta=-4.77D-03
 NORM(A)=   0.10262573D+01
 Iteration Nr.   3
 **********************
 DD1Dir will call FoFMem   1 times, MxPair=         2
 NAB=     1 NAA=     0 NBB=     0.
 A-vector RMS=  6.9819699D-03 Max=  8.1369854D-03 conv= 1.00D-05.
 RLE energy=       -0.0303912925
 DE(Corr)= -0.29973828E-01 E(CORR)=     -161.38724503     Delta=-5.93D-04
 NORM(A)=   0.10303927D+01
 Iteration Nr.   4
 **********************
 DD1Dir will call FoFMem   1 times, MxPair=         2
 NAB=     1 NAA=     0 NBB=     0.
 A-vector RMS=  2.1975897D-03 Max=  3.3204244D-03 conv= 1.00D-05.
 RLE energy=       -0.0306455347
 DE(Corr)= -0.30448268E-01 E(CORR)=     -161.38771947     Delta=-4.74D-04
 NORM(A)=   0.10326449D+01
 Iteration Nr.   5
 **********************
 DD1Dir will call FoFMem   1 times, MxPair=         2
 NAB=     1 NAA=     0 NBB=     0.
 A-vector RMS=  5.2830006D-04 Max=  4.3864442D-04 conv= 1.00D-05.
 RLE energy=       -0.0305975154
 DE(Corr)= -0.30617021E-01 E(CORR)=     -161.38788823     Delta=-1.69D-04
 NORM(A)=   0.10326407D+01
 Iteration Nr.   6
 **********************
 DD1Dir will call FoFMem   1 times, MxPair=         2
 NAB=     1 NAA=     0 NBB=     0.
 A-vector RMS=  2.2941918D-04 Max=  2.2080495D-04 conv= 1.00D-05.
 RLE energy=       -0.0305986731
 DE(Corr)= -0.30599001E-01 E(CORR)=     -161.38787021     Delta= 1.80D-05
 NORM(A)=   0.10326605D+01
 Iteration Nr.   7
 **********************
 DD1Dir will call FoFMem   1 times, MxPair=         2
 NAB=     1 NAA=     0 NBB=     0.
 A-vector RMS=  8.5123833D-05 Max=  9.4273599D-05 conv= 1.00D-05.
 RLE energy=       -0.0306022985
 DE(Corr)= -0.30600283E-01 E(CORR)=     -161.38787149     Delta=-1.28D-06
 NORM(A)=   0.10326741D+01
 Iteration Nr.   8
 **********************
 DD1Dir will call FoFMem   1 times, MxPair=         2
 NAB=     1 NAA=     0 NBB=     0.
 A-vector RMS=  1.1774689D-05 Max=  8.1318283D-06 conv= 1.00D-05.
 RLE energy=       -0.0306011936
 DE(Corr)= -0.30601720E-01 E(CORR)=     -161.38787293     Delta=-1.44D-06
 NORM(A)=   0.10326682D+01
 Iteration Nr.   9
 **********************
 DD1Dir will call FoFMem   1 times, MxPair=         2
 NAB=     1 NAA=     0 NBB=     0.
 A-vector RMS=  3.5043779D-06 Max=  3.8678879D-06 conv= 1.00D-05.
 RLE energy=       -0.0306015365
 DE(Corr)= -0.30601358E-01 E(CORR)=     -161.38787256     Delta= 3.62D-07
 NORM(A)=   0.10326693D+01
 Iteration Nr.  10
 **********************
 DD1Dir will call FoFMem   1 times, MxPair=         2
 NAB=     1 NAA=     0 NBB=     0.
 A-vector RMS=  2.0064301D-06 Max=  2.2018875D-06 conv= 1.00D-05.
 RLE energy=       -0.0306015135
 DE(Corr)= -0.30601502E-01 E(CORR)=     -161.38787271     Delta=-1.45D-07
 NORM(A)=   0.10326696D+01
 Iteration Nr.  11
 **********************
 DD1Dir will call FoFMem   1 times, MxPair=         2
 NAB=     1 NAA=     0 NBB=     0.
 A-vector RMS=  4.9691345D-07 Max=  9.5710044D-07 conv= 1.00D-05.
 RLE energy=       -0.0306015580
 DE(Corr)= -0.30601535E-01 E(CORR)=     -161.38787274     Delta=-3.24D-08
 NORM(A)=   0.10326700D+01
 CI/CC converged in   11 iterations to DelEn=-3.24D-08 Conv= 1.00D-07 ErrA1= 4.97D-07 Conv= 1.00D-05
 Wavefunction amplitudes converged. E(Corr)=     -161.38787274    
 Dominant configurations:
 ***********************
 Spin Case        I    J    A    B          Value
   ABAB           6    6   14   14      -0.134325D+00
 Largest amplitude= 1.34D-01
 Discarding MO integrals.
 Leave Link  913 at Mon Mar 28 14:19:27 2022, MaxMem=  9663676416 cpu:               4.2 elap:               0.1
 (Enter /nopt/nrel/apps/gaussian/g16C_1/g16/l601.exe)
 Copying SCF densities to generalized density rwf, IOpCl= 0 IROHF=0.

 **********************************************************************

            Population analysis using the SCF Density.

 **********************************************************************

 Orbital symmetries:
       Occupied  (SG) (SG) (PI) (PI) (SG) (SG)
       Virtual   (SG) (PI) (PI) (SG) (SG) (PI) (PI) (SG)
 The electronic state is 1-SG.
 Alpha  occ. eigenvalues --  -40.21372  -2.76897  -1.48669  -1.48669  -1.48570
 Alpha  occ. eigenvalues --   -0.26206
 Alpha virt. eigenvalues --   -0.00029   0.04049   0.04049   0.11017   0.13152
 Alpha virt. eigenvalues --    0.16890   0.16890   0.38771
          Condensed to atoms (all electrons):
               1          2
     1  H    0.610859   0.325313
     2  Na   0.325313  10.738516
 Mulliken charges:
               1
     1  H    0.063828
     2  Na  -0.063828
 Sum of Mulliken charges =   0.00000
 Mulliken charges with hydrogens summed into heavy atoms:
               1
     2  Na   0.000000
 N-N= 2.771880628629D+00 E-N=-3.936706349502D+02  KE= 1.608199696710D+02
 Symmetry A1   KE= 1.377523691989D+02
 Symmetry A2   KE= 0.000000000000D+00
 Symmetry B1   KE= 1.153380023609D+01
 Symmetry B2   KE= 1.153380023609D+01

 Atomic contributions to Alpha molecular orbitals:
 Alpha occ 1 OE=-40.214 is Na2-s=1.0000
 Alpha occ 2 OE=-2.769 is Na2-s=0.9998
 Alpha occ 3 OE=-1.487 is Na2-p=1.0000
 Alpha occ 4 OE=-1.487 is Na2-p=1.0000
 Alpha occ 5 OE=-1.486 is Na2-p=0.9997
 Alpha occ 6 OE=-0.262 is H1-s=0.4682 Na2-s=0.3323 Na2-p=0.1996
 Alpha vir 7 OE=-0.000 is Na2-s=0.5029 Na2-p=0.4774
 Alpha vir 8 OE=0.040 is Na2-p=1.0000
 Alpha vir 9 OE=0.040 is Na2-p=1.0000
 Alpha vir 10 OE=0.110 is Na2-p=0.8368 Na2-s=0.1048
 Alpha vir 11 OE=0.132 is Na2-s=0.9187
 Alpha vir 12 OE=0.169 is Na2-p=1.0000
 Alpha vir 13 OE=0.169 is Na2-p=1.0000
 Alpha vir 14 OE=0.388 is H1-s=0.4524 Na2-p=0.4063 Na2-s=0.1412
 
 Leave Link  601 at Mon Mar 28 14:19:27 2022, MaxMem=  9663676416 cpu:               3.5 elap:               0.1
 (Enter /nopt/nrel/apps/gaussian/g16C_1/g16/l9999.exe)

 Test job not archived.
 1\1\GINC-R102U34\SP\RCCSD-FC\Gen\H1Na1\USER\28-Mar-2022\0\\#P CCSD
 (MaxCyc=200,SaveAmplitudes,ReadAmplitudes)/GEN sp pop=AllOrbitals iop(
 3/33=1,3/36=-1)\\test\\0,1\H,0,0.,0.,0.\Na,0,0.,0.,2.1\\Version=ES64L-
 G16RevC.01\State=1-SG\HF=-161.3572712\MP2=-161.3750446\MP3=-161.382182
 8\MP4D=-161.385359\MP4DQ=-161.3850581\MP4SDQ=-161.385233\CCSD=-161.387
 8727\RMSD=3.044e-09\PG=C*V [C*(H1Na1)]\\@


 THERE IS MORE TO LIFE THAN INCREASING ITS SPEED.

                                       -- GANDHI
 Job cpu time:       0 days  0 hours  0 minutes 33.7 seconds.
 Elapsed time:       0 days  0 hours  0 minutes  1.3 seconds.
 File lengths (MBytes):  RWF=     13 Int=      0 D2E=      0 Chk=      1 Scr=      1
 Normal termination of Gaussian 16 at Mon Mar 28 14:19:27 2022.
