 Entering Gaussian System, Link 0=g16
 Initial command:
 /nopt/nrel/apps/gaussian/g16C_1/g16/l1.exe "/lustre/eaglefs/scratch/user/qc/nah-dissc/nah-3-ccsd-0.7-ccd/Gau-26633.inp" -scrdir="/lustre/eaglefs/scratch/user/qc/nah-dissc/nah-3-ccsd-0.7-ccd/"
 Default is to use a total of  36 processors:
                               36 via shared-memory
                                1 via Linda
 Entering Link 1 = /nopt/nrel/apps/gaussian/g16C_1/g16/l1.exe PID=     26634.
  
 Copyright (c) 1988-2019, Gaussian, Inc.  All Rights Reserved.
  
 This is part of the Gaussian(R) 16 program.  It is based on
 the Gaussian(R) 09 system (copyright 2009, Gaussian, Inc.),
 the Gaussian(R) 03 system (copyright 2003, Gaussian, Inc.),
 the Gaussian(R) 98 system (copyright 1998, Gaussian, Inc.),
 the Gaussian(R) 94 system (copyright 1995, Gaussian, Inc.),
 the Gaussian 92(TM) system (copyright 1992, Gaussian, Inc.),
 the Gaussian 90(TM) system (copyright 1990, Gaussian, Inc.),
 the Gaussian 88(TM) system (copyright 1988, Gaussian, Inc.),
 the Gaussian 86(TM) system (copyright 1986, Carnegie Mellon
 University), and the Gaussian 82(TM) system (copyright 1983,
 Carnegie Mellon University). Gaussian is a federally registered
 trademark of Gaussian, Inc.
  
 This software contains proprietary and confidential information,
 including trade secrets, belonging to Gaussian, Inc.
  
 This software is provided under written license and may be
 used, copied, transmitted, or stored only in accord with that
 written license.
  
 The following legend is applicable only to US Government
 contracts under FAR:
  
                    RESTRICTED RIGHTS LEGEND
  
 Use, reproduction and disclosure by the US Government is
 subject to restrictions as set forth in subparagraphs (a)
 and (c) of the Commercial Computer Software - Restricted
 Rights clause in FAR 52.227-19.
  
 Gaussian, Inc.
 340 Quinnipiac St., Bldg. 40, Wallingford CT 06492
  
  
 ---------------------------------------------------------------
 Warning -- This program may not be used in any manner that
 competes with the business of Gaussian, Inc. or will provide
 assistance to any competitor of Gaussian, Inc.  The licensee
 of this program is prohibited from giving any competitor of
 Gaussian, Inc. access to this program.  By using this program,
 the user acknowledges that Gaussian, Inc. is engaged in the
 business of creating and licensing software in the field of
 computational chemistry and represents and warrants to the
 licensee that it is not a competitor of Gaussian, Inc. and that
 it will not use this program in any manner prohibited above.
 ---------------------------------------------------------------
  

 Cite this work as:
 Gaussian 16, Revision C.01,
 M. J. Frisch, G. W. Trucks, H. B. Schlegel, G. E. Scuseria, 
 M. A. Robb, J. R. Cheeseman, G. Scalmani, V. Barone, 
 G. A. Petersson, H. Nakatsuji, X. Li, M. Caricato, A. V. Marenich, 
 J. Bloino, B. G. Janesko, R. Gomperts, B. Mennucci, H. P. Hratchian, 
 J. V. Ortiz, A. F. Izmaylov, J. L. Sonnenberg, D. Williams-Young, 
 F. Ding, F. Lipparini, F. Egidi, J. Goings, B. Peng, A. Petrone, 
 T. Henderson, D. Ranasinghe, V. G. Zakrzewski, J. Gao, N. Rega, 
 G. Zheng, W. Liang, M. Hada, M. Ehara, K. Toyota, R. Fukuda, 
 J. Hasegawa, M. Ishida, T. Nakajima, Y. Honda, O. Kitao, H. Nakai, 
 T. Vreven, K. Throssell, J. A. Montgomery, Jr., J. E. Peralta, 
 F. Ogliaro, M. J. Bearpark, J. J. Heyd, E. N. Brothers, K. N. Kudin, 
 V. N. Staroverov, T. A. Keith, R. Kobayashi, J. Normand, 
 K. Raghavachari, A. P. Rendell, J. C. Burant, S. S. Iyengar, 
 J. Tomasi, M. Cossi, J. M. Millam, M. Klene, C. Adamo, R. Cammi, 
 J. W. Ochterski, R. L. Martin, K. Morokuma, O. Farkas, 
 J. B. Foresman, and D. J. Fox, Gaussian, Inc., Wallingford CT, 2019.
 
 ******************************************
 Gaussian 16:  ES64L-G16RevC.01  3-Jul-2019
                28-Mar-2022 
 ******************************************
 %chk=molecule
 Default route: CacheSize=180224 MaxDisk=256GB
 ----------------------------------------------------------------------
 #P CCSD(MaxCyc=200,SaveAmplitudes,ReadAmplitudes)/GEN sp pop=AllOrbita
 ls iop(3/33=1,3/36=-1)
 ----------------------------------------------------------------------
 1/4=180224,38=1,172=1/1;
 2/4=180224,12=2,17=6,18=5,40=1/2;
 3/4=180224,5=7,11=9,25=1,30=1,33=1,36=-1/1,2,3;
 4/4=180224/1;
 5/4=180224,5=2,38=5/2;
 8/4=180224,6=4,9=120000,10=1,24=1/1,4;
 9/4=180224,5=7,6=200,77=1/13;
 6/4=180224,7=2,8=2,9=2,10=2,96=-1/1;
 99/4=180224,5=1,9=1/99;
 Leave Link    1 at Mon Mar 28 14:25:56 2022, MaxMem=           0 cpu:               2.4 elap:               0.1
 (Enter /nopt/nrel/apps/gaussian/g16C_1/g16/l101.exe)
 ----
 test
 ----
 Symbolic Z-matrix:
 Charge =  0 Multiplicity = 3
 H                     0.        0.        0. 
 Na                    0.        0.        0.7 
 
 ITRead=  0  0
 MicOpt= -1 -1
 NAtoms=      2 NQM=        2 NQMF=       0 NMMI=      0 NMMIF=      0
                NMic=       0 NMicF=      0.
                    Isotopes and Nuclear Properties:
 (Nuclear quadrupole moments (NQMom) in fm**2, nuclear magnetic moments (NMagM)
  in nuclear magnetons)

  Atom         1           2
 IAtWgt=           1          23
 AtmWgt=   1.0078250  22.9897697
 NucSpn=           1           3
 AtZEff=  -0.0000000  -0.0000000
 NQMom=    0.0000000  10.4000000
 NMagM=    2.7928460   2.2175200
 AtZNuc=   1.0000000  11.0000000
 Leave Link  101 at Mon Mar 28 14:25:57 2022, MaxMem=  9663676416 cpu:               3.1 elap:               0.1
 (Enter /nopt/nrel/apps/gaussian/g16C_1/g16/l202.exe)
                          Input orientation:                          
 ---------------------------------------------------------------------
 Center     Atomic      Atomic             Coordinates (Angstroms)
 Number     Number       Type             X           Y           Z
 ---------------------------------------------------------------------
      1          1           0        0.000000    0.000000    0.000000
      2         11           0        0.000000    0.000000    0.700000
 ---------------------------------------------------------------------
 Stoichiometry    HNa(3)
 Framework group  C*V[C*(HNa)]
 Deg. of freedom     1
 Full point group                 C*V     NOp   4
 Largest Abelian subgroup         C2V     NOp   4
 Largest concise Abelian subgroup C1      NOp   1
                         Standard orientation:                         
 ---------------------------------------------------------------------
 Center     Atomic      Atomic             Coordinates (Angstroms)
 Number     Number       Type             X           Y           Z
 ---------------------------------------------------------------------
      1          1           0        0.000000    0.000000   -0.641667
      2         11           0        0.000000    0.000000    0.058333
 ---------------------------------------------------------------------
 Rotational constants (GHZ):           0.0000000        1068.2405770        1068.2405770
 Leave Link  202 at Mon Mar 28 14:25:57 2022, MaxMem=  9663676416 cpu:               1.1 elap:               0.1
 (Enter /nopt/nrel/apps/gaussian/g16C_1/g16/l301.exe)
 General basis read from cards:  (5D, 7F)
                         Coordinates in L301:                         
 ---------------------------------------------------------------------
 Center     Atomic      Atomic             Coordinates (Angstroms)
 Number     Number       Type             X           Y           Z
 ---------------------------------------------------------------------
      1          1           0        0.000000    0.000000   -0.641667
      2         11           0        0.000000    0.000000    0.058333
 ---------------------------------------------------------------------
 Centers:       1
 STO-3G
 ****
 Centers:       2
 cc-pVDZ
 ****
 FixB: optimizing general contractions.
 Ernie: Thresh=  0.10000D-02 Tol=  0.10000D-05 Strict=F.
 IA=     1 ShT= 0 ShC= 0 NL=   1 NS=   0.
 IA=     1 L=0 SC=0 ISt=    0 NBk=    0 NP=    0 IndPr=    0.
 IA=     2 ShT= 0 ShC= 0 NL=   4 NS=   1.
 IA=     2 L=0 SC=0 ISt=    1 NBk=    3 NP=   11 IndPr=    0.
 DoElim1:  L=0 select primitive    2 from    2 using    1 C= 3.55D-03
 DoElim1:  L=0 select primitive    2 from    3 using    1 C= 3.55D-03
 DoElim1:  L=0 select primitive    5 from    3 using    2 C=-6.14D-03
 DoElim2:  L=0 select primitive   11 from    2 using    3 C= 6.58D-01
 DoElim2:  L=0 select primitive   11 from    1 using    3 C= 6.58D-01
 DoElim2:  L=0 select primitive    9 from    1 using    2 C= 6.03D-01
 Delete L=0 primitive    5 from    3 C=  6.52D-20.
 Delete L=0 primitive    2 from    3 C=  2.06D-20.
 Delete L=0 primitive    1 from    3 C=  1.41D-07.
 Delete L=0 primitive   11 from    2 C=  1.18D-19.
 Delete L=0 primitive    2 from    2 C=  4.53D-20.
 Delete L=0 primitive    1 from    2 C=  7.82D-08.
 Delete L=0 primitive   11 from    1 C=  5.55D-21.
 Delete L=0 primitive    9 from    1 C=  4.94D-19.
 IA=     2 L=0 SC=0 ISt=    0 NBk=    0 NP=    0 IndPr=   25.
 IA=     2 ShT= 1 ShC= 1 NL=   3 NS=   1.
 IA=     2 L=1 SC=1 ISt=    1 NBk=    2 NP=    7 IndPr=    0.
 DoElim1:  L=1 select primitive    1 from    2 using    1 C= 5.80D-03
 DoElim2:  L=1 select primitive    7 from    1 using    2 C= 4.35D-01
 Delete L=1 primitive    1 from    2 C=  1.56D-20.
 Delete L=1 primitive    7 from    1 C=  1.56D-19.
 IA=     2 L=1 SC=1 ISt=    0 NBk=    0 NP=    0 IndPr=   12.
 IA=     2 ShT= 2 ShC= 2 NL=   1 NS=   1.
 IA=     2 L=2 SC=2 ISt=    0 NBk=    0 NP=    0 IndPr=    0.
 Ernie:  10 primitive shells out of 53 were deleted.
 LdAtmC:  AtmChg=     1.000000    11.000000
 AtZEff=     -1.0000000    -10.0400000
 NEqShl: 
              1            2            3            4
     1            1            1            1            1
     2            2            2            2            2
     3            3            3            3            3
     4            4            4            4            4
     5            5            5            5            5
     6            6            6            6            6
     7            7            7            7            7
     8            8            8            8            8
     9            9            9            9            9
 NEqBas: 
              1            2            3            4
     1            1            1            1            1
     2            2            2            2            2
     3            3            3            3            3
     4            4            4            4            4
     5            5            5            5            5
     6            6           -6           -6            6
     7            7           -7            7           -7
     8            8            8            8            8
     9            9           -9           -9            9
    10           10          -10           10          -10
    11           11           11           11           11
    12           12          -12          -12           12
    13           13          -13           13          -13
    14           14           14           14           14
    15           15           15           15           15
    16           16           16           16           16
    17           17           17           17           17
    18           18           18          -18          -18
    19           19          -19          -19           19
    20           20          -20           20          -20
 There are    11 symmetry adapted cartesian basis functions of A1  symmetry.
   1         1   1   1   1
   2         2   2   2   2
   3         3   3   3   3
   4         4   4   4   4
   5         5   5   5   5
   6         8   8   8   8
   7        11  11  11  11
   8        14  14  14  14
   9        15  15  15  15
  10        16  16  16  16
  11        17  17  17  17
 There are     1 symmetry adapted cartesian basis functions of A2  symmetry.
  12        18  18  18  18
 There are     4 symmetry adapted cartesian basis functions of B1  symmetry.
  13         6   6   6   6
  14         9   9   9   9
  15        12  12  12  12
  16        19  19  19  19
 There are     4 symmetry adapted cartesian basis functions of B2  symmetry.
  17         7   7   7   7
  18        10  10  10  10
  19        13  13  13  13
  20        20  20  20  20
 Order= 1 2 4 3
 Reordered character table:
              1            2            3            4            5
     1            1            1            1            1            1
     2            2            1            1           -1           -1
     3            4            1           -1           -1            1
     4            3            1           -1            1           -1
 NEqShl: 
              1            2            3            4
     1            1            1            1            1
     2            2            2            2            2
     3            3            3            3            3
     4            4            4            4            4
     5            5            5            5            5
     6            6            6            6            6
     7            7            7            7            7
     8            8            8            8            8
     9            9            9            9            9
 NEqBas: 
              1            2            3            4
     1            1            1            1            1
     2            2            2            2            2
     3            3            3            3            3
     4            4            4            4            4
     5            5            5            5            5
     6            6           -6           -6            6
     7            7           -7            7           -7
     8            8            8            8            8
     9            9           -9           -9            9
    10           10          -10           10          -10
    11           11           11           11           11
    12           12          -12          -12           12
    13           13          -13           13          -13
    14           14           14           14           14
    15           15           15           15           15
    16           16          -16          -16           16
    17           17          -17           17          -17
    18           18           18           18           18
    19           19           19          -19          -19
 There are    10 symmetry adapted basis functions of A1  symmetry.
   1         1   1   1   1
   2         2   2   2   2
   3         3   3   3   3
   4         4   4   4   4
   5         5   5   5   5
   6         8   8   8   8
   7        11  11  11  11
   8        14  14  14  14
   9        15  15  15  15
  10        18  18  18  18
 There are     1 symmetry adapted basis functions of A2  symmetry.
  11        19  19  19  19
 There are     4 symmetry adapted basis functions of B1  symmetry.
  12         6   6   6   6
  13         9   9   9   9
  14        12  12  12  12
  15        16  16  16  16
 There are     4 symmetry adapted basis functions of B2  symmetry.
  16         7   7   7   7
  17        10  10  10  10
  18        13  13  13  13
  19        17  17  17  17
 Order= 1 2 4 3
 Reordered character table:
              1            2            3            4            5
     1            1            1            1            1            1
     2            2            1            1           -1           -1
     3            4            1           -1           -1            1
     4            3            1           -1            1           -1
    19 basis functions,    74 primitive gaussians,    20 cartesian basis functions
     7 alpha electrons        5 beta electrons
       nuclear repulsion energy         8.3156418859 Hartrees.
 IS=     1 IAt=     1 ISR=     1 T=0 IP=      1 IndIP=      1 IndIPD=      0 C=  2.769344D-01  0.000000D+00                             NZ=T
 IS=     1 IAt=     1 ISR=     1 T=0 IP=      2 IndIP=      2 IndIPD=      1 C=  2.678389D-01  0.000000D+00                             NZ=T
 IS=     1 IAt=     1 ISR=     1 T=0 IP=      3 IndIP=      3 IndIPD=      2 C=  8.347367D-02  0.000000D+00                             NZ=T
 IS=     2 IAt=     2 ISR=     1 T=0 IP=      1 IndIP=      4 IndIPD=      0 C=  7.749657D-01  0.000000D+00                             NZ=T
 IS=     2 IAt=     2 ISR=     1 T=0 IP=      2 IndIP=      5 IndIPD=      1 C=  1.445329D+00  0.000000D+00                             NZ=T
 IS=     2 IAt=     2 ISR=     1 T=0 IP=      3 IndIP=      6 IndIPD=      2 C=  2.449022D+00  0.000000D+00                             NZ=T
 IS=     2 IAt=     2 ISR=     1 T=0 IP=      4 IndIP=      7 IndIPD=      3 C=  3.730568D+00  0.000000D+00                             NZ=T
 IS=     2 IAt=     2 ISR=     1 T=0 IP=      5 IndIP=      8 IndIPD=      4 C=  4.755208D+00  0.000000D+00                             NZ=T
 IS=     2 IAt=     2 ISR=     1 T=0 IP=      6 IndIP=      9 IndIPD=      5 C=  4.291841D+00  0.000000D+00                             NZ=T
 IS=     2 IAt=     2 ISR=     1 T=0 IP=      7 IndIP=     10 IndIPD=      6 C=  1.841498D+00  0.000000D+00                             NZ=T
 IS=     2 IAt=     2 ISR=     1 T=0 IP=      8 IndIP=     11 IndIPD=      7 C=  1.370586D-01  0.000000D+00                             NZ=T
 IS=     2 IAt=     2 ISR=     1 T=0 IP=      9 IndIP=     12 IndIPD=      8 C=  3.324917D-03  0.000000D+00                             NZ=T
 IS=     3 IAt=     2 ISR=     2 T=0 IP=      1 IndIP=     13 IndIPD=      0 C= -6.085686D-03  0.000000D+00                             NZ=T
 IS=     3 IAt=     2 ISR=     2 T=0 IP=      2 IndIP=     14 IndIPD=      1 C= -3.114138D-02  0.000000D+00                             NZ=T
 IS=     3 IAt=     2 ISR=     2 T=0 IP=      3 IndIP=     15 IndIPD=      2 C= -1.340760D-01  0.000000D+00                             NZ=T
 IS=     3 IAt=     2 ISR=     2 T=0 IP=      4 IndIP=     16 IndIPD=      3 C= -3.604805D-01  0.000000D+00                             NZ=T
 IS=     3 IAt=     2 ISR=     2 T=0 IP=      5 IndIP=     17 IndIPD=      4 C= -4.954545D-01  0.000000D+00                             NZ=T
 IS=     3 IAt=     2 ISR=     2 T=0 IP=      6 IndIP=     18 IndIPD=      5 C=  2.126614D-01  0.000000D+00                             NZ=T
 IS=     3 IAt=     2 ISR=     2 T=0 IP=      7 IndIP=     19 IndIPD=      6 C=  6.152727D-01  0.000000D+00                             NZ=T
 IS=     3 IAt=     2 ISR=     2 T=0 IP=      8 IndIP=     20 IndIPD=      7 C=  2.071440D-01  0.000000D+00                             NZ=T
 IS=     4 IAt=     2 ISR=     3 T=0 IP=      1 IndIP=     21 IndIPD=      0 C=  1.521098D-03  0.000000D+00                             NZ=T
 IS=     4 IAt=     2 ISR=     3 T=0 IP=      2 IndIP=     22 IndIPD=      1 C= -2.379509D-03  0.000000D+00                             NZ=T
 IS=     4 IAt=     2 ISR=     3 T=0 IP=      3 IndIP=     23 IndIPD=      2 C= -1.988937D-02  0.000000D+00                             NZ=T
 IS=     4 IAt=     2 ISR=     3 T=0 IP=      4 IndIP=     24 IndIPD=      3 C= -6.775799D-03  0.000000D+00                             NZ=T
 IS=     4 IAt=     2 ISR=     3 T=0 IP=      5 IndIP=     25 IndIPD=      4 C= -9.360493D-03  0.000000D+00                             NZ=T
 IS=     4 IAt=     2 ISR=     3 T=0 IP=      6 IndIP=     26 IndIPD=      5 C=  1.615288D-02  0.000000D+00                             NZ=T
 IS=     4 IAt=     2 ISR=     3 T=0 IP=      7 IndIP=     27 IndIPD=      6 C= -9.059148D-02  0.000000D+00                             NZ=T
 IS=     4 IAt=     2 ISR=     3 T=0 IP=      8 IndIP=     28 IndIPD=      7 C=  8.779692D-02  0.000000D+00                             NZ=T
 IS=     5 IAt=     2 ISR=     4 T=0 IP=      1 IndIP=     29 IndIPD=      0 C=  4.218867D-02  0.000000D+00                             NZ=T
 IS=     6 IAt=     2 ISR=     5 T=1 IP=      1 IndIP=     30 IndIPD=      0 C=  0.000000D+00  3.916140D+00                             NZ=T
 IS=     6 IAt=     2 ISR=     5 T=1 IP=      2 IndIP=     31 IndIPD=      1 C=  0.000000D+00  4.557958D+00                             NZ=T
 IS=     6 IAt=     2 ISR=     5 T=1 IP=      3 IndIP=     32 IndIPD=      2 C=  0.000000D+00  4.125852D+00                             NZ=T
 IS=     6 IAt=     2 ISR=     5 T=1 IP=      4 IndIP=     33 IndIPD=      3 C=  0.000000D+00  2.441280D+00                             NZ=T
 IS=     6 IAt=     2 ISR=     5 T=1 IP=      5 IndIP=     34 IndIPD=      4 C=  0.000000D+00  8.329269D-01                             NZ=T
 IS=     6 IAt=     2 ISR=     5 T=1 IP=      6 IndIP=     35 IndIPD=      5 C=  0.000000D+00  1.089733D-01                             NZ=T
 IS=     7 IAt=     2 ISR=     6 T=1 IP=      1 IndIP=     36 IndIPD=      0 C=  0.000000D+00  2.457740D-02                             NZ=T
 IS=     7 IAt=     2 ISR=     6 T=1 IP=      2 IndIP=     37 IndIPD=      1 C=  0.000000D+00 -2.625009D-02                             NZ=T
 IS=     7 IAt=     2 ISR=     6 T=1 IP=      3 IndIP=     38 IndIPD=      2 C=  0.000000D+00  1.134429D-02                             NZ=T
 IS=     7 IAt=     2 ISR=     6 T=1 IP=      4 IndIP=     39 IndIPD=      3 C=  0.000000D+00 -2.983152D-02                             NZ=T
 IS=     7 IAt=     2 ISR=     6 T=1 IP=      5 IndIP=     40 IndIPD=      4 C=  0.000000D+00  6.561456D-03                             NZ=T
 IS=     7 IAt=     2 ISR=     6 T=1 IP=      6 IndIP=     41 IndIPD=      5 C=  0.000000D+00  4.674178D-02                             NZ=T
 IS=     8 IAt=     2 ISR=     7 T=1 IP=      1 IndIP=     42 IndIPD=      0 C=  0.000000D+00  1.107711D-02                             NZ=T
 IS=     9 IAt=     2 ISR=     8 T=2 IP=      1 IndIP=     43 IndIPD=      1 C=  0.000000D+00  0.000000D+00  2.790017D-02  0.000000D+00 NZ=T
 IExCor=    0 DFT=F Ex=HF Corr=None ExCW=0 ScaHFX=  1.000000
 ScaDFX=  1.000000  1.000000  1.000000  1.000000 ScalE2=  1.000000  1.000000
 IRadAn=      5 IRanWt=     -1 IRanGd=            0 ICorTp=0 IEmpDi=  4
 NAtoms=    2 NActive=    2 NUniq=    2 SFac= 1.00D+00 NAtFMM=   60 NAOKFM=F Big=F
 Integral buffers will be    131072 words long.
 Raffenetti 2 integral format.
 Two-electron integral symmetry is turned on.
 Leave Link  301 at Mon Mar 28 14:25:57 2022, MaxMem=  9663676416 cpu:               2.1 elap:               0.1
 (Enter /nopt/nrel/apps/gaussian/g16C_1/g16/l302.exe)
 NPDir=0 NMtPBC=     1 NCelOv=     1 NCel=       1 NClECP=     1 NCelD=      1
         NCelK=      1 NCelE2=     1 NClLst=     1 CellRange=     0.0.
 One-electron integrals computed using PRISM.
 One-electron integral symmetry used in STVInt
 Entering OneElI...
 Calculate overlap and kinetic energy integrals
    NBasis =  19  MinDer = 0  MaxDer = 0
 Requested accuracy = 0.1000D-12
 Symmetry will be used
 PrmmSu-InSpLW:  IPartL=    0 NPrtUS=   36 NPrtUL=    1 DoSpLW=F IThBeg=    0 IThEnd=   35 NThAct=   36.
 PrSmSu:  IncTry=   512 NBBP=             45 NTPThr=   100 NPartT=   36 Incr=           1 LDynOK=F GPUOK=F.
 PrsmSu:  NPrtUS=  36 ThrOK=T IAlg=1 LenDen=           0 ISkipM=0 DoSpLW=F IThBeg=    0 IThEnd=   35.
 Prism:   IPart=     0 DynPar=F LinDyn=F Incr=           1.
 PRISM was handed   268425507 working-precision words and    45 shell-pairs
 PRISM was handed   268425507 working-precision words and    45 shell-pairs
 PRISM was handed   268425507 working-precision words and    45 shell-pairs
 PRISM was handed   268425507 working-precision words and    45 shell-pairs
 PRISM was handed   268425507 working-precision words and    45 shell-pairs
 PRISM was handed   268425507 working-precision words and    45 shell-pairs
 PRISM was handed   268425507 working-precision words and    45 shell-pairs
 PRISM was handed   268425507 working-precision words and    45 shell-pairs
 PRISM was handed   268425507 working-precision words and    45 shell-pairs
 PRISM was handed   268425507 working-precision words and    45 shell-pairs
 PRISM was handed   268425507 working-precision words and    45 shell-pairs
 PRISM was handed   268425507 working-precision words and    45 shell-pairs
 PRISM was handed   268425507 working-precision words and    45 shell-pairs
 IPart= 24 NShTot=           0 NBatch=           0 AvBLen=         0.0
 IPart= 27 NShTot=           0 NBatch=           0 AvBLen=         0.0
 IPart= 19 NShTot=           0 NBatch=           0 AvBLen=         0.0
 IPart= 16 NShTot=           0 NBatch=           0 AvBLen=         0.0
 IPart= 13 NShTot=           0 NBatch=           0 AvBLen=         0.0
 IPart= 29 NShTot=           0 NBatch=           0 AvBLen=         0.0
 PRISM was handed   268425507 working-precision words and    45 shell-pairs
 IPart=  5 NShTot=           0 NBatch=           0 AvBLen=         0.0
 PRISM was handed   268425507 working-precision words and    45 shell-pairs
 IPart= 17 NShTot=           0 NBatch=           0 AvBLen=         0.0
 IPart= 30 NShTot=           0 NBatch=           0 AvBLen=         0.0
 IPart=  3 NShTot=           1 NBatch=           1 AvBLen=         1.0
 IPart=  2 NShTot=           3 NBatch=           3 AvBLen=         1.0
 IPart=  1 NShTot=          14 NBatch=          14 AvBLen=         1.0
 PRISM was handed   268425507 working-precision words and    45 shell-pairs
 PRISM was handed   268425507 working-precision words and    45 shell-pairs
 PRISM was handed   268425507 working-precision words and    45 shell-pairs
 PRISM was handed   268425507 working-precision words and    45 shell-pairs
 PRISM was handed   268425507 working-precision words and    45 shell-pairs
 IPart= 35 NShTot=           0 NBatch=           0 AvBLen=         0.0
 IPart=  4 NShTot=           0 NBatch=           0 AvBLen=         0.0
 IPart=  0 NShTot=          27 NBatch=          27 AvBLen=         1.0
 PRISM was handed   268425507 working-precision words and    45 shell-pairs
 IPart= 22 NShTot=           0 NBatch=           0 AvBLen=         0.0
 IPart= 11 NShTot=           0 NBatch=           0 AvBLen=         0.0
 IPart=  7 NShTot=           0 NBatch=           0 AvBLen=         0.0
 IPart= 33 NShTot=           0 NBatch=           0 AvBLen=         0.0
 PRISM was handed   268425507 working-precision words and    45 shell-pairs
 IPart= 26 NShTot=           0 NBatch=           0 AvBLen=         0.0
 PRISM was handed   268425507 working-precision words and    45 shell-pairs
 PRISM was handed   268425507 working-precision words and    45 shell-pairs
 PRISM was handed   268425507 working-precision words and    45 shell-pairs
 IPart=  9 NShTot=           0 NBatch=           0 AvBLen=         0.0
 IPart=  8 NShTot=           0 NBatch=           0 AvBLen=         0.0
 PRISM was handed   268425507 working-precision words and    45 shell-pairs
 PRISM was handed   268425507 working-precision words and    45 shell-pairs
 PRISM was handed   268425507 working-precision words and    45 shell-pairs
 PRISM was handed   268425507 working-precision words and    45 shell-pairs
 PRISM was handed   268425507 working-precision words and    45 shell-pairs
 PRISM was handed   268425507 working-precision words and    45 shell-pairs
 PRISM was handed   268425507 working-precision words and    45 shell-pairs
 PRISM was handed   268425507 working-precision words and    45 shell-pairs
 PRISM was handed   268425507 working-precision words and    45 shell-pairs
 PRISM was handed   268425507 working-precision words and    45 shell-pairs
 PRISM was handed   268425507 working-precision words and    45 shell-pairs
 IPart= 12 NShTot=           0 NBatch=           0 AvBLen=         0.0
 IPart= 18 NShTot=           0 NBatch=           0 AvBLen=         0.0
 IPart= 31 NShTot=           0 NBatch=           0 AvBLen=         0.0
 IPart= 20 NShTot=           0 NBatch=           0 AvBLen=         0.0
 IPart= 10 NShTot=           0 NBatch=           0 AvBLen=         0.0
 IPart=  6 NShTot=           0 NBatch=           0 AvBLen=         0.0
 IPart= 14 NShTot=           0 NBatch=           0 AvBLen=         0.0
 IPart= 34 NShTot=           0 NBatch=           0 AvBLen=         0.0
 IPart= 23 NShTot=           0 NBatch=           0 AvBLen=         0.0
 IPart= 28 NShTot=           0 NBatch=           0 AvBLen=         0.0
 IPart= 25 NShTot=           0 NBatch=           0 AvBLen=         0.0
 IPart= 15 NShTot=           0 NBatch=           0 AvBLen=         0.0
 IPart= 21 NShTot=           0 NBatch=           0 AvBLen=         0.0
 IPart= 32 NShTot=           0 NBatch=           0 AvBLen=         0.0
 PrSmSu:  NxtVal=             37.
 *** Overlap *** 
                1             2             3             4             5 
      1  0.100000D+01
      2  0.704347D-01  0.100000D+01
      3  0.494979D+00  0.247971D+00  0.100000D+01
      4  0.473761D+00  0.318917D-02  0.166761D+00  0.100000D+01
      5  0.351137D+00  0.200816D-01  0.169469D+00  0.877618D+00  0.100000D+01
      6  0.000000D+00  0.000000D+00  0.000000D+00  0.000000D+00  0.000000D+00
      7  0.000000D+00  0.000000D+00  0.000000D+00  0.000000D+00  0.000000D+00
      8 -0.342728D+00  0.000000D+00  0.000000D+00  0.000000D+00  0.000000D+00
      9  0.000000D+00  0.000000D+00  0.000000D+00  0.000000D+00  0.000000D+00
     10  0.000000D+00  0.000000D+00  0.000000D+00  0.000000D+00  0.000000D+00
     11 -0.315350D+00  0.000000D+00  0.000000D+00  0.000000D+00  0.000000D+00
     12  0.000000D+00  0.000000D+00  0.000000D+00  0.000000D+00  0.000000D+00
     13  0.000000D+00  0.000000D+00  0.000000D+00  0.000000D+00  0.000000D+00
     14 -0.114244D+00  0.000000D+00  0.000000D+00  0.000000D+00  0.000000D+00
     15  0.145612D+00  0.000000D+00  0.000000D+00  0.000000D+00  0.000000D+00
     16  0.000000D+00  0.000000D+00  0.000000D+00  0.000000D+00  0.000000D+00
     17  0.000000D+00  0.000000D+00  0.000000D+00  0.000000D+00  0.000000D+00
     18  0.000000D+00  0.000000D+00  0.000000D+00  0.000000D+00  0.000000D+00
     19  0.000000D+00  0.000000D+00  0.000000D+00  0.000000D+00  0.000000D+00
                6             7             8             9            10 
      6  0.100000D+01
      7  0.000000D+00  0.100000D+01
      8  0.000000D+00  0.000000D+00  0.100000D+01
      9  0.154548D+00  0.000000D+00  0.000000D+00  0.100000D+01
     10  0.000000D+00  0.154548D+00  0.000000D+00  0.000000D+00  0.100000D+01
     11  0.000000D+00  0.000000D+00  0.154548D+00  0.000000D+00  0.000000D+00
     12  0.447959D-01  0.000000D+00  0.000000D+00  0.672325D+00  0.000000D+00
     13  0.000000D+00  0.447959D-01  0.000000D+00  0.000000D+00  0.672325D+00
     14  0.000000D+00  0.000000D+00  0.447959D-01  0.000000D+00  0.000000D+00
     15  0.000000D+00  0.000000D+00  0.000000D+00  0.000000D+00  0.000000D+00
     16  0.000000D+00  0.000000D+00  0.000000D+00  0.000000D+00  0.000000D+00
     17  0.000000D+00  0.000000D+00  0.000000D+00  0.000000D+00  0.000000D+00
     18  0.000000D+00  0.000000D+00  0.000000D+00  0.000000D+00  0.000000D+00
     19  0.000000D+00  0.000000D+00  0.000000D+00  0.000000D+00  0.000000D+00
               11            12            13            14            15 
     11  0.100000D+01
     12  0.000000D+00  0.100000D+01
     13  0.000000D+00  0.000000D+00  0.100000D+01
     14  0.672325D+00  0.000000D+00  0.000000D+00  0.100000D+01
     15  0.000000D+00  0.000000D+00  0.000000D+00  0.000000D+00  0.100000D+01
     16  0.000000D+00  0.000000D+00  0.000000D+00  0.000000D+00  0.000000D+00
     17  0.000000D+00  0.000000D+00  0.000000D+00  0.000000D+00  0.000000D+00
     18  0.000000D+00  0.000000D+00  0.000000D+00  0.000000D+00  0.000000D+00
     19  0.000000D+00  0.000000D+00  0.000000D+00  0.000000D+00  0.000000D+00
               16            17            18            19 
     16  0.100000D+01
     17  0.000000D+00  0.100000D+01
     18  0.000000D+00  0.000000D+00  0.100000D+01
     19  0.000000D+00  0.000000D+00  0.000000D+00  0.100000D+01
 *** Kinetic Energy *** 
                1             2             3             4             5 
      1  0.760032D+00
      2  0.216309D-01  0.559245D+02
      3  0.228686D+00 -0.270711D+01  0.198850D+01
      4  0.226019D-01 -0.186861D+00 -0.113978D+00  0.981361D-01
      5  0.215943D-01  0.138303D-02  0.114008D-01  0.423571D-01  0.346050D-01
      6  0.000000D+00  0.000000D+00  0.000000D+00  0.000000D+00  0.000000D+00
      7  0.000000D+00  0.000000D+00  0.000000D+00  0.000000D+00  0.000000D+00
      8 -0.391896D+00  0.000000D+00  0.000000D+00  0.000000D+00  0.000000D+00
      9  0.000000D+00  0.000000D+00  0.000000D+00  0.000000D+00  0.000000D+00
     10  0.000000D+00  0.000000D+00  0.000000D+00  0.000000D+00  0.000000D+00
     11 -0.790761D-01  0.000000D+00  0.000000D+00  0.000000D+00  0.000000D+00
     12  0.000000D+00  0.000000D+00  0.000000D+00  0.000000D+00  0.000000D+00
     13  0.000000D+00  0.000000D+00  0.000000D+00  0.000000D+00  0.000000D+00
     14 -0.106586D-01  0.000000D+00  0.000000D+00  0.000000D+00  0.000000D+00
     15  0.740971D-01  0.000000D+00  0.000000D+00  0.000000D+00  0.000000D+00
     16  0.000000D+00  0.000000D+00  0.000000D+00  0.000000D+00  0.000000D+00
     17  0.000000D+00  0.000000D+00  0.000000D+00  0.000000D+00  0.000000D+00
     18  0.000000D+00  0.000000D+00  0.000000D+00  0.000000D+00  0.000000D+00
     19  0.000000D+00  0.000000D+00  0.000000D+00  0.000000D+00  0.000000D+00
                6             7             8             9            10 
      6  0.590429D+01
      7  0.000000D+00  0.590429D+01
      8  0.000000D+00  0.000000D+00  0.590429D+01
      9  0.132596D-01  0.000000D+00  0.000000D+00  0.163902D+00
     10  0.000000D+00  0.132596D-01  0.000000D+00  0.000000D+00  0.163902D+00
     11  0.000000D+00  0.000000D+00  0.132596D-01  0.000000D+00  0.000000D+00
     12  0.444443D-02  0.000000D+00  0.000000D+00  0.524934D-01  0.000000D+00
     13  0.000000D+00  0.444443D-02  0.000000D+00  0.000000D+00  0.524934D-01
     14  0.000000D+00  0.000000D+00  0.444443D-02  0.000000D+00  0.000000D+00
     15  0.000000D+00  0.000000D+00  0.000000D+00  0.000000D+00  0.000000D+00
     16  0.000000D+00  0.000000D+00  0.000000D+00  0.000000D+00  0.000000D+00
     17  0.000000D+00  0.000000D+00  0.000000D+00  0.000000D+00  0.000000D+00
     18  0.000000D+00  0.000000D+00  0.000000D+00  0.000000D+00  0.000000D+00
     19  0.000000D+00  0.000000D+00  0.000000D+00  0.000000D+00  0.000000D+00
               11            12            13            14            15 
     11  0.163902D+00
     12  0.000000D+00  0.513250D-01
     13  0.000000D+00  0.000000D+00  0.513250D-01
     14  0.524934D-01  0.000000D+00  0.000000D+00  0.513250D-01
     15  0.000000D+00  0.000000D+00  0.000000D+00  0.000000D+00  0.340550D+00
     16  0.000000D+00  0.000000D+00  0.000000D+00  0.000000D+00  0.000000D+00
     17  0.000000D+00  0.000000D+00  0.000000D+00  0.000000D+00  0.000000D+00
     18  0.000000D+00  0.000000D+00  0.000000D+00  0.000000D+00  0.000000D+00
     19  0.000000D+00  0.000000D+00  0.000000D+00  0.000000D+00  0.000000D+00
               16            17            18            19 
     16  0.340550D+00
     17  0.000000D+00  0.340550D+00
     18  0.000000D+00  0.000000D+00  0.340550D+00
     19  0.000000D+00  0.000000D+00  0.000000D+00  0.340550D+00
 Entering OneElI...
 Calculate potential energy integrals
    NBasis =  19  MinDer = 0  MaxDer = 0
 Requested accuracy = 0.1000D-12
 Symmetry will be used
 PrmmSu-InSpLW:  IPartL=    0 NPrtUS=   36 NPrtUL=    1 DoSpLW=F IThBeg=    0 IThEnd=   35 NThAct=   36.
 PrSmSu:  IncTry=   512 NBBP=             90 NTPThr=   100 NPartT=   36 Incr=           1 LDynOK=F GPUOK=F.
 PrsmSu:  NPrtUS=  36 ThrOK=T IAlg=1 LenDen=           0 ISkipM=0 DoSpLW=F IThBeg=    0 IThEnd=   35.
 Prism:   IPart=     0 DynPar=F LinDyn=F Incr=           1.
 PRISM was handed   268425699 working-precision words and    45 shell-pairs
 PRISM was handed   268425699 working-precision words and    45 shell-pairs
 PRISM was handed   268425699 working-precision words and    45 shell-pairs
 PRISM was handed   268425699 working-precision words and    45 shell-pairs
 PRISM was handed   268425699 working-precision words and    45 shell-pairs
 PRISM was handed   268425699 working-precision words and    45 shell-pairs
 PRISM was handed   268425699 working-precision words and    45 shell-pairs
 PRISM was handed   268425699 working-precision words and    45 shell-pairs
 PRISM was handed   268425699 working-precision words and    45 shell-pairs
 PRISM was handed   268425699 working-precision words and    45 shell-pairs
 PRISM was handed   268425699 working-precision words and    45 shell-pairs
 PRISM was handed   268425699 working-precision words and    45 shell-pairs
 PRISM was handed   268425699 working-precision words and    45 shell-pairs
 PRISM was handed   268425699 working-precision words and    45 shell-pairs
 PRISM was handed   268425699 working-precision words and    45 shell-pairs
 PRISM was handed   268425699 working-precision words and    45 shell-pairs
 PRISM was handed   268425699 working-precision words and    45 shell-pairs
 PRISM was handed   268425699 working-precision words and    45 shell-pairs
 PRISM was handed   268425699 working-precision words and    45 shell-pairs
 PRISM was handed   268425699 working-precision words and    45 shell-pairs
 PRISM was handed   268425699 working-precision words and    45 shell-pairs
 PRISM was handed   268425699 working-precision words and    45 shell-pairs
 PRISM was handed   268425699 working-precision words and    45 shell-pairs
 PRISM was handed   268425699 working-precision words and    45 shell-pairs
 PRISM was handed   268425699 working-precision words and    45 shell-pairs
 PRISM was handed   268425699 working-precision words and    45 shell-pairs
 PRISM was handed   268425699 working-precision words and    45 shell-pairs
 PRISM was handed   268425699 working-precision words and    45 shell-pairs
 PRISM was handed   268425699 working-precision words and    45 shell-pairs
 PRISM was handed   268425699 working-precision words and    45 shell-pairs
 PRISM was handed   268425699 working-precision words and    45 shell-pairs
 PRISM was handed   268425699 working-precision words and    45 shell-pairs
 PRISM was handed   268425699 working-precision words and    45 shell-pairs
 PRISM was handed   268425699 working-precision words and    45 shell-pairs
 PRISM was handed   268425699 working-precision words and    45 shell-pairs
 PRISM was handed   268425699 working-precision words and    45 shell-pairs
 IPart=  2 NShTot=           6 NBatch=           3 AvBLen=         2.0
 IPart=  1 NShTot=          28 NBatch=          14 AvBLen=         2.0
 IPart= 34 NShTot=           0 NBatch=           0 AvBLen=         0.0
 IPart= 27 NShTot=           0 NBatch=           0 AvBLen=         0.0
 IPart=  6 NShTot=           0 NBatch=           0 AvBLen=         0.0
 IPart= 26 NShTot=           0 NBatch=           0 AvBLen=         0.0
 IPart= 14 NShTot=           0 NBatch=           0 AvBLen=         0.0
 IPart= 21 NShTot=           0 NBatch=           0 AvBLen=         0.0
 IPart= 17 NShTot=           0 NBatch=           0 AvBLen=         0.0
 IPart=  8 NShTot=           0 NBatch=           0 AvBLen=         0.0
 IPart= 13 NShTot=           0 NBatch=           0 AvBLen=         0.0
 IPart= 24 NShTot=           0 NBatch=           0 AvBLen=         0.0
 IPart=  0 NShTot=          54 NBatch=          27 AvBLen=         2.0
 IPart= 11 NShTot=           0 NBatch=           0 AvBLen=         0.0
 IPart= 20 NShTot=           0 NBatch=           0 AvBLen=         0.0
 IPart= 30 NShTot=           0 NBatch=           0 AvBLen=         0.0
 IPart= 23 NShTot=           0 NBatch=           0 AvBLen=         0.0
 IPart=  3 NShTot=           2 NBatch=           1 AvBLen=         2.0
 IPart=  4 NShTot=           0 NBatch=           0 AvBLen=         0.0
 IPart= 19 NShTot=           0 NBatch=           0 AvBLen=         0.0
 IPart= 33 NShTot=           0 NBatch=           0 AvBLen=         0.0
 IPart=  5 NShTot=           0 NBatch=           0 AvBLen=         0.0
 IPart= 25 NShTot=           0 NBatch=           0 AvBLen=         0.0
 IPart= 10 NShTot=           0 NBatch=           0 AvBLen=         0.0
 IPart= 32 NShTot=           0 NBatch=           0 AvBLen=         0.0
 IPart= 18 NShTot=           0 NBatch=           0 AvBLen=         0.0
 IPart= 29 NShTot=           0 NBatch=           0 AvBLen=         0.0
 IPart= 35 NShTot=           0 NBatch=           0 AvBLen=         0.0
 IPart= 16 NShTot=           0 NBatch=           0 AvBLen=         0.0
 IPart= 15 NShTot=           0 NBatch=           0 AvBLen=         0.0
 IPart= 31 NShTot=           0 NBatch=           0 AvBLen=         0.0
 IPart= 28 NShTot=           0 NBatch=           0 AvBLen=         0.0
 IPart= 22 NShTot=           0 NBatch=           0 AvBLen=         0.0
 IPart=  9 NShTot=           0 NBatch=           0 AvBLen=         0.0
 IPart= 12 NShTot=           0 NBatch=           0 AvBLen=         0.0
 IPart=  7 NShTot=           0 NBatch=           0 AvBLen=         0.0
 PrSmSu:  NxtVal=             37.
 ***** Potential Energy ***** 
                1             2             3             4             5 
      1  0.871837D+01
      2  0.381071D+01  0.117058D+03
      3  0.706030D+01  0.109335D+02  0.185894D+02
      4  0.281695D+01 -0.125859D+00  0.160998D+01  0.384341D+01
      5  0.230000D+01  0.105981D+01  0.215738D+01  0.306025D+01  0.290217D+01
      6  0.000000D+00  0.000000D+00  0.000000D+00  0.000000D+00  0.000000D+00
      7  0.000000D+00  0.000000D+00  0.000000D+00  0.000000D+00  0.000000D+00
      8 -0.406223D+01 -0.304815D-01 -0.234553D+00 -0.553632D-01 -0.512552D-01
      9  0.000000D+00  0.000000D+00  0.000000D+00  0.000000D+00  0.000000D+00
     10  0.000000D+00  0.000000D+00  0.000000D+00  0.000000D+00  0.000000D+00
     11 -0.176189D+01 -0.689852D-03 -0.307249D-01 -0.738557D-01 -0.567722D-01
     12  0.000000D+00  0.000000D+00  0.000000D+00  0.000000D+00  0.000000D+00
     13  0.000000D+00  0.000000D+00  0.000000D+00  0.000000D+00  0.000000D+00
     14 -0.567176D+00 -0.211999D-03 -0.836339D-02 -0.298856D-01 -0.283725D-01
     15  0.796091D+00  0.177610D-03  0.111599D-01  0.254864D-01  0.185179D-01
     16  0.000000D+00  0.000000D+00  0.000000D+00  0.000000D+00  0.000000D+00
     17  0.000000D+00  0.000000D+00  0.000000D+00  0.000000D+00  0.000000D+00
     18  0.000000D+00  0.000000D+00  0.000000D+00  0.000000D+00  0.000000D+00
     19  0.000000D+00  0.000000D+00  0.000000D+00  0.000000D+00  0.000000D+00
                6             7             8             9            10 
      6  0.193731D+02
      7  0.000000D+00  0.193731D+02
      8  0.000000D+00  0.000000D+00  0.195302D+02
      9  0.126715D+01  0.000000D+00  0.000000D+00  0.325189D+01
     10  0.000000D+00  0.126715D+01  0.000000D+00  0.000000D+00  0.325189D+01
     11  0.000000D+00  0.000000D+00  0.129666D+01  0.000000D+00  0.000000D+00
     12  0.365666D+00  0.000000D+00  0.000000D+00  0.177356D+01  0.000000D+00
     13  0.000000D+00  0.365666D+00  0.000000D+00  0.000000D+00  0.177356D+01
     14  0.000000D+00  0.000000D+00  0.373655D+00  0.000000D+00  0.000000D+00
     15  0.000000D+00  0.000000D+00 -0.294439D-01  0.000000D+00  0.000000D+00
     16 -0.138704D-01  0.000000D+00  0.000000D+00 -0.423611D-01  0.000000D+00
     17  0.000000D+00 -0.138704D-01  0.000000D+00  0.000000D+00 -0.423611D-01
     18  0.000000D+00  0.000000D+00  0.000000D+00  0.000000D+00  0.000000D+00
     19  0.000000D+00  0.000000D+00  0.000000D+00  0.000000D+00  0.000000D+00
               11            12            13            14            15 
     11  0.328379D+01
     12  0.000000D+00  0.182701D+01
     13  0.000000D+00  0.000000D+00  0.182701D+01
     14  0.178559D+01  0.000000D+00  0.000000D+00  0.183326D+01
     15 -0.624435D-01  0.000000D+00  0.000000D+00 -0.272531D-01  0.320141D+01
     16  0.000000D+00 -0.195791D-01  0.000000D+00  0.000000D+00  0.000000D+00
     17  0.000000D+00  0.000000D+00 -0.195791D-01  0.000000D+00  0.000000D+00
     18  0.000000D+00  0.000000D+00  0.000000D+00  0.000000D+00  0.000000D+00
     19  0.000000D+00  0.000000D+00  0.000000D+00  0.000000D+00  0.000000D+00
               16            17            18            19 
     16  0.318957D+01
     17  0.000000D+00  0.318957D+01
     18  0.000000D+00  0.000000D+00  0.317349D+01
     19  0.000000D+00  0.000000D+00  0.000000D+00  0.317349D+01
 ****** Core Hamiltonian ****** 
                1             2             3             4             5 
      1 -0.795833D+01
      2 -0.378908D+01 -0.611334D+02
      3 -0.683161D+01 -0.136406D+02 -0.166009D+02
      4 -0.279435D+01 -0.610018D-01 -0.172395D+01 -0.374527D+01
      5 -0.227840D+01 -0.105843D+01 -0.214598D+01 -0.301789D+01 -0.286757D+01
      6  0.000000D+00  0.000000D+00  0.000000D+00  0.000000D+00  0.000000D+00
      7  0.000000D+00  0.000000D+00  0.000000D+00  0.000000D+00  0.000000D+00
      8  0.367034D+01  0.304815D-01  0.234553D+00  0.553632D-01  0.512552D-01
      9  0.000000D+00  0.000000D+00  0.000000D+00  0.000000D+00  0.000000D+00
     10  0.000000D+00  0.000000D+00  0.000000D+00  0.000000D+00  0.000000D+00
     11  0.168282D+01  0.689852D-03  0.307249D-01  0.738557D-01  0.567722D-01
     12  0.000000D+00  0.000000D+00  0.000000D+00  0.000000D+00  0.000000D+00
     13  0.000000D+00  0.000000D+00  0.000000D+00  0.000000D+00  0.000000D+00
     14  0.556517D+00  0.211999D-03  0.836339D-02  0.298856D-01  0.283725D-01
     15 -0.721994D+00 -0.177610D-03 -0.111599D-01 -0.254864D-01 -0.185179D-01
     16  0.000000D+00  0.000000D+00  0.000000D+00  0.000000D+00  0.000000D+00
     17  0.000000D+00  0.000000D+00  0.000000D+00  0.000000D+00  0.000000D+00
     18  0.000000D+00  0.000000D+00  0.000000D+00  0.000000D+00  0.000000D+00
     19  0.000000D+00  0.000000D+00  0.000000D+00  0.000000D+00  0.000000D+00
                6             7             8             9            10 
      6 -0.134689D+02
      7  0.000000D+00 -0.134689D+02
      8  0.000000D+00  0.000000D+00 -0.136259D+02
      9 -0.125389D+01  0.000000D+00  0.000000D+00 -0.308798D+01
     10  0.000000D+00 -0.125389D+01  0.000000D+00  0.000000D+00 -0.308798D+01
     11  0.000000D+00  0.000000D+00 -0.128340D+01  0.000000D+00  0.000000D+00
     12 -0.361221D+00  0.000000D+00  0.000000D+00 -0.172107D+01  0.000000D+00
     13  0.000000D+00 -0.361221D+00  0.000000D+00  0.000000D+00 -0.172107D+01
     14  0.000000D+00  0.000000D+00 -0.369210D+00  0.000000D+00  0.000000D+00
     15  0.000000D+00  0.000000D+00  0.294439D-01  0.000000D+00  0.000000D+00
     16  0.138704D-01  0.000000D+00  0.000000D+00  0.423611D-01  0.000000D+00
     17  0.000000D+00  0.138704D-01  0.000000D+00  0.000000D+00  0.423611D-01
     18  0.000000D+00  0.000000D+00  0.000000D+00  0.000000D+00  0.000000D+00
     19  0.000000D+00  0.000000D+00  0.000000D+00  0.000000D+00  0.000000D+00
               11            12            13            14            15 
     11 -0.311989D+01
     12  0.000000D+00 -0.177569D+01
     13  0.000000D+00  0.000000D+00 -0.177569D+01
     14 -0.173310D+01  0.000000D+00  0.000000D+00 -0.178193D+01
     15  0.624435D-01  0.000000D+00  0.000000D+00  0.272531D-01 -0.286086D+01
     16  0.000000D+00  0.195791D-01  0.000000D+00  0.000000D+00  0.000000D+00
     17  0.000000D+00  0.000000D+00  0.195791D-01  0.000000D+00  0.000000D+00
     18  0.000000D+00  0.000000D+00  0.000000D+00  0.000000D+00  0.000000D+00
     19  0.000000D+00  0.000000D+00  0.000000D+00  0.000000D+00  0.000000D+00
               16            17            18            19 
     16 -0.284902D+01
     17  0.000000D+00 -0.284902D+01
     18  0.000000D+00  0.000000D+00 -0.283294D+01
     19  0.000000D+00  0.000000D+00  0.000000D+00 -0.283294D+01
 SVDSVc IOpt=   1 NormSV=T IR=1
 SVDSVc V= 2.40D+00 1.75D+00 1.27D+00 1.08D+00 1.00D+00 9.96D-01 7.86D-01 3.85D-01 2.40D-01 9.34D-02
 SVDSVc IOpt=   1 NormSV=T IR=2
 SVDSVc V= 1.00D+00
 SVDSVc IOpt=   1 NormSV=T IR=3
 SVDSVc V= 1.70D+00 1.00D+00 9.81D-01 3.19D-01
 SVDSVc IOpt=   1 NormSV=T IR=4
 SVDSVc V= 1.70D+00 1.00D+00 9.81D-01 3.19D-01
 TstOVc:  Largest diagonal error= 2.66D-15 IB=1 I=    4.
 TstOVc:  Largest same sym error= 6.31D-16 IB=1 I=    8 J=    3.
 TstOVc:  Largest diff sym error= 0.00D+00 IB=0 JB=0 I=    0 J=    0.
 Orthogonalized basis functions: 
                 1             2             3             4             5 
      1   0.336232D+00 -0.863030D-01  0.214445D+00 -0.232224D+00  0.000000D+00
      2   0.589725D-01  0.132294D-01  0.490452D+00  0.432306D+00  0.000000D+00
      3   0.208080D+00  0.439709D-01  0.491866D+00  0.200539D+00  0.000000D+00
      4   0.339535D+00  0.211613D+00 -0.281621D+00  0.527406D-01  0.000000D+00
      5   0.322152D+00  0.218337D+00 -0.296212D+00  0.905991D-01  0.000000D+00
      6   0.000000D+00  0.000000D+00  0.000000D+00  0.000000D+00  0.000000D+00
      7   0.000000D+00  0.000000D+00  0.000000D+00  0.000000D+00  0.000000D+00
      8  -0.994381D-01  0.166852D+00 -0.173565D+00  0.615630D+00  0.000000D+00
      9   0.000000D+00  0.000000D+00  0.000000D+00  0.000000D+00  0.000000D+00
     10   0.000000D+00  0.000000D+00  0.000000D+00  0.000000D+00  0.000000D+00
     11  -0.131068D+00  0.482627D+00  0.122608D+00 -0.112612D+00  0.000000D+00
     12   0.000000D+00  0.000000D+00  0.000000D+00  0.000000D+00  0.000000D+00
     13   0.000000D+00  0.000000D+00  0.000000D+00  0.000000D+00  0.000000D+00
     14  -0.932563D-01  0.457499D+00  0.188904D+00 -0.264139D+00  0.000000D+00
     15   0.348567D-01 -0.168198D-01  0.117601D+00 -0.413425D+00  0.000000D+00
     16   0.000000D+00  0.000000D+00  0.000000D+00  0.000000D+00  0.000000D+00
     17   0.000000D+00  0.000000D+00  0.000000D+00  0.000000D+00  0.000000D+00
     18   0.000000D+00  0.000000D+00  0.000000D+00  0.000000D+00  0.100000D+01
     19   0.000000D+00  0.000000D+00  0.000000D+00  0.000000D+00  0.000000D+00
                 6             7             8             9            10 
      1  -0.260505D-01 -0.242548D+00  0.742302D+00  0.101397D+01 -0.994098D+00
      2   0.374748D-01  0.772826D+00  0.160988D+00  0.123885D+00 -0.210362D-01
      3   0.559201D-02 -0.615938D+00 -0.585080D+00 -0.613630D+00  0.486590D+00
      4   0.842168D-02  0.147339D+00  0.304297D-01  0.332265D+00  0.230664D+01
      5   0.128220D-01  0.209288D+00 -0.311437D+00 -0.718853D+00 -0.193845D+01
      6   0.000000D+00  0.000000D+00  0.000000D+00  0.000000D+00  0.000000D+00
      7   0.000000D+00  0.000000D+00  0.000000D+00  0.000000D+00  0.000000D+00
      8   0.482722D+00 -0.377904D+00  0.528373D+00  0.279461D+00 -0.307406D+00
      9   0.000000D+00  0.000000D+00  0.000000D+00  0.000000D+00  0.000000D+00
     10   0.000000D+00  0.000000D+00  0.000000D+00  0.000000D+00  0.000000D+00
     11  -0.357900D-01 -0.832795D-02 -0.708942D+00  0.112357D+01 -0.470566D+00
     12   0.000000D+00  0.000000D+00  0.000000D+00  0.000000D+00  0.000000D+00
     13   0.000000D+00  0.000000D+00  0.000000D+00  0.000000D+00  0.000000D+00
     14  -0.122950D+00 -0.242498D-01  0.874877D+00 -0.858303D+00  0.238896D+00
     15   0.867539D+00  0.165276D+00 -0.175843D+00 -0.194338D+00  0.159673D+00
     16   0.000000D+00  0.000000D+00  0.000000D+00  0.000000D+00  0.000000D+00
     17   0.000000D+00  0.000000D+00  0.000000D+00  0.000000D+00  0.000000D+00
     18   0.000000D+00  0.000000D+00  0.000000D+00  0.000000D+00  0.000000D+00
     19   0.000000D+00  0.000000D+00  0.000000D+00  0.000000D+00  0.000000D+00
                11            12            13            14            15 
      1   0.000000D+00  0.000000D+00  0.000000D+00  0.000000D+00  0.000000D+00
      2   0.000000D+00  0.000000D+00  0.000000D+00  0.000000D+00  0.000000D+00
      3   0.000000D+00  0.000000D+00  0.000000D+00  0.000000D+00  0.000000D+00
      4   0.000000D+00  0.000000D+00  0.000000D+00  0.000000D+00  0.000000D+00
      5   0.000000D+00  0.000000D+00  0.000000D+00  0.000000D+00  0.000000D+00
      6   0.000000D+00  0.152093D+00  0.000000D+00  0.982915D+00 -0.204821D+00
      7   0.000000D+00  0.000000D+00  0.000000D+00  0.000000D+00  0.000000D+00
      8   0.000000D+00  0.000000D+00  0.000000D+00  0.000000D+00  0.000000D+00
      9   0.000000D+00  0.537460D+00  0.000000D+00 -0.589883D-01  0.125925D+01
     10   0.000000D+00  0.000000D+00  0.000000D+00  0.000000D+00  0.000000D+00
     11   0.000000D+00  0.000000D+00  0.000000D+00  0.000000D+00  0.000000D+00
     12   0.000000D+00  0.525304D+00  0.000000D+00 -0.224234D+00 -0.122909D+01
     13   0.000000D+00  0.000000D+00  0.000000D+00  0.000000D+00  0.000000D+00
     14   0.000000D+00  0.000000D+00  0.000000D+00  0.000000D+00  0.000000D+00
     15   0.000000D+00  0.000000D+00  0.000000D+00  0.000000D+00  0.000000D+00
     16   0.000000D+00  0.000000D+00  0.100000D+01  0.000000D+00  0.000000D+00
     17   0.000000D+00  0.000000D+00  0.000000D+00  0.000000D+00  0.000000D+00
     18   0.000000D+00  0.000000D+00  0.000000D+00  0.000000D+00  0.000000D+00
     19   0.100000D+01  0.000000D+00  0.000000D+00  0.000000D+00  0.000000D+00
                16            17            18            19 
      1   0.000000D+00  0.000000D+00  0.000000D+00  0.000000D+00
      2   0.000000D+00  0.000000D+00  0.000000D+00  0.000000D+00
      3   0.000000D+00  0.000000D+00  0.000000D+00  0.000000D+00
      4   0.000000D+00  0.000000D+00  0.000000D+00  0.000000D+00
      5   0.000000D+00  0.000000D+00  0.000000D+00  0.000000D+00
      6   0.000000D+00  0.000000D+00  0.000000D+00  0.000000D+00
      7   0.152093D+00  0.000000D+00  0.982915D+00 -0.204821D+00
      8   0.000000D+00  0.000000D+00  0.000000D+00  0.000000D+00
      9   0.000000D+00  0.000000D+00  0.000000D+00  0.000000D+00
     10   0.537460D+00  0.000000D+00 -0.589883D-01  0.125925D+01
     11   0.000000D+00  0.000000D+00  0.000000D+00  0.000000D+00
     12   0.000000D+00  0.000000D+00  0.000000D+00  0.000000D+00
     13   0.525304D+00  0.000000D+00 -0.224234D+00 -0.122909D+01
     14   0.000000D+00  0.000000D+00  0.000000D+00  0.000000D+00
     15   0.000000D+00  0.000000D+00  0.000000D+00  0.000000D+00
     16   0.000000D+00  0.000000D+00  0.000000D+00  0.000000D+00
     17   0.000000D+00  0.100000D+01  0.000000D+00  0.000000D+00
     18   0.000000D+00  0.000000D+00  0.000000D+00  0.000000D+00
     19   0.000000D+00  0.000000D+00  0.000000D+00  0.000000D+00
 NBasis=    19 RedAO= T EigKep=  9.34D-02  NBF=    10     1     4     4
 NBsUse=    19 1.00D-06 EigRej= -1.00D+00 NBFU=    10     1     4     4
 Leave Link  302 at Mon Mar 28 14:25:57 2022, MaxMem=  9663676416 cpu:               3.5 elap:               0.1
 (Enter /nopt/nrel/apps/gaussian/g16C_1/g16/l303.exe)
 DipDrv will not compute anything.
 Fermi contact integrals: 
                 1             2 
      1   0.628247D+00  0.152706D+00
      2   0.124945D-02  0.194288D+02
      3   0.106780D+00  0.784000D-02
      4   0.480754D-01 -0.235257D-01
      5   0.405195D-01  0.421887D-01
      6   0.000000D+00  0.000000D+00
      7   0.000000D+00  0.000000D+00
      8  -0.204501D+00  0.000000D+00
      9   0.000000D+00  0.000000D+00
     10   0.000000D+00  0.000000D+00
     11  -0.548052D-01  0.000000D+00
     12   0.000000D+00  0.000000D+00
     13   0.000000D+00  0.000000D+00
     14  -0.141358D-01  0.000000D+00
     15   0.411774D-01  0.000000D+00
     16   0.000000D+00  0.000000D+00
     17   0.000000D+00  0.000000D+00
     18   0.000000D+00  0.000000D+00
     19   0.000000D+00  0.000000D+00
 Leave Link  303 at Mon Mar 28 14:25:57 2022, MaxMem=  9663676416 cpu:               1.1 elap:               0.1
 (Enter /nopt/nrel/apps/gaussian/g16C_1/g16/l401.exe)
 ExpMin= 2.05D-02 ExpMax= 3.17D+04 ExpMxC= 1.08D+03 IAcc=3 IRadAn=         5 AccDes= 0.00D+00
 Harris functional with IExCor=  205 and IRadAn=       5 diagonalized for initial guess.
 HarFok:  IExCor=  205 AccDes= 0.00D+00 IRadAn=         5 IDoV= 1 UseB2=F ITyADJ=14
 ICtDFT=  3500011 ScaDFX=  1.000000  1.000000  1.000000  1.000000
 FoFCou: FMM=F IPFlag=           0 FMFlag=      100000 FMFlg1=           0
         NFxFlg=           0 DoJE=T BraDBF=F KetDBF=T FulRan=T
         wScrn=  0.000000 ICntrl=       500 IOpCl=  0 I1Cent=   200000004 NGrid=           0
         NMat0=    1 NMatS0=      1 NMatT0=    0 NMatD0=    1 NMtDS0=    0 NMtDT0=    0
 Petite list used in FoFCou.
 Harris En= -161.469961054055    
 JPrj=0 DoOrth=F DoCkMO=F.
 Initial guess orbital symmetries:
 Alpha Orbitals:
       Occupied  (SG) (SG) (SG) (PI) (PI) (SG) (SG)
       Virtual   (PI) (PI) (SG) (SG) (PI) (PI) (SG) (PI) (PI) (DLTA)
                 (DLTA) (SG)
 Beta  Orbitals:
       Occupied  (SG) (SG) (SG) (PI) (PI)
       Virtual   (SG) (SG) (PI) (PI) (SG) (SG) (PI) (PI) (SG) (PI)
                 (PI) (DLTA) (DLTA) (SG)
 The electronic state of the initial guess is 3-SG.
 Initial guess <Sx>= 0.0000 <Sy>= 0.0000 <Sz>= 1.0000 <S**2>= 2.0000 S= 1.0000
 Leave Link  401 at Mon Mar 28 14:25:57 2022, MaxMem=  9663676416 cpu:               4.1 elap:               0.1
 (Enter /nopt/nrel/apps/gaussian/g16C_1/g16/l502.exe)
 Keep R1 and R2 ints in memory in symmetry-blocked form, NReq=7463775.
 FoFCou: FMM=F IPFlag=           0 FMFlag=           0 FMFlg1=           0
         NFxFlg=           0 DoJE=F BraDBF=F KetDBF=F FulRan=T
         wScrn=  0.000000 ICntrl=       600 IOpCl=  0 I1Cent=           0 NGrid=           0
         NMat0=    1 NMatS0=    190 NMatT0=    0 NMatD0=    1 NMtDS0=    0 NMtDT0=    0
 Petite list used in FoFCou.
 UHF open shell SCF:
 Using DIIS extrapolation, IDIIS=  1040.
 NGot=  9663676416 LenX=  9663662649 LenY=  9663661767
 Requested convergence on RMS density matrix=1.00D-08 within 128 cycles.
 Requested convergence on MAX density matrix=1.00D-06.
 Requested convergence on             energy=1.00D-06.
 No special actions if energy rises.

 Cycle   1  Pass 1  IDiag  1:
 E= -161.590643350643    
 DIIS: error= 3.74D-02 at cycle   1 NSaved=   1.
 NSaved= 1 IEnMin= 1 EnMin= -161.590643350643     IErMin= 1 ErrMin= 3.74D-02
 ErrMax= 3.74D-02  0.00D+00 EMaxC= 1.00D-01 BMatC= 1.17D-01 BMatP= 1.17D-01
 IDIUse=3 WtCom= 6.26D-01 WtEn= 3.74D-01
 Coeff-Com:  0.100D+01
 Coeff-En:   0.100D+01
 Coeff:      0.100D+01
 Gap=     0.175 Goal=   None    Shift=    0.000
 Gap=     1.906 Goal=   None    Shift=    0.000
 GapD=    0.175 DampG=1.000 DampE=0.500 DampFc=0.5000 IDamp=-1.
 Damping current iteration by 5.00D-01
 RMSDP=1.69D-02 MaxDP=1.11D-01              OVMax= 3.03D-02

 Cycle   2  Pass 1  IDiag  1:
 E= -161.606122759405     Delta-E=       -0.015479408762 Rises=F Damp=T
 DIIS: error= 1.92D-02 at cycle   2 NSaved=   2.
 NSaved= 2 IEnMin= 2 EnMin= -161.606122759405     IErMin= 2 ErrMin= 1.92D-02
 ErrMax= 1.92D-02  0.00D+00 EMaxC= 1.00D-01 BMatC= 3.29D-02 BMatP= 1.17D-01
 IDIUse=3 WtCom= 8.08D-01 WtEn= 1.92D-01
 Coeff-Com: -0.108D+01 0.208D+01
 Coeff-En:   0.000D+00 0.100D+01
 Coeff:     -0.875D+00 0.188D+01
 Gap=     0.176 Goal=   None    Shift=    0.000
 Gap=     1.836 Goal=   None    Shift=    0.000
 RMSDP=1.27D-02 MaxDP=9.71D-02 DE=-1.55D-02 OVMax= 2.66D-03

 Cycle   3  Pass 1  IDiag  1:
 E= -161.626067221447     Delta-E=       -0.019944462042 Rises=F Damp=F
 DIIS: error= 2.82D-03 at cycle   3 NSaved=   3.
 NSaved= 3 IEnMin= 3 EnMin= -161.626067221447     IErMin= 3 ErrMin= 2.82D-03
 ErrMax= 2.82D-03  0.00D+00 EMaxC= 1.00D-01 BMatC= 3.55D-04 BMatP= 3.29D-02
 IDIUse=3 WtCom= 9.72D-01 WtEn= 2.82D-02
 Coeff-Com:  0.743D+00-0.147D+01 0.172D+01
 Coeff-En:   0.000D+00 0.000D+00 0.100D+01
 Coeff:      0.722D+00-0.142D+01 0.170D+01
 Gap=     0.180 Goal=   None    Shift=    0.000
 Gap=     1.811 Goal=   None    Shift=    0.000
 RMSDP=3.58D-03 MaxDP=3.24D-02 DE=-1.99D-02 OVMax= 1.50D-03

 Cycle   4  Pass 1  IDiag  1:
 E= -161.626659230618     Delta-E=       -0.000592009171 Rises=F Damp=F
 DIIS: error= 4.99D-04 at cycle   4 NSaved=   4.
 NSaved= 4 IEnMin= 4 EnMin= -161.626659230618     IErMin= 4 ErrMin= 4.99D-04
 ErrMax= 4.99D-04  0.00D+00 EMaxC= 1.00D-01 BMatC= 5.96D-06 BMatP= 3.55D-04
 IDIUse=3 WtCom= 9.95D-01 WtEn= 4.99D-03
 Coeff-Com: -0.181D+00 0.361D+00-0.510D+00 0.133D+01
 Coeff-En:   0.000D+00 0.000D+00 0.000D+00 0.100D+01
 Coeff:     -0.180D+00 0.359D+00-0.508D+00 0.133D+01
 Gap=     0.179 Goal=   None    Shift=    0.000
 Gap=     1.810 Goal=   None    Shift=    0.000
 RMSDP=6.51D-04 MaxDP=5.88D-03 DE=-5.92D-04 OVMax= 1.40D-04

 Cycle   5  Pass 1  IDiag  1:
 E= -161.626678908428     Delta-E=       -0.000019677810 Rises=F Damp=F
 DIIS: error= 1.34D-04 at cycle   5 NSaved=   5.
 NSaved= 5 IEnMin= 5 EnMin= -161.626678908428     IErMin= 5 ErrMin= 1.34D-04
 ErrMax= 1.34D-04  0.00D+00 EMaxC= 1.00D-01 BMatC= 6.71D-07 BMatP= 5.96D-06
 IDIUse=3 WtCom= 9.99D-01 WtEn= 1.34D-03
 Coeff-Com:  0.780D-01-0.157D+00 0.241D+00-0.883D+00 0.172D+01
 Coeff-En:   0.000D+00 0.000D+00 0.000D+00 0.000D+00 0.100D+01
 Coeff:      0.779D-01-0.157D+00 0.241D+00-0.882D+00 0.172D+01
 Gap=     0.179 Goal=   None    Shift=    0.000
 Gap=     1.809 Goal=   None    Shift=    0.000
 RMSDP=3.40D-04 MaxDP=4.29D-03 DE=-1.97D-05 OVMax= 6.75D-06

 Cycle   6  Pass 1  IDiag  1:
 E= -161.626682090489     Delta-E=       -0.000003182061 Rises=F Damp=F
 DIIS: error= 3.13D-05 at cycle   6 NSaved=   6.
 NSaved= 6 IEnMin= 6 EnMin= -161.626682090489     IErMin= 6 ErrMin= 3.13D-05
 ErrMax= 3.13D-05  0.00D+00 EMaxC= 1.00D-01 BMatC= 4.44D-08 BMatP= 6.71D-07
 IDIUse=1 WtCom= 1.00D+00 WtEn= 0.00D+00
 Coeff-Com: -0.124D-01 0.251D-01-0.440D-01 0.187D+00-0.585D+00 0.143D+01
 Coeff:     -0.124D-01 0.251D-01-0.440D-01 0.187D+00-0.585D+00 0.143D+01
 Gap=     0.179 Goal=   None    Shift=    0.000
 Gap=     1.809 Goal=   None    Shift=    0.000
 RMSDP=9.69D-05 MaxDP=1.29D-03 DE=-3.18D-06 OVMax= 1.21D-05

 Cycle   7  Pass 1  IDiag  1:
 E= -161.626682269472     Delta-E=       -0.000000178983 Rises=F Damp=F
 DIIS: error= 1.15D-05 at cycle   7 NSaved=   7.
 NSaved= 7 IEnMin= 7 EnMin= -161.626682269472     IErMin= 7 ErrMin= 1.15D-05
 ErrMax= 1.15D-05  0.00D+00 EMaxC= 1.00D-01 BMatC= 3.28D-09 BMatP= 4.44D-08
 IDIUse=1 WtCom= 1.00D+00 WtEn= 0.00D+00
 Coeff-Com:  0.497D-02-0.101D-01 0.178D-01-0.705D-01 0.257D+00-0.795D+00
 Coeff-Com:  0.160D+01
 Coeff:      0.497D-02-0.101D-01 0.178D-01-0.705D-01 0.257D+00-0.795D+00
 Coeff:      0.160D+01
 Gap=     0.179 Goal=   None    Shift=    0.000
 Gap=     1.809 Goal=   None    Shift=    0.000
 RMSDP=2.18D-05 MaxDP=2.49D-04 DE=-1.79D-07 OVMax= 4.97D-06

 Cycle   8  Pass 1  IDiag  1:
 E= -161.626682279649     Delta-E=       -0.000000010177 Rises=F Damp=F
 DIIS: error= 3.18D-06 at cycle   8 NSaved=   8.
 NSaved= 8 IEnMin= 8 EnMin= -161.626682279649     IErMin= 8 ErrMin= 3.18D-06
 ErrMax= 3.18D-06  0.00D+00 EMaxC= 1.00D-01 BMatC= 2.13D-10 BMatP= 3.28D-09
 IDIUse=1 WtCom= 1.00D+00 WtEn= 0.00D+00
 Coeff-Com:  0.113D-03-0.196D-03-0.381D-03 0.171D-02-0.317D-01 0.175D+00
 Coeff-Com: -0.629D+00 0.148D+01
 Coeff:      0.113D-03-0.196D-03-0.381D-03 0.171D-02-0.317D-01 0.175D+00
 Coeff:     -0.629D+00 0.148D+01
 Gap=     0.179 Goal=   None    Shift=    0.000
 Gap=     1.809 Goal=   None    Shift=    0.000
 RMSDP=6.46D-06 MaxDP=8.01D-05 DE=-1.02D-08 OVMax= 1.10D-06

 Cycle   9  Pass 1  IDiag  1:
 E= -161.626682280276     Delta-E=       -0.000000000626 Rises=F Damp=F
 DIIS: error= 3.93D-07 at cycle   9 NSaved=   9.
 NSaved= 9 IEnMin= 9 EnMin= -161.626682280276     IErMin= 9 ErrMin= 3.93D-07
 ErrMax= 3.93D-07  0.00D+00 EMaxC= 1.00D-01 BMatC= 5.46D-12 BMatP= 2.13D-10
 IDIUse=1 WtCom= 1.00D+00 WtEn= 0.00D+00
 Coeff-Com: -0.639D-04 0.122D-03-0.502D-04 0.374D-03 0.543D-02-0.395D-01
 Coeff-Com:  0.166D+00-0.503D+00 0.137D+01
 Coeff:     -0.639D-04 0.122D-03-0.502D-04 0.374D-03 0.543D-02-0.395D-01
 Coeff:      0.166D+00-0.503D+00 0.137D+01
 Gap=     0.179 Goal=   None    Shift=    0.000
 Gap=     1.809 Goal=   None    Shift=    0.000
 RMSDP=9.97D-07 MaxDP=1.28D-05 DE=-6.26D-10 OVMax= 8.39D-08

 Cycle  10  Pass 1  IDiag  1:
 E= -161.626682280291     Delta-E=       -0.000000000015 Rises=F Damp=F
 DIIS: error= 1.23D-07 at cycle  10 NSaved=  10.
 NSaved=10 IEnMin=10 EnMin= -161.626682280291     IErMin=10 ErrMin= 1.23D-07
 ErrMax= 1.23D-07  0.00D+00 EMaxC= 1.00D-01 BMatC= 3.99D-13 BMatP= 5.46D-12
 IDIUse=1 WtCom= 1.00D+00 WtEn= 0.00D+00
 Coeff-Com: -0.362D-04 0.741D-04-0.144D-03 0.346D-03-0.242D-02 0.127D-01
 Coeff-Com: -0.492D-01 0.165D+00-0.703D+00 0.158D+01
 Coeff:     -0.362D-04 0.741D-04-0.144D-03 0.346D-03-0.242D-02 0.127D-01
 Coeff:     -0.492D-01 0.165D+00-0.703D+00 0.158D+01
 Gap=     0.179 Goal=   None    Shift=    0.000
 Gap=     1.809 Goal=   None    Shift=    0.000
 RMSDP=2.66D-07 MaxDP=3.37D-06 DE=-1.49D-11 OVMax= 4.67D-08

 Cycle  11  Pass 1  IDiag  1:
 E= -161.626682280292     Delta-E=       -0.000000000001 Rises=F Damp=F
 DIIS: error= 1.02D-08 at cycle  11 NSaved=  11.
 NSaved=11 IEnMin=11 EnMin= -161.626682280292     IErMin=11 ErrMin= 1.02D-08
 ErrMax= 1.02D-08  0.00D+00 EMaxC= 1.00D-01 BMatC= 3.85D-15 BMatP= 3.99D-13
 IDIUse=1 WtCom= 1.00D+00 WtEn= 0.00D+00
 Coeff-Com:  0.115D-05-0.251D-05 0.741D-05 0.668D-05 0.187D-03-0.146D-02
 Coeff-Com:  0.672D-02-0.264D-01 0.135D+00-0.384D+00 0.127D+01
 Coeff:      0.115D-05-0.251D-05 0.741D-05 0.668D-05 0.187D-03-0.146D-02
 Coeff:      0.672D-02-0.264D-01 0.135D+00-0.384D+00 0.127D+01
 Gap=     0.179 Goal=   None    Shift=    0.000
 Gap=     1.809 Goal=   None    Shift=    0.000
 RMSDP=2.09D-08 MaxDP=2.46D-07 DE=-1.36D-12 OVMax= 5.23D-09

 Cycle  12  Pass 1  IDiag  1:
 E= -161.626682280292     Delta-E=        0.000000000000 Rises=F Damp=F
 DIIS: error= 7.37D-10 at cycle  12 NSaved=  12.
 NSaved=12 IEnMin=11 EnMin= -161.626682280292     IErMin=12 ErrMin= 7.37D-10
 ErrMax= 7.37D-10  0.00D+00 EMaxC= 1.00D-01 BMatC= 4.22D-17 BMatP= 3.85D-15
 IDIUse=1 WtCom= 1.00D+00 WtEn= 0.00D+00
 Coeff-Com:  0.177D-06-0.325D-06-0.111D-07-0.671D-05-0.145D-04 0.201D-03
 Coeff-Com: -0.109D-02 0.469D-02-0.263D-01 0.799D-01-0.330D+00 0.127D+01
 Coeff:      0.177D-06-0.325D-06-0.111D-07-0.671D-05-0.145D-04 0.201D-03
 Coeff:     -0.109D-02 0.469D-02-0.263D-01 0.799D-01-0.330D+00 0.127D+01
 Gap=     0.179 Goal=   None    Shift=    0.000
 Gap=     1.809 Goal=   None    Shift=    0.000
 RMSDP=2.27D-09 MaxDP=3.02D-08 DE= 2.84D-14 OVMax= 1.05D-09

 SCF Done:  E(UHF) =  -161.626682280     A.U. after   12 cycles
            NFock= 12  Conv=0.23D-08     -V/T= 1.9955
 <Sx>= 0.0000 <Sy>= 0.0000 <Sz>= 1.0000 <S**2>= 2.0000 S= 1.0000
 <L.S>= 0.000000000000E+00
 KE= 1.623563944204D+02 PE=-4.022201314678D+02 EE= 6.992141288131D+01
 Annihilation of the first spin contaminant:
 S**2 before annihilation     2.0000,   after     2.0000
 Leave Link  502 at Mon Mar 28 14:25:57 2022, MaxMem=  9663676416 cpu:               5.3 elap:               0.2
 (Enter /nopt/nrel/apps/gaussian/g16C_1/g16/l801.exe)
 Windowed orbitals will be sorted by symmetry type.
 ExpMin= 2.05D-02 ExpMax= 3.17D+04 ExpMxC= 1.08D+03 IAcc=3 IRadAn=         5 AccDes= 0.00D+00
 HarFok:  IExCor=  205 AccDes= 0.00D+00 IRadAn=         5 IDoV=-2 UseB2=F ITyADJ=14
 ICtDFT= 12500011 ScaDFX=  1.000000  1.000000  1.000000  1.000000
 Largest valence mixing into a core orbital is  8.68D-03
 Largest core mixing into a valence orbital is  2.50D-03
 Range of M.O.s used for correlation:     6    19
 NBasis=    19 NAE=     7 NBE=     5 NFC=     5 NFV=     0
 NROrb=     14 NOA=     2 NOB=     0 NVA=    12 NVB=    14
 Leave Link  801 at Mon Mar 28 14:25:57 2022, MaxMem=  9663676416 cpu:               2.5 elap:               0.1
 (Enter /nopt/nrel/apps/gaussian/g16C_1/g16/l804.exe)
 Open-shell transformation, MDV=  9663676416 ITran=4 ISComp=2.
 Unit  1 TFree=         24747 TCopy=        223312.
 Semi-Direct transformation.
 ModeAB=           2 MOrb=             2 LenV=    9663482714
 LASXX=          607 LTotXX=         607 LenRXX=         607
 LTotAB=         853 MaxLAS=        5880 LenRXY=        5880
 NonZer=        6552 LenScr=      785920 LnRSAI=           0
 LnScr1=           0 LExtra=      224307 Total=      1016714
 MaxDsk= 34359738368 SrtSym=           F ITran=            4
 DoSDTr:  NPSUse= 36
 JobTyp=1 Pass  1:  I=   1 to   2.
 (rs|ai) integrals will be sorted in core.
 Complete sort for first half transformation.
 First half transformation complete.
 Complete sort for second half transformation.
 Second half transformation complete.
 Spin components of T(2) and E(2):
     alpha-alpha T2 =       0.8808970448D-03 E2=     -0.7894659565D-03
     alpha-beta  T2 =       0.0000000000D+00 E2=      0.0000000000D+00
     beta-beta   T2 =       0.0000000000D+00 E2=      0.0000000000D+00
 ANorm=    0.1000440352D+01
 E2 =    -0.7894659565D-03 EUMP2 =    -0.16162747174625D+03
 Leave Link  804 at Mon Mar 28 14:25:57 2022, MaxMem=  9663676416 cpu:               2.3 elap:               0.1
 (Enter /nopt/nrel/apps/gaussian/g16C_1/g16/l913.exe)
 CIDS:  MDV=  9663676416.
 Frozen-core window:  NFC=   5 NFV=   0.
 IFCWin=0 IBDFC=1 NFBD=     0     0 NFCmp=     0     0 NFFFC=     0     0
 Using original routines for 1st iteration.
 Using DD4UQ or CC4UQ for 2nd and later iterations.
 Keep R2 and R3 ints in memory in symmetry-blocked form, NReq=7466227.
 FoFCou: FMM=F IPFlag=           0 FMFlag=           0 FMFlg1=           0
         NFxFlg=           0 DoJE=F BraDBF=F KetDBF=F FulRan=T
         wScrn=  0.000000 ICntrl=       600 IOpCl=  0 I1Cent=           0 NGrid=           0
         NMat0=    1 NMatS0=    190 NMatT0=    0 NMatD0=    1 NMtDS0=    0 NMtDT0=    0
 Petite list used in FoFCou.
 CIDS: In Core Option IDoMem=           1.
 Coupled Cluster theory with single and double substitutions
 ===========================================================
 Iterations= 200 Convergence= 0.100D-06
 Produce multiple copies of IABC intergrals
 Iteration Nr.   1
 **********************
 DD1Dir will call FoFMem   1 times, MxPair=         2
 NAB=     0 NAA=     1 NBB=     0.
 MP4(R+Q)=  0.69543823D-06
 Maximum subspace dimension=  5
 A-vector RMS=  2.0351837D-03 Max=  6.4626112D-03 conv= 1.00D-05.
 RLE energy=       -0.0014907487
 E3=       -0.37207384D-03        EUMP3=      -0.16162784382D+03
 E4(DQ)=   -0.17691839D-03        UMP4(DQ)=   -0.16162802074D+03
 E4(SDQ)=  -0.17802092D-03        UMP4(SDQ)=  -0.16162802184D+03
 VARIATIONAL ENERGIES WITH THE FIRST-ORDER WAVEFUNCTION:
 DE(Corr)= -0.11608490E-02 E(Corr)=     -161.62784313    
 NORM(A)=   0.10015933D+01
 Iteration Nr.   2
 **********************
 DD1Dir will call FoFMem   1 times, MxPair=         2
 NAB=     0 NAA=     1 NBB=     0.
 A-vector RMS=  3.7177756D-04 Max=  7.4067351D-04 conv= 1.00D-05.
 RLE energy=       -0.0015071312
 DE(Corr)= -0.14959008E-02 E(CORR)=     -161.62817818     Delta=-3.35D-04
 NORM(A)=   0.10016540D+01
 Iteration Nr.   3
 **********************
 DD1Dir will call FoFMem   1 times, MxPair=         2
 NAB=     0 NAA=     1 NBB=     0.
 A-vector RMS=  5.7809484D-05 Max=  1.6649330D-04 conv= 1.00D-05.
 RLE energy=       -0.0015096056
 DE(Corr)= -0.15078926E-02 E(CORR)=     -161.62819017     Delta=-1.20D-05
 NORM(A)=   0.10016608D+01
 Iteration Nr.   4
 **********************
 DD1Dir will call FoFMem   1 times, MxPair=         2
 NAB=     0 NAA=     1 NBB=     0.
 A-vector RMS=  1.5363710D-05 Max=  5.7140542D-05 conv= 1.00D-05.
 RLE energy=       -0.0015083341
 DE(Corr)= -0.15092370E-02 E(CORR)=     -161.62819152     Delta=-1.34D-06
 NORM(A)=   0.10016580D+01
 Iteration Nr.   5
 **********************
 DD1Dir will call FoFMem   1 times, MxPair=         2
 NAB=     0 NAA=     1 NBB=     0.
 A-vector RMS=  3.3388652D-06 Max=  6.6601059D-06 conv= 1.00D-05.
 RLE energy=       -0.0015092867
 DE(Corr)= -0.15086325E-02 E(CORR)=     -161.62819091     Delta= 6.04D-07
 NORM(A)=   0.10016601D+01
 Iteration Nr.   6
 **********************
 DD1Dir will call FoFMem   1 times, MxPair=         2
 NAB=     0 NAA=     1 NBB=     0.
 A-vector RMS=  1.4710072D-06 Max=  3.2935917D-06 conv= 1.00D-05.
 RLE energy=       -0.0015089057
 DE(Corr)= -0.15090893E-02 E(CORR)=     -161.62819137     Delta=-4.57D-07
 NORM(A)=   0.10016593D+01
 Iteration Nr.   7
 **********************
 DD1Dir will call FoFMem   1 times, MxPair=         2
 NAB=     0 NAA=     1 NBB=     0.
 A-vector RMS=  2.7132010D-07 Max=  9.8673395D-07 conv= 1.00D-05.
 RLE energy=       -0.0015089074
 DE(Corr)= -0.15089066E-02 E(CORR)=     -161.62819119     Delta= 1.83D-07
 NORM(A)=   0.10016593D+01
 Iteration Nr.   8
 **********************
 DD1Dir will call FoFMem   1 times, MxPair=         2
 NAB=     0 NAA=     1 NBB=     0.
 A-vector RMS=  6.5875331D-08 Max=  2.0616122D-07 conv= 1.00D-05.
 RLE energy=       -0.0015089071
 DE(Corr)= -0.15089071E-02 E(CORR)=     -161.62819119     Delta=-5.24D-10
 NORM(A)=   0.10016593D+01
 CI/CC converged in    8 iterations to DelEn=-5.24D-10 Conv= 1.00D-07 ErrA1= 6.59D-08 Conv= 1.00D-05
 Wavefunction amplitudes converged. E(Corr)=     -161.62819119    
 Largest amplitude= 2.57D-02
 Discarding MO integrals.
 Leave Link  913 at Mon Mar 28 14:25:58 2022, MaxMem=  9663676416 cpu:               4.9 elap:               0.2
 (Enter /nopt/nrel/apps/gaussian/g16C_1/g16/l601.exe)
 Copying SCF densities to generalized density rwf, IOpCl= 1 IROHF=0.

 **********************************************************************

            Population analysis using the SCF Density.

 **********************************************************************

 Orbital symmetries:
 Alpha Orbitals:
       Occupied  (SG) (SG) (SG) (PI) (PI) (SG) (SG)
       Virtual   (PI) (PI) (SG) (SG) (PI) (PI) (SG) (PI) (PI) (DLTA)
                 (DLTA) (SG)
 Beta  Orbitals:
       Occupied  (SG) (SG) (SG) (PI) (PI)
       Virtual   (SG) (PI) (PI) (SG) (SG) (PI) (PI) (SG) (DLTA)
                 (DLTA) (SG) (PI) (PI) (SG)
 The electronic state is 3-SG.
 Alpha  occ. eigenvalues --  -40.87539  -3.22288  -1.97806  -1.84912  -1.84912
 Alpha  occ. eigenvalues --   -0.42394  -0.16715
 Alpha virt. eigenvalues --    0.01223   0.01223   0.04164   0.10072   0.10567
 Alpha virt. eigenvalues --    0.10567   0.20516   0.21557   0.21557   0.23218
 Alpha virt. eigenvalues --    0.23218   0.53517
  Beta  occ. eigenvalues --  -40.86025  -3.18518  -1.93517  -1.83733  -1.83733
  Beta virt. eigenvalues --   -0.02799   0.03652   0.03652   0.05045   0.07750
  Beta virt. eigenvalues --    0.13911   0.13911   0.15970   0.25576   0.25576
  Beta virt. eigenvalues --    0.26600   0.27093   0.27093   0.67151
          Condensed to atoms (all electrons):
               1          2
     1  H    0.424613   0.143469
     2  Na   0.143469  11.288449
          Atomic-Atomic Spin Densities.
               1          2
     1  H    0.376719   0.031955
     2  Na   0.031955   1.559370
 Mulliken charges and spin densities:
               1          2
     1  H    0.431918   0.408674
     2  Na  -0.431918   1.591326
 Sum of Mulliken charges =   0.00000   2.00000
 Mulliken charges and spin densities with hydrogens summed into heavy atoms:
               1          2
     2  Na   0.000000   2.000000
 N-N= 8.315641885886D+00 E-N=-4.022201314525D+02  KE= 1.623563944204D+02
 Symmetry A1   KE= 1.386700542241D+02
 Symmetry A2   KE=-8.178294775111D-52
 Symmetry B1   KE= 1.184317009811D+01
 Symmetry B2   KE= 1.184317009811D+01
 Symmetry A1   SP= 2.000000000000D+00
 Symmetry A2   SP=-2.415948860764D-51
 Symmetry B1   SP=-2.415802624916D-15
 Symmetry B2   SP=-2.058937479842D-15

 Atomic contributions to Alpha molecular orbitals:
 Alpha occ 1 OE=-40.875 is Na2-s=1.0000
 Alpha occ 2 OE=-3.223 is Na2-s=0.9455
 Alpha occ 3 OE=-1.978 is Na2-p=0.9137
 Alpha occ 4 OE=-1.849 is Na2-p=1.0000
 Alpha occ 5 OE=-1.849 is Na2-p=1.0000
 Alpha occ 6 OE=-0.424 is Na2-s=0.4101 H1-s=0.3972 Na2-p=0.1553
 Alpha occ 7 OE=-0.167 is Na2-p=0.5584 Na2-s=0.4149
 Alpha vir 8 OE=0.012 is Na2-p=0.9979
 Alpha vir 9 OE=0.012 is Na2-p=0.9979
 Alpha vir 10 OE=0.042 is Na2-p=0.5391 Na2-s=0.4271
 Alpha vir 11 OE=0.101 is Na2-p=0.5028 Na2-s=0.4813
 Alpha vir 12 OE=0.106 is Na2-p=0.9737
 Alpha vir 13 OE=0.106 is Na2-p=0.9737
 Alpha vir 14 OE=0.205 is Na2-d=0.8134 Na2-p=0.1364
 Alpha vir 15 OE=0.216 is Na2-d=0.9715
 Alpha vir 16 OE=0.216 is Na2-d=0.9715
 Alpha vir 17 OE=0.232 is Na2-d=1.0000
 Alpha vir 18 OE=0.232 is Na2-d=1.0000
 Alpha vir 19 OE=0.535 is H1-s=0.4793 Na2-s=0.2380 Na2-p=0.1705 Na2-d=0.1123

 Atomic contributions to Beta  molecular orbitals:
 Beta  occ 1 OE=-40.860 is Na2-s=1.0000
 Beta  occ 2 OE=-3.185 is Na2-s=0.9492
 Beta  occ 3 OE=-1.935 is Na2-p=0.9229
 Beta  occ 4 OE=-1.837 is Na2-p=1.0000
 Beta  occ 5 OE=-1.837 is Na2-p=1.0000
 Beta  vir 6 OE=-0.028 is Na2-s=0.7942 H1-s=0.1042 Na2-p=0.1012
 Beta  vir 7 OE=0.037 is Na2-p=0.9967
 Beta  vir 8 OE=0.037 is Na2-p=0.9967
 Beta  vir 9 OE=0.050 is Na2-p=0.9303
 Beta  vir 10 OE=0.078 is Na2-s=0.7534 Na2-p=0.1316 H1-s=0.1011
 Beta  vir 11 OE=0.139 is Na2-p=0.9714
 Beta  vir 12 OE=0.139 is Na2-p=0.9714
 Beta  vir 13 OE=0.160 is Na2-p=0.6891 Na2-s=0.2526
 Beta  vir 14 OE=0.256 is Na2-d=1.0000
 Beta  vir 15 OE=0.256 is Na2-d=1.0000
 Beta  vir 16 OE=0.266 is Na2-d=0.8615 Na2-p=0.1089
 Beta  vir 17 OE=0.271 is Na2-d=0.9680
 Beta  vir 18 OE=0.271 is Na2-d=0.9680
 Beta  vir 19 OE=0.672 is H1-s=0.6838 Na2-s=0.1504
 
 Leave Link  601 at Mon Mar 28 14:25:58 2022, MaxMem=  9663676416 cpu:               0.9 elap:               0.0
 (Enter /nopt/nrel/apps/gaussian/g16C_1/g16/l9999.exe)

 Test job not archived.
 1\1\GINC-R102U34\SP\UCCSD-FC\Gen\H1Na1(3)\USER\28-Mar-2022\0\\#P C
 CSD(MaxCyc=200,SaveAmplitudes,ReadAmplitudes)/GEN sp pop=AllOrbitals i
 op(3/33=1,3/36=-1)\\test\\0,3\H,0,0.,0.,0.\Na,0,0.,0.,0.7\\Version=ES6
 4L-G16RevC.01\State=3-SG\HF=-161.6266823\MP2=-161.6274717\MP3=-161.627
 8438\MP4D=-161.6280214\MP4DQ=-161.6280207\MP4SDQ=-161.6280218\CCSD=-16
 1.6281912\S2=2.000049\S2-1=0.\S2A=2.\RMSD=2.274e-09\PG=C*V [C*(H1Na1)]
 \\@


 IF THE FACTS DO NOT CONFORM TO THE THEORY, THEY MUST BE DISPOSED OF.
 Job cpu time:       0 days  0 hours  0 minutes 34.5 seconds.
 Elapsed time:       0 days  0 hours  0 minutes  1.3 seconds.
 File lengths (MBytes):  RWF=     13 Int=      0 D2E=      0 Chk=      1 Scr=      1
 Normal termination of Gaussian 16 at Mon Mar 28 14:25:58 2022.
