 Entering Gaussian System, Link 0=g16
 Initial command:
 /nopt/nrel/apps/gaussian/g16C_1/g16/l1.exe "/lustre/eaglefs/scratch/user/qc/lih-dissc/lih-1-ccsd-3.3-321g/Gau-2488.inp" -scrdir="/lustre/eaglefs/scratch/user/qc/lih-dissc/lih-1-ccsd-3.3-321g/"
 Default is to use a total of  36 processors:
                               36 via shared-memory
                                1 via Linda
 Entering Link 1 = /nopt/nrel/apps/gaussian/g16C_1/g16/l1.exe PID=      2489.
  
 Copyright (c) 1988-2019, Gaussian, Inc.  All Rights Reserved.
  
 This is part of the Gaussian(R) 16 program.  It is based on
 the Gaussian(R) 09 system (copyright 2009, Gaussian, Inc.),
 the Gaussian(R) 03 system (copyright 2003, Gaussian, Inc.),
 the Gaussian(R) 98 system (copyright 1998, Gaussian, Inc.),
 the Gaussian(R) 94 system (copyright 1995, Gaussian, Inc.),
 the Gaussian 92(TM) system (copyright 1992, Gaussian, Inc.),
 the Gaussian 90(TM) system (copyright 1990, Gaussian, Inc.),
 the Gaussian 88(TM) system (copyright 1988, Gaussian, Inc.),
 the Gaussian 86(TM) system (copyright 1986, Carnegie Mellon
 University), and the Gaussian 82(TM) system (copyright 1983,
 Carnegie Mellon University). Gaussian is a federally registered
 trademark of Gaussian, Inc.
  
 This software contains proprietary and confidential information,
 including trade secrets, belonging to Gaussian, Inc.
  
 This software is provided under written license and may be
 used, copied, transmitted, or stored only in accord with that
 written license.
  
 The following legend is applicable only to US Government
 contracts under FAR:
  
                    RESTRICTED RIGHTS LEGEND
  
 Use, reproduction and disclosure by the US Government is
 subject to restrictions as set forth in subparagraphs (a)
 and (c) of the Commercial Computer Software - Restricted
 Rights clause in FAR 52.227-19.
  
 Gaussian, Inc.
 340 Quinnipiac St., Bldg. 40, Wallingford CT 06492
  
  
 ---------------------------------------------------------------
 Warning -- This program may not be used in any manner that
 competes with the business of Gaussian, Inc. or will provide
 assistance to any competitor of Gaussian, Inc.  The licensee
 of this program is prohibited from giving any competitor of
 Gaussian, Inc. access to this program.  By using this program,
 the user acknowledges that Gaussian, Inc. is engaged in the
 business of creating and licensing software in the field of
 computational chemistry and represents and warrants to the
 licensee that it is not a competitor of Gaussian, Inc. and that
 it will not use this program in any manner prohibited above.
 ---------------------------------------------------------------
  

 Cite this work as:
 Gaussian 16, Revision C.01,
 M. J. Frisch, G. W. Trucks, H. B. Schlegel, G. E. Scuseria, 
 M. A. Robb, J. R. Cheeseman, G. Scalmani, V. Barone, 
 G. A. Petersson, H. Nakatsuji, X. Li, M. Caricato, A. V. Marenich, 
 J. Bloino, B. G. Janesko, R. Gomperts, B. Mennucci, H. P. Hratchian, 
 J. V. Ortiz, A. F. Izmaylov, J. L. Sonnenberg, D. Williams-Young, 
 F. Ding, F. Lipparini, F. Egidi, J. Goings, B. Peng, A. Petrone, 
 T. Henderson, D. Ranasinghe, V. G. Zakrzewski, J. Gao, N. Rega, 
 G. Zheng, W. Liang, M. Hada, M. Ehara, K. Toyota, R. Fukuda, 
 J. Hasegawa, M. Ishida, T. Nakajima, Y. Honda, O. Kitao, H. Nakai, 
 T. Vreven, K. Throssell, J. A. Montgomery, Jr., J. E. Peralta, 
 F. Ogliaro, M. J. Bearpark, J. J. Heyd, E. N. Brothers, K. N. Kudin, 
 V. N. Staroverov, T. A. Keith, R. Kobayashi, J. Normand, 
 K. Raghavachari, A. P. Rendell, J. C. Burant, S. S. Iyengar, 
 J. Tomasi, M. Cossi, J. M. Millam, M. Klene, C. Adamo, R. Cammi, 
 J. W. Ochterski, R. L. Martin, K. Morokuma, O. Farkas, 
 J. B. Foresman, and D. J. Fox, Gaussian, Inc., Wallingford CT, 2019.
 
 ******************************************
 Gaussian 16:  ES64L-G16RevC.01  3-Jul-2019
                28-Mar-2022 
 ******************************************
 %chk=molecule
 Default route: CacheSize=180224 MaxDisk=256GB
 ----------------------------------------------------------------------
 #P CCSD(MaxCyc=200,SaveAmplitudes,ReadAmplitudes)/GEN sp pop=AllOrbita
 ls iop(3/33=1,3/36=-1)
 ----------------------------------------------------------------------
 1/4=180224,38=1,172=1/1;
 2/4=180224,12=2,17=6,18=5,40=1/2;
 3/4=180224,5=7,11=9,25=1,30=1,33=1,36=-1/1,2,3;
 4/4=180224/1;
 5/4=180224,5=2,38=5/2;
 8/4=180224,6=4,9=120000,10=1,24=1/1,4;
 9/4=180224,5=7,6=200,77=1/13;
 6/4=180224,7=2,8=2,9=2,10=2,96=-1/1;
 99/4=180224,5=1,9=1/99;
 Leave Link    1 at Mon Mar 28 14:00:28 2022, MaxMem=           0 cpu:               2.5 elap:               0.1
 (Enter /nopt/nrel/apps/gaussian/g16C_1/g16/l101.exe)
 ----
 test
 ----
 Symbolic Z-matrix:
 Charge =  0 Multiplicity = 1
 H                     0.        0.        0. 
 Li                    0.        0.        3.3 
 
 ITRead=  0  0
 MicOpt= -1 -1
 NAtoms=      2 NQM=        2 NQMF=       0 NMMI=      0 NMMIF=      0
                NMic=       0 NMicF=      0.
                    Isotopes and Nuclear Properties:
 (Nuclear quadrupole moments (NQMom) in fm**2, nuclear magnetic moments (NMagM)
  in nuclear magnetons)

  Atom         1           2
 IAtWgt=           1           7
 AtmWgt=   1.0078250   7.0160045
 NucSpn=           1           3
 AtZEff=  -0.0000000  -0.0000000
 NQMom=    0.0000000  -4.0100000
 NMagM=    2.7928460   3.2564240
 AtZNuc=   1.0000000   3.0000000
 Leave Link  101 at Mon Mar 28 14:00:28 2022, MaxMem=  9663676416 cpu:               3.0 elap:               0.1
 (Enter /nopt/nrel/apps/gaussian/g16C_1/g16/l202.exe)
                          Input orientation:                          
 ---------------------------------------------------------------------
 Center     Atomic      Atomic             Coordinates (Angstroms)
 Number     Number       Type             X           Y           Z
 ---------------------------------------------------------------------
      1          1           0        0.000000    0.000000    0.000000
      2          3           0        0.000000    0.000000    3.300000
 ---------------------------------------------------------------------
 Stoichiometry    HLi
 Framework group  C*V[C*(HLi)]
 Deg. of freedom     1
 Full point group                 C*V     NOp   4
 Largest Abelian subgroup         C2V     NOp   4
 Largest concise Abelian subgroup C1      NOp   1
                         Standard orientation:                         
 ---------------------------------------------------------------------
 Center     Atomic      Atomic             Coordinates (Angstroms)
 Number     Number       Type             X           Y           Z
 ---------------------------------------------------------------------
      1          1           0        0.000000    0.000000   -2.475000
      2          3           0        0.000000    0.000000    0.825000
 ---------------------------------------------------------------------
 Rotational constants (GHZ):           0.0000000          52.6618379          52.6618379
 Leave Link  202 at Mon Mar 28 14:00:28 2022, MaxMem=  9663676416 cpu:               1.3 elap:               0.1
 (Enter /nopt/nrel/apps/gaussian/g16C_1/g16/l301.exe)
 General basis read from cards:  (5D, 7F)
                         Coordinates in L301:                         
 ---------------------------------------------------------------------
 Center     Atomic      Atomic             Coordinates (Angstroms)
 Number     Number       Type             X           Y           Z
 ---------------------------------------------------------------------
      1          1           0        0.000000    0.000000   -2.475000
      2          3           0        0.000000    0.000000    0.825000
 ---------------------------------------------------------------------
 Centers:       1
 STO-3G
 ****
 Centers:       2
 3-21G
 ****
 FixB: optimizing general contractions.
 Ernie: Thresh=  0.10000D-02 Tol=  0.10000D-05 Strict=F.
 IA=     1 ShT= 0 ShC= 0 NL=   1 NS=   0.
 IA=     1 L=0 SC=0 ISt=    0 NBk=    0 NP=    0 IndPr=    0.
 IA=     2 ShT= 0 ShC= 0 NL=   1 NS=   0.
 IA=     2 L=0 SC=0 ISt=    0 NBk=    0 NP=    0 IndPr=    0.
 IA=     2 ShT= 1 ShC= 0 NL=   2 NS=   1.
 IA=     2 L=1 SC=0 ISt=    0 NBk=    0 NP=    0 IndPr=    0.
 LdAtmC:  AtmChg=     1.000000     3.000000
 AtZEff=     -1.0000000     -1.3500000
 NEqShl: 
              1            2            3            4
     1            1            1            1            1
     2            2            2            2            2
     3            3            3            3            3
     4            4            4            4            4
 NEqBas: 
              1            2            3            4
     1            1            1            1            1
     2            2            2            2            2
     3            3            3            3            3
     4            4           -4           -4            4
     5            5           -5            5           -5
     6            6            6            6            6
     7            7            7            7            7
     8            8           -8           -8            8
     9            9           -9            9           -9
    10           10           10           10           10
 There are     6 symmetry adapted cartesian basis functions of A1  symmetry.
   1         1   1   1   1
   2         2   2   2   2
   3         3   3   3   3
   4         6   6   6   6
   5         7   7   7   7
   6        10  10  10  10
 There are     0 symmetry adapted cartesian basis functions of A2  symmetry.
 There are     2 symmetry adapted cartesian basis functions of B1  symmetry.
   7         4   4   4   4
   8         8   8   8   8
 There are     2 symmetry adapted cartesian basis functions of B2  symmetry.
   9         5   5   5   5
  10         9   9   9   9
 Order= 1 2 4 3
 Reordered character table:
              1            2            3            4            5
     1            1            1            1            1            1
     2            2            1            1           -1           -1
     3            4            1           -1           -1            1
     4            3            1           -1            1           -1
 NEqShl: 
              1            2            3            4
     1            1            1            1            1
     2            2            2            2            2
     3            3            3            3            3
     4            4            4            4            4
 NEqBas: 
              1            2            3            4
     1            1            1            1            1
     2            2            2            2            2
     3            3            3            3            3
     4            4           -4           -4            4
     5            5           -5            5           -5
     6            6            6            6            6
     7            7            7            7            7
     8            8           -8           -8            8
     9            9           -9            9           -9
    10           10           10           10           10
 There are     6 symmetry adapted basis functions of A1  symmetry.
   1         1   1   1   1
   2         2   2   2   2
   3         3   3   3   3
   4         6   6   6   6
   5         7   7   7   7
   6        10  10  10  10
 There are     0 symmetry adapted basis functions of A2  symmetry.
 There are     2 symmetry adapted basis functions of B1  symmetry.
   7         4   4   4   4
   8         8   8   8   8
 There are     2 symmetry adapted basis functions of B2  symmetry.
   9         5   5   5   5
  10         9   9   9   9
 Order= 1 2 4 3
 Reordered character table:
              1            2            3            4            5
     1            1            1            1            1            1
     2            2            1            1           -1           -1
     3            4            1           -1           -1            1
     4            3            1           -1            1           -1
    10 basis functions,    18 primitive gaussians,    10 cartesian basis functions
     2 alpha electrons        2 beta electrons
       nuclear repulsion energy         0.4810701917 Hartrees.
 IS=     1 IAt=     1 ISR=     1 T=0 IP=      1 IndIP=      1 IndIPD=      0 C=  2.769344D-01  0.000000D+00                             NZ=T
 IS=     1 IAt=     1 ISR=     1 T=0 IP=      2 IndIP=      2 IndIPD=      1 C=  2.678389D-01  0.000000D+00                             NZ=T
 IS=     1 IAt=     1 ISR=     1 T=0 IP=      3 IndIP=      3 IndIPD=      2 C=  8.347367D-02  0.000000D+00                             NZ=T
 IS=     2 IAt=     2 ISR=     1 T=0 IP=      1 IndIP=      4 IndIPD=      0 C=  7.424571D-01  0.000000D+00                             NZ=T
 IS=     2 IAt=     2 ISR=     1 T=0 IP=      2 IndIP=      5 IndIPD=      1 C=  9.736824D-01  0.000000D+00                             NZ=T
 IS=     2 IAt=     2 ISR=     1 T=0 IP=      3 IndIP=      6 IndIPD=      2 C=  5.265692D-01  0.000000D+00                             NZ=T
 IS=     3 IAt=     2 ISR=     2 T=1 IP=      1 IndIP=      7 IndIPD=      0 C= -1.181663D-01  1.066435D-01                             NZ=T
 IS=     3 IAt=     2 ISR=     2 T=1 IP=      2 IndIP=      8 IndIPD=      1 C=  1.473557D-01  7.547122D-02                             NZ=T
 IS=     4 IAt=     2 ISR=     3 T=1 IP=      1 IndIP=      9 IndIPD=      0 C=  4.951993D-02  1.673876D-02                             NZ=T
 IExCor=    0 DFT=F Ex=HF Corr=None ExCW=0 ScaHFX=  1.000000
 ScaDFX=  1.000000  1.000000  1.000000  1.000000 ScalE2=  1.000000  1.000000
 IRadAn=      5 IRanWt=     -1 IRanGd=            0 ICorTp=0 IEmpDi=  4
 NAtoms=    2 NActive=    2 NUniq=    2 SFac= 1.00D+00 NAtFMM=   60 NAOKFM=F Big=F
 Integral buffers will be    131072 words long.
 Raffenetti 1 integral format.
 Two-electron integral symmetry is turned on.
 Leave Link  301 at Mon Mar 28 14:00:28 2022, MaxMem=  9663676416 cpu:               3.6 elap:               0.1
 (Enter /nopt/nrel/apps/gaussian/g16C_1/g16/l302.exe)
 NPDir=0 NMtPBC=     1 NCelOv=     1 NCel=       1 NClECP=     1 NCelD=      1
         NCelK=      1 NCelE2=     1 NClLst=     1 CellRange=     0.0.
 One-electron integrals computed using PRISM.
 One-electron integral symmetry used in STVInt
 Entering OneElI...
 Calculate overlap and kinetic energy integrals
    NBasis =  10  MinDer = 0  MaxDer = 0
 Requested accuracy = 0.1000D-12
 Symmetry will be used
 PrmmSu-InSpLW:  IPartL=    0 NPrtUS=   36 NPrtUL=    1 DoSpLW=F IThBeg=    0 IThEnd=   35 NThAct=   36.
 PrSmSu:  IncTry=   512 NBBP=             10 NTPThr=   100 NPartT=   36 Incr=           1 LDynOK=F GPUOK=F.
 PrsmSu:  NPrtUS=  36 ThrOK=T IAlg=1 LenDen=           0 ISkipM=0 DoSpLW=F IThBeg=    0 IThEnd=   35.
 Prism:   IPart=     0 DynPar=F LinDyn=F Incr=           1.
 PRISM was handed   268434316 working-precision words and    10 shell-pairs
 PRISM was handed   268434316 working-precision words and    10 shell-pairs
 PRISM was handed   268434316 working-precision words and    10 shell-pairs
 PRISM was handed   268434316 working-precision words and    10 shell-pairs
 PRISM was handed   268434316 working-precision words and    10 shell-pairs
 PRISM was handed   268434316 working-precision words and    10 shell-pairs
 PRISM was handed   268434316 working-precision words and    10 shell-pairs
 PRISM was handed   268434316 working-precision words and    10 shell-pairs
 PRISM was handed   268434316 working-precision words and    10 shell-pairs
 PRISM was handed   268434316 working-precision words and    10 shell-pairs
 IPart= 25 NShTot=           0 NBatch=           0 AvBLen=         0.0
 IPart= 15 NShTot=           0 NBatch=           0 AvBLen=         0.0
 IPart= 16 NShTot=           0 NBatch=           0 AvBLen=         0.0
 IPart= 20 NShTot=           0 NBatch=           0 AvBLen=         0.0
 IPart= 14 NShTot=           0 NBatch=           0 AvBLen=         0.0
 PRISM was handed   268434316 working-precision words and    10 shell-pairs
 IPart= 12 NShTot=           0 NBatch=           0 AvBLen=         0.0
 PRISM was handed   268434316 working-precision words and    10 shell-pairs
 IPart= 10 NShTot=           0 NBatch=           0 AvBLen=         0.0
 PRISM was handed   268434316 working-precision words and    10 shell-pairs
 IPart= 33 NShTot=           0 NBatch=           0 AvBLen=         0.0
 IPart=  7 NShTot=           0 NBatch=           0 AvBLen=         0.0
 IPart= 24 NShTot=           0 NBatch=           0 AvBLen=         0.0
 IPart=  3 NShTot=           0 NBatch=           0 AvBLen=         0.0
 IPart=  4 NShTot=           0 NBatch=           0 AvBLen=         0.0
 PRISM was handed   268434316 working-precision words and    10 shell-pairs
 PRISM was handed   268434316 working-precision words and    10 shell-pairs
 PRISM was handed   268434316 working-precision words and    10 shell-pairs
 PRISM was handed   268434316 working-precision words and    10 shell-pairs
 PRISM was handed   268434316 working-precision words and    10 shell-pairs
 IPart= 26 NShTot=           0 NBatch=           0 AvBLen=         0.0
 PRISM was handed   268434316 working-precision words and    10 shell-pairs
 PRISM was handed   268434316 working-precision words and    10 shell-pairs
 IPart= 23 NShTot=           0 NBatch=           0 AvBLen=         0.0
 IPart= 31 NShTot=           0 NBatch=           0 AvBLen=         0.0
 IPart=  0 NShTot=           7 NBatch=           7 AvBLen=         1.0
 IPart= 11 NShTot=           0 NBatch=           0 AvBLen=         0.0
 PRISM was handed   268434316 working-precision words and    10 shell-pairs
 PRISM was handed   268434316 working-precision words and    10 shell-pairs
 IPart= 22 NShTot=           0 NBatch=           0 AvBLen=         0.0
 PRISM was handed   268434316 working-precision words and    10 shell-pairs
 PRISM was handed   268434316 working-precision words and    10 shell-pairs
 IPart= 28 NShTot=           0 NBatch=           0 AvBLen=         0.0
 IPart=  6 NShTot=           0 NBatch=           0 AvBLen=         0.0
 PRISM was handed   268434316 working-precision words and    10 shell-pairs
 PRISM was handed   268434316 working-precision words and    10 shell-pairs
 IPart= 29 NShTot=           0 NBatch=           0 AvBLen=         0.0
 IPart= 27 NShTot=           0 NBatch=           0 AvBLen=         0.0
 IPart=  9 NShTot=           0 NBatch=           0 AvBLen=         0.0
 PRISM was handed   268434316 working-precision words and    10 shell-pairs
 IPart=  1 NShTot=           3 NBatch=           3 AvBLen=         1.0
 IPart= 35 NShTot=           0 NBatch=           0 AvBLen=         0.0
 PRISM was handed   268434316 working-precision words and    10 shell-pairs
 PRISM was handed   268434316 working-precision words and    10 shell-pairs
 PRISM was handed   268434316 working-precision words and    10 shell-pairs
 PRISM was handed   268434316 working-precision words and    10 shell-pairs
 IPart= 21 NShTot=           0 NBatch=           0 AvBLen=         0.0
 PRISM was handed   268434316 working-precision words and    10 shell-pairs
 IPart=  5 NShTot=           0 NBatch=           0 AvBLen=         0.0
 PRISM was handed   268434316 working-precision words and    10 shell-pairs
 IPart= 18 NShTot=           0 NBatch=           0 AvBLen=         0.0
 IPart=  2 NShTot=           0 NBatch=           0 AvBLen=         0.0
 IPart= 30 NShTot=           0 NBatch=           0 AvBLen=         0.0
 IPart=  8 NShTot=           0 NBatch=           0 AvBLen=         0.0
 IPart= 19 NShTot=           0 NBatch=           0 AvBLen=         0.0
 PRISM was handed   268434316 working-precision words and    10 shell-pairs
 PRISM was handed   268434316 working-precision words and    10 shell-pairs
 PRISM was handed   268434316 working-precision words and    10 shell-pairs
 IPart= 13 NShTot=           0 NBatch=           0 AvBLen=         0.0
 IPart= 32 NShTot=           0 NBatch=           0 AvBLen=         0.0
 IPart= 34 NShTot=           0 NBatch=           0 AvBLen=         0.0
 IPart= 17 NShTot=           0 NBatch=           0 AvBLen=         0.0
 PrSmSu:  NxtVal=             37.
 *** Overlap *** 
                1             2             3             4             5 
      1  0.100000D+01
      2  0.623045D-03  0.100000D+01
      3  0.525241D-01  0.177215D+00  0.100000D+01
      4  0.000000D+00  0.000000D+00  0.000000D+00  0.100000D+01
      5  0.000000D+00  0.000000D+00  0.000000D+00  0.000000D+00  0.100000D+01
      6 -0.116155D+00  0.000000D+00  0.000000D+00  0.000000D+00  0.000000D+00
      7  0.153865D+00  0.140674D+00  0.782781D+00  0.000000D+00  0.000000D+00
      8  0.000000D+00  0.000000D+00  0.000000D+00  0.588593D+00  0.000000D+00
      9  0.000000D+00  0.000000D+00  0.000000D+00  0.000000D+00  0.588593D+00
     10 -0.288850D+00  0.000000D+00  0.000000D+00  0.000000D+00  0.000000D+00
                6             7             8             9            10 
      6  0.100000D+01
      7  0.000000D+00  0.100000D+01
      8  0.000000D+00  0.000000D+00  0.100000D+01
      9  0.000000D+00  0.000000D+00  0.000000D+00  0.100000D+01
     10  0.588593D+00  0.000000D+00  0.000000D+00  0.000000D+00  0.100000D+01
 *** Kinetic Energy *** 
                1             2             3             4             5 
      1  0.760032D+00
      2 -0.790253D-03  0.365490D+01
      3 -0.876857D-02 -0.135538D+00  0.159492D+00
      4  0.000000D+00  0.000000D+00  0.000000D+00  0.307817D+00
      5  0.000000D+00  0.000000D+00  0.000000D+00  0.000000D+00  0.307817D+00
      6  0.607802D-02  0.000000D+00  0.000000D+00  0.000000D+00  0.000000D+00
      7  0.397414D-02  0.117904D-01  0.513380D-01  0.000000D+00  0.000000D+00
      8  0.000000D+00  0.000000D+00  0.000000D+00  0.661980D-01  0.000000D+00
      9  0.000000D+00  0.000000D+00  0.000000D+00  0.000000D+00  0.661980D-01
     10 -0.221786D-01  0.000000D+00  0.000000D+00  0.000000D+00  0.000000D+00
                6             7             8             9            10 
      6  0.307817D+00
      7  0.000000D+00  0.428467D-01
      8  0.000000D+00  0.000000D+00  0.714113D-01
      9  0.000000D+00  0.000000D+00  0.000000D+00  0.714113D-01
     10  0.661980D-01  0.000000D+00  0.000000D+00  0.000000D+00  0.714113D-01
 Entering OneElI...
 Calculate potential energy integrals
    NBasis =  10  MinDer = 0  MaxDer = 0
 Requested accuracy = 0.1000D-12
 Symmetry will be used
 PrmmSu-InSpLW:  IPartL=    0 NPrtUS=   36 NPrtUL=    1 DoSpLW=F IThBeg=    0 IThEnd=   35 NThAct=   36.
 PrSmSu:  IncTry=   512 NBBP=             20 NTPThr=   100 NPartT=   36 Incr=           1 LDynOK=F GPUOK=F.
 PrsmSu:  NPrtUS=  36 ThrOK=T IAlg=1 LenDen=           0 ISkipM=0 DoSpLW=F IThBeg=    0 IThEnd=   35.
 PRISM was handed   268434366 working-precision words and    10 shell-pairs
 PRISM was handed   268434366 working-precision words and    10 shell-pairs
 PRISM was handed   268434366 working-precision words and    10 shell-pairs
 PRISM was handed   268434366 working-precision words and    10 shell-pairs
 PRISM was handed   268434366 working-precision words and    10 shell-pairs
 PRISM was handed   268434366 working-precision words and    10 shell-pairs
 PRISM was handed   268434366 working-precision words and    10 shell-pairs
 PRISM was handed   268434366 working-precision words and    10 shell-pairs
 PRISM was handed   268434366 working-precision words and    10 shell-pairs
 PRISM was handed   268434366 working-precision words and    10 shell-pairs
 PRISM was handed   268434366 working-precision words and    10 shell-pairs
 PRISM was handed   268434366 working-precision words and    10 shell-pairs
 PRISM was handed   268434366 working-precision words and    10 shell-pairs
 PRISM was handed   268434366 working-precision words and    10 shell-pairs
 PRISM was handed   268434366 working-precision words and    10 shell-pairs
 PRISM was handed   268434366 working-precision words and    10 shell-pairs
 Prism:   IPart=     0 DynPar=F LinDyn=F Incr=           1.
 PRISM was handed   268434366 working-precision words and    10 shell-pairs
 PRISM was handed   268434366 working-precision words and    10 shell-pairs
 PRISM was handed   268434366 working-precision words and    10 shell-pairs
 PRISM was handed   268434366 working-precision words and    10 shell-pairs
 PRISM was handed   268434366 working-precision words and    10 shell-pairs
 PRISM was handed   268434366 working-precision words and    10 shell-pairs
 PRISM was handed   268434366 working-precision words and    10 shell-pairs
 PRISM was handed   268434366 working-precision words and    10 shell-pairs
 PRISM was handed   268434366 working-precision words and    10 shell-pairs
 PRISM was handed   268434366 working-precision words and    10 shell-pairs
 PRISM was handed   268434366 working-precision words and    10 shell-pairs
 PRISM was handed   268434366 working-precision words and    10 shell-pairs
 PRISM was handed   268434366 working-precision words and    10 shell-pairs
 PRISM was handed   268434366 working-precision words and    10 shell-pairs
 PRISM was handed   268434366 working-precision words and    10 shell-pairs
 PRISM was handed   268434366 working-precision words and    10 shell-pairs
 PRISM was handed   268434366 working-precision words and    10 shell-pairs
 PRISM was handed   268434366 working-precision words and    10 shell-pairs
 PRISM was handed   268434366 working-precision words and    10 shell-pairs
 PRISM was handed   268434366 working-precision words and    10 shell-pairs
 IPart=  1 NShTot=           6 NBatch=           3 AvBLen=         2.0
 IPart=  0 NShTot=          14 NBatch=           7 AvBLen=         2.0
 IPart= 32 NShTot=           0 NBatch=           0 AvBLen=         0.0
 IPart= 26 NShTot=           0 NBatch=           0 AvBLen=         0.0
 IPart= 24 NShTot=           0 NBatch=           0 AvBLen=         0.0
 IPart= 25 NShTot=           0 NBatch=           0 AvBLen=         0.0
 IPart=  4 NShTot=           0 NBatch=           0 AvBLen=         0.0
 IPart=  7 NShTot=           0 NBatch=           0 AvBLen=         0.0
 IPart= 18 NShTot=           0 NBatch=           0 AvBLen=         0.0
 IPart= 21 NShTot=           0 NBatch=           0 AvBLen=         0.0
 IPart= 15 NShTot=           0 NBatch=           0 AvBLen=         0.0
 IPart= 23 NShTot=           0 NBatch=           0 AvBLen=         0.0
 IPart= 31 NShTot=           0 NBatch=           0 AvBLen=         0.0
 IPart=  2 NShTot=           0 NBatch=           0 AvBLen=         0.0
 IPart= 19 NShTot=           0 NBatch=           0 AvBLen=         0.0
 IPart= 17 NShTot=           0 NBatch=           0 AvBLen=         0.0
 IPart= 34 NShTot=           0 NBatch=           0 AvBLen=         0.0
 IPart= 14 NShTot=           0 NBatch=           0 AvBLen=         0.0
 IPart= 22 NShTot=           0 NBatch=           0 AvBLen=         0.0
 IPart=  8 NShTot=           0 NBatch=           0 AvBLen=         0.0
 IPart=  3 NShTot=           0 NBatch=           0 AvBLen=         0.0
 IPart=  5 NShTot=           0 NBatch=           0 AvBLen=         0.0
 IPart= 13 NShTot=           0 NBatch=           0 AvBLen=         0.0
 IPart= 12 NShTot=           0 NBatch=           0 AvBLen=         0.0
 IPart= 30 NShTot=           0 NBatch=           0 AvBLen=         0.0
 IPart= 35 NShTot=           0 NBatch=           0 AvBLen=         0.0
 IPart= 27 NShTot=           0 NBatch=           0 AvBLen=         0.0
 IPart=  9 NShTot=           0 NBatch=           0 AvBLen=         0.0
 IPart= 11 NShTot=           0 NBatch=           0 AvBLen=         0.0
 IPart=  6 NShTot=           0 NBatch=           0 AvBLen=         0.0
 IPart= 20 NShTot=           0 NBatch=           0 AvBLen=         0.0
 IPart= 28 NShTot=           0 NBatch=           0 AvBLen=         0.0
 IPart= 33 NShTot=           0 NBatch=           0 AvBLen=         0.0
 IPart= 29 NShTot=           0 NBatch=           0 AvBLen=         0.0
 IPart= 10 NShTot=           0 NBatch=           0 AvBLen=         0.0
 IPart= 16 NShTot=           0 NBatch=           0 AvBLen=         0.0
 PrSmSu:  NxtVal=             37.
 ***** Potential Energy ***** 
                1             2             3             4             5 
      1  0.170768D+01
      2  0.226391D-02  0.824193D+01
      3  0.637401D-01  0.658110D+00  0.138354D+01
      4  0.000000D+00  0.000000D+00  0.000000D+00  0.131336D+01
      5  0.000000D+00  0.000000D+00  0.000000D+00  0.000000D+00  0.131336D+01
      6 -0.142564D+00 -0.304627D-02 -0.427723D-01  0.000000D+00  0.000000D+00
      7  0.183301D+00  0.636756D+00  0.982820D+00  0.000000D+00  0.000000D+00
      8  0.000000D+00  0.000000D+00  0.000000D+00  0.583860D+00  0.000000D+00
      9  0.000000D+00  0.000000D+00  0.000000D+00  0.000000D+00  0.583860D+00
     10 -0.343764D+00 -0.469418D-03 -0.274591D-01  0.000000D+00  0.000000D+00
                6             7             8             9            10 
      6  0.133999D+01
      7 -0.440354D-01  0.963843D+00
      8  0.000000D+00  0.000000D+00  0.665898D+00
      9  0.000000D+00  0.000000D+00  0.000000D+00  0.665898D+00
     10  0.609055D+00 -0.595350D-01  0.000000D+00  0.000000D+00  0.721385D+00
 ****** Core Hamiltonian ****** 
                1             2             3             4             5 
      1 -0.947652D+00
      2 -0.305416D-02 -0.458703D+01
      3 -0.725086D-01 -0.793648D+00 -0.122405D+01
      4  0.000000D+00  0.000000D+00  0.000000D+00 -0.100554D+01
      5  0.000000D+00  0.000000D+00  0.000000D+00  0.000000D+00 -0.100554D+01
      6  0.148642D+00  0.304627D-02  0.427723D-01  0.000000D+00  0.000000D+00
      7 -0.179327D+00 -0.624966D+00 -0.931482D+00  0.000000D+00  0.000000D+00
      8  0.000000D+00  0.000000D+00  0.000000D+00 -0.517662D+00  0.000000D+00
      9  0.000000D+00  0.000000D+00  0.000000D+00  0.000000D+00 -0.517662D+00
     10  0.321586D+00  0.469418D-03  0.274591D-01  0.000000D+00  0.000000D+00
                6             7             8             9            10 
      6 -0.103217D+01
      7  0.440354D-01 -0.920996D+00
      8  0.000000D+00  0.000000D+00 -0.594487D+00
      9  0.000000D+00  0.000000D+00  0.000000D+00 -0.594487D+00
     10 -0.542857D+00  0.595350D-01  0.000000D+00  0.000000D+00 -0.649974D+00
 SVDSVc IOpt=   1 NormSV=T IR=1
 SVDSVc V= 1.88D+00 1.69D+00 9.60D-01 8.78D-01 3.85D-01 2.09D-01
 SVDSVc IOpt=   1 NormSV=T IR=3
 SVDSVc V= 1.59D+00 4.11D-01
 SVDSVc IOpt=   1 NormSV=T IR=4
 SVDSVc V= 1.59D+00 4.11D-01
 TstOVc:  Largest diagonal error= 1.44D-15 IB=1 I=    6.
 TstOVc:  Largest same sym error= 8.74D-16 IB=1 I=    6 J=    5.
 TstOVc:  Largest diff sym error= 0.00D+00 IB=0 JB=0 I=    0 J=    0.
 Orthogonalized basis functions: 
                 1             2             3             4             5 
      1   0.168209D+00 -0.246292D+00 -0.440790D+00  0.827127D+00  0.341248D+00
      2   0.171325D+00  0.709138D-01  0.874994D+00  0.477069D+00  0.198361D-01
      3   0.469505D+00  0.162818D+00 -0.622559D-01 -0.228438D+00 -0.128462D+00
      4   0.000000D+00  0.000000D+00  0.000000D+00  0.000000D+00  0.000000D+00
      5   0.000000D+00  0.000000D+00  0.000000D+00  0.000000D+00  0.000000D+00
      6  -0.108156D+00  0.472241D+00 -0.211429D+00  0.388782D+00 -0.105016D+01
      7   0.476004D+00  0.144119D+00 -0.165372D+00 -0.128038D+00  0.735718D-01
      8   0.000000D+00  0.000000D+00  0.000000D+00  0.000000D+00  0.000000D+00
      9   0.000000D+00  0.000000D+00  0.000000D+00  0.000000D+00  0.000000D+00
     10  -0.127975D+00  0.505491D+00 -0.727944D-01  0.829533D-01  0.116497D+01
                 6             7             8             9            10 
      1  -0.239007D+00  0.000000D+00  0.000000D+00  0.000000D+00  0.000000D+00
      2   0.674861D-01  0.000000D+00  0.000000D+00  0.000000D+00  0.000000D+00
      3  -0.152585D+01  0.000000D+00  0.000000D+00  0.000000D+00  0.000000D+00
      4   0.000000D+00  0.561020D+00  0.110243D+01  0.000000D+00  0.000000D+00
      5   0.000000D+00  0.000000D+00  0.000000D+00  0.561020D+00  0.110243D+01
      6   0.666520D-01  0.000000D+00  0.000000D+00  0.000000D+00  0.000000D+00
      7   0.154355D+01  0.000000D+00  0.000000D+00  0.000000D+00  0.000000D+00
      8   0.000000D+00  0.561020D+00 -0.110243D+01  0.000000D+00  0.000000D+00
      9   0.000000D+00  0.000000D+00  0.000000D+00  0.561020D+00 -0.110243D+01
     10  -0.136793D+00  0.000000D+00  0.000000D+00  0.000000D+00  0.000000D+00
 NBasis=    10 RedAO= T EigKep=  2.09D-01  NBF=     6     0     2     2
 NBsUse=    10 1.00D-06 EigRej= -1.00D+00 NBFU=     6     0     2     2
 Leave Link  302 at Mon Mar 28 14:00:28 2022, MaxMem=  9663676416 cpu:               3.2 elap:               0.1
 (Enter /nopt/nrel/apps/gaussian/g16C_1/g16/l303.exe)
 DipDrv will not compute anything.
 Fermi contact integrals: 
                 1             2 
      1   0.628247D+00  0.117412D-03
      2   0.000000D+00  0.224271D+01
      3   0.276286D-02  0.291894D-01
      4   0.000000D+00  0.000000D+00
      5   0.000000D+00  0.000000D+00
      6  -0.882441D-02  0.000000D+00
      7   0.163060D-01  0.495199D-01
      8   0.000000D+00  0.000000D+00
      9   0.000000D+00  0.000000D+00
     10  -0.343719D-01  0.000000D+00
 Leave Link  303 at Mon Mar 28 14:00:28 2022, MaxMem=  9663676416 cpu:               1.0 elap:               0.1
 (Enter /nopt/nrel/apps/gaussian/g16C_1/g16/l401.exe)
 ExpMin= 2.86D-02 ExpMax= 3.68D+01 ExpMxC= 3.68D+01 IAcc=3 IRadAn=         5 AccDes= 0.00D+00
 Harris functional with IExCor=  205 and IRadAn=       5 diagonalized for initial guess.
 HarFok:  IExCor=  205 AccDes= 0.00D+00 IRadAn=         5 IDoV= 1 UseB2=F ITyADJ=14
 ICtDFT=  3500011 ScaDFX=  1.000000  1.000000  1.000000  1.000000
 FoFCou: FMM=F IPFlag=           0 FMFlag=      100000 FMFlg1=           0
         NFxFlg=           0 DoJE=T BraDBF=F KetDBF=T FulRan=T
         wScrn=  0.000000 ICntrl=       500 IOpCl=  0 I1Cent=   200000004 NGrid=           0
         NMat0=    1 NMatS0=      1 NMatT0=    0 NMatD0=    1 NMtDS0=    0 NMtDT0=    0
 Petite list used in FoFCou.
 Harris En= -7.86880816898839    
 JPrj=0 DoOrth=F DoCkMO=F.
 Initial guess orbital symmetries:
       Occupied  (SG) (SG)
       Virtual   (SG) (PI) (PI) (SG) (PI) (PI) (SG) (SG)
 The electronic state of the initial guess is 1-SG.
 Leave Link  401 at Mon Mar 28 14:00:28 2022, MaxMem=  9663676416 cpu:               3.3 elap:               0.1
 (Enter /nopt/nrel/apps/gaussian/g16C_1/g16/l502.exe)
 Keep R1 ints in memory in symmetry-blocked form, NReq=7206198.
 FoFCou: FMM=F IPFlag=           0 FMFlag=           0 FMFlg1=           0
         NFxFlg=           0 DoJE=F BraDBF=F KetDBF=F FulRan=T
         wScrn=  0.000000 ICntrl=       600 IOpCl=  0 I1Cent=           0 NGrid=           0
         NMat0=    1 NMatS0=     55 NMatT0=    0 NMatD0=    1 NMtDS0=    0 NMtDT0=    0
 Petite list used in FoFCou.
 Closed shell SCF:
 Using DIIS extrapolation, IDIIS=  1040.
 NGot=  9663676416 LenX=  9663673310 LenY=  9663672428
 Requested convergence on RMS density matrix=1.00D-08 within 128 cycles.
 Requested convergence on MAX density matrix=1.00D-06.
 Requested convergence on             energy=1.00D-06.
 No special actions if energy rises.

 Cycle   1  Pass 1  IDiag  1:
 E= -7.72541486954838    
 DIIS: error= 3.18D-02 at cycle   1 NSaved=   1.
 NSaved= 1 IEnMin= 1 EnMin= -7.72541486954838     IErMin= 1 ErrMin= 3.18D-02
 ErrMax= 3.18D-02  0.00D+00 EMaxC= 1.00D-01 BMatC= 1.70D-02 BMatP= 1.70D-02
 IDIUse=3 WtCom= 6.82D-01 WtEn= 3.18D-01
 Coeff-Com:  0.100D+01
 Coeff-En:   0.100D+01
 Coeff:      0.100D+01
 Gap=     0.057 Goal=   None    Shift=    0.000
 GapD=    0.057 DampG=0.500 DampE=0.500 DampFc=0.2500 IDamp=-1.
 Damping current iteration by 2.50D-01
 RMSDP=5.23D-02 MaxDP=3.88D-01              OVMax= 3.75D-01

 Cycle   2  Pass 1  IDiag  1:
 E= -7.74710389546591     Delta-E=       -0.021689025918 Rises=F Damp=T
 DIIS: error= 2.27D-02 at cycle   2 NSaved=   2.
 NSaved= 2 IEnMin= 2 EnMin= -7.74710389546591     IErMin= 2 ErrMin= 2.27D-02
 ErrMax= 2.27D-02  0.00D+00 EMaxC= 1.00D-01 BMatC= 8.29D-03 BMatP= 1.70D-02
 IDIUse=3 WtCom= 7.73D-01 WtEn= 2.27D-01
 Coeff-Com: -0.224D+01 0.324D+01
 Coeff-En:   0.000D+00 0.100D+01
 Coeff:     -0.173D+01 0.273D+01
 Gap=     0.175 Goal=   None    Shift=    0.000
 RMSDP=2.90D-02 MaxDP=2.15D-01 DE=-2.17D-02 OVMax= 5.24D-02

 Cycle   3  Pass 1  IDiag  1:
 E= -7.80085701107805     Delta-E=       -0.053753115612 Rises=F Damp=F
 DIIS: error= 1.68D-03 at cycle   3 NSaved=   3.
 NSaved= 3 IEnMin= 3 EnMin= -7.80085701107805     IErMin= 3 ErrMin= 1.68D-03
 ErrMax= 1.68D-03  0.00D+00 EMaxC= 1.00D-01 BMatC= 2.12D-05 BMatP= 8.29D-03
 IDIUse=3 WtCom= 9.83D-01 WtEn= 1.68D-02
 Coeff-Com:  0.326D+00-0.440D+00 0.111D+01
 Coeff-En:   0.000D+00 0.000D+00 0.100D+01
 Coeff:      0.320D+00-0.432D+00 0.111D+01
 Gap=     0.193 Goal=   None    Shift=    0.000
 RMSDP=1.39D-03 MaxDP=8.39D-03 DE=-5.38D-02 OVMax= 9.69D-03

 Cycle   4  Pass 1  IDiag  1:
 E= -7.80093927458131     Delta-E=       -0.000082263503 Rises=F Damp=F
 DIIS: error= 1.45D-04 at cycle   4 NSaved=   4.
 NSaved= 4 IEnMin= 4 EnMin= -7.80093927458131     IErMin= 4 ErrMin= 1.45D-04
 ErrMax= 1.45D-04  0.00D+00 EMaxC= 1.00D-01 BMatC= 2.88D-07 BMatP= 2.12D-05
 IDIUse=3 WtCom= 9.99D-01 WtEn= 1.45D-03
 Coeff-Com: -0.511D-01 0.669D-01-0.125D+00 0.111D+01
 Coeff-En:   0.000D+00 0.000D+00 0.000D+00 0.100D+01
 Coeff:     -0.511D-01 0.668D-01-0.125D+00 0.111D+01
 Gap=     0.192 Goal=   None    Shift=    0.000
 RMSDP=2.03D-04 MaxDP=8.06D-04 DE=-8.23D-05 OVMax= 1.65D-03

 Cycle   5  Pass 1  IDiag  1:
 E= -7.80094180460156     Delta-E=       -0.000002530020 Rises=F Damp=F
 DIIS: error= 7.20D-05 at cycle   5 NSaved=   5.
 NSaved= 5 IEnMin= 5 EnMin= -7.80094180460156     IErMin= 5 ErrMin= 7.20D-05
 ErrMax= 7.20D-05  0.00D+00 EMaxC= 1.00D-01 BMatC= 5.67D-08 BMatP= 2.88D-07
 IDIUse=1 WtCom= 1.00D+00 WtEn= 0.00D+00
 Coeff-Com: -0.186D-01 0.275D-01 0.183D-01-0.765D+00 0.174D+01
 Coeff:     -0.186D-01 0.275D-01 0.183D-01-0.765D+00 0.174D+01
 Gap=     0.192 Goal=   None    Shift=    0.000
 RMSDP=1.60D-04 MaxDP=6.48D-04 DE=-2.53D-06 OVMax= 1.44D-03

 Cycle   6  Pass 1  IDiag  1:
 E= -7.80094264562157     Delta-E=       -0.000000841020 Rises=F Damp=F
 DIIS: error= 1.75D-05 at cycle   6 NSaved=   6.
 NSaved= 6 IEnMin= 6 EnMin= -7.80094264562157     IErMin= 6 ErrMin= 1.75D-05
 ErrMax= 1.75D-05  0.00D+00 EMaxC= 1.00D-01 BMatC= 3.43D-09 BMatP= 5.67D-08
 IDIUse=1 WtCom= 1.00D+00 WtEn= 0.00D+00
 Coeff-Com: -0.386D-02 0.487D-02-0.116D-01 0.138D+00-0.428D+00 0.130D+01
 Coeff:     -0.386D-02 0.487D-02-0.116D-01 0.138D+00-0.428D+00 0.130D+01
 Gap=     0.192 Goal=   None    Shift=    0.000
 RMSDP=3.79D-05 MaxDP=1.57D-04 DE=-8.41D-07 OVMax= 3.55D-04

 Cycle   7  Pass 1  IDiag  1:
 E= -7.80094269484011     Delta-E=       -0.000000049219 Rises=F Damp=F
 DIIS: error= 4.72D-06 at cycle   7 NSaved=   7.
 NSaved= 7 IEnMin= 7 EnMin= -7.80094269484011     IErMin= 7 ErrMin= 4.72D-06
 ErrMax= 4.72D-06  0.00D+00 EMaxC= 1.00D-01 BMatC= 2.80D-10 BMatP= 3.43D-09
 IDIUse=1 WtCom= 1.00D+00 WtEn= 0.00D+00
 Coeff-Com: -0.220D-03 0.334D-03 0.556D-03-0.129D-01 0.743D-01-0.613D+00
 Coeff-Com:  0.155D+01
 Coeff:     -0.220D-03 0.334D-03 0.556D-03-0.129D-01 0.743D-01-0.613D+00
 Coeff:      0.155D+01
 Gap=     0.192 Goal=   None    Shift=    0.000
 RMSDP=1.40D-05 MaxDP=6.50D-05 DE=-4.92D-08 OVMax= 1.27D-04

 Cycle   8  Pass 1  IDiag  1:
 E= -7.80094269884288     Delta-E=       -0.000000004003 Rises=F Damp=F
 DIIS: error= 2.05D-07 at cycle   8 NSaved=   8.
 NSaved= 8 IEnMin= 8 EnMin= -7.80094269884288     IErMin= 8 ErrMin= 2.05D-07
 ErrMax= 2.05D-07  0.00D+00 EMaxC= 1.00D-01 BMatC= 4.29D-13 BMatP= 2.80D-10
 IDIUse=1 WtCom= 1.00D+00 WtEn= 0.00D+00
 Coeff-Com: -0.150D-05 0.187D-05-0.270D-04 0.874D-04-0.708D-02 0.772D-01
 Coeff-Com: -0.228D+00 0.116D+01
 Coeff:     -0.150D-05 0.187D-05-0.270D-04 0.874D-04-0.708D-02 0.772D-01
 Coeff:     -0.228D+00 0.116D+01
 Gap=     0.192 Goal=   None    Shift=    0.000
 RMSDP=5.61D-07 MaxDP=2.30D-06 DE=-4.00D-09 OVMax= 5.24D-06

 Cycle   9  Pass 1  IDiag  1:
 E= -7.80094269884932     Delta-E=       -0.000000000006 Rises=F Damp=F
 DIIS: error= 3.45D-09 at cycle   9 NSaved=   9.
 NSaved= 9 IEnMin= 9 EnMin= -7.80094269884932     IErMin= 9 ErrMin= 3.45D-09
 ErrMax= 3.45D-09  0.00D+00 EMaxC= 1.00D-01 BMatC= 1.01D-16 BMatP= 4.29D-13
 IDIUse=1 WtCom= 1.00D+00 WtEn= 0.00D+00
 Coeff-Com: -0.104D-05 0.153D-05 0.576D-05-0.321D-04 0.198D-02-0.212D-01
 Coeff-Com:  0.628D-01-0.335D+00 0.129D+01
 Coeff:     -0.104D-05 0.153D-05 0.576D-05-0.321D-04 0.198D-02-0.212D-01
 Coeff:      0.628D-01-0.335D+00 0.129D+01
 Gap=     0.192 Goal=   None    Shift=    0.000
 RMSDP=7.70D-09 MaxDP=2.98D-08 DE=-6.44D-12 OVMax= 3.00D-08

 SCF Done:  E(RHF) =  -7.80094269885     A.U. after    9 cycles
            NFock=  9  Conv=0.77D-08     -V/T= 2.0016
 KE= 7.788519935959D+00 PE=-1.885805749772D+01 EE= 2.787524671168D+00
 Leave Link  502 at Mon Mar 28 14:00:29 2022, MaxMem=  9663676416 cpu:              11.1 elap:               0.4
 (Enter /nopt/nrel/apps/gaussian/g16C_1/g16/l801.exe)
 Windowed orbitals will be sorted by symmetry type.
 ExpMin= 2.86D-02 ExpMax= 3.68D+01 ExpMxC= 3.68D+01 IAcc=3 IRadAn=         5 AccDes= 0.00D+00
 HarFok:  IExCor=  205 AccDes= 0.00D+00 IRadAn=         5 IDoV=-2 UseB2=F ITyADJ=14
 ICtDFT= 12500011 ScaDFX=  1.000000  1.000000  1.000000  1.000000
 Largest valence mixing into a core orbital is  5.40D-04
 Largest core mixing into a valence orbital is  4.86D-05
 Range of M.O.s used for correlation:     2    10
 NBasis=    10 NAE=     2 NBE=     2 NFC=     1 NFV=     0
 NROrb=      9 NOA=     1 NOB=     1 NVA=     8 NVB=     8
 Leave Link  801 at Mon Mar 28 14:00:29 2022, MaxMem=  9663676416 cpu:               2.1 elap:               0.1
 (Enter /nopt/nrel/apps/gaussian/g16C_1/g16/l804.exe)
 Closed-shell transformation, MDV=  9663676416 ITran=4 ISComp=2.
 Unit  1 TFree=          4817 TCopy=        115370.
 Semi-Direct transformation.
 ModeAB=           2 MOrb=             1 LenV=    9663556755
 LASXX=           88 LTotXX=          88 LenRXX=          88
 LTotAB=         141 MaxLAS=         495 LenRXY=         495
 NonZer=         603 LenScr=      785920 LnRSAI=           0
 LnScr1=           0 LExtra=      218791 Total=      1005294
 MaxDsk= 34359738368 SrtSym=           F ITran=            4
 DoSDTr:  NPSUse= 36
 JobTyp=0 Pass  1:  I=   1 to   1.
 (rs|ai) integrals will be sorted in core.
 Complete sort for first half transformation.
 First half transformation complete.
 Complete sort for second half transformation.
 Second half transformation complete.
 Spin components of T(2) and E(2):
     alpha-alpha T2 =       0.0000000000D+00 E2=      0.0000000000D+00
     alpha-beta  T2 =       0.4826904436D-01 E2=     -0.3285488865D-01
     beta-beta   T2 =       0.0000000000D+00 E2=      0.0000000000D+00
 ANorm=    0.1023850108D+01
 E2 =    -0.3285488865D-01 EUMP2 =    -0.78337975875043D+01
 Leave Link  804 at Mon Mar 28 14:00:29 2022, MaxMem=  9663676416 cpu:               1.5 elap:               0.1
 (Enter /nopt/nrel/apps/gaussian/g16C_1/g16/l913.exe)
 CIDS:  MDV=  9663676416.
 Frozen-core window:  NFC=   1 NFV=   0.
 IFCWin=0 IBDFC=1 NFBD=     0     0 NFCmp=     0     0 NFFFC=     0     0
 Using DD3R+UMP44R for 1st iteration.
 Using DD4RQ for 2nd and later iterations.
 Keep R2 and R3 ints in memory in symmetry-blocked form, NReq=7208580.
 FoFCou: FMM=F IPFlag=           0 FMFlag=           0 FMFlg1=           0
         NFxFlg=           0 DoJE=F BraDBF=F KetDBF=F FulRan=T
         wScrn=  0.000000 ICntrl=       600 IOpCl=  0 I1Cent=           0 NGrid=           0
         NMat0=    1 NMatS0=     55 NMatT0=    0 NMatD0=    1 NMtDS0=    0 NMtDT0=    0
 Petite list used in FoFCou.
 CIDS: In Core Option IDoMem=           1.
 Coupled Cluster theory with single and double substitutions
 ===========================================================
 Iterations= 200 Convergence= 0.100D-06
 Produce multiple copies of IABC intergrals
 Iteration Nr.   1
 **********************
 DD1Dir will call FoFMem   1 times, MxPair=         2
 NAB=     1 NAA=     0 NBB=     0.
 MP4(R+Q)=  0.15858741D-02
 Maximum subspace dimension=  5
 A-vector RMS=  4.2474857D-02 Max=  4.1572733D-02 conv= 1.00D-05.
 RLE energy=       -0.0599427547
 E3=       -0.16450963D-01        EUMP3=      -0.78502485507D+01
 E4(DQ)=   -0.77085444D-02        UMP4(DQ)=   -0.78579570951D+01
 E4(SDQ)=  -0.85802803D-02        UMP4(SDQ)=  -0.78588288310D+01
 VARIATIONAL ENERGIES WITH THE FIRST-ORDER WAVEFUNCTION:
 DE(Corr)= -0.47701886E-01 E(Corr)=     -7.8486445847    
 NORM(A)=   0.10851952D+01
 Iteration Nr.   2
 **********************
 DD1Dir will call FoFMem   1 times, MxPair=         2
 NAB=     1 NAA=     0 NBB=     0.
 A-vector RMS=  2.1039120D-02 Max=  4.2582113D-02 conv= 1.00D-05.
 RLE energy=       -0.0625048720
 DE(Corr)= -0.61145585E-01 E(CORR)=     -7.8620882841     Delta=-1.34D-02
 NORM(A)=   0.11010351D+01
 Iteration Nr.   3
 **********************
 DD1Dir will call FoFMem   1 times, MxPair=         2
 NAB=     1 NAA=     0 NBB=     0.
 A-vector RMS=  2.6529626D-02 Max=  3.2217317D-02 conv= 1.00D-05.
 RLE energy=       -0.0638709331
 DE(Corr)= -0.62493130E-01 E(CORR)=     -7.8634358291     Delta=-1.35D-03
 NORM(A)=   0.11358844D+01
 Iteration Nr.   4
 **********************
 DD1Dir will call FoFMem   1 times, MxPair=         2
 NAB=     1 NAA=     0 NBB=     0.
 A-vector RMS=  8.2758193D-03 Max=  3.0898886D-02 conv= 1.00D-05.
 RLE energy=       -0.0690382254
 DE(Corr)= -0.65176649E-01 E(CORR)=     -7.8661193475     Delta=-2.68D-03
 NORM(A)=   0.11970511D+01
 Iteration Nr.   5
 **********************
 DD1Dir will call FoFMem   1 times, MxPair=         2
 NAB=     1 NAA=     0 NBB=     0.
 A-vector RMS=  6.9501581D-03 Max=  7.0566798D-03 conv= 1.00D-05.
 RLE energy=       -0.0659764283
 DE(Corr)= -0.68325794E-01 E(CORR)=     -7.8692684933     Delta=-3.15D-03
 NORM(A)=   0.11702763D+01
 Iteration Nr.   6
 **********************
 DD1Dir will call FoFMem   1 times, MxPair=         2
 NAB=     1 NAA=     0 NBB=     0.
 A-vector RMS=  8.2556939D-03 Max=  9.8395157D-03 conv= 1.00D-05.
 RLE energy=       -0.0686295300
 DE(Corr)= -0.66328959E-01 E(CORR)=     -7.8672716583     Delta= 2.00D-03
 NORM(A)=   0.12089831D+01
 Iteration Nr.   7
 **********************
 DD1Dir will call FoFMem   1 times, MxPair=         2
 NAB=     1 NAA=     0 NBB=     0.
 A-vector RMS=  7.9382368D-03 Max=  1.1803316D-02 conv= 1.00D-05.
 RLE energy=       -0.0673412430
 DE(Corr)= -0.68393088E-01 E(CORR)=     -7.8693357869     Delta=-2.06D-03
 NORM(A)=   0.11924616D+01
 Iteration Nr.   8
 **********************
 DD1Dir will call FoFMem   1 times, MxPair=         2
 NAB=     1 NAA=     0 NBB=     0.
 A-vector RMS=  1.2182753D-03 Max=  2.1656836D-03 conv= 1.00D-05.
 RLE energy=       -0.0675084475
 DE(Corr)= -0.67374022E-01 E(CORR)=     -7.8683167204     Delta= 1.02D-03
 NORM(A)=   0.11946340D+01
 Iteration Nr.   9
 **********************
 DD1Dir will call FoFMem   1 times, MxPair=         2
 NAB=     1 NAA=     0 NBB=     0.
 A-vector RMS=  1.2720180D-04 Max=  1.2589067D-04 conv= 1.00D-05.
 RLE energy=       -0.0674945133
 DE(Corr)= -0.67499457E-01 E(CORR)=     -7.8684421561     Delta=-1.25D-04
 NORM(A)=   0.11946318D+01
 Iteration Nr.  10
 **********************
 DD1Dir will call FoFMem   1 times, MxPair=         2
 NAB=     1 NAA=     0 NBB=     0.
 A-vector RMS=  3.8333443D-05 Max=  5.5842559D-05 conv= 1.00D-05.
 RLE energy=       -0.0675069665
 DE(Corr)= -0.67500576E-01 E(CORR)=     -7.8684432748     Delta=-1.12D-06
 NORM(A)=   0.11947557D+01
 Iteration Nr.  11
 **********************
 DD1Dir will call FoFMem   1 times, MxPair=         2
 NAB=     1 NAA=     0 NBB=     0.
 A-vector RMS=  1.2450569D-05 Max=  1.2655646D-05 conv= 1.00D-05.
 RLE energy=       -0.0675045619
 DE(Corr)= -0.67505887E-01 E(CORR)=     -7.8684485861     Delta=-5.31D-06
 NORM(A)=   0.11947286D+01
 Iteration Nr.  12
 **********************
 DD1Dir will call FoFMem   1 times, MxPair=         2
 NAB=     1 NAA=     0 NBB=     0.
 A-vector RMS=  6.1812601D-06 Max=  5.7084638D-06 conv= 1.00D-05.
 RLE energy=       -0.0675049224
 DE(Corr)= -0.67504549E-01 E(CORR)=     -7.8684472480     Delta= 1.34D-06
 NORM(A)=   0.11947259D+01
 Iteration Nr.  13
 **********************
 DD1Dir will call FoFMem   1 times, MxPair=         2
 NAB=     1 NAA=     0 NBB=     0.
 A-vector RMS=  2.1308915D-06 Max=  2.4969471D-06 conv= 1.00D-05.
 RLE energy=       -0.0675043435
 DE(Corr)= -0.67504698E-01 E(CORR)=     -7.8684473968     Delta=-1.49D-07
 NORM(A)=   0.11947192D+01
 Iteration Nr.  14
 **********************
 DD1Dir will call FoFMem   1 times, MxPair=         2
 NAB=     1 NAA=     0 NBB=     0.
 A-vector RMS=  1.7971200D-07 Max=  5.2247626D-07 conv= 1.00D-05.
 RLE energy=       -0.0675043586
 DE(Corr)= -0.67504344E-01 E(CORR)=     -7.8684470426     Delta= 3.54D-07
 NORM(A)=   0.11947192D+01
 Iteration Nr.  15
 **********************
 DD1Dir will call FoFMem   1 times, MxPair=         2
 NAB=     1 NAA=     0 NBB=     0.
 A-vector RMS=  1.1265405D-07 Max=  1.5470852D-07 conv= 1.00D-05.
 RLE energy=       -0.0675043448
 DE(Corr)= -0.67504356E-01 E(CORR)=     -7.8684470549     Delta=-1.22D-08
 NORM(A)=   0.11947191D+01
 CI/CC converged in   15 iterations to DelEn=-1.22D-08 Conv= 1.00D-07 ErrA1= 1.13D-07 Conv= 1.00D-05
 Wavefunction amplitudes converged. E(Corr)=     -7.8684470549    
 Dominant configurations:
 ***********************
 Spin Case        I    J    A    B          Value
    AA            2         3            0.235624D+00
   ABAB           2    2    3    3      -0.263167D+00
   ABAB           2    2    3    6      -0.218809D+00
   ABAB           2    2    3    7       0.125946D+00
   ABAB           2    2    3   10      -0.103252D+00
   ABAB           2    2    6    3      -0.218809D+00
   ABAB           2    2    6    6      -0.184198D+00
   ABAB           2    2    6    7       0.108824D+00
   ABAB           2    2    7    3       0.125946D+00
   ABAB           2    2    7    6       0.108824D+00
   ABAB           2    2   10    3      -0.103252D+00
 Largest amplitude= 2.63D-01
 Discarding MO integrals.
 Leave Link  913 at Mon Mar 28 14:00:29 2022, MaxMem=  9663676416 cpu:               4.3 elap:               0.2
 (Enter /nopt/nrel/apps/gaussian/g16C_1/g16/l601.exe)
 Copying SCF densities to generalized density rwf, IOpCl= 0 IROHF=0.

 **********************************************************************

            Population analysis using the SCF Density.

 **********************************************************************

 Orbital symmetries:
       Occupied  (SG) (SG)
       Virtual   (SG) (PI) (PI) (SG) (SG) (PI) (PI) (SG)
 The electronic state is 1-SG.
 Alpha  occ. eigenvalues --   -2.52915  -0.21809
 Alpha virt. eigenvalues --   -0.02608   0.02868   0.02868   0.13534   0.16329
 Alpha virt. eigenvalues --    0.18013   0.18013   0.23378
          Condensed to atoms (all electrons):
               1          2
     1  H    0.667441   0.222781
     2  Li   0.222781   2.886997
 Mulliken charges:
               1
     1  H    0.109778
     2  Li  -0.109778
 Sum of Mulliken charges =   0.00000
 Mulliken charges with hydrogens summed into heavy atoms:
               1
     2  Li   0.000000
 N-N= 4.810701917455D-01 E-N=-1.885805748334D+01  KE= 7.788519935959D+00
 Symmetry A1   KE= 7.788519935959D+00
 Symmetry A2   KE= 0.000000000000D+00
 Symmetry B1   KE= 0.000000000000D+00
 Symmetry B2   KE= 0.000000000000D+00

 Atomic contributions to Alpha molecular orbitals:
 Alpha occ 1 OE=-2.529 is Li2-s=1.0000
 Alpha occ 2 OE=-0.218 is H1-s=0.4451 Li2-s=0.3252 Li2-p=0.2297
 Alpha vir 3 OE=-0.026 is Li2-s=0.5837 Li2-p=0.3719
 Alpha vir 4 OE=0.029 is Li2-p=1.0000
 Alpha vir 5 OE=0.029 is Li2-p=1.0000
 Alpha vir 6 OE=0.135 is Li2-s=0.5654 Li2-p=0.2219 H1-s=0.2127
 Alpha vir 7 OE=0.163 is Li2-p=0.7860 Li2-s=0.1171
 Alpha vir 8 OE=0.180 is Li2-p=1.0000
 Alpha vir 9 OE=0.180 is Li2-p=1.0000
 Alpha vir 10 OE=0.234 is Li2-s=0.4086 Li2-p=0.3905 H1-s=0.2009
 
 Leave Link  601 at Mon Mar 28 14:00:29 2022, MaxMem=  9663676416 cpu:               1.2 elap:               0.1
 (Enter /nopt/nrel/apps/gaussian/g16C_1/g16/l9999.exe)

 Test job not archived.
 1\1\GINC-R102U34\SP\RCCSD-FC\Gen\H1Li1\USER\28-Mar-2022\0\\#P CCSD
 (MaxCyc=200,SaveAmplitudes,ReadAmplitudes)/GEN sp pop=AllOrbitals iop(
 3/33=1,3/36=-1)\\test\\0,1\H,0,0.,0.,0.\Li,0,0.,0.,3.3\\Version=ES64L-
 G16RevC.01\State=1-SG\HF=-7.8009427\MP2=-7.8337976\MP3=-7.8502486\MP4D
 =-7.859543\MP4DQ=-7.8579571\MP4SDQ=-7.8588288\CCSD=-7.8684471\RMSD=7.6
 99e-09\PG=C*V [C*(H1Li1)]\\@


 KNOWLEDGE IS OF TWO KINDS:  WE KNOW A SUBJECT OURSELVES OR WE KNOW 
 WHERE WE CAN FIND INFORMATION UPON IT.

                                    -- SAMUEL JOHNSON
 Job cpu time:       0 days  0 hours  0 minutes 39.6 seconds.
 Elapsed time:       0 days  0 hours  0 minutes  1.5 seconds.
 File lengths (MBytes):  RWF=     13 Int=      0 D2E=      0 Chk=      1 Scr=      1
 Normal termination of Gaussian 16 at Mon Mar 28 14:00:29 2022.
