 Entering Gaussian System, Link 0=g16
 Initial command:
 /nopt/nrel/apps/gaussian/g16C_1/g16/l1.exe "/lustre/eaglefs/scratch/user/qc/lih-dissc/lih-3-ccsd-0.8-321g/Gau-28798.inp" -scrdir="/lustre/eaglefs/scratch/user/qc/lih-dissc/lih-3-ccsd-0.8-321g/"
 Default is to use a total of  36 processors:
                               36 via shared-memory
                                1 via Linda
 Entering Link 1 = /nopt/nrel/apps/gaussian/g16C_1/g16/l1.exe PID=     28799.
  
 Copyright (c) 1988-2019, Gaussian, Inc.  All Rights Reserved.
  
 This is part of the Gaussian(R) 16 program.  It is based on
 the Gaussian(R) 09 system (copyright 2009, Gaussian, Inc.),
 the Gaussian(R) 03 system (copyright 2003, Gaussian, Inc.),
 the Gaussian(R) 98 system (copyright 1998, Gaussian, Inc.),
 the Gaussian(R) 94 system (copyright 1995, Gaussian, Inc.),
 the Gaussian 92(TM) system (copyright 1992, Gaussian, Inc.),
 the Gaussian 90(TM) system (copyright 1990, Gaussian, Inc.),
 the Gaussian 88(TM) system (copyright 1988, Gaussian, Inc.),
 the Gaussian 86(TM) system (copyright 1986, Carnegie Mellon
 University), and the Gaussian 82(TM) system (copyright 1983,
 Carnegie Mellon University). Gaussian is a federally registered
 trademark of Gaussian, Inc.
  
 This software contains proprietary and confidential information,
 including trade secrets, belonging to Gaussian, Inc.
  
 This software is provided under written license and may be
 used, copied, transmitted, or stored only in accord with that
 written license.
  
 The following legend is applicable only to US Government
 contracts under FAR:
  
                    RESTRICTED RIGHTS LEGEND
  
 Use, reproduction and disclosure by the US Government is
 subject to restrictions as set forth in subparagraphs (a)
 and (c) of the Commercial Computer Software - Restricted
 Rights clause in FAR 52.227-19.
  
 Gaussian, Inc.
 340 Quinnipiac St., Bldg. 40, Wallingford CT 06492
  
  
 ---------------------------------------------------------------
 Warning -- This program may not be used in any manner that
 competes with the business of Gaussian, Inc. or will provide
 assistance to any competitor of Gaussian, Inc.  The licensee
 of this program is prohibited from giving any competitor of
 Gaussian, Inc. access to this program.  By using this program,
 the user acknowledges that Gaussian, Inc. is engaged in the
 business of creating and licensing software in the field of
 computational chemistry and represents and warrants to the
 licensee that it is not a competitor of Gaussian, Inc. and that
 it will not use this program in any manner prohibited above.
 ---------------------------------------------------------------
  

 Cite this work as:
 Gaussian 16, Revision C.01,
 M. J. Frisch, G. W. Trucks, H. B. Schlegel, G. E. Scuseria, 
 M. A. Robb, J. R. Cheeseman, G. Scalmani, V. Barone, 
 G. A. Petersson, H. Nakatsuji, X. Li, M. Caricato, A. V. Marenich, 
 J. Bloino, B. G. Janesko, R. Gomperts, B. Mennucci, H. P. Hratchian, 
 J. V. Ortiz, A. F. Izmaylov, J. L. Sonnenberg, D. Williams-Young, 
 F. Ding, F. Lipparini, F. Egidi, J. Goings, B. Peng, A. Petrone, 
 T. Henderson, D. Ranasinghe, V. G. Zakrzewski, J. Gao, N. Rega, 
 G. Zheng, W. Liang, M. Hada, M. Ehara, K. Toyota, R. Fukuda, 
 J. Hasegawa, M. Ishida, T. Nakajima, Y. Honda, O. Kitao, H. Nakai, 
 T. Vreven, K. Throssell, J. A. Montgomery, Jr., J. E. Peralta, 
 F. Ogliaro, M. J. Bearpark, J. J. Heyd, E. N. Brothers, K. N. Kudin, 
 V. N. Staroverov, T. A. Keith, R. Kobayashi, J. Normand, 
 K. Raghavachari, A. P. Rendell, J. C. Burant, S. S. Iyengar, 
 J. Tomasi, M. Cossi, J. M. Millam, M. Klene, C. Adamo, R. Cammi, 
 J. W. Ochterski, R. L. Martin, K. Morokuma, O. Farkas, 
 J. B. Foresman, and D. J. Fox, Gaussian, Inc., Wallingford CT, 2019.
 
 ******************************************
 Gaussian 16:  ES64L-G16RevC.01  3-Jul-2019
                28-Mar-2022 
 ******************************************
 %chk=molecule
 Default route: CacheSize=180224 MaxDisk=256GB
 ----------------------------------------------------------------------
 #P CCSD(MaxCyc=200,SaveAmplitudes,ReadAmplitudes)/GEN sp pop=AllOrbita
 ls iop(3/33=1,3/36=-1)
 ----------------------------------------------------------------------
 1/4=180224,38=1,172=1/1;
 2/4=180224,12=2,17=6,18=5,40=1/2;
 3/4=180224,5=7,11=9,25=1,30=1,33=1,36=-1/1,2,3;
 4/4=180224/1;
 5/4=180224,5=2,38=5/2;
 8/4=180224,6=4,9=120000,10=1,24=1/1,4;
 9/4=180224,5=7,6=200,77=1/13;
 6/4=180224,7=2,8=2,9=2,10=2,96=-1/1;
 99/4=180224,5=1,9=1/99;
 Leave Link    1 at Mon Mar 28 14:04:42 2022, MaxMem=           0 cpu:               1.9 elap:               0.1
 (Enter /nopt/nrel/apps/gaussian/g16C_1/g16/l101.exe)
 ----
 test
 ----
 Symbolic Z-matrix:
 Charge =  0 Multiplicity = 3
 H                     0.        0.        0. 
 Li                    0.        0.        0.8 
 
 ITRead=  0  0
 MicOpt= -1 -1
 NAtoms=      2 NQM=        2 NQMF=       0 NMMI=      0 NMMIF=      0
                NMic=       0 NMicF=      0.
                    Isotopes and Nuclear Properties:
 (Nuclear quadrupole moments (NQMom) in fm**2, nuclear magnetic moments (NMagM)
  in nuclear magnetons)

  Atom         1           2
 IAtWgt=           1           7
 AtmWgt=   1.0078250   7.0160045
 NucSpn=           1           3
 AtZEff=  -0.0000000  -0.0000000
 NQMom=    0.0000000  -4.0100000
 NMagM=    2.7928460   3.2564240
 AtZNuc=   1.0000000   3.0000000
 Leave Link  101 at Mon Mar 28 14:04:42 2022, MaxMem=  9663676416 cpu:               3.1 elap:               0.1
 (Enter /nopt/nrel/apps/gaussian/g16C_1/g16/l202.exe)
                          Input orientation:                          
 ---------------------------------------------------------------------
 Center     Atomic      Atomic             Coordinates (Angstroms)
 Number     Number       Type             X           Y           Z
 ---------------------------------------------------------------------
      1          1           0        0.000000    0.000000    0.000000
      2          3           0        0.000000    0.000000    0.800000
 ---------------------------------------------------------------------
 Stoichiometry    HLi(3)
 Framework group  C*V[C*(HLi)]
 Deg. of freedom     1
 Full point group                 C*V     NOp   4
 Largest Abelian subgroup         C2V     NOp   4
 Largest concise Abelian subgroup C1      NOp   1
                         Standard orientation:                         
 ---------------------------------------------------------------------
 Center     Atomic      Atomic             Coordinates (Angstroms)
 Number     Number       Type             X           Y           Z
 ---------------------------------------------------------------------
      1          1           0        0.000000    0.000000   -0.600000
      2          3           0        0.000000    0.000000    0.200000
 ---------------------------------------------------------------------
 Rotational constants (GHZ):           0.0000000         896.0740847         896.0740847
 Leave Link  202 at Mon Mar 28 14:04:42 2022, MaxMem=  9663676416 cpu:               1.1 elap:               0.1
 (Enter /nopt/nrel/apps/gaussian/g16C_1/g16/l301.exe)
 General basis read from cards:  (5D, 7F)
                         Coordinates in L301:                         
 ---------------------------------------------------------------------
 Center     Atomic      Atomic             Coordinates (Angstroms)
 Number     Number       Type             X           Y           Z
 ---------------------------------------------------------------------
      1          1           0        0.000000    0.000000   -0.600000
      2          3           0        0.000000    0.000000    0.200000
 ---------------------------------------------------------------------
 Centers:       1
 STO-3G
 ****
 Centers:       2
 3-21G
 ****
 FixB: optimizing general contractions.
 Ernie: Thresh=  0.10000D-02 Tol=  0.10000D-05 Strict=F.
 IA=     1 ShT= 0 ShC= 0 NL=   1 NS=   0.
 IA=     1 L=0 SC=0 ISt=    0 NBk=    0 NP=    0 IndPr=    0.
 IA=     2 ShT= 0 ShC= 0 NL=   1 NS=   0.
 IA=     2 L=0 SC=0 ISt=    0 NBk=    0 NP=    0 IndPr=    0.
 IA=     2 ShT= 1 ShC= 0 NL=   2 NS=   1.
 IA=     2 L=1 SC=0 ISt=    0 NBk=    0 NP=    0 IndPr=    0.
 LdAtmC:  AtmChg=     1.000000     3.000000
 AtZEff=     -1.0000000     -1.3500000
 NEqShl: 
              1            2            3            4
     1            1            1            1            1
     2            2            2            2            2
     3            3            3            3            3
     4            4            4            4            4
 NEqBas: 
              1            2            3            4
     1            1            1            1            1
     2            2            2            2            2
     3            3            3            3            3
     4            4           -4           -4            4
     5            5           -5            5           -5
     6            6            6            6            6
     7            7            7            7            7
     8            8           -8           -8            8
     9            9           -9            9           -9
    10           10           10           10           10
 There are     6 symmetry adapted cartesian basis functions of A1  symmetry.
   1         1   1   1   1
   2         2   2   2   2
   3         3   3   3   3
   4         6   6   6   6
   5         7   7   7   7
   6        10  10  10  10
 There are     0 symmetry adapted cartesian basis functions of A2  symmetry.
 There are     2 symmetry adapted cartesian basis functions of B1  symmetry.
   7         4   4   4   4
   8         8   8   8   8
 There are     2 symmetry adapted cartesian basis functions of B2  symmetry.
   9         5   5   5   5
  10         9   9   9   9
 Order= 1 2 4 3
 Reordered character table:
              1            2            3            4            5
     1            1            1            1            1            1
     2            2            1            1           -1           -1
     3            4            1           -1           -1            1
     4            3            1           -1            1           -1
 NEqShl: 
              1            2            3            4
     1            1            1            1            1
     2            2            2            2            2
     3            3            3            3            3
     4            4            4            4            4
 NEqBas: 
              1            2            3            4
     1            1            1            1            1
     2            2            2            2            2
     3            3            3            3            3
     4            4           -4           -4            4
     5            5           -5            5           -5
     6            6            6            6            6
     7            7            7            7            7
     8            8           -8           -8            8
     9            9           -9            9           -9
    10           10           10           10           10
 There are     6 symmetry adapted basis functions of A1  symmetry.
   1         1   1   1   1
   2         2   2   2   2
   3         3   3   3   3
   4         6   6   6   6
   5         7   7   7   7
   6        10  10  10  10
 There are     0 symmetry adapted basis functions of A2  symmetry.
 There are     2 symmetry adapted basis functions of B1  symmetry.
   7         4   4   4   4
   8         8   8   8   8
 There are     2 symmetry adapted basis functions of B2  symmetry.
   9         5   5   5   5
  10         9   9   9   9
 Order= 1 2 4 3
 Reordered character table:
              1            2            3            4            5
     1            1            1            1            1            1
     2            2            1            1           -1           -1
     3            4            1           -1           -1            1
     4            3            1           -1            1           -1
    10 basis functions,    18 primitive gaussians,    10 cartesian basis functions
     3 alpha electrons        1 beta electrons
       nuclear repulsion energy         1.9844145409 Hartrees.
 IS=     1 IAt=     1 ISR=     1 T=0 IP=      1 IndIP=      1 IndIPD=      0 C=  2.769344D-01  0.000000D+00                             NZ=T
 IS=     1 IAt=     1 ISR=     1 T=0 IP=      2 IndIP=      2 IndIPD=      1 C=  2.678389D-01  0.000000D+00                             NZ=T
 IS=     1 IAt=     1 ISR=     1 T=0 IP=      3 IndIP=      3 IndIPD=      2 C=  8.347367D-02  0.000000D+00                             NZ=T
 IS=     2 IAt=     2 ISR=     1 T=0 IP=      1 IndIP=      4 IndIPD=      0 C=  7.424571D-01  0.000000D+00                             NZ=T
 IS=     2 IAt=     2 ISR=     1 T=0 IP=      2 IndIP=      5 IndIPD=      1 C=  9.736824D-01  0.000000D+00                             NZ=T
 IS=     2 IAt=     2 ISR=     1 T=0 IP=      3 IndIP=      6 IndIPD=      2 C=  5.265692D-01  0.000000D+00                             NZ=T
 IS=     3 IAt=     2 ISR=     2 T=1 IP=      1 IndIP=      7 IndIPD=      0 C= -1.181663D-01  1.066435D-01                             NZ=T
 IS=     3 IAt=     2 ISR=     2 T=1 IP=      2 IndIP=      8 IndIPD=      1 C=  1.473557D-01  7.547122D-02                             NZ=T
 IS=     4 IAt=     2 ISR=     3 T=1 IP=      1 IndIP=      9 IndIPD=      0 C=  4.951993D-02  1.673876D-02                             NZ=T
 IExCor=    0 DFT=F Ex=HF Corr=None ExCW=0 ScaHFX=  1.000000
 ScaDFX=  1.000000  1.000000  1.000000  1.000000 ScalE2=  1.000000  1.000000
 IRadAn=      5 IRanWt=     -1 IRanGd=            0 ICorTp=0 IEmpDi=  4
 NAtoms=    2 NActive=    2 NUniq=    2 SFac= 1.00D+00 NAtFMM=   60 NAOKFM=F Big=F
 Integral buffers will be    131072 words long.
 Raffenetti 2 integral format.
 Two-electron integral symmetry is turned on.
 Leave Link  301 at Mon Mar 28 14:04:42 2022, MaxMem=  9663676416 cpu:               2.2 elap:               0.1
 (Enter /nopt/nrel/apps/gaussian/g16C_1/g16/l302.exe)
 NPDir=0 NMtPBC=     1 NCelOv=     1 NCel=       1 NClECP=     1 NCelD=      1
         NCelK=      1 NCelE2=     1 NClLst=     1 CellRange=     0.0.
 One-electron integrals computed using PRISM.
 One-electron integral symmetry used in STVInt
 Entering OneElI...
 Calculate overlap and kinetic energy integrals
    NBasis =  10  MinDer = 0  MaxDer = 0
 Requested accuracy = 0.1000D-12
 Symmetry will be used
 PrmmSu-InSpLW:  IPartL=    0 NPrtUS=   36 NPrtUL=    1 DoSpLW=F IThBeg=    0 IThEnd=   35 NThAct=   36.
 PrSmSu:  IncTry=   512 NBBP=             10 NTPThr=   100 NPartT=   36 Incr=           1 LDynOK=F GPUOK=F.
 PrsmSu:  NPrtUS=  36 ThrOK=T IAlg=1 LenDen=           0 ISkipM=0 DoSpLW=F IThBeg=    0 IThEnd=   35.
 Prism:   IPart=     0 DynPar=F LinDyn=F Incr=           1.
 PRISM was handed   268434300 working-precision words and    10 shell-pairs
 PRISM was handed   268434300 working-precision words and    10 shell-pairs
 PRISM was handed   268434300 working-precision words and    10 shell-pairs
 PRISM was handed   268434300 working-precision words and    10 shell-pairs
 PRISM was handed   268434300 working-precision words and    10 shell-pairs
 PRISM was handed   268434300 working-precision words and    10 shell-pairs
 PRISM was handed   268434300 working-precision words and    10 shell-pairs
 PRISM was handed   268434300 working-precision words and    10 shell-pairs
 PRISM was handed   268434300 working-precision words and    10 shell-pairs
 IPart= 25 NShTot=           0 NBatch=           0 AvBLen=         0.0
 IPart= 23 NShTot=           0 NBatch=           0 AvBLen=         0.0
 IPart= 29 NShTot=           0 NBatch=           0 AvBLen=         0.0
 IPart= 30 NShTot=           0 NBatch=           0 AvBLen=         0.0
 IPart= 27 NShTot=           0 NBatch=           0 AvBLen=         0.0
 IPart= 11 NShTot=           0 NBatch=           0 AvBLen=         0.0
 IPart= 13 NShTot=           0 NBatch=           0 AvBLen=         0.0
 PRISM was handed   268434300 working-precision words and    10 shell-pairs
 IPart= 16 NShTot=           0 NBatch=           0 AvBLen=         0.0
 PRISM was handed   268434300 working-precision words and    10 shell-pairs
 PRISM was handed   268434300 working-precision words and    10 shell-pairs
 PRISM was handed   268434300 working-precision words and    10 shell-pairs
 IPart= 26 NShTot=           0 NBatch=           0 AvBLen=         0.0
 PRISM was handed   268434300 working-precision words and    10 shell-pairs
 PRISM was handed   268434300 working-precision words and    10 shell-pairs
 PRISM was handed   268434300 working-precision words and    10 shell-pairs
 IPart= 18 NShTot=           0 NBatch=           0 AvBLen=         0.0
 IPart= 17 NShTot=           0 NBatch=           0 AvBLen=         0.0
 IPart=  4 NShTot=           0 NBatch=           0 AvBLen=         0.0
 PRISM was handed   268434300 working-precision words and    10 shell-pairs
 PRISM was handed   268434300 working-precision words and    10 shell-pairs
 PRISM was handed   268434300 working-precision words and    10 shell-pairs
 IPart=  7 NShTot=           0 NBatch=           0 AvBLen=         0.0
 IPart= 19 NShTot=           0 NBatch=           0 AvBLen=         0.0
 IPart=  3 NShTot=           0 NBatch=           0 AvBLen=         0.0
 PRISM was handed   268434300 working-precision words and    10 shell-pairs
 PRISM was handed   268434300 working-precision words and    10 shell-pairs
 PRISM was handed   268434300 working-precision words and    10 shell-pairs
 PRISM was handed   268434300 working-precision words and    10 shell-pairs
 IPart= 14 NShTot=           0 NBatch=           0 AvBLen=         0.0
 IPart= 22 NShTot=           0 NBatch=           0 AvBLen=         0.0
 IPart= 32 NShTot=           0 NBatch=           0 AvBLen=         0.0
 PRISM was handed   268434300 working-precision words and    10 shell-pairs
 PRISM was handed   268434300 working-precision words and    10 shell-pairs
 IPart= 34 NShTot=           0 NBatch=           0 AvBLen=         0.0
 IPart= 24 NShTot=           0 NBatch=           0 AvBLen=         0.0
 IPart= 21 NShTot=           0 NBatch=           0 AvBLen=         0.0
 IPart= 28 NShTot=           0 NBatch=           0 AvBLen=         0.0
 PRISM was handed   268434300 working-precision words and    10 shell-pairs
 PRISM was handed   268434300 working-precision words and    10 shell-pairs
 IPart=  8 NShTot=           0 NBatch=           0 AvBLen=         0.0
 IPart=  1 NShTot=           3 NBatch=           3 AvBLen=         1.0
 IPart=  9 NShTot=           0 NBatch=           0 AvBLen=         0.0
 PRISM was handed   268434300 working-precision words and    10 shell-pairs
 PRISM was handed   268434300 working-precision words and    10 shell-pairs
 IPart= 35 NShTot=           0 NBatch=           0 AvBLen=         0.0
 PRISM was handed   268434300 working-precision words and    10 shell-pairs
 PRISM was handed   268434300 working-precision words and    10 shell-pairs
 PRISM was handed   268434300 working-precision words and    10 shell-pairs
 PRISM was handed   268434300 working-precision words and    10 shell-pairs
 PRISM was handed   268434300 working-precision words and    10 shell-pairs
 IPart= 33 NShTot=           0 NBatch=           0 AvBLen=         0.0
 PRISM was handed   268434300 working-precision words and    10 shell-pairs
 IPart= 15 NShTot=           0 NBatch=           0 AvBLen=         0.0
 IPart=  0 NShTot=           6 NBatch=           6 AvBLen=         1.0
 PRISM was handed   268434300 working-precision words and    10 shell-pairs
 IPart= 20 NShTot=           0 NBatch=           0 AvBLen=         0.0
 IPart= 31 NShTot=           0 NBatch=           0 AvBLen=         0.0
 IPart=  2 NShTot=           1 NBatch=           1 AvBLen=         1.0
 IPart= 10 NShTot=           0 NBatch=           0 AvBLen=         0.0
 IPart= 12 NShTot=           0 NBatch=           0 AvBLen=         0.0
 IPart=  5 NShTot=           0 NBatch=           0 AvBLen=         0.0
 IPart=  6 NShTot=           0 NBatch=           0 AvBLen=         0.0
 PrSmSu:  NxtVal=             37.
 *** Overlap *** 
                1             2             3             4             5 
      1  0.100000D+01
      2  0.323056D+00  0.100000D+01
      3  0.588453D+00  0.177215D+00  0.100000D+01
      4  0.000000D+00  0.000000D+00  0.000000D+00  0.100000D+01
      5  0.000000D+00  0.000000D+00  0.000000D+00  0.000000D+00  0.100000D+01
      6 -0.500703D+00  0.000000D+00  0.000000D+00  0.000000D+00  0.000000D+00
      7  0.390952D+00  0.140674D+00  0.782781D+00  0.000000D+00  0.000000D+00
      8  0.000000D+00  0.000000D+00  0.000000D+00  0.588593D+00  0.000000D+00
      9  0.000000D+00  0.000000D+00  0.000000D+00  0.000000D+00  0.588593D+00
     10 -0.178442D+00  0.000000D+00  0.000000D+00  0.000000D+00  0.000000D+00
                6             7             8             9            10 
      6  0.100000D+01
      7  0.000000D+00  0.100000D+01
      8  0.000000D+00  0.000000D+00  0.100000D+01
      9  0.000000D+00  0.000000D+00  0.000000D+00  0.100000D+01
     10  0.588593D+00  0.000000D+00  0.000000D+00  0.000000D+00  0.100000D+01
 *** Kinetic Energy *** 
                1             2             3             4             5 
      1  0.760032D+00
      2  0.106127D+00  0.365490D+01
      3  0.859765D-01 -0.135538D+00  0.159492D+00
      4  0.000000D+00  0.000000D+00  0.000000D+00  0.307817D+00
      5  0.000000D+00  0.000000D+00  0.000000D+00  0.000000D+00  0.307817D+00
      6 -0.229549D+00  0.000000D+00  0.000000D+00  0.000000D+00  0.000000D+00
      7  0.287566D-01  0.117904D-01  0.513380D-01  0.000000D+00  0.000000D+00
      8  0.000000D+00  0.000000D+00  0.000000D+00  0.661980D-01  0.000000D+00
      9  0.000000D+00  0.000000D+00  0.000000D+00  0.000000D+00  0.661980D-01
     10 -0.222992D-01  0.000000D+00  0.000000D+00  0.000000D+00  0.000000D+00
                6             7             8             9            10 
      6  0.307817D+00
      7  0.000000D+00  0.428467D-01
      8  0.000000D+00  0.000000D+00  0.714113D-01
      9  0.000000D+00  0.000000D+00  0.000000D+00  0.714113D-01
     10  0.661980D-01  0.000000D+00  0.000000D+00  0.000000D+00  0.714113D-01
 Entering OneElI...
 Calculate potential energy integrals
    NBasis =  10  MinDer = 0  MaxDer = 0
 Requested accuracy = 0.1000D-12
 Symmetry will be used
 PrmmSu-InSpLW:  IPartL=    0 NPrtUS=   36 NPrtUL=    1 DoSpLW=F IThBeg=    0 IThEnd=   35 NThAct=   36.
 PrSmSu:  IncTry=   512 NBBP=             20 NTPThr=   100 NPartT=   36 Incr=           1 LDynOK=F GPUOK=F.
 PrsmSu:  NPrtUS=  36 ThrOK=T IAlg=1 LenDen=           0 ISkipM=0 DoSpLW=F IThBeg=    0 IThEnd=   35.
 Prism:   IPart=     0 DynPar=F LinDyn=F Incr=           1.
 PRISM was handed   268434341 working-precision words and    10 shell-pairs
 PRISM was handed   268434341 working-precision words and    10 shell-pairs
 PRISM was handed   268434341 working-precision words and    10 shell-pairs
 PRISM was handed   268434341 working-precision words and    10 shell-pairs
 PRISM was handed   268434341 working-precision words and    10 shell-pairs
 PRISM was handed   268434341 working-precision words and    10 shell-pairs
 PRISM was handed   268434341 working-precision words and    10 shell-pairs
 PRISM was handed   268434341 working-precision words and    10 shell-pairs
 PRISM was handed   268434341 working-precision words and    10 shell-pairs
 PRISM was handed   268434341 working-precision words and    10 shell-pairs
 PRISM was handed   268434341 working-precision words and    10 shell-pairs
 PRISM was handed   268434341 working-precision words and    10 shell-pairs
 PRISM was handed   268434341 working-precision words and    10 shell-pairs
 PRISM was handed   268434341 working-precision words and    10 shell-pairs
 PRISM was handed   268434341 working-precision words and    10 shell-pairs
 PRISM was handed   268434341 working-precision words and    10 shell-pairs
 PRISM was handed   268434341 working-precision words and    10 shell-pairs
 PRISM was handed   268434341 working-precision words and    10 shell-pairs
 PRISM was handed   268434341 working-precision words and    10 shell-pairs
 PRISM was handed   268434341 working-precision words and    10 shell-pairs
 PRISM was handed   268434341 working-precision words and    10 shell-pairs
 PRISM was handed   268434341 working-precision words and    10 shell-pairs
 PRISM was handed   268434341 working-precision words and    10 shell-pairs
 PRISM was handed   268434341 working-precision words and    10 shell-pairs
 PRISM was handed   268434341 working-precision words and    10 shell-pairs
 PRISM was handed   268434341 working-precision words and    10 shell-pairs
 PRISM was handed   268434341 working-precision words and    10 shell-pairs
 PRISM was handed   268434341 working-precision words and    10 shell-pairs
 PRISM was handed   268434341 working-precision words and    10 shell-pairs
 PRISM was handed   268434341 working-precision words and    10 shell-pairs
 PRISM was handed   268434341 working-precision words and    10 shell-pairs
 PRISM was handed   268434341 working-precision words and    10 shell-pairs
 PRISM was handed   268434341 working-precision words and    10 shell-pairs
 PRISM was handed   268434341 working-precision words and    10 shell-pairs
 PRISM was handed   268434341 working-precision words and    10 shell-pairs
 PRISM was handed   268434341 working-precision words and    10 shell-pairs
 IPart= 18 NShTot=           0 NBatch=           0 AvBLen=         0.0
 IPart= 35 NShTot=           0 NBatch=           0 AvBLen=         0.0
 IPart= 34 NShTot=           0 NBatch=           0 AvBLen=         0.0
 IPart=  8 NShTot=           0 NBatch=           0 AvBLen=         0.0
 IPart= 14 NShTot=           0 NBatch=           0 AvBLen=         0.0
 IPart= 19 NShTot=           0 NBatch=           0 AvBLen=         0.0
 IPart= 26 NShTot=           0 NBatch=           0 AvBLen=         0.0
 IPart= 32 NShTot=           0 NBatch=           0 AvBLen=         0.0
 IPart=  3 NShTot=           0 NBatch=           0 AvBLen=         0.0
 IPart=  6 NShTot=           0 NBatch=           0 AvBLen=         0.0
 IPart= 20 NShTot=           0 NBatch=           0 AvBLen=         0.0
 IPart= 28 NShTot=           0 NBatch=           0 AvBLen=         0.0
 IPart= 30 NShTot=           0 NBatch=           0 AvBLen=         0.0
 IPart= 33 NShTot=           0 NBatch=           0 AvBLen=         0.0
 IPart= 17 NShTot=           0 NBatch=           0 AvBLen=         0.0
 IPart= 12 NShTot=           0 NBatch=           0 AvBLen=         0.0
 IPart= 24 NShTot=           0 NBatch=           0 AvBLen=         0.0
 IPart=  1 NShTot=           6 NBatch=           3 AvBLen=         2.0
 IPart= 16 NShTot=           0 NBatch=           0 AvBLen=         0.0
 IPart= 31 NShTot=           0 NBatch=           0 AvBLen=         0.0
 IPart= 29 NShTot=           0 NBatch=           0 AvBLen=         0.0
 IPart= 27 NShTot=           0 NBatch=           0 AvBLen=         0.0
 IPart= 23 NShTot=           0 NBatch=           0 AvBLen=         0.0
 IPart= 15 NShTot=           0 NBatch=           0 AvBLen=         0.0
 IPart= 22 NShTot=           0 NBatch=           0 AvBLen=         0.0
 IPart= 25 NShTot=           0 NBatch=           0 AvBLen=         0.0
 IPart= 13 NShTot=           0 NBatch=           0 AvBLen=         0.0
 IPart= 11 NShTot=           0 NBatch=           0 AvBLen=         0.0
 IPart=  2 NShTot=           2 NBatch=           1 AvBLen=         2.0
 IPart= 10 NShTot=           0 NBatch=           0 AvBLen=         0.0
 IPart=  5 NShTot=           0 NBatch=           0 AvBLen=         0.0
 IPart=  9 NShTot=           0 NBatch=           0 AvBLen=         0.0
 IPart=  4 NShTot=           0 NBatch=           0 AvBLen=         0.0
 IPart= 21 NShTot=           0 NBatch=           0 AvBLen=         0.0
 IPart=  7 NShTot=           0 NBatch=           0 AvBLen=         0.0
 IPart=  0 NShTot=          12 NBatch=           6 AvBLen=         2.0
 PrSmSu:  NxtVal=             37.
 ***** Potential Energy ***** 
                1             2             3             4             5 
      1  0.307754D+01
      2  0.173991D+01  0.874260D+01
      3  0.134771D+01  0.743632D+00  0.161654D+01
      4  0.000000D+00  0.000000D+00  0.000000D+00  0.150047D+01
      5  0.000000D+00  0.000000D+00  0.000000D+00  0.000000D+00  0.150047D+01
      6 -0.123303D+01 -0.467212D-01 -0.135620D+00  0.000000D+00  0.000000D+00
      7  0.871786D+00  0.705492D+00  0.113108D+01  0.000000D+00  0.000000D+00
      8  0.000000D+00  0.000000D+00  0.000000D+00  0.653623D+00  0.000000D+00
      9  0.000000D+00  0.000000D+00  0.000000D+00  0.000000D+00  0.653623D+00
     10 -0.333946D+00 -0.678185D-02 -0.446917D-01  0.000000D+00  0.000000D+00
                6             7             8             9            10 
      6  0.159067D+01
      7 -0.901396D-01  0.106751D+01
      8  0.000000D+00  0.000000D+00  0.714637D+00
      9  0.000000D+00  0.000000D+00  0.000000D+00  0.714637D+00
     10  0.679780D+00 -0.425037D-01  0.000000D+00  0.000000D+00  0.727473D+00
 ****** Core Hamiltonian ****** 
                1             2             3             4             5 
      1 -0.231751D+01
      2 -0.163379D+01 -0.508770D+01
      3 -0.126173D+01 -0.879170D+00 -0.145704D+01
      4  0.000000D+00  0.000000D+00  0.000000D+00 -0.119266D+01
      5  0.000000D+00  0.000000D+00  0.000000D+00  0.000000D+00 -0.119266D+01
      6  0.100348D+01  0.467212D-01  0.135620D+00  0.000000D+00  0.000000D+00
      7 -0.843030D+00 -0.693701D+00 -0.107974D+01  0.000000D+00  0.000000D+00
      8  0.000000D+00  0.000000D+00  0.000000D+00 -0.587425D+00  0.000000D+00
      9  0.000000D+00  0.000000D+00  0.000000D+00  0.000000D+00 -0.587425D+00
     10  0.311646D+00  0.678185D-02  0.446917D-01  0.000000D+00  0.000000D+00
                6             7             8             9            10 
      6 -0.128285D+01
      7  0.901396D-01 -0.102467D+01
      8  0.000000D+00  0.000000D+00 -0.643226D+00
      9  0.000000D+00  0.000000D+00  0.000000D+00 -0.643226D+00
     10 -0.613582D+00  0.425037D-01  0.000000D+00  0.000000D+00 -0.656062D+00
 SVDSVc IOpt=   1 NormSV=T IR=1
 SVDSVc V= 2.38D+00 1.65D+00 9.63D-01 5.93D-01 2.84D-01 1.23D-01
 SVDSVc IOpt=   1 NormSV=T IR=3
 SVDSVc V= 1.59D+00 4.11D-01
 SVDSVc IOpt=   1 NormSV=T IR=4
 SVDSVc V= 1.59D+00 4.11D-01
 TstOVc:  Largest diagonal error= 6.66D-16 IB=1 I=    2.
 TstOVc:  Largest same sym error= 6.65D-16 IB=1 I=    6 J=    3.
 TstOVc:  Largest diff sym error= 0.00D+00 IB=0 JB=0 I=    0 J=    0.
 Orthogonalized basis functions: 
                 1             2             3             4             5 
      1   0.355233D+00 -0.916691D-01  0.158826D+00  0.698734D+00 -0.646419D+00
      2   0.159442D+00  0.770405D-01  0.917219D+00 -0.384703D+00  0.255315D+00
      3   0.348842D+00  0.246772D+00 -0.229267D+00 -0.710830D-01 -0.708499D+00
      4   0.000000D+00  0.000000D+00  0.000000D+00  0.000000D+00  0.000000D+00
      5   0.000000D+00  0.000000D+00  0.000000D+00  0.000000D+00  0.000000D+00
      6  -0.180604D+00  0.493077D+00  0.398462D-01 -0.382839D+00 -0.982585D+00
      7   0.313780D+00  0.257418D+00 -0.316252D+00 -0.401190D+00  0.107664D+01
      8   0.000000D+00  0.000000D+00  0.000000D+00  0.000000D+00  0.000000D+00
      9   0.000000D+00  0.000000D+00  0.000000D+00  0.000000D+00  0.000000D+00
     10  -0.122579D+00  0.469289D+00  0.132615D+00  0.859330D+00  0.646199D+00
                 6             7             8             9            10 
      1  -0.143419D+01  0.000000D+00  0.000000D+00  0.000000D+00  0.000000D+00
      2   0.326239D+00  0.000000D+00  0.000000D+00  0.000000D+00  0.000000D+00
      3   0.183257D+01  0.000000D+00  0.000000D+00  0.000000D+00  0.000000D+00
      4   0.000000D+00  0.561020D+00  0.110243D+01  0.000000D+00  0.000000D+00
      5   0.000000D+00  0.000000D+00  0.000000D+00  0.561020D+00  0.110243D+01
      6  -0.113372D+01  0.000000D+00  0.000000D+00  0.000000D+00  0.000000D+00
      7  -0.104874D+01  0.000000D+00  0.000000D+00  0.000000D+00  0.000000D+00
      8   0.000000D+00  0.561020D+00 -0.110243D+01  0.000000D+00  0.000000D+00
      9   0.000000D+00  0.000000D+00  0.000000D+00  0.561020D+00 -0.110243D+01
     10   0.469101D+00  0.000000D+00  0.000000D+00  0.000000D+00  0.000000D+00
 NBasis=    10 RedAO= T EigKep=  1.23D-01  NBF=     6     0     2     2
 NBsUse=    10 1.00D-06 EigRej= -1.00D+00 NBFU=     6     0     2     2
 Leave Link  302 at Mon Mar 28 14:04:42 2022, MaxMem=  9663676416 cpu:               3.0 elap:               0.1
 (Enter /nopt/nrel/apps/gaussian/g16C_1/g16/l303.exe)
 DipDrv will not compute anything.
 Fermi contact integrals: 
                 1             2 
      1   0.628247D+00  0.121215D+00
      2   0.413516D-01  0.224271D+01
      3   0.822668D-01  0.291894D-01
      4   0.000000D+00  0.000000D+00
      5   0.000000D+00  0.000000D+00
      6  -0.137224D+00  0.000000D+00
      7   0.463904D-01  0.495199D-01
      8   0.000000D+00  0.000000D+00
      9   0.000000D+00  0.000000D+00
     10  -0.237061D-01  0.000000D+00
 Leave Link  303 at Mon Mar 28 14:04:42 2022, MaxMem=  9663676416 cpu:               1.2 elap:               0.1
 (Enter /nopt/nrel/apps/gaussian/g16C_1/g16/l401.exe)
 ExpMin= 2.86D-02 ExpMax= 3.68D+01 ExpMxC= 3.68D+01 IAcc=3 IRadAn=         5 AccDes= 0.00D+00
 Harris functional with IExCor=  205 and IRadAn=       5 diagonalized for initial guess.
 HarFok:  IExCor=  205 AccDes= 0.00D+00 IRadAn=         5 IDoV= 1 UseB2=F ITyADJ=14
 ICtDFT=  3500011 ScaDFX=  1.000000  1.000000  1.000000  1.000000
 FoFCou: FMM=F IPFlag=           0 FMFlag=      100000 FMFlg1=           0
         NFxFlg=           0 DoJE=T BraDBF=F KetDBF=T FulRan=T
         wScrn=  0.000000 ICntrl=       500 IOpCl=  0 I1Cent=   200000004 NGrid=           0
         NMat0=    1 NMatS0=      1 NMatT0=    0 NMatD0=    1 NMtDS0=    0 NMtDT0=    0
 Petite list used in FoFCou.
 Harris En= -7.52824453690054    
 JPrj=0 DoOrth=F DoCkMO=F.
 Initial guess orbital symmetries:
 Alpha Orbitals:
       Occupied  (SG) (SG) (SG)
       Virtual   (PI) (PI) (SG) (PI) (PI) (SG) (SG)
 Beta  Orbitals:
       Occupied  (SG)
       Virtual   (SG) (SG) (PI) (PI) (SG) (PI) (PI) (SG) (SG)
 The electronic state of the initial guess is 3-SG.
 Initial guess <Sx>= 0.0000 <Sy>= 0.0000 <Sz>= 1.0000 <S**2>= 2.0000 S= 1.0000
 Leave Link  401 at Mon Mar 28 14:04:42 2022, MaxMem=  9663676416 cpu:               3.2 elap:               0.1
 (Enter /nopt/nrel/apps/gaussian/g16C_1/g16/l502.exe)
 Keep R1 and R2 ints in memory in symmetry-blocked form, NReq=7206306.
 FoFCou: FMM=F IPFlag=           0 FMFlag=           0 FMFlg1=           0
         NFxFlg=           0 DoJE=F BraDBF=F KetDBF=F FulRan=T
         wScrn=  0.000000 ICntrl=       600 IOpCl=  0 I1Cent=           0 NGrid=           0
         NMat0=    1 NMatS0=     55 NMatT0=    0 NMatD0=    1 NMtDS0=    0 NMtDT0=    0
 Petite list used in FoFCou.
 UHF open shell SCF:
 Using DIIS extrapolation, IDIIS=  1040.
 NGot=  9663676416 LenX=  9663672766 LenY=  9663671884
 Requested convergence on RMS density matrix=1.00D-08 within 128 cycles.
 Requested convergence on MAX density matrix=1.00D-06.
 Requested convergence on             energy=1.00D-06.
 No special actions if energy rises.

 Cycle   1  Pass 1  IDiag  1:
 E= -7.57985765826215    
 DIIS: error= 2.96D-02 at cycle   1 NSaved=   1.
 NSaved= 1 IEnMin= 1 EnMin= -7.57985765826215     IErMin= 1 ErrMin= 2.96D-02
 ErrMax= 2.96D-02  0.00D+00 EMaxC= 1.00D-01 BMatC= 2.98D-02 BMatP= 2.98D-02
 IDIUse=3 WtCom= 7.04D-01 WtEn= 2.96D-01
 Coeff-Com:  0.100D+01
 Coeff-En:   0.100D+01
 Coeff:      0.100D+01
 Gap=     0.218 Goal=   None    Shift=    0.000
 Gap=     2.575 Goal=   None    Shift=    0.000
 GapD=    0.218 DampG=1.000 DampE=0.500 DampFc=0.5000 IDamp=-1.
 Damping current iteration by 5.00D-01
 RMSDP=1.41D-02 MaxDP=1.33D-01              OVMax= 3.13D-02

 Cycle   2  Pass 1  IDiag  1:
 E= -7.58438769970876     Delta-E=       -0.004530041447 Rises=F Damp=T
 DIIS: error= 1.75D-02 at cycle   2 NSaved=   2.
 NSaved= 2 IEnMin= 2 EnMin= -7.58438769970876     IErMin= 2 ErrMin= 1.75D-02
 ErrMax= 1.75D-02  0.00D+00 EMaxC= 1.00D-01 BMatC= 1.10D-02 BMatP= 2.98D-02
 IDIUse=3 WtCom= 8.25D-01 WtEn= 1.75D-01
 Coeff-Com: -0.150D+01 0.250D+01
 Coeff-En:   0.000D+00 0.100D+01
 Coeff:     -0.124D+01 0.224D+01
 Gap=     0.207 Goal=   None    Shift=    0.000
 Gap=     2.529 Goal=   None    Shift=    0.000
 RMSDP=1.19D-02 MaxDP=1.19D-01 DE=-4.53D-03 OVMax= 6.38D-03

 Cycle   3  Pass 1  IDiag  1:
 E= -7.59075833213958     Delta-E=       -0.006370632431 Rises=F Damp=F
 DIIS: error= 1.61D-03 at cycle   3 NSaved=   3.
 NSaved= 3 IEnMin= 3 EnMin= -7.59075833213958     IErMin= 3 ErrMin= 1.61D-03
 ErrMax= 1.61D-03  0.00D+00 EMaxC= 1.00D-01 BMatC= 8.39D-05 BMatP= 1.10D-02
 IDIUse=3 WtCom= 9.84D-01 WtEn= 1.61D-02
 Coeff-Com:  0.561D+00-0.101D+01 0.145D+01
 Coeff-En:   0.000D+00 0.000D+00 0.100D+01
 Coeff:      0.552D+00-0.997D+00 0.144D+01
 Gap=     0.207 Goal=   None    Shift=    0.000
 Gap=     2.525 Goal=   None    Shift=    0.000
 RMSDP=1.61D-03 MaxDP=1.76D-02 DE=-6.37D-03 OVMax= 1.21D-03

 Cycle   4  Pass 1  IDiag  1:
 E= -7.59081206184309     Delta-E=       -0.000053729704 Rises=F Damp=F
 DIIS: error= 1.30D-04 at cycle   4 NSaved=   4.
 NSaved= 4 IEnMin= 4 EnMin= -7.59081206184309     IErMin= 4 ErrMin= 1.30D-04
 ErrMax= 1.30D-04  0.00D+00 EMaxC= 1.00D-01 BMatC= 3.83D-07 BMatP= 8.39D-05
 IDIUse=3 WtCom= 9.99D-01 WtEn= 1.30D-03
 Coeff-Com: -0.148D+00 0.269D+00-0.434D+00 0.131D+01
 Coeff-En:   0.000D+00 0.000D+00 0.000D+00 0.100D+01
 Coeff:     -0.148D+00 0.269D+00-0.434D+00 0.131D+01
 Gap=     0.207 Goal=   None    Shift=    0.000
 Gap=     2.525 Goal=   None    Shift=    0.000
 RMSDP=1.92D-04 MaxDP=1.44D-03 DE=-5.37D-05 OVMax= 6.08D-05

 Cycle   5  Pass 1  IDiag  1:
 E= -7.59081263404803     Delta-E=       -0.000000572205 Rises=F Damp=F
 DIIS: error= 3.94D-05 at cycle   5 NSaved=   5.
 NSaved= 5 IEnMin= 5 EnMin= -7.59081263404803     IErMin= 5 ErrMin= 3.94D-05
 ErrMax= 3.94D-05  0.00D+00 EMaxC= 1.00D-01 BMatC= 2.25D-08 BMatP= 3.83D-07
 IDIUse=1 WtCom= 1.00D+00 WtEn= 0.00D+00
 Coeff-Com:  0.854D-01-0.156D+00 0.259D+00-0.910D+00 0.172D+01
 Coeff:      0.854D-01-0.156D+00 0.259D+00-0.910D+00 0.172D+01
 Gap=     0.206 Goal=   None    Shift=    0.000
 Gap=     2.525 Goal=   None    Shift=    0.000
 RMSDP=8.67D-05 MaxDP=7.21D-04 DE=-5.72D-07 OVMax= 9.10D-06

 Cycle   6  Pass 1  IDiag  1:
 E= -7.59081269620267     Delta-E=       -0.000000062155 Rises=F Damp=F
 DIIS: error= 3.34D-06 at cycle   6 NSaved=   6.
 NSaved= 6 IEnMin= 6 EnMin= -7.59081269620267     IErMin= 6 ErrMin= 3.34D-06
 ErrMax= 3.34D-06  0.00D+00 EMaxC= 1.00D-01 BMatC= 3.41D-10 BMatP= 2.25D-08
 IDIUse=1 WtCom= 1.00D+00 WtEn= 0.00D+00
 Coeff-Com: -0.618D-02 0.115D-01-0.212D-01 0.950D-01-0.294D+00 0.121D+01
 Coeff:     -0.618D-02 0.115D-01-0.212D-01 0.950D-01-0.294D+00 0.121D+01
 Gap=     0.206 Goal=   None    Shift=    0.000
 Gap=     2.525 Goal=   None    Shift=    0.000
 RMSDP=9.23D-06 MaxDP=6.70D-05 DE=-6.22D-08 OVMax= 2.36D-06

 Cycle   7  Pass 1  IDiag  1:
 E= -7.59081269692585     Delta-E=       -0.000000000723 Rises=F Damp=F
 DIIS: error= 4.97D-07 at cycle   7 NSaved=   7.
 NSaved= 7 IEnMin= 7 EnMin= -7.59081269692585     IErMin= 7 ErrMin= 4.97D-07
 ErrMax= 4.97D-07  0.00D+00 EMaxC= 1.00D-01 BMatC= 3.43D-12 BMatP= 3.41D-10
 IDIUse=1 WtCom= 1.00D+00 WtEn= 0.00D+00
 Coeff-Com: -0.625D-04 0.865D-04 0.228D-03-0.374D-02 0.196D-01-0.144D+00
 Coeff-Com:  0.113D+01
 Coeff:     -0.625D-04 0.865D-04 0.228D-03-0.374D-02 0.196D-01-0.144D+00
 Coeff:      0.113D+01
 Gap=     0.206 Goal=   None    Shift=    0.000
 Gap=     2.525 Goal=   None    Shift=    0.000
 RMSDP=6.65D-07 MaxDP=4.14D-06 DE=-7.23D-10 OVMax= 4.74D-08

 Cycle   8  Pass 1  IDiag  1:
 E= -7.59081269693668     Delta-E=       -0.000000000011 Rises=F Damp=F
 DIIS: error= 2.09D-07 at cycle   8 NSaved=   8.
 NSaved= 8 IEnMin= 8 EnMin= -7.59081269693668     IErMin= 8 ErrMin= 2.09D-07
 ErrMax= 2.09D-07  0.00D+00 EMaxC= 1.00D-01 BMatC= 6.77D-13 BMatP= 3.43D-12
 IDIUse=1 WtCom= 1.00D+00 WtEn= 0.00D+00
 Coeff-Com: -0.240D-03 0.463D-03-0.109D-02 0.623D-02-0.223D-01 0.135D+00
 Coeff-Com: -0.119D+01 0.207D+01
 Coeff:     -0.240D-03 0.463D-03-0.109D-02 0.623D-02-0.223D-01 0.135D+00
 Coeff:     -0.119D+01 0.207D+01
 Gap=     0.206 Goal=   None    Shift=    0.000
 Gap=     2.525 Goal=   None    Shift=    0.000
 RMSDP=5.72D-07 MaxDP=5.00D-06 DE=-1.08D-11 OVMax= 4.76D-08

 Cycle   9  Pass 1  IDiag  1:
 E= -7.59081269693979     Delta-E=       -0.000000000003 Rises=F Damp=F
 DIIS: error= 1.43D-08 at cycle   9 NSaved=   9.
 NSaved= 9 IEnMin= 9 EnMin= -7.59081269693979     IErMin= 9 ErrMin= 1.43D-08
 ErrMax= 1.43D-08  0.00D+00 EMaxC= 1.00D-01 BMatC= 9.57D-15 BMatP= 6.77D-13
 IDIUse=1 WtCom= 1.00D+00 WtEn= 0.00D+00
 Coeff-Com:  0.991D-05-0.245D-04 0.124D-03-0.107D-02 0.446D-02-0.318D-01
 Coeff-Com:  0.330D+00-0.651D+00 0.135D+01
 Coeff:      0.991D-05-0.245D-04 0.124D-03-0.107D-02 0.446D-02-0.318D-01
 Coeff:      0.330D+00-0.651D+00 0.135D+01
 Gap=     0.206 Goal=   None    Shift=    0.000
 Gap=     2.525 Goal=   None    Shift=    0.000
 RMSDP=3.87D-08 MaxDP=2.94D-07 DE=-3.11D-12 OVMax= 1.07D-08

 Cycle  10  Pass 1  IDiag  1:
 E= -7.59081269693981     Delta-E=       -0.000000000000 Rises=F Damp=F
 DIIS: error= 1.17D-09 at cycle  10 NSaved=  10.
 NSaved=10 IEnMin=10 EnMin= -7.59081269693981     IErMin=10 ErrMin= 1.17D-09
 ErrMax= 1.17D-09  0.00D+00 EMaxC= 1.00D-01 BMatC= 3.86D-17 BMatP= 9.57D-15
 IDIUse=1 WtCom= 1.00D+00 WtEn= 0.00D+00
 Coeff-Com: -0.854D-06 0.218D-05-0.116D-04 0.103D-03-0.416D-03 0.310D-02
 Coeff-Com: -0.329D-01 0.689D-01-0.189D+00 0.115D+01
 Coeff:     -0.854D-06 0.218D-05-0.116D-04 0.103D-03-0.416D-03 0.310D-02
 Coeff:     -0.329D-01 0.689D-01-0.189D+00 0.115D+01
 Gap=     0.206 Goal=   None    Shift=    0.000
 Gap=     2.525 Goal=   None    Shift=    0.000
 RMSDP=1.78D-09 MaxDP=8.52D-09 DE=-2.13D-14 OVMax= 4.11D-10

 SCF Done:  E(UHF) =  -7.59081269694     A.U. after   10 cycles
            NFock= 10  Conv=0.18D-08     -V/T= 1.9215
 <Sx>= 0.0000 <Sy>= 0.0000 <Sz>= 1.0000 <S**2>= 2.0000 S= 1.0000
 <L.S>= 0.000000000000E+00
 KE= 8.237322829635D+00 PE=-2.137840851025D+01 EE= 3.565858442724D+00
 Annihilation of the first spin contaminant:
 S**2 before annihilation     2.0000,   after     2.0000
 Leave Link  502 at Mon Mar 28 14:04:42 2022, MaxMem=  9663676416 cpu:               5.3 elap:               0.2
 (Enter /nopt/nrel/apps/gaussian/g16C_1/g16/l801.exe)
 Windowed orbitals will be sorted by symmetry type.
 ExpMin= 2.86D-02 ExpMax= 3.68D+01 ExpMxC= 3.68D+01 IAcc=3 IRadAn=         5 AccDes= 0.00D+00
 HarFok:  IExCor=  205 AccDes= 0.00D+00 IRadAn=         5 IDoV=-2 UseB2=F ITyADJ=14
 ICtDFT= 12500011 ScaDFX=  1.000000  1.000000  1.000000  1.000000
 Largest valence mixing into a core orbital is  3.59D-03
 Largest core mixing into a valence orbital is  1.36D-03
 Range of M.O.s used for correlation:     2    10
 NBasis=    10 NAE=     3 NBE=     1 NFC=     1 NFV=     0
 NROrb=      9 NOA=     2 NOB=     0 NVA=     7 NVB=     9
 Leave Link  801 at Mon Mar 28 14:04:42 2022, MaxMem=  9663676416 cpu:               2.4 elap:               0.1
 (Enter /nopt/nrel/apps/gaussian/g16C_1/g16/l804.exe)
 Open-shell transformation, MDV=  9663676416 ITran=4 ISComp=2.
 Unit  1 TFree=          7989 TCopy=        218228.
 Semi-Direct transformation.
 ModeAB=           2 MOrb=             2 LenV=    9663556247
 LASXX=          158 LTotXX=         158 LenRXX=         158
 LTotAB=         269 MaxLAS=         990 LenRXY=         990
 NonZer=        1206 LenScr=      785920 LnRSAI=           0
 LnScr1=           0 LExtra=      219218 Total=      1006286
 MaxDsk= 34359738368 SrtSym=           F ITran=            4
 DoSDTr:  NPSUse= 36
 JobTyp=1 Pass  1:  I=   1 to   2.
 (rs|ai) integrals will be sorted in core.
 Complete sort for first half transformation.
 First half transformation complete.
 Complete sort for second half transformation.
 Second half transformation complete.
 Spin components of T(2) and E(2):
     alpha-alpha T2 =       0.9809003949D-04 E2=     -0.1188570980D-03
     alpha-beta  T2 =       0.0000000000D+00 E2=      0.0000000000D+00
     beta-beta   T2 =       0.0000000000D+00 E2=      0.0000000000D+00
 ANorm=    0.1000049044D+01
 E2 =    -0.1188570980D-03 EUMP2 =    -0.75909315540378D+01
 Leave Link  804 at Mon Mar 28 14:04:43 2022, MaxMem=  9663676416 cpu:               1.8 elap:               0.1
 (Enter /nopt/nrel/apps/gaussian/g16C_1/g16/l913.exe)
 CIDS:  MDV=  9663676416.
 Frozen-core window:  NFC=   1 NFV=   0.
 IFCWin=0 IBDFC=1 NFBD=     0     0 NFCmp=     0     0 NFFFC=     0     0
 Using original routines for 1st iteration.
 Using DD4UQ or CC4UQ for 2nd and later iterations.
 Keep R2 and R3 ints in memory in symmetry-blocked form, NReq=7208700.
 FoFCou: FMM=F IPFlag=           0 FMFlag=           0 FMFlg1=           0
         NFxFlg=           0 DoJE=F BraDBF=F KetDBF=F FulRan=T
         wScrn=  0.000000 ICntrl=       600 IOpCl=  0 I1Cent=           0 NGrid=           0
         NMat0=    1 NMatS0=     55 NMatT0=    0 NMatD0=    1 NMtDS0=    0 NMtDT0=    0
 Petite list used in FoFCou.
 CIDS: In Core Option IDoMem=           1.
 Coupled Cluster theory with single and double substitutions
 ===========================================================
 Iterations= 200 Convergence= 0.100D-06
 Produce multiple copies of IABC intergrals
 Iteration Nr.   1
 **********************
 DD1Dir will call FoFMem   1 times, MxPair=         2
 NAB=     0 NAA=     1 NBB=     0.
 MP4(R+Q)=  0.11658697D-07
 Maximum subspace dimension=  5
 A-vector RMS=  9.2156299D-04 Max=  2.0158656D-03 conv= 1.00D-05.
 RLE energy=       -0.0001897847
 E3=       -0.44431816D-04        EUMP3=      -0.75909759859D+01
 E4(DQ)=   -0.16676294D-04        UMP4(DQ)=   -0.75909926621D+01
 E4(SDQ)=  -0.16769592D-04        UMP4(SDQ)=  -0.75909927554D+01
 VARIATIONAL ENERGIES WITH THE FIRST-ORDER WAVEFUNCTION:
 DE(Corr)= -0.16327716E-03 E(Corr)=     -7.5909759741    
 NORM(A)=   0.10001263D+01
 Iteration Nr.   2
 **********************
 DD1Dir will call FoFMem   1 times, MxPair=         2
 NAB=     0 NAA=     1 NBB=     0.
 A-vector RMS=  9.8607869D-05 Max=  1.4222193D-04 conv= 1.00D-05.
 RLE energy=       -0.0001904201
 DE(Corr)= -0.19004722E-03 E(CORR)=     -7.5910027442     Delta=-2.68D-05
 NORM(A)=   0.10001281D+01
 Iteration Nr.   3
 **********************
 DD1Dir will call FoFMem   1 times, MxPair=         2
 NAB=     0 NAA=     1 NBB=     0.
 A-vector RMS=  2.0933137D-05 Max=  5.3278880D-05 conv= 1.00D-05.
 RLE energy=       -0.0001904506
 DE(Corr)= -0.19042567E-03 E(CORR)=     -7.5910031226     Delta=-3.78D-07
 NORM(A)=   0.10001283D+01
 Iteration Nr.   4
 **********************
 DD1Dir will call FoFMem   1 times, MxPair=         2
 NAB=     0 NAA=     1 NBB=     0.
 A-vector RMS=  3.7055717D-06 Max=  1.1163674D-05 conv= 1.00D-05.
 RLE energy=       -0.0001904411
 DE(Corr)= -0.19044687E-03 E(CORR)=     -7.5910031438     Delta=-2.12D-08
 NORM(A)=   0.10001283D+01
 Iteration Nr.   5
 **********************
 DD1Dir will call FoFMem   1 times, MxPair=         2
 NAB=     0 NAA=     1 NBB=     0.
 A-vector RMS=  5.5138901D-07 Max=  1.4834336D-06 conv= 1.00D-05.
 RLE energy=       -0.0001904476
 DE(Corr)= -0.19044357E-03 E(CORR)=     -7.5910031405     Delta= 3.31D-09
 NORM(A)=   0.10001283D+01
 CI/CC converged in    5 iterations to DelEn= 3.31D-09 Conv= 1.00D-07 ErrA1= 5.51D-07 Conv= 1.00D-05
 Wavefunction amplitudes converged. E(Corr)=     -7.5910031405    
 Largest amplitude= 8.75D-03
 Discarding MO integrals.
 Leave Link  913 at Mon Mar 28 14:04:43 2022, MaxMem=  9663676416 cpu:               4.0 elap:               0.1
 (Enter /nopt/nrel/apps/gaussian/g16C_1/g16/l601.exe)
 Copying SCF densities to generalized density rwf, IOpCl= 1 IROHF=0.

 **********************************************************************

            Population analysis using the SCF Density.

 **********************************************************************

 Orbital symmetries:
 Alpha Orbitals:
       Occupied  (SG) (SG) (SG)
       Virtual   (PI) (PI) (SG) (PI) (PI) (SG) (SG)
 Beta  Orbitals:
       Occupied  (SG)
       Virtual   (SG) (PI) (PI) (SG) (SG) (PI) (PI) (SG) (SG)
 The electronic state is 3-SG.
 Alpha  occ. eigenvalues --   -2.62204  -0.64079  -0.18577
 Alpha virt. eigenvalues --    0.02068   0.02068   0.04898   0.16549   0.16549
 Alpha virt. eigenvalues --    0.16994   0.58563
  Beta  occ. eigenvalues --   -2.56077
  Beta virt. eigenvalues --   -0.03560   0.05401   0.05401   0.06924   0.09232
  Beta virt. eigenvalues --    0.20417   0.20417   0.24116   0.76728
          Condensed to atoms (all electrons):
               1          2
     1  H    0.795827   0.043604
     2  Li   0.043604   3.116964
          Atomic-Atomic Spin Densities.
               1          2
     1  H    0.787015   0.001751
     2  Li   0.001751   1.209483
 Mulliken charges and spin densities:
               1          2
     1  H    0.160569   0.788766
     2  Li  -0.160569   1.211234
 Sum of Mulliken charges =   0.00000   2.00000
 Mulliken charges and spin densities with hydrogens summed into heavy atoms:
               1          2
     2  Li   0.000000   2.000000
 N-N= 1.984414540950D+00 E-N=-2.137840851422D+01  KE= 8.237322829635D+00
 Symmetry A1   KE= 8.237322829635D+00
 Symmetry A2   KE= 0.000000000000D+00
 Symmetry B1   KE= 0.000000000000D+00
 Symmetry B2   KE= 0.000000000000D+00
 Symmetry A1   SP= 2.000000000000D+00
 Symmetry A2   SP= 0.000000000000D+00
 Symmetry B1   SP= 0.000000000000D+00
 Symmetry B2   SP= 0.000000000000D+00

 Atomic contributions to Alpha molecular orbitals:
 Alpha occ 1 OE=-2.622 is Li2-s=0.9648
 Alpha occ 2 OE=-0.641 is H1-s=0.7869 Li2-p=0.1496
 Alpha occ 3 OE=-0.186 is Li2-s=0.7854 Li2-p=0.2231
 Alpha vir 4 OE=0.021 is Li2-p=1.0000
 Alpha vir 5 OE=0.021 is Li2-p=1.0000
 Alpha vir 6 OE=0.049 is Li2-p=0.8086 Li2-s=0.1833
 Alpha vir 7 OE=0.165 is Li2-p=1.0000
 Alpha vir 8 OE=0.165 is Li2-p=1.0000
 Alpha vir 9 OE=0.170 is Li2-s=0.7089 Li2-p=0.2906
 Alpha vir 10 OE=0.586 is Li2-p=0.5286 Li2-s=0.2942 H1-s=0.1772

 Atomic contributions to Beta  molecular orbitals:
 Beta  occ 1 OE=-2.561 is Li2-s=0.9750
 Beta  vir 2 OE=-0.036 is Li2-s=0.5251 Li2-p=0.2583 H1-s=0.2166
 Beta  vir 3 OE=0.054 is Li2-p=1.0000
 Beta  vir 4 OE=0.054 is Li2-p=1.0000
 Beta  vir 5 OE=0.069 is Li2-p=0.6150 Li2-s=0.3673
 Beta  vir 6 OE=0.092 is Li2-p=0.5137 Li2-s=0.3337 H1-s=0.1526
 Beta  vir 7 OE=0.204 is Li2-p=1.0000
 Beta  vir 8 OE=0.204 is Li2-p=1.0000
 Beta  vir 9 OE=0.241 is Li2-s=0.6622 Li2-p=0.3412
 Beta  vir 10 OE=0.767 is H1-s=0.5910 Li2-p=0.2721 Li2-s=0.1369
 
 Leave Link  601 at Mon Mar 28 14:04:43 2022, MaxMem=  9663676416 cpu:               3.0 elap:               0.1
 (Enter /nopt/nrel/apps/gaussian/g16C_1/g16/l9999.exe)

 Test job not archived.
 1\1\GINC-R102U34\SP\UCCSD-FC\Gen\H1Li1(3)\USER\28-Mar-2022\0\\#P C
 CSD(MaxCyc=200,SaveAmplitudes,ReadAmplitudes)/GEN sp pop=AllOrbitals i
 op(3/33=1,3/36=-1)\\test\\0,3\H,0,0.,0.,0.\Li,0,0.,0.,0.8\\Version=ES6
 4L-G16RevC.01\State=3-SG\HF=-7.5908127\MP2=-7.5909316\MP3=-7.590976\MP
 4D=-7.5909927\MP4DQ=-7.5909927\MP4SDQ=-7.5909928\CCSD=-7.5910031\S2=2.
 000047\S2-1=0.\S2A=2.\RMSD=1.781e-09\PG=C*V [C*(H1Li1)]\\@


 FRICTION IS A DRAG,
 AND ENTROPY AIN'T WHAT IT USED TO BE.
 Job cpu time:       0 days  0 hours  0 minutes 33.8 seconds.
 Elapsed time:       0 days  0 hours  0 minutes  1.3 seconds.
 File lengths (MBytes):  RWF=     13 Int=      0 D2E=      0 Chk=      1 Scr=      1
 Normal termination of Gaussian 16 at Mon Mar 28 14:04:43 2022.
