 Entering Gaussian System, Link 0=g16
 Initial command:
 /nopt/nrel/apps/gaussian/g16C_1/g16/l1.exe "/lustre/eaglefs/scratch/user/qc/nah-dissc/nah-1-ccsd-1.6-321g/Gau-35341.inp" -scrdir="/lustre/eaglefs/scratch/user/qc/nah-dissc/nah-1-ccsd-1.6-321g/"
 Default is to use a total of  36 processors:
                               36 via shared-memory
                                1 via Linda
 Entering Link 1 = /nopt/nrel/apps/gaussian/g16C_1/g16/l1.exe PID=     35342.
  
 Copyright (c) 1988-2019, Gaussian, Inc.  All Rights Reserved.
  
 This is part of the Gaussian(R) 16 program.  It is based on
 the Gaussian(R) 09 system (copyright 2009, Gaussian, Inc.),
 the Gaussian(R) 03 system (copyright 2003, Gaussian, Inc.),
 the Gaussian(R) 98 system (copyright 1998, Gaussian, Inc.),
 the Gaussian(R) 94 system (copyright 1995, Gaussian, Inc.),
 the Gaussian 92(TM) system (copyright 1992, Gaussian, Inc.),
 the Gaussian 90(TM) system (copyright 1990, Gaussian, Inc.),
 the Gaussian 88(TM) system (copyright 1988, Gaussian, Inc.),
 the Gaussian 86(TM) system (copyright 1986, Carnegie Mellon
 University), and the Gaussian 82(TM) system (copyright 1983,
 Carnegie Mellon University). Gaussian is a federally registered
 trademark of Gaussian, Inc.
  
 This software contains proprietary and confidential information,
 including trade secrets, belonging to Gaussian, Inc.
  
 This software is provided under written license and may be
 used, copied, transmitted, or stored only in accord with that
 written license.
  
 The following legend is applicable only to US Government
 contracts under FAR:
  
                    RESTRICTED RIGHTS LEGEND
  
 Use, reproduction and disclosure by the US Government is
 subject to restrictions as set forth in subparagraphs (a)
 and (c) of the Commercial Computer Software - Restricted
 Rights clause in FAR 52.227-19.
  
 Gaussian, Inc.
 340 Quinnipiac St., Bldg. 40, Wallingford CT 06492
  
  
 ---------------------------------------------------------------
 Warning -- This program may not be used in any manner that
 competes with the business of Gaussian, Inc. or will provide
 assistance to any competitor of Gaussian, Inc.  The licensee
 of this program is prohibited from giving any competitor of
 Gaussian, Inc. access to this program.  By using this program,
 the user acknowledges that Gaussian, Inc. is engaged in the
 business of creating and licensing software in the field of
 computational chemistry and represents and warrants to the
 licensee that it is not a competitor of Gaussian, Inc. and that
 it will not use this program in any manner prohibited above.
 ---------------------------------------------------------------
  

 Cite this work as:
 Gaussian 16, Revision C.01,
 M. J. Frisch, G. W. Trucks, H. B. Schlegel, G. E. Scuseria, 
 M. A. Robb, J. R. Cheeseman, G. Scalmani, V. Barone, 
 G. A. Petersson, H. Nakatsuji, X. Li, M. Caricato, A. V. Marenich, 
 J. Bloino, B. G. Janesko, R. Gomperts, B. Mennucci, H. P. Hratchian, 
 J. V. Ortiz, A. F. Izmaylov, J. L. Sonnenberg, D. Williams-Young, 
 F. Ding, F. Lipparini, F. Egidi, J. Goings, B. Peng, A. Petrone, 
 T. Henderson, D. Ranasinghe, V. G. Zakrzewski, J. Gao, N. Rega, 
 G. Zheng, W. Liang, M. Hada, M. Ehara, K. Toyota, R. Fukuda, 
 J. Hasegawa, M. Ishida, T. Nakajima, Y. Honda, O. Kitao, H. Nakai, 
 T. Vreven, K. Throssell, J. A. Montgomery, Jr., J. E. Peralta, 
 F. Ogliaro, M. J. Bearpark, J. J. Heyd, E. N. Brothers, K. N. Kudin, 
 V. N. Staroverov, T. A. Keith, R. Kobayashi, J. Normand, 
 K. Raghavachari, A. P. Rendell, J. C. Burant, S. S. Iyengar, 
 J. Tomasi, M. Cossi, J. M. Millam, M. Klene, C. Adamo, R. Cammi, 
 J. W. Ochterski, R. L. Martin, K. Morokuma, O. Farkas, 
 J. B. Foresman, and D. J. Fox, Gaussian, Inc., Wallingford CT, 2019.
 
 ******************************************
 Gaussian 16:  ES64L-G16RevC.01  3-Jul-2019
                28-Mar-2022 
 ******************************************
 %chk=molecule
 Default route: CacheSize=180224 MaxDisk=256GB
 ----------------------------------------------------------------------
 #P CCSD(MaxCyc=200,SaveAmplitudes,ReadAmplitudes)/GEN sp pop=AllOrbita
 ls iop(3/33=1,3/36=-1)
 ----------------------------------------------------------------------
 1/4=180224,38=1,172=1/1;
 2/4=180224,12=2,17=6,18=5,40=1/2;
 3/4=180224,5=7,11=9,25=1,30=1,33=1,36=-1/1,2,3;
 4/4=180224/1;
 5/4=180224,5=2,38=5/2;
 8/4=180224,6=4,9=120000,10=1,24=1/1,4;
 9/4=180224,5=7,6=200,77=1/13;
 6/4=180224,7=2,8=2,9=2,10=2,96=-1/1;
 99/4=180224,5=1,9=1/99;
 Leave Link    1 at Mon Mar 28 14:19:18 2022, MaxMem=           0 cpu:               2.0 elap:               0.1
 (Enter /nopt/nrel/apps/gaussian/g16C_1/g16/l101.exe)
 ----
 test
 ----
 Symbolic Z-matrix:
 Charge =  0 Multiplicity = 1
 H                     0.        0.        0. 
 Na                    0.        0.        1.6 
 
 ITRead=  0  0
 MicOpt= -1 -1
 NAtoms=      2 NQM=        2 NQMF=       0 NMMI=      0 NMMIF=      0
                NMic=       0 NMicF=      0.
                    Isotopes and Nuclear Properties:
 (Nuclear quadrupole moments (NQMom) in fm**2, nuclear magnetic moments (NMagM)
  in nuclear magnetons)

  Atom         1           2
 IAtWgt=           1          23
 AtmWgt=   1.0078250  22.9897697
 NucSpn=           1           3
 AtZEff=  -0.0000000  -0.0000000
 NQMom=    0.0000000  10.4000000
 NMagM=    2.7928460   2.2175200
 AtZNuc=   1.0000000  11.0000000
 Leave Link  101 at Mon Mar 28 14:19:19 2022, MaxMem=  9663676416 cpu:               2.9 elap:               0.1
 (Enter /nopt/nrel/apps/gaussian/g16C_1/g16/l202.exe)
                          Input orientation:                          
 ---------------------------------------------------------------------
 Center     Atomic      Atomic             Coordinates (Angstroms)
 Number     Number       Type             X           Y           Z
 ---------------------------------------------------------------------
      1          1           0        0.000000    0.000000    0.000000
      2         11           0        0.000000    0.000000    1.600000
 ---------------------------------------------------------------------
 Stoichiometry    HNa
 Framework group  C*V[C*(HNa)]
 Deg. of freedom     1
 Full point group                 C*V     NOp   4
 Largest Abelian subgroup         C2V     NOp   4
 Largest concise Abelian subgroup C1      NOp   1
                         Standard orientation:                         
 ---------------------------------------------------------------------
 Center     Atomic      Atomic             Coordinates (Angstroms)
 Number     Number       Type             X           Y           Z
 ---------------------------------------------------------------------
      1          1           0        0.000000    0.000000   -1.466667
      2         11           0        0.000000    0.000000    0.133333
 ---------------------------------------------------------------------
 Rotational constants (GHZ):           0.0000000         204.4679229         204.4679229
 Leave Link  202 at Mon Mar 28 14:19:19 2022, MaxMem=  9663676416 cpu:               1.0 elap:               0.0
 (Enter /nopt/nrel/apps/gaussian/g16C_1/g16/l301.exe)
 General basis read from cards:  (5D, 7F)
                         Coordinates in L301:                         
 ---------------------------------------------------------------------
 Center     Atomic      Atomic             Coordinates (Angstroms)
 Number     Number       Type             X           Y           Z
 ---------------------------------------------------------------------
      1          1           0        0.000000    0.000000   -1.466667
      2         11           0        0.000000    0.000000    0.133333
 ---------------------------------------------------------------------
 Centers:       1
 STO-3G
 ****
 Centers:       2
 3-21G
 ****
 FixB: optimizing general contractions.
 Ernie: Thresh=  0.10000D-02 Tol=  0.10000D-05 Strict=F.
 IA=     1 ShT= 0 ShC= 0 NL=   1 NS=   0.
 IA=     1 L=0 SC=0 ISt=    0 NBk=    0 NP=    0 IndPr=    0.
 IA=     2 ShT= 0 ShC= 0 NL=   1 NS=   0.
 IA=     2 L=0 SC=0 ISt=    0 NBk=    0 NP=    0 IndPr=    0.
 IA=     2 ShT= 1 ShC= 0 NL=   3 NS=   1.
 IA=     2 L=1 SC=0 ISt=    1 NBk=    2 NP=    5 IndPr=    0.
 DoElim1:  L=1 select primitive    1 from    2 using    1 C=-1.12D-01
 DoElim2:  L=1 select primitive    5 from    1 using    2 C= 1.09D+00
 DoElim1:  L=1 select primitive    1 from    2 using    1 C= 1.28D-01
 DoElim2:  L=1 select primitive    5 from    1 using    2 C= 9.97D-01
 Delete L=1 primitive    3 from    2 C=  0.00D+00.
 Delete L=1 primitive    2 from    2 C=  0.00D+00.
 Delete L=1 primitive    1 from    2 C=  0.00D+00.
 Delete L=1 primitive    5 from    1 C=  0.00D+00.
 Delete L=1 primitive    4 from    1 C=  0.00D+00.
 IA=     2 L=1 SC=0 ISt=    0 NBk=    0 NP=    0 IndPr=    5.
 LdAtmC:  AtmChg=     1.000000    11.000000
 AtZEff=     -1.0000000    -10.0400000
 NEqShl: 
              1            2            3            4
     1            1            1            1            1
     2            2            2            2            2
     3            3            3            3            3
     4            4            4            4            4
     5            5            5            5            5
 NEqBas: 
              1            2            3            4
     1            1            1            1            1
     2            2            2            2            2
     3            3            3            3            3
     4            4           -4           -4            4
     5            5           -5            5           -5
     6            6            6            6            6
     7            7            7            7            7
     8            8           -8           -8            8
     9            9           -9            9           -9
    10           10           10           10           10
    11           11           11           11           11
    12           12          -12          -12           12
    13           13          -13           13          -13
    14           14           14           14           14
 There are     8 symmetry adapted cartesian basis functions of A1  symmetry.
   1         1   1   1   1
   2         2   2   2   2
   3         3   3   3   3
   4         6   6   6   6
   5         7   7   7   7
   6        10  10  10  10
   7        11  11  11  11
   8        14  14  14  14
 There are     0 symmetry adapted cartesian basis functions of A2  symmetry.
 There are     3 symmetry adapted cartesian basis functions of B1  symmetry.
   9         4   4   4   4
  10         8   8   8   8
  11        12  12  12  12
 There are     3 symmetry adapted cartesian basis functions of B2  symmetry.
  12         5   5   5   5
  13         9   9   9   9
  14        13  13  13  13
 Order= 1 2 4 3
 Reordered character table:
              1            2            3            4            5
     1            1            1            1            1            1
     2            2            1            1           -1           -1
     3            4            1           -1           -1            1
     4            3            1           -1            1           -1
 NEqShl: 
              1            2            3            4
     1            1            1            1            1
     2            2            2            2            2
     3            3            3            3            3
     4            4            4            4            4
     5            5            5            5            5
 NEqBas: 
              1            2            3            4
     1            1            1            1            1
     2            2            2            2            2
     3            3            3            3            3
     4            4           -4           -4            4
     5            5           -5            5           -5
     6            6            6            6            6
     7            7            7            7            7
     8            8           -8           -8            8
     9            9           -9            9           -9
    10           10           10           10           10
    11           11           11           11           11
    12           12          -12          -12           12
    13           13          -13           13          -13
    14           14           14           14           14
 There are     8 symmetry adapted basis functions of A1  symmetry.
   1         1   1   1   1
   2         2   2   2   2
   3         3   3   3   3
   4         6   6   6   6
   5         7   7   7   7
   6        10  10  10  10
   7        11  11  11  11
   8        14  14  14  14
 There are     0 symmetry adapted basis functions of A2  symmetry.
 There are     3 symmetry adapted basis functions of B1  symmetry.
   9         4   4   4   4
  10         8   8   8   8
  11        12  12  12  12
 There are     3 symmetry adapted basis functions of B2  symmetry.
  12         5   5   5   5
  13         9   9   9   9
  14        13  13  13  13
 Order= 1 2 4 3
 Reordered character table:
              1            2            3            4            5
     1            1            1            1            1            1
     2            2            1            1           -1           -1
     3            4            1           -1           -1            1
     4            3            1           -1            1           -1
    14 basis functions,    30 primitive gaussians,    14 cartesian basis functions
     6 alpha electrons        6 beta electrons
       nuclear repulsion energy         3.6380933251 Hartrees.
 IS=     1 IAt=     1 ISR=     1 T=0 IP=      1 IndIP=      1 IndIPD=      0 C=  2.769344D-01  0.000000D+00                             NZ=T
 IS=     1 IAt=     1 ISR=     1 T=0 IP=      2 IndIP=      2 IndIPD=      1 C=  2.678389D-01  0.000000D+00                             NZ=T
 IS=     1 IAt=     1 ISR=     1 T=0 IP=      3 IndIP=      3 IndIPD=      2 C=  8.347367D-02  0.000000D+00                             NZ=T
 IS=     2 IAt=     2 ISR=     1 T=0 IP=      1 IndIP=      4 IndIPD=      0 C=  5.445177D+00  0.000000D+00                             NZ=T
 IS=     2 IAt=     2 ISR=     1 T=0 IP=      2 IndIP=      5 IndIPD=      1 C=  7.646982D+00  0.000000D+00                             NZ=T
 IS=     2 IAt=     2 ISR=     1 T=0 IP=      3 IndIP=      6 IndIPD=      2 C=  4.092173D+00  0.000000D+00                             NZ=T
 IS=     3 IAt=     2 ISR=     2 T=1 IP=      1 IndIP=      7 IndIPD=      0 C= -6.837842D-01  6.561431D+00                             NZ=T
 IS=     3 IAt=     2 ISR=     2 T=1 IP=      2 IndIP=      8 IndIPD=      1 C=  4.933805D-01  3.558943D+00                             NZ=T
 IS=     3 IAt=     2 ISR=     2 T=1 IP=      3 IndIP=      9 IndIPD=      2 C=  5.590773D-01  7.618119D-01                             NZ=T
 IS=     4 IAt=     2 ISR=     3 T=1 IP=      1 IndIP=     10 IndIPD=      0 C= -9.334168D-02  5.458439D-03                             NZ=T
 IS=     4 IAt=     2 ISR=     3 T=1 IP=      2 IndIP=     11 IndIPD=      1 C=  9.521265D-02  4.304303D-02                             NZ=T
 IS=     5 IAt=     2 ISR=     4 T=1 IP=      1 IndIP=     12 IndIPD=      0 C=  4.404717D-02  1.377061D-02                             NZ=T
 IExCor=    0 DFT=F Ex=HF Corr=None ExCW=0 ScaHFX=  1.000000
 ScaDFX=  1.000000  1.000000  1.000000  1.000000 ScalE2=  1.000000  1.000000
 IRadAn=      5 IRanWt=     -1 IRanGd=            0 ICorTp=0 IEmpDi=  4
 NAtoms=    2 NActive=    2 NUniq=    2 SFac= 1.00D+00 NAtFMM=   60 NAOKFM=F Big=F
 Integral buffers will be    131072 words long.
 Raffenetti 1 integral format.
 Two-electron integral symmetry is turned on.
 Leave Link  301 at Mon Mar 28 14:19:19 2022, MaxMem=  9663676416 cpu:               1.8 elap:               0.1
 (Enter /nopt/nrel/apps/gaussian/g16C_1/g16/l302.exe)
 NPDir=0 NMtPBC=     1 NCelOv=     1 NCel=       1 NClECP=     1 NCelD=      1
         NCelK=      1 NCelE2=     1 NClLst=     1 CellRange=     0.0.
 One-electron integrals computed using PRISM.
 One-electron integral symmetry used in STVInt
 Entering OneElI...
 Calculate overlap and kinetic energy integrals
    NBasis =  14  MinDer = 0  MaxDer = 0
 Requested accuracy = 0.1000D-12
 Symmetry will be used
 PrmmSu-InSpLW:  IPartL=    0 NPrtUS=   36 NPrtUL=    1 DoSpLW=F IThBeg=    0 IThEnd=   35 NThAct=   36.
 PrSmSu:  IncTry=   512 NBBP=             15 NTPThr=   100 NPartT=   36 Incr=           1 LDynOK=F GPUOK=F.
 PrsmSu:  NPrtUS=  36 ThrOK=T IAlg=1 LenDen=           0 ISkipM=0 DoSpLW=F IThBeg=    0 IThEnd=   35.
 Prism:   IPart=     0 DynPar=F LinDyn=F Incr=           1.
 PRISM was handed   268433825 working-precision words and    15 shell-pairs
 PRISM was handed   268433825 working-precision words and    15 shell-pairs
 PRISM was handed   268433825 working-precision words and    15 shell-pairs
 PRISM was handed   268433825 working-precision words and    15 shell-pairs
 PRISM was handed   268433825 working-precision words and    15 shell-pairs
 PRISM was handed   268433825 working-precision words and    15 shell-pairs
 PRISM was handed   268433825 working-precision words and    15 shell-pairs
 PRISM was handed   268433825 working-precision words and    15 shell-pairs
 PRISM was handed   268433825 working-precision words and    15 shell-pairs
 PRISM was handed   268433825 working-precision words and    15 shell-pairs
 PRISM was handed   268433825 working-precision words and    15 shell-pairs
 IPart= 16 NShTot=           0 NBatch=           0 AvBLen=         0.0
 IPart= 10 NShTot=           0 NBatch=           0 AvBLen=         0.0
 IPart= 29 NShTot=           0 NBatch=           0 AvBLen=         0.0
 IPart= 11 NShTot=           0 NBatch=           0 AvBLen=         0.0
 IPart= 19 NShTot=           0 NBatch=           0 AvBLen=         0.0
 IPart= 17 NShTot=           0 NBatch=           0 AvBLen=         0.0
 IPart= 26 NShTot=           0 NBatch=           0 AvBLen=         0.0
 IPart= 31 NShTot=           0 NBatch=           0 AvBLen=         0.0
 IPart= 15 NShTot=           0 NBatch=           0 AvBLen=         0.0
 IPart=  1 NShTot=           4 NBatch=           4 AvBLen=         1.0
 PRISM was handed   268433825 working-precision words and    15 shell-pairs
 IPart=  0 NShTot=          10 NBatch=          10 AvBLen=         1.0
 PRISM was handed   268433825 working-precision words and    15 shell-pairs
 PRISM was handed   268433825 working-precision words and    15 shell-pairs
 PRISM was handed   268433825 working-precision words and    15 shell-pairs
 PRISM was handed   268433825 working-precision words and    15 shell-pairs
 PRISM was handed   268433825 working-precision words and    15 shell-pairs
 PRISM was handed   268433825 working-precision words and    15 shell-pairs
 IPart=  9 NShTot=           0 NBatch=           0 AvBLen=         0.0
 IPart= 35 NShTot=           0 NBatch=           0 AvBLen=         0.0
 PRISM was handed   268433825 working-precision words and    15 shell-pairs
 IPart= 32 NShTot=           0 NBatch=           0 AvBLen=         0.0
 IPart= 25 NShTot=           0 NBatch=           0 AvBLen=         0.0
 IPart= 33 NShTot=           0 NBatch=           0 AvBLen=         0.0
 PRISM was handed   268433825 working-precision words and    15 shell-pairs
 PRISM was handed   268433825 working-precision words and    15 shell-pairs
 PRISM was handed   268433825 working-precision words and    15 shell-pairs
 PRISM was handed   268433825 working-precision words and    15 shell-pairs
 PRISM was handed   268433825 working-precision words and    15 shell-pairs
 PRISM was handed   268433825 working-precision words and    15 shell-pairs
 PRISM was handed   268433825 working-precision words and    15 shell-pairs
 IPart=  3 NShTot=           0 NBatch=           0 AvBLen=         0.0
 IPart= 18 NShTot=           0 NBatch=           0 AvBLen=         0.0
 PRISM was handed   268433825 working-precision words and    15 shell-pairs
 PRISM was handed   268433825 working-precision words and    15 shell-pairs
 PRISM was handed   268433825 working-precision words and    15 shell-pairs
 PRISM was handed   268433825 working-precision words and    15 shell-pairs
 IPart= 23 NShTot=           0 NBatch=           0 AvBLen=         0.0
 PRISM was handed   268433825 working-precision words and    15 shell-pairs
 PRISM was handed   268433825 working-precision words and    15 shell-pairs
 IPart=  6 NShTot=           0 NBatch=           0 AvBLen=         0.0
 IPart= 28 NShTot=           0 NBatch=           0 AvBLen=         0.0
 IPart= 24 NShTot=           0 NBatch=           0 AvBLen=         0.0
 PRISM was handed   268433825 working-precision words and    15 shell-pairs
 IPart= 21 NShTot=           0 NBatch=           0 AvBLen=         0.0
 PRISM was handed   268433825 working-precision words and    15 shell-pairs
 IPart= 22 NShTot=           0 NBatch=           0 AvBLen=         0.0
 IPart= 30 NShTot=           0 NBatch=           0 AvBLen=         0.0
 IPart= 13 NShTot=           0 NBatch=           0 AvBLen=         0.0
 IPart= 14 NShTot=           0 NBatch=           0 AvBLen=         0.0
 IPart=  7 NShTot=           0 NBatch=           0 AvBLen=         0.0
 IPart=  8 NShTot=           0 NBatch=           0 AvBLen=         0.0
 IPart=  4 NShTot=           0 NBatch=           0 AvBLen=         0.0
 PRISM was handed   268433825 working-precision words and    15 shell-pairs
 PRISM was handed   268433825 working-precision words and    15 shell-pairs
 IPart= 20 NShTot=           0 NBatch=           0 AvBLen=         0.0
 IPart=  5 NShTot=           0 NBatch=           0 AvBLen=         0.0
 IPart= 12 NShTot=           0 NBatch=           0 AvBLen=         0.0
 IPart= 34 NShTot=           0 NBatch=           0 AvBLen=         0.0
 IPart= 27 NShTot=           0 NBatch=           0 AvBLen=         0.0
 IPart=  2 NShTot=           1 NBatch=           1 AvBLen=         1.0
 PrSmSu:  NxtVal=             37.
 *** Overlap *** 
                1             2             3             4             5 
      1  0.100000D+01
      2  0.689515D-02  0.100000D+01
      3  0.848353D-01  0.226762D+00  0.100000D+01
      4  0.000000D+00  0.000000D+00  0.000000D+00  0.100000D+01
      5  0.000000D+00  0.000000D+00  0.000000D+00  0.000000D+00  0.100000D+01
      6 -0.750053D-01  0.000000D+00  0.000000D+00  0.000000D+00  0.000000D+00
      7  0.396245D+00  0.175172D-02  0.143132D+00  0.000000D+00  0.000000D+00
      8  0.000000D+00  0.000000D+00  0.000000D+00  0.120813D+00  0.000000D+00
      9  0.000000D+00  0.000000D+00  0.000000D+00  0.000000D+00  0.120813D+00
     10 -0.475320D+00  0.000000D+00  0.000000D+00  0.000000D+00  0.000000D+00
     11  0.308199D+00  0.160858D-01  0.166618D+00  0.000000D+00  0.000000D+00
     12  0.000000D+00  0.000000D+00  0.000000D+00  0.399192D-01  0.000000D+00
     13  0.000000D+00  0.000000D+00  0.000000D+00  0.000000D+00  0.399192D-01
     14 -0.263972D+00  0.000000D+00  0.000000D+00  0.000000D+00  0.000000D+00
                6             7             8             9            10 
      6  0.100000D+01
      7  0.000000D+00  0.100000D+01
      8  0.000000D+00  0.000000D+00  0.100000D+01
      9  0.000000D+00  0.000000D+00  0.000000D+00  0.100000D+01
     10  0.120813D+00  0.000000D+00  0.000000D+00  0.000000D+00  0.100000D+01
     11  0.000000D+00  0.876080D+00  0.000000D+00  0.000000D+00  0.000000D+00
     12  0.000000D+00  0.000000D+00  0.775774D+00  0.000000D+00  0.000000D+00
     13  0.000000D+00  0.000000D+00  0.000000D+00  0.775774D+00  0.000000D+00
     14  0.399192D-01  0.000000D+00  0.000000D+00  0.000000D+00  0.775774D+00
               11            12            13            14 
     11  0.100000D+01
     12  0.000000D+00  0.100000D+01
     13  0.000000D+00  0.000000D+00  0.100000D+01
     14  0.000000D+00  0.000000D+00  0.000000D+00  0.100000D+01
 *** Kinetic Energy *** 
                1             2             3             4             5 
      1  0.760032D+00
      2 -0.187399D-02  0.570648D+02
      3 -0.200898D-01 -0.145971D+01  0.183414D+01
      4  0.000000D+00  0.000000D+00  0.000000D+00  0.585712D+01
      5  0.000000D+00  0.000000D+00  0.000000D+00  0.000000D+00  0.585712D+01
      6  0.770924D-02  0.000000D+00  0.000000D+00  0.000000D+00  0.000000D+00
      7  0.480556D-01 -0.420609D-01 -0.141303D+00  0.000000D+00  0.000000D+00
      8  0.000000D+00  0.000000D+00  0.000000D+00  0.441422D-01  0.000000D+00
      9  0.000000D+00  0.000000D+00  0.000000D+00  0.000000D+00  0.441422D-01
     10 -0.961044D-01  0.000000D+00  0.000000D+00  0.000000D+00  0.000000D+00
     11  0.177021D-01  0.117775D-02  0.119127D-01  0.000000D+00  0.000000D+00
     12  0.000000D+00  0.000000D+00  0.000000D+00  0.476129D-02  0.000000D+00
     13  0.000000D+00  0.000000D+00  0.000000D+00  0.000000D+00  0.476129D-02
     14 -0.269079D-01  0.000000D+00  0.000000D+00  0.000000D+00  0.000000D+00
                6             7             8             9            10 
      6  0.585712D+01
      7  0.000000D+00  0.106538D+00
      8  0.000000D+00  0.000000D+00  0.153112D+00
      9  0.000000D+00  0.000000D+00  0.000000D+00  0.153112D+00
     10  0.441422D-01  0.000000D+00  0.000000D+00  0.000000D+00  0.153112D+00
     11  0.000000D+00  0.447876D-01  0.000000D+00  0.000000D+00  0.000000D+00
     12  0.000000D+00  0.000000D+00  0.676855D-01  0.000000D+00  0.000000D+00
     13  0.000000D+00  0.000000D+00  0.000000D+00  0.676855D-01  0.000000D+00
     14  0.476129D-02  0.000000D+00  0.000000D+00  0.000000D+00  0.676855D-01
               11            12            13            14 
     11  0.366524D-01
     12  0.000000D+00  0.610873D-01
     13  0.000000D+00  0.000000D+00  0.610873D-01
     14  0.000000D+00  0.000000D+00  0.000000D+00  0.610873D-01
 Entering OneElI...
 Calculate potential energy integrals
    NBasis =  14  MinDer = 0  MaxDer = 0
 Requested accuracy = 0.1000D-12
 Symmetry will be used
 PrmmSu-InSpLW:  IPartL=    0 NPrtUS=   36 NPrtUL=    1 DoSpLW=F IThBeg=    0 IThEnd=   35 NThAct=   36.
 PrSmSu:  IncTry=   512 NBBP=             30 NTPThr=   100 NPartT=   36 Incr=           1 LDynOK=F GPUOK=F.
 PrsmSu:  NPrtUS=  36 ThrOK=T IAlg=1 LenDen=           0 ISkipM=0 DoSpLW=F IThBeg=    0 IThEnd=   35.
 Prism:   IPart=     0 DynPar=F LinDyn=F Incr=           1.
 PRISM was handed   268433931 working-precision words and    15 shell-pairs
 PRISM was handed   268433931 working-precision words and    15 shell-pairs
 PRISM was handed   268433931 working-precision words and    15 shell-pairs
 PRISM was handed   268433931 working-precision words and    15 shell-pairs
 PRISM was handed   268433931 working-precision words and    15 shell-pairs
 PRISM was handed   268433931 working-precision words and    15 shell-pairs
 PRISM was handed   268433931 working-precision words and    15 shell-pairs
 PRISM was handed   268433931 working-precision words and    15 shell-pairs
 PRISM was handed   268433931 working-precision words and    15 shell-pairs
 PRISM was handed   268433931 working-precision words and    15 shell-pairs
 PRISM was handed   268433931 working-precision words and    15 shell-pairs
 PRISM was handed   268433931 working-precision words and    15 shell-pairs
 PRISM was handed   268433931 working-precision words and    15 shell-pairs
 PRISM was handed   268433931 working-precision words and    15 shell-pairs
 PRISM was handed   268433931 working-precision words and    15 shell-pairs
 PRISM was handed   268433931 working-precision words and    15 shell-pairs
 PRISM was handed   268433931 working-precision words and    15 shell-pairs
 PRISM was handed   268433931 working-precision words and    15 shell-pairs
 PRISM was handed   268433931 working-precision words and    15 shell-pairs
 PRISM was handed   268433931 working-precision words and    15 shell-pairs
 PRISM was handed   268433931 working-precision words and    15 shell-pairs
 PRISM was handed   268433931 working-precision words and    15 shell-pairs
 PRISM was handed   268433931 working-precision words and    15 shell-pairs
 PRISM was handed   268433931 working-precision words and    15 shell-pairs
 PRISM was handed   268433931 working-precision words and    15 shell-pairs
 PRISM was handed   268433931 working-precision words and    15 shell-pairs
 PRISM was handed   268433931 working-precision words and    15 shell-pairs
 PRISM was handed   268433931 working-precision words and    15 shell-pairs
 PRISM was handed   268433931 working-precision words and    15 shell-pairs
 PRISM was handed   268433931 working-precision words and    15 shell-pairs
 PRISM was handed   268433931 working-precision words and    15 shell-pairs
 PRISM was handed   268433931 working-precision words and    15 shell-pairs
 PRISM was handed   268433931 working-precision words and    15 shell-pairs
 PRISM was handed   268433931 working-precision words and    15 shell-pairs
 PRISM was handed   268433931 working-precision words and    15 shell-pairs
 PRISM was handed   268433931 working-precision words and    15 shell-pairs
 IPart=  2 NShTot=           0 NBatch=           0 AvBLen=         0.0
 IPart=  1 NShTot=           8 NBatch=           4 AvBLen=         2.0
 IPart=  0 NShTot=          22 NBatch=          11 AvBLen=         2.0
 IPart= 20 NShTot=           0 NBatch=           0 AvBLen=         0.0
 IPart= 35 NShTot=           0 NBatch=           0 AvBLen=         0.0
 IPart= 18 NShTot=           0 NBatch=           0 AvBLen=         0.0
 IPart= 34 NShTot=           0 NBatch=           0 AvBLen=         0.0
 IPart= 11 NShTot=           0 NBatch=           0 AvBLen=         0.0
 IPart=  3 NShTot=           0 NBatch=           0 AvBLen=         0.0
 IPart= 21 NShTot=           0 NBatch=           0 AvBLen=         0.0
 IPart= 27 NShTot=           0 NBatch=           0 AvBLen=         0.0
 IPart= 12 NShTot=           0 NBatch=           0 AvBLen=         0.0
 IPart= 19 NShTot=           0 NBatch=           0 AvBLen=         0.0
 IPart= 26 NShTot=           0 NBatch=           0 AvBLen=         0.0
 IPart=  5 NShTot=           0 NBatch=           0 AvBLen=         0.0
 IPart=  6 NShTot=           0 NBatch=           0 AvBLen=         0.0
 IPart= 14 NShTot=           0 NBatch=           0 AvBLen=         0.0
 IPart= 24 NShTot=           0 NBatch=           0 AvBLen=         0.0
 IPart= 10 NShTot=           0 NBatch=           0 AvBLen=         0.0
 IPart= 28 NShTot=           0 NBatch=           0 AvBLen=         0.0
 IPart=  7 NShTot=           0 NBatch=           0 AvBLen=         0.0
 IPart= 25 NShTot=           0 NBatch=           0 AvBLen=         0.0
 IPart= 16 NShTot=           0 NBatch=           0 AvBLen=         0.0
 IPart= 13 NShTot=           0 NBatch=           0 AvBLen=         0.0
 IPart= 15 NShTot=           0 NBatch=           0 AvBLen=         0.0
 IPart=  9 NShTot=           0 NBatch=           0 AvBLen=         0.0
 IPart= 32 NShTot=           0 NBatch=           0 AvBLen=         0.0
 IPart= 29 NShTot=           0 NBatch=           0 AvBLen=         0.0
 IPart=  8 NShTot=           0 NBatch=           0 AvBLen=         0.0
 IPart= 30 NShTot=           0 NBatch=           0 AvBLen=         0.0
 IPart= 17 NShTot=           0 NBatch=           0 AvBLen=         0.0
 IPart= 23 NShTot=           0 NBatch=           0 AvBLen=         0.0
 IPart= 33 NShTot=           0 NBatch=           0 AvBLen=         0.0
 IPart=  4 NShTot=           0 NBatch=           0 AvBLen=         0.0
 IPart= 22 NShTot=           0 NBatch=           0 AvBLen=         0.0
 IPart= 31 NShTot=           0 NBatch=           0 AvBLen=         0.0
 PrSmSu:  NxtVal=             37.
 ***** Potential Energy ***** 
                1             2             3             4             5 
      1  0.485520D+01
      2  0.436700D+00  0.117485D+03
      3  0.104292D+01  0.128177D+02  0.184470D+02
      4  0.000000D+00  0.000000D+00  0.000000D+00  0.189625D+02
      5  0.000000D+00  0.000000D+00  0.000000D+00  0.000000D+00  0.189625D+02
      6 -0.698345D+00 -0.412549D-02 -0.483092D-01  0.000000D+00  0.000000D+00
      7  0.179713D+01  0.830082D-01  0.137944D+01  0.000000D+00  0.000000D+00
      8  0.000000D+00  0.000000D+00  0.000000D+00  0.117878D+01  0.000000D+00
      9  0.000000D+00  0.000000D+00  0.000000D+00  0.000000D+00  0.117878D+01
     10 -0.199458D+01 -0.470724D-04 -0.858840D-02  0.000000D+00  0.000000D+00
     11  0.136411D+01  0.102237D+01  0.215835D+01  0.000000D+00  0.000000D+00
     12  0.000000D+00  0.000000D+00  0.000000D+00  0.375600D+00  0.000000D+00
     13  0.000000D+00  0.000000D+00  0.000000D+00  0.000000D+00  0.375600D+00
     14 -0.100356D+01 -0.135195D-04 -0.287293D-02  0.000000D+00  0.000000D+00
                6             7             8             9            10 
      6  0.189789D+02
      7 -0.156888D-01  0.383503D+01
      8  0.000000D+00  0.000000D+00  0.312379D+01
      9  0.000000D+00  0.000000D+00  0.000000D+00  0.312379D+01
     10  0.118475D+01 -0.109407D+00  0.000000D+00  0.000000D+00  0.320545D+01
     11 -0.139586D-01  0.307923D+01  0.000000D+00  0.000000D+00 -0.902848D-01
     12  0.000000D+00  0.000000D+00  0.202736D+01  0.000000D+00  0.000000D+00
     13  0.000000D+00  0.000000D+00  0.000000D+00  0.202736D+01  0.000000D+00
     14  0.377696D+00 -0.602850D-01  0.000000D+00  0.000000D+00  0.207379D+01
               11            12            13            14 
     11  0.296069D+01
     12  0.000000D+00  0.198202D+01
     13  0.000000D+00  0.000000D+00  0.198202D+01
     14 -0.605341D-01  0.000000D+00  0.000000D+00  0.201456D+01
 ****** Core Hamiltonian ****** 
                1             2             3             4             5 
      1 -0.409517D+01
      2 -0.438574D+00 -0.604203D+02
      3 -0.106301D+01 -0.142774D+02 -0.166128D+02
      4  0.000000D+00  0.000000D+00  0.000000D+00 -0.131054D+02
      5  0.000000D+00  0.000000D+00  0.000000D+00  0.000000D+00 -0.131054D+02
      6  0.706054D+00  0.412549D-02  0.483092D-01  0.000000D+00  0.000000D+00
      7 -0.174908D+01 -0.125069D+00 -0.152074D+01  0.000000D+00  0.000000D+00
      8  0.000000D+00  0.000000D+00  0.000000D+00 -0.113464D+01  0.000000D+00
      9  0.000000D+00  0.000000D+00  0.000000D+00  0.000000D+00 -0.113464D+01
     10  0.189847D+01  0.470724D-04  0.858840D-02  0.000000D+00  0.000000D+00
     11 -0.134640D+01 -0.102119D+01 -0.214644D+01  0.000000D+00  0.000000D+00
     12  0.000000D+00  0.000000D+00  0.000000D+00 -0.370838D+00  0.000000D+00
     13  0.000000D+00  0.000000D+00  0.000000D+00  0.000000D+00 -0.370838D+00
     14  0.976655D+00  0.135195D-04  0.287293D-02  0.000000D+00  0.000000D+00
                6             7             8             9            10 
      6 -0.131218D+02
      7  0.156888D-01 -0.372850D+01
      8  0.000000D+00  0.000000D+00 -0.297068D+01
      9  0.000000D+00  0.000000D+00  0.000000D+00 -0.297068D+01
     10 -0.114060D+01  0.109407D+00  0.000000D+00  0.000000D+00 -0.305233D+01
     11  0.139586D-01 -0.303444D+01  0.000000D+00  0.000000D+00  0.902848D-01
     12  0.000000D+00  0.000000D+00 -0.195968D+01  0.000000D+00  0.000000D+00
     13  0.000000D+00  0.000000D+00  0.000000D+00 -0.195968D+01  0.000000D+00
     14 -0.372935D+00  0.602850D-01  0.000000D+00  0.000000D+00 -0.200610D+01
               11            12            13            14 
     11 -0.292404D+01
     12  0.000000D+00 -0.192093D+01
     13  0.000000D+00  0.000000D+00 -0.192093D+01
     14  0.605341D-01  0.000000D+00  0.000000D+00 -0.195348D+01
 SVDSVc IOpt=   1 NormSV=T IR=1
 SVDSVc V= 2.29D+00 1.86D+00 1.19D+00 9.88D-01 7.54D-01 6.23D-01 1.82D-01 1.13D-01
 SVDSVc IOpt=   1 NormSV=T IR=3
 SVDSVc V= 1.79D+00 9.88D-01 2.20D-01
 SVDSVc IOpt=   1 NormSV=T IR=4
 SVDSVc V= 1.79D+00 9.88D-01 2.20D-01
 TstOVc:  Largest diagonal error= 1.78D-15 IB=1 I=    1.
 TstOVc:  Largest same sym error= 2.91D-15 IB=1 I=    5 J=    4.
 TstOVc:  Largest diff sym error= 0.00D+00 IB=0 JB=0 I=    0 J=    0.
 Orthogonalized basis functions: 
                 1             2             3             4             5 
      1   0.324920D+00 -0.696541D-01 -0.467085D-01 -0.183722D-01 -0.607381D-01
      2   0.239203D-01  0.376149D-01  0.678411D+00 -0.320154D-02 -0.769764D+00
      3   0.101527D+00  0.119033D+00  0.587929D+00  0.948536D-04  0.843879D+00
      4   0.000000D+00  0.000000D+00  0.000000D+00  0.000000D+00  0.000000D+00
      5   0.000000D+00  0.000000D+00  0.000000D+00  0.000000D+00  0.000000D+00
      6  -0.502366D-01  0.798503D-01 -0.400088D-02  0.990699D+00 -0.836408D-02
      7   0.322219D+00  0.318371D+00 -0.131038D+00  0.639225D-02 -0.102499D+00
      8   0.000000D+00  0.000000D+00  0.000000D+00  0.000000D+00  0.000000D+00
      9   0.000000D+00  0.000000D+00  0.000000D+00  0.000000D+00  0.000000D+00
     10  -0.259805D+00  0.397028D+00 -0.241585D-01 -0.547003D-01 -0.983224D-02
     11   0.310262D+00  0.323830D+00 -0.105184D+00  0.821360D-02 -0.800626D-01
     12   0.000000D+00  0.000000D+00  0.000000D+00  0.000000D+00  0.000000D+00
     13   0.000000D+00  0.000000D+00  0.000000D+00  0.000000D+00  0.000000D+00
     14  -0.224568D+00  0.384065D+00 -0.340122D-01 -0.164700D+00 -0.327922D-01
                 6             7             8             9            10 
      1   0.102935D+01  0.564944D+00 -0.473025D+00  0.000000D+00  0.000000D+00
      2  -0.157062D-01  0.631432D-02  0.184207D-01  0.000000D+00  0.000000D+00
      3   0.235023D-01 -0.369269D-02  0.629553D-01  0.000000D+00  0.000000D+00
      4   0.000000D+00  0.000000D+00  0.000000D+00  0.106366D+00  0.993078D+00
      5   0.000000D+00  0.000000D+00  0.000000D+00  0.000000D+00  0.000000D+00
      6   0.123592D+00 -0.127237D+00  0.209933D-01  0.000000D+00  0.000000D+00
      7  -0.201714D+00  0.310707D+00  0.210756D+01  0.000000D+00  0.000000D+00
      8   0.000000D+00  0.000000D+00  0.000000D+00  0.525558D+00 -0.486986D-01
      9   0.000000D+00  0.000000D+00  0.000000D+00  0.000000D+00  0.000000D+00
     10   0.613405D-01  0.167472D+01 -0.563942D+00  0.000000D+00  0.000000D+00
     11  -0.382606D+00 -0.545023D+00 -0.192979D+01  0.000000D+00  0.000000D+00
     12   0.000000D+00  0.000000D+00  0.000000D+00  0.520070D+00 -0.153894D+00
     13   0.000000D+00  0.000000D+00  0.000000D+00  0.000000D+00  0.000000D+00
     14   0.581642D+00 -0.139983D+01  0.351578D+00  0.000000D+00  0.000000D+00
                11            12            13            14 
      1   0.000000D+00  0.000000D+00  0.000000D+00  0.000000D+00
      2   0.000000D+00  0.000000D+00  0.000000D+00  0.000000D+00
      3   0.000000D+00  0.000000D+00  0.000000D+00  0.000000D+00
      4  -0.157598D+00  0.000000D+00  0.000000D+00  0.000000D+00
      5   0.000000D+00  0.106366D+00  0.993078D+00 -0.157598D+00
      6   0.000000D+00  0.000000D+00  0.000000D+00  0.000000D+00
      7   0.000000D+00  0.000000D+00  0.000000D+00  0.000000D+00
      8   0.151160D+01  0.000000D+00  0.000000D+00  0.000000D+00
      9   0.000000D+00  0.525558D+00 -0.486986D-01  0.151160D+01
     10   0.000000D+00  0.000000D+00  0.000000D+00  0.000000D+00
     11   0.000000D+00  0.000000D+00  0.000000D+00  0.000000D+00
     12  -0.149532D+01  0.000000D+00  0.000000D+00  0.000000D+00
     13   0.000000D+00  0.520070D+00 -0.153894D+00 -0.149532D+01
     14   0.000000D+00  0.000000D+00  0.000000D+00  0.000000D+00
 NBasis=    14 RedAO= T EigKep=  1.13D-01  NBF=     8     0     3     3
 NBsUse=    14 1.00D-06 EigRej= -1.00D+00 NBFU=     8     0     3     3
 Leave Link  302 at Mon Mar 28 14:19:19 2022, MaxMem=  9663676416 cpu:               3.3 elap:               0.1
 (Enter /nopt/nrel/apps/gaussian/g16C_1/g16/l303.exe)
 DipDrv will not compute anything.
 Fermi contact integrals: 
                 1             2 
      1   0.628247D+00  0.187225D-01
      2   0.000000D+00  0.171843D+02
      3   0.140812D-03  0.368674D+00
      4   0.000000D+00  0.000000D+00
      5   0.000000D+00  0.000000D+00
      6  -0.580143D-03  0.000000D+00
      7   0.535910D-01  0.187097D-02
      8   0.000000D+00  0.000000D+00
      9   0.000000D+00  0.000000D+00
     10  -0.747182D-01  0.000000D+00
     11   0.352293D-01  0.440472D-01
     12   0.000000D+00  0.000000D+00
     13   0.000000D+00  0.000000D+00
     14  -0.333011D-01  0.000000D+00
 Leave Link  303 at Mon Mar 28 14:19:19 2022, MaxMem=  9663676416 cpu:               1.1 elap:               0.1
 (Enter /nopt/nrel/apps/gaussian/g16C_1/g16/l401.exe)
 ExpMin= 2.44D-02 ExpMax= 5.48D+02 ExpMxC= 5.48D+02 IAcc=3 IRadAn=         5 AccDes= 0.00D+00
 Harris functional with IExCor=  205 and IRadAn=       5 diagonalized for initial guess.
 HarFok:  IExCor=  205 AccDes= 0.00D+00 IRadAn=         5 IDoV= 1 UseB2=F ITyADJ=14
 ICtDFT=  3500011 ScaDFX=  1.000000  1.000000  1.000000  1.000000
 FoFCou: FMM=F IPFlag=           0 FMFlag=      100000 FMFlg1=           0
         NFxFlg=           0 DoJE=T BraDBF=F KetDBF=T FulRan=T
         wScrn=  0.000000 ICntrl=       500 IOpCl=  0 I1Cent=   200000004 NGrid=           0
         NMat0=    1 NMatS0=      1 NMatT0=    0 NMatD0=    1 NMtDS0=    0 NMtDT0=    0
 Petite list used in FoFCou.
 Harris En= -161.213119609558    
 JPrj=0 DoOrth=F DoCkMO=F.
 Initial guess orbital symmetries:
       Occupied  (SG) (SG) (SG) (PI) (PI) (SG)
       Virtual   (SG) (PI) (PI) (SG) (SG) (PI) (PI) (SG)
 The electronic state of the initial guess is 1-SG.
 Leave Link  401 at Mon Mar 28 14:19:19 2022, MaxMem=  9663676416 cpu:               4.3 elap:               0.2
 (Enter /nopt/nrel/apps/gaussian/g16C_1/g16/l502.exe)
 Keep R1 ints in memory in symmetry-blocked form, NReq=7213305.
 FoFCou: FMM=F IPFlag=           0 FMFlag=           0 FMFlg1=           0
         NFxFlg=           0 DoJE=F BraDBF=F KetDBF=F FulRan=T
         wScrn=  0.000000 ICntrl=       600 IOpCl=  0 I1Cent=           0 NGrid=           0
         NMat0=    1 NMatS0=    105 NMatT0=    0 NMatD0=    1 NMtDS0=    0 NMtDT0=    0
 Petite list used in FoFCou.
 Closed shell SCF:
 Using DIIS extrapolation, IDIIS=  1040.
 NGot=  9663676416 LenX=  9663671753 LenY=  9663670871
 Requested convergence on RMS density matrix=1.00D-08 within 128 cycles.
 Requested convergence on MAX density matrix=1.00D-06.
 Requested convergence on             energy=1.00D-06.
 No special actions if energy rises.

 Cycle   1  Pass 1  IDiag  1:
 E= -161.319115950630    
 DIIS: error= 3.67D-02 at cycle   1 NSaved=   1.
 NSaved= 1 IEnMin= 1 EnMin= -161.319115950630     IErMin= 1 ErrMin= 3.67D-02
 ErrMax= 3.67D-02  0.00D+00 EMaxC= 1.00D-01 BMatC= 1.35D-02 BMatP= 1.35D-02
 IDIUse=3 WtCom= 6.33D-01 WtEn= 3.67D-01
 Coeff-Com:  0.100D+01
 Coeff-En:   0.100D+01
 Coeff:      0.100D+01
 Gap=     0.244 Goal=   None    Shift=    0.000
 GapD=    0.244 DampG=1.000 DampE=0.500 DampFc=0.5000 IDamp=-1.
 Damping current iteration by 5.00D-01
 RMSDP=1.85D-02 MaxDP=1.96D-01              OVMax= 1.25D-02

 Cycle   2  Pass 1  IDiag  1:
 E= -161.335631225964     Delta-E=       -0.016515275334 Rises=F Damp=T
 DIIS: error= 1.93D-02 at cycle   2 NSaved=   2.
 NSaved= 2 IEnMin= 2 EnMin= -161.335631225964     IErMin= 2 ErrMin= 1.93D-02
 ErrMax= 1.93D-02  0.00D+00 EMaxC= 1.00D-01 BMatC= 3.75D-03 BMatP= 1.35D-02
 IDIUse=3 WtCom= 8.07D-01 WtEn= 1.93D-01
 Coeff-Com: -0.110D+01 0.210D+01
 Coeff-En:   0.000D+00 0.100D+01
 Coeff:     -0.891D+00 0.189D+01
 Gap=     0.285 Goal=   None    Shift=    0.000
 RMSDP=9.86D-03 MaxDP=1.03D-01 DE=-1.65D-02 OVMax= 8.28D-04

 Cycle   3  Pass 1  IDiag  1:
 E= -161.353282254374     Delta-E=       -0.017651028410 Rises=F Damp=F
 DIIS: error= 3.25D-04 at cycle   3 NSaved=   3.
 NSaved= 3 IEnMin= 3 EnMin= -161.353282254374     IErMin= 3 ErrMin= 3.25D-04
 ErrMax= 3.25D-04  0.00D+00 EMaxC= 1.00D-01 BMatC= 2.93D-06 BMatP= 3.75D-03
 IDIUse=3 WtCom= 9.97D-01 WtEn= 3.25D-03
 Coeff-Com:  0.348D+00-0.673D+00 0.133D+01
 Coeff-En:   0.000D+00 0.000D+00 0.100D+01
 Coeff:      0.347D+00-0.671D+00 0.132D+01
 Gap=     0.290 Goal=   None    Shift=    0.000
 RMSDP=5.63D-04 MaxDP=2.90D-03 DE=-1.77D-02 OVMax= 2.09D-04

 Cycle   4  Pass 1  IDiag  1:
 E= -161.353296951658     Delta-E=       -0.000014697284 Rises=F Damp=F
 DIIS: error= 1.04D-04 at cycle   4 NSaved=   4.
 NSaved= 4 IEnMin= 4 EnMin= -161.353296951658     IErMin= 4 ErrMin= 1.04D-04
 ErrMax= 1.04D-04  0.00D+00 EMaxC= 1.00D-01 BMatC= 9.81D-08 BMatP= 2.93D-06
 IDIUse=3 WtCom= 9.99D-01 WtEn= 1.04D-03
 Coeff-Com:  0.545D-01-0.103D+00 0.603D-01 0.988D+00
 Coeff-En:   0.000D+00 0.000D+00 0.000D+00 0.100D+01
 Coeff:      0.544D-01-0.103D+00 0.602D-01 0.988D+00
 Gap=     0.290 Goal=   None    Shift=    0.000
 RMSDP=1.03D-04 MaxDP=5.98D-04 DE=-1.47D-05 OVMax= 1.77D-06

 Cycle   5  Pass 1  IDiag  1:
 E= -161.353297744368     Delta-E=       -0.000000792710 Rises=F Damp=F
 DIIS: error= 4.24D-05 at cycle   5 NSaved=   5.
 NSaved= 5 IEnMin= 5 EnMin= -161.353297744368     IErMin= 5 ErrMin= 4.24D-05
 ErrMax= 4.24D-05  0.00D+00 EMaxC= 1.00D-01 BMatC= 1.29D-08 BMatP= 9.81D-08
 IDIUse=1 WtCom= 1.00D+00 WtEn= 0.00D+00
 Coeff-Com: -0.271D-02 0.498D-02 0.200D-01-0.692D+00 0.167D+01
 Coeff:     -0.271D-02 0.498D-02 0.200D-01-0.692D+00 0.167D+01
 Gap=     0.290 Goal=   None    Shift=    0.000
 RMSDP=4.68D-05 MaxDP=2.92D-04 DE=-7.93D-07 OVMax= 4.01D-06

 Cycle   6  Pass 1  IDiag  1:
 E= -161.353297873890     Delta-E=       -0.000000129522 Rises=F Damp=F
 DIIS: error= 3.79D-06 at cycle   6 NSaved=   6.
 NSaved= 6 IEnMin= 6 EnMin= -161.353297873890     IErMin= 6 ErrMin= 3.79D-06
 ErrMax= 3.79D-06  0.00D+00 EMaxC= 1.00D-01 BMatC= 1.59D-10 BMatP= 1.29D-08
 IDIUse=1 WtCom= 1.00D+00 WtEn= 0.00D+00
 Coeff-Com: -0.116D-02 0.231D-02-0.154D-01 0.349D+00-0.882D+00 0.155D+01
 Coeff:     -0.116D-02 0.231D-02-0.154D-01 0.349D+00-0.882D+00 0.155D+01
 Gap=     0.290 Goal=   None    Shift=    0.000
 RMSDP=7.74D-06 MaxDP=4.80D-05 DE=-1.30D-07 OVMax= 2.53D-07

 Cycle   7  Pass 1  IDiag  1:
 E= -161.353297875288     Delta-E=       -0.000000001398 Rises=F Damp=F
 DIIS: error= 2.87D-07 at cycle   7 NSaved=   7.
 NSaved= 7 IEnMin= 7 EnMin= -161.353297875288     IErMin= 7 ErrMin= 2.87D-07
 ErrMax= 2.87D-07  0.00D+00 EMaxC= 1.00D-01 BMatC= 8.55D-13 BMatP= 1.59D-10
 IDIUse=1 WtCom= 1.00D+00 WtEn= 0.00D+00
 Coeff-Com:  0.181D-04-0.453D-04 0.161D-02-0.470D-01 0.127D+00-0.244D+00
 Coeff-Com:  0.116D+01
 Coeff:      0.181D-04-0.453D-04 0.161D-02-0.470D-01 0.127D+00-0.244D+00
 Coeff:      0.116D+01
 Gap=     0.290 Goal=   None    Shift=    0.000
 RMSDP=5.40D-07 MaxDP=2.60D-06 DE=-1.40D-09 OVMax= 6.09D-08

 Cycle   8  Pass 1  IDiag  1:
 E= -161.353297875294     Delta-E=       -0.000000000006 Rises=F Damp=F
 DIIS: error= 1.87D-08 at cycle   8 NSaved=   8.
 NSaved= 8 IEnMin= 8 EnMin= -161.353297875294     IErMin= 8 ErrMin= 1.87D-08
 ErrMax= 1.87D-08  0.00D+00 EMaxC= 1.00D-01 BMatC= 3.40D-15 BMatP= 8.55D-13
 IDIUse=1 WtCom= 1.00D+00 WtEn= 0.00D+00
 Coeff-Com: -0.215D-04 0.438D-04-0.395D-03 0.949D-02-0.258D-01 0.509D-01
 Coeff-Com: -0.266D+00 0.123D+01
 Coeff:     -0.215D-04 0.438D-04-0.395D-03 0.949D-02-0.258D-01 0.509D-01
 Coeff:     -0.266D+00 0.123D+01
 Gap=     0.290 Goal=   None    Shift=    0.000
 RMSDP=3.40D-08 MaxDP=1.74D-07 DE=-6.34D-12 OVMax= 2.09D-09

 Cycle   9  Pass 1  IDiag  1:
 E= -161.353297875294     Delta-E=        0.000000000000 Rises=F Damp=F
 DIIS: error= 5.43D-09 at cycle   9 NSaved=   9.
 NSaved= 9 IEnMin= 8 EnMin= -161.353297875294     IErMin= 9 ErrMin= 5.43D-09
 ErrMax= 5.43D-09  0.00D+00 EMaxC= 1.00D-01 BMatC= 3.17D-16 BMatP= 3.40D-15
 IDIUse=1 WtCom= 1.00D+00 WtEn= 0.00D+00
 Coeff-Com:  0.445D-05-0.901D-05 0.690D-04-0.148D-02 0.416D-02-0.836D-02
 Coeff-Com:  0.385D-01-0.288D+00 0.125D+01
 Coeff:      0.445D-05-0.901D-05 0.690D-04-0.148D-02 0.416D-02-0.836D-02
 Coeff:      0.385D-01-0.288D+00 0.125D+01
 Gap=     0.290 Goal=   None    Shift=    0.000
 RMSDP=1.20D-08 MaxDP=6.38D-08 DE= 2.84D-14 OVMax= 2.28D-10

 Cycle  10  Pass 1  IDiag  1:
 E= -161.353297875294     Delta-E=        0.000000000000 Rises=F Damp=F
 DIIS: error= 9.94D-10 at cycle  10 NSaved=  10.
 NSaved=10 IEnMin= 8 EnMin= -161.353297875294     IErMin=10 ErrMin= 9.94D-10
 ErrMax= 9.94D-10  0.00D+00 EMaxC= 1.00D-01 BMatC= 1.12D-17 BMatP= 3.17D-16
 IDIUse=1 WtCom= 1.00D+00 WtEn= 0.00D+00
 Coeff-Com:  0.702D-08-0.128D-07 0.669D-06-0.397D-04 0.736D-04-0.106D-03
 Coeff-Com:  0.175D-02 0.923D-02-0.910D-01 0.108D+01
 Coeff:      0.702D-08-0.128D-07 0.669D-06-0.397D-04 0.736D-04-0.106D-03
 Coeff:      0.175D-02 0.923D-02-0.910D-01 0.108D+01
 Gap=     0.290 Goal=   None    Shift=    0.000
 RMSDP=1.74D-09 MaxDP=9.51D-09 DE= 0.00D+00 OVMax= 3.08D-11

 SCF Done:  E(RHF) =  -161.353297875     A.U. after   10 cycles
            NFock= 10  Conv=0.17D-08     -V/T= 2.0021
 KE= 1.610182839751D+02 PE=-3.957706172366D+02 EE= 6.976094206110D+01
 Leave Link  502 at Mon Mar 28 14:19:19 2022, MaxMem=  9663676416 cpu:               3.4 elap:               0.1
 (Enter /nopt/nrel/apps/gaussian/g16C_1/g16/l801.exe)
 Windowed orbitals will be sorted by symmetry type.
 ExpMin= 2.44D-02 ExpMax= 5.48D+02 ExpMxC= 5.48D+02 IAcc=3 IRadAn=         5 AccDes= 0.00D+00
 HarFok:  IExCor=  205 AccDes= 0.00D+00 IRadAn=         5 IDoV=-2 UseB2=F ITyADJ=14
 ICtDFT= 12500011 ScaDFX=  1.000000  1.000000  1.000000  1.000000
 Largest valence mixing into a core orbital is  5.98D-04
 Largest core mixing into a valence orbital is  9.42D-05
 Range of M.O.s used for correlation:     6    14
 NBasis=    14 NAE=     6 NBE=     6 NFC=     5 NFV=     0
 NROrb=      9 NOA=     1 NOB=     1 NVA=     8 NVB=     8
 Leave Link  801 at Mon Mar 28 14:19:19 2022, MaxMem=  9663676416 cpu:               2.0 elap:               0.1
 (Enter /nopt/nrel/apps/gaussian/g16C_1/g16/l804.exe)
 Closed-shell transformation, MDV=  9663676416 ITran=4 ISComp=2.
 Unit  1 TFree=          8118 TCopy=        116765.
 Semi-Direct transformation.
 ModeAB=           2 MOrb=             1 LenV=    9663555847
 LASXX=           88 LTotXX=          88 LenRXX=          88
 LTotAB=         141 MaxLAS=         945 LenRXY=         945
 NonZer=        1107 LenScr=      785920 LnRSAI=           0
 LnScr1=           0 LExtra=      220189 Total=      1007142
 MaxDsk= 34359738368 SrtSym=           F ITran=            4
 DoSDTr:  NPSUse= 36
 JobTyp=0 Pass  1:  I=   1 to   1.
 (rs|ai) integrals will be sorted in core.
 Complete sort for first half transformation.
 First half transformation complete.
 Complete sort for second half transformation.
 Second half transformation complete.
 Spin components of T(2) and E(2):
     alpha-alpha T2 =       0.0000000000D+00 E2=      0.0000000000D+00
     alpha-beta  T2 =       0.1304415608D-01 E2=     -0.1534204384D-01
     beta-beta   T2 =       0.0000000000D+00 E2=      0.0000000000D+00
 ANorm=    0.1006500947D+01
 E2 =    -0.1534204384D-01 EUMP2 =    -0.16136863991913D+03
 Leave Link  804 at Mon Mar 28 14:19:19 2022, MaxMem=  9663676416 cpu:               1.9 elap:               0.1
 (Enter /nopt/nrel/apps/gaussian/g16C_1/g16/l913.exe)
 CIDS:  MDV=  9663676416.
 Frozen-core window:  NFC=   5 NFV=   0.
 IFCWin=0 IBDFC=1 NFBD=     0     0 NFCmp=     0     0 NFFFC=     0     0
 Using DD3R+UMP44R for 1st iteration.
 Using DD4RQ for 2nd and later iterations.
 Keep R2 and R3 ints in memory in symmetry-blocked form, NReq=7215699.
 FoFCou: FMM=F IPFlag=           0 FMFlag=           0 FMFlg1=           0
         NFxFlg=           0 DoJE=F BraDBF=F KetDBF=F FulRan=T
         wScrn=  0.000000 ICntrl=       600 IOpCl=  0 I1Cent=           0 NGrid=           0
         NMat0=    1 NMatS0=    105 NMatT0=    0 NMatD0=    1 NMtDS0=    0 NMtDT0=    0
 Petite list used in FoFCou.
 CIDS: In Core Option IDoMem=           1.
 Coupled Cluster theory with single and double substitutions
 ===========================================================
 Iterations= 200 Convergence= 0.100D-06
 Produce multiple copies of IABC intergrals
 Iteration Nr.   1
 **********************
 DD1Dir will call FoFMem   1 times, MxPair=         2
 NAB=     1 NAA=     0 NBB=     0.
 MP4(R+Q)=  0.20012401D-03
 Maximum subspace dimension=  5
 A-vector RMS=  1.6678570D-02 Max=  2.6620559D-02 conv= 1.00D-05.
 RLE energy=       -0.0241126698
 E3=       -0.57848176D-02        EUMP3=      -0.16137442474D+03
 E4(DQ)=   -0.22298601D-02        UMP4(DQ)=   -0.16137665460D+03
 E4(SDQ)=  -0.23947996D-02        UMP4(SDQ)=  -0.16137681954D+03
 VARIATIONAL ENERGIES WITH THE FIRST-ORDER WAVEFUNCTION:
 DE(Corr)= -0.20922487E-01 E(Corr)=     -161.37422036    
 NORM(A)=   0.10165098D+01
 Iteration Nr.   2
 **********************
 DD1Dir will call FoFMem   1 times, MxPair=         2
 NAB=     1 NAA=     0 NBB=     0.
 A-vector RMS=  7.8203084D-03 Max=  7.3114701D-03 conv= 1.00D-05.
 RLE energy=       -0.0251350493
 DE(Corr)= -0.24599993E-01 E(CORR)=     -161.37789787     Delta=-3.68D-03
 NORM(A)=   0.10193156D+01
 Iteration Nr.   3
 **********************
 DD1Dir will call FoFMem   1 times, MxPair=         2
 NAB=     1 NAA=     0 NBB=     0.
 A-vector RMS=  5.0842560D-03 Max=  5.7284747D-03 conv= 1.00D-05.
 RLE energy=       -0.0254624421
 DE(Corr)= -0.25162053E-01 E(CORR)=     -161.37845993     Delta=-5.62D-04
 NORM(A)=   0.10218032D+01
 Iteration Nr.   4
 **********************
 DD1Dir will call FoFMem   1 times, MxPair=         2
 NAB=     1 NAA=     0 NBB=     0.
 A-vector RMS=  1.4618266D-03 Max=  1.8827359D-03 conv= 1.00D-05.
 RLE energy=       -0.0255699494
 DE(Corr)= -0.25486505E-01 E(CORR)=     -161.37878438     Delta=-3.24D-04
 NORM(A)=   0.10226909D+01
 Iteration Nr.   5
 **********************
 DD1Dir will call FoFMem   1 times, MxPair=         2
 NAB=     1 NAA=     0 NBB=     0.
 A-vector RMS=  5.4349267D-04 Max=  4.5716661D-04 conv= 1.00D-05.
 RLE energy=       -0.0255554241
 DE(Corr)= -0.25558475E-01 E(CORR)=     -161.37885635     Delta=-7.20D-05
 NORM(A)=   0.10227631D+01
 Iteration Nr.   6
 **********************
 DD1Dir will call FoFMem   1 times, MxPair=         2
 NAB=     1 NAA=     0 NBB=     0.
 A-vector RMS=  2.0961280D-04 Max=  2.1489337D-04 conv= 1.00D-05.
 RLE energy=       -0.0255533238
 DE(Corr)= -0.25555887E-01 E(CORR)=     -161.37885376     Delta= 2.59D-06
 NORM(A)=   0.10227688D+01
 Iteration Nr.   7
 **********************
 DD1Dir will call FoFMem   1 times, MxPair=         2
 NAB=     1 NAA=     0 NBB=     0.
 A-vector RMS=  5.0585894D-05 Max=  5.3789366D-05 conv= 1.00D-05.
 RLE energy=       -0.0255573956
 DE(Corr)= -0.25555393E-01 E(CORR)=     -161.37885327     Delta= 4.94D-07
 NORM(A)=   0.10227794D+01
 Iteration Nr.   8
 **********************
 DD1Dir will call FoFMem   1 times, MxPair=         2
 NAB=     1 NAA=     0 NBB=     0.
 A-vector RMS=  7.4859841D-06 Max=  5.2345355D-06 conv= 1.00D-05.
 RLE energy=       -0.0255566399
 DE(Corr)= -0.25556968E-01 E(CORR)=     -161.37885484     Delta=-1.57D-06
 NORM(A)=   0.10227765D+01
 Iteration Nr.   9
 **********************
 DD1Dir will call FoFMem   1 times, MxPair=         2
 NAB=     1 NAA=     0 NBB=     0.
 A-vector RMS=  3.0914423D-06 Max=  3.4425326D-06 conv= 1.00D-05.
 RLE energy=       -0.0255568478
 DE(Corr)= -0.25556734E-01 E(CORR)=     -161.37885461     Delta= 2.34D-07
 NORM(A)=   0.10227770D+01
 Iteration Nr.  10
 **********************
 DD1Dir will call FoFMem   1 times, MxPair=         2
 NAB=     1 NAA=     0 NBB=     0.
 A-vector RMS=  1.4839612D-06 Max=  1.6093798D-06 conv= 1.00D-05.
 RLE energy=       -0.0255568134
 DE(Corr)= -0.25556815E-01 E(CORR)=     -161.37885469     Delta=-8.06D-08
 NORM(A)=   0.10227771D+01
 CI/CC converged in   10 iterations to DelEn=-8.06D-08 Conv= 1.00D-07 ErrA1= 1.48D-06 Conv= 1.00D-05
 Wavefunction amplitudes converged. E(Corr)=     -161.37885469    
 Dominant configurations:
 ***********************
 Spin Case        I    J    A    B          Value
   ABAB           6    6   14   14      -0.111232D+00
 Largest amplitude= 1.11D-01
 Discarding MO integrals.
 Leave Link  913 at Mon Mar 28 14:19:20 2022, MaxMem=  9663676416 cpu:               3.9 elap:               0.1
 (Enter /nopt/nrel/apps/gaussian/g16C_1/g16/l601.exe)
 Copying SCF densities to generalized density rwf, IOpCl= 0 IROHF=0.

 **********************************************************************

            Population analysis using the SCF Density.

 **********************************************************************

 Orbital symmetries:
       Occupied  (SG) (SG) (SG) (PI) (PI) (SG)
       Virtual   (SG) (PI) (PI) (SG) (SG) (PI) (PI) (SG)
 The electronic state is 1-SG.
 Alpha  occ. eigenvalues --  -40.18458  -2.74945  -1.46860  -1.46492  -1.46492
 Alpha  occ. eigenvalues --   -0.28275
 Alpha virt. eigenvalues --    0.00747   0.04360   0.04360   0.10043   0.13607
 Alpha virt. eigenvalues --    0.17295   0.17295   0.47299
          Condensed to atoms (all electrons):
               1          2
     1  H    0.627541   0.354063
     2  Na   0.354063  10.664334
 Mulliken charges:
               1
     1  H    0.018397
     2  Na  -0.018397
 Sum of Mulliken charges =  -0.00000
 Mulliken charges with hydrogens summed into heavy atoms:
               1
     2  Na  -0.000000
 N-N= 3.638093325075D+00 E-N=-3.957706172302D+02  KE= 1.610182839751D+02
 Symmetry A1   KE= 1.379610480568D+02
 Symmetry A2   KE= 0.000000000000D+00
 Symmetry B1   KE= 1.152861795917D+01
 Symmetry B2   KE= 1.152861795917D+01

 Atomic contributions to Alpha molecular orbitals:
 Alpha occ 1 OE=-40.185 is Na2-s=1.0000
 Alpha occ 2 OE=-2.749 is Na2-s=0.9995
 Alpha occ 3 OE=-1.469 is Na2-p=0.9961
 Alpha occ 4 OE=-1.465 is Na2-p=1.0000
 Alpha occ 5 OE=-1.465 is Na2-p=1.0000
 Alpha occ 6 OE=-0.283 is H1-s=0.4868 Na2-s=0.3508 Na2-p=0.1625
 Alpha vir 7 OE=0.007 is Na2-p=0.5049 Na2-s=0.4767
 Alpha vir 8 OE=0.044 is Na2-p=1.0000
 Alpha vir 9 OE=0.044 is Na2-p=1.0000
 Alpha vir 10 OE=0.100 is Na2-p=0.7128 Na2-s=0.2453
 Alpha vir 11 OE=0.136 is Na2-s=0.7320 Na2-p=0.2668
 Alpha vir 12 OE=0.173 is Na2-p=1.0000
 Alpha vir 13 OE=0.173 is Na2-p=1.0000
 Alpha vir 14 OE=0.473 is H1-s=0.4477 Na2-p=0.3568 Na2-s=0.1955
 
 Leave Link  601 at Mon Mar 28 14:19:20 2022, MaxMem=  9663676416 cpu:               0.9 elap:               0.0
 (Enter /nopt/nrel/apps/gaussian/g16C_1/g16/l9999.exe)

 Test job not archived.
 1\1\GINC-R102U34\SP\RCCSD-FC\Gen\H1Na1\USER\28-Mar-2022\0\\#P CCSD
 (MaxCyc=200,SaveAmplitudes,ReadAmplitudes)/GEN sp pop=AllOrbitals iop(
 3/33=1,3/36=-1)\\test\\0,1\H,0,0.,0.,0.\Na,0,0.,0.,1.6\\Version=ES64L-
 G16RevC.01\State=1-SG\HF=-161.3532979\MP2=-161.3686399\MP3=-161.374424
 7\MP4D=-161.3768547\MP4DQ=-161.3766546\MP4SDQ=-161.3768195\CCSD=-161.3
 788547\RMSD=1.741e-09\PG=C*V [C*(H1Na1)]\\@


 ... A MOLECULAR SYSTEM ... (PASSES) ... FROM ONE STATE OF EQUILIBRIUM 
 TO ANOTHER ... BY MEANS OF ALL POSSIBLE INTERMEDIATE PATHS, 
 BUT THE PATH MOST ECONOMICAL OF ENERGY WILL BE THE MORE OFTEN TRAVELED.

                      -- HENRY EYRING, 1945
 Job cpu time:       0 days  0 hours  0 minutes 30.1 seconds.
 Elapsed time:       0 days  0 hours  0 minutes  1.2 seconds.
 File lengths (MBytes):  RWF=     13 Int=      0 D2E=      0 Chk=      1 Scr=      1
 Normal termination of Gaussian 16 at Mon Mar 28 14:19:20 2022.
