 Entering Gaussian System, Link 0=g16
 Initial command:
 /nopt/nrel/apps/gaussian/g16C_1/g16/l1.exe "/lustre/eaglefs/scratch/user/qc/lih-dissc/lih-1-ccsd-0.5-sto3g/Gau-10768.inp" -scrdir="/lustre/eaglefs/scratch/user/qc/lih-dissc/lih-1-ccsd-0.5-sto3g/"
 Default is to use a total of  36 processors:
                               36 via shared-memory
                                1 via Linda
 Entering Link 1 = /nopt/nrel/apps/gaussian/g16C_1/g16/l1.exe PID=     10769.
  
 Copyright (c) 1988-2019, Gaussian, Inc.  All Rights Reserved.
  
 This is part of the Gaussian(R) 16 program.  It is based on
 the Gaussian(R) 09 system (copyright 2009, Gaussian, Inc.),
 the Gaussian(R) 03 system (copyright 2003, Gaussian, Inc.),
 the Gaussian(R) 98 system (copyright 1998, Gaussian, Inc.),
 the Gaussian(R) 94 system (copyright 1995, Gaussian, Inc.),
 the Gaussian 92(TM) system (copyright 1992, Gaussian, Inc.),
 the Gaussian 90(TM) system (copyright 1990, Gaussian, Inc.),
 the Gaussian 88(TM) system (copyright 1988, Gaussian, Inc.),
 the Gaussian 86(TM) system (copyright 1986, Carnegie Mellon
 University), and the Gaussian 82(TM) system (copyright 1983,
 Carnegie Mellon University). Gaussian is a federally registered
 trademark of Gaussian, Inc.
  
 This software contains proprietary and confidential information,
 including trade secrets, belonging to Gaussian, Inc.
  
 This software is provided under written license and may be
 used, copied, transmitted, or stored only in accord with that
 written license.
  
 The following legend is applicable only to US Government
 contracts under FAR:
  
                    RESTRICTED RIGHTS LEGEND
  
 Use, reproduction and disclosure by the US Government is
 subject to restrictions as set forth in subparagraphs (a)
 and (c) of the Commercial Computer Software - Restricted
 Rights clause in FAR 52.227-19.
  
 Gaussian, Inc.
 340 Quinnipiac St., Bldg. 40, Wallingford CT 06492
  
  
 ---------------------------------------------------------------
 Warning -- This program may not be used in any manner that
 competes with the business of Gaussian, Inc. or will provide
 assistance to any competitor of Gaussian, Inc.  The licensee
 of this program is prohibited from giving any competitor of
 Gaussian, Inc. access to this program.  By using this program,
 the user acknowledges that Gaussian, Inc. is engaged in the
 business of creating and licensing software in the field of
 computational chemistry and represents and warrants to the
 licensee that it is not a competitor of Gaussian, Inc. and that
 it will not use this program in any manner prohibited above.
 ---------------------------------------------------------------
  

 Cite this work as:
 Gaussian 16, Revision C.01,
 M. J. Frisch, G. W. Trucks, H. B. Schlegel, G. E. Scuseria, 
 M. A. Robb, J. R. Cheeseman, G. Scalmani, V. Barone, 
 G. A. Petersson, H. Nakatsuji, X. Li, M. Caricato, A. V. Marenich, 
 J. Bloino, B. G. Janesko, R. Gomperts, B. Mennucci, H. P. Hratchian, 
 J. V. Ortiz, A. F. Izmaylov, J. L. Sonnenberg, D. Williams-Young, 
 F. Ding, F. Lipparini, F. Egidi, J. Goings, B. Peng, A. Petrone, 
 T. Henderson, D. Ranasinghe, V. G. Zakrzewski, J. Gao, N. Rega, 
 G. Zheng, W. Liang, M. Hada, M. Ehara, K. Toyota, R. Fukuda, 
 J. Hasegawa, M. Ishida, T. Nakajima, Y. Honda, O. Kitao, H. Nakai, 
 T. Vreven, K. Throssell, J. A. Montgomery, Jr., J. E. Peralta, 
 F. Ogliaro, M. J. Bearpark, J. J. Heyd, E. N. Brothers, K. N. Kudin, 
 V. N. Staroverov, T. A. Keith, R. Kobayashi, J. Normand, 
 K. Raghavachari, A. P. Rendell, J. C. Burant, S. S. Iyengar, 
 J. Tomasi, M. Cossi, J. M. Millam, M. Klene, C. Adamo, R. Cammi, 
 J. W. Ochterski, R. L. Martin, K. Morokuma, O. Farkas, 
 J. B. Foresman, and D. J. Fox, Gaussian, Inc., Wallingford CT, 2019.
 
 ******************************************
 Gaussian 16:  ES64L-G16RevC.01  3-Jul-2019
                28-Mar-2022 
 ******************************************
 %chk=molecule
 Default route: CacheSize=180224 MaxDisk=256GB
 ----------------------------------------------------------------------
 #P CCSD(MaxCyc=200,SaveAmplitudes,ReadAmplitudes)/GEN sp pop=AllOrbita
 ls iop(3/33=1,3/36=-1)
 ----------------------------------------------------------------------
 1/4=180224,38=1,172=1/1;
 2/4=180224,12=2,17=6,18=5,40=1/2;
 3/4=180224,5=7,11=9,25=1,30=1,33=1,36=-1/1,2,3;
 4/4=180224/1;
 5/4=180224,5=2,38=5/2;
 8/4=180224,6=4,9=120000,10=1,24=1/1,4;
 9/4=180224,5=7,6=200,77=1/13;
 6/4=180224,7=2,8=2,9=2,10=2,96=-1/1;
 99/4=180224,5=1,9=1/99;
 Leave Link    1 at Mon Mar 28 13:59:00 2022, MaxMem=           0 cpu:               2.0 elap:               0.1
 (Enter /nopt/nrel/apps/gaussian/g16C_1/g16/l101.exe)
 ----
 test
 ----
 Symbolic Z-matrix:
 Charge =  0 Multiplicity = 1
 H                     0.        0.        0. 
 Li                    0.        0.        0.5 
 
 ITRead=  0  0
 MicOpt= -1 -1
 NAtoms=      2 NQM=        2 NQMF=       0 NMMI=      0 NMMIF=      0
                NMic=       0 NMicF=      0.
                    Isotopes and Nuclear Properties:
 (Nuclear quadrupole moments (NQMom) in fm**2, nuclear magnetic moments (NMagM)
  in nuclear magnetons)

  Atom         1           2
 IAtWgt=           1           7
 AtmWgt=   1.0078250   7.0160045
 NucSpn=           1           3
 AtZEff=  -0.0000000  -0.0000000
 NQMom=    0.0000000  -4.0100000
 NMagM=    2.7928460   3.2564240
 AtZNuc=   1.0000000   3.0000000
 Leave Link  101 at Mon Mar 28 13:59:00 2022, MaxMem=  9663676416 cpu:               2.9 elap:               0.1
 (Enter /nopt/nrel/apps/gaussian/g16C_1/g16/l202.exe)
                          Input orientation:                          
 ---------------------------------------------------------------------
 Center     Atomic      Atomic             Coordinates (Angstroms)
 Number     Number       Type             X           Y           Z
 ---------------------------------------------------------------------
      1          1           0        0.000000    0.000000    0.000000
      2          3           0        0.000000    0.000000    0.500000
 ---------------------------------------------------------------------
 Stoichiometry    HLi
 Framework group  C*V[C*(HLi)]
 Deg. of freedom     1
 Full point group                 C*V     NOp   4
 Largest Abelian subgroup         C2V     NOp   4
 Largest concise Abelian subgroup C1      NOp   1
                         Standard orientation:                         
 ---------------------------------------------------------------------
 Center     Atomic      Atomic             Coordinates (Angstroms)
 Number     Number       Type             X           Y           Z
 ---------------------------------------------------------------------
      1          1           0        0.000000    0.000000   -0.375000
      2          3           0        0.000000    0.000000    0.125000
 ---------------------------------------------------------------------
 Rotational constants (GHZ):           0.0000000        2293.9496568        2293.9496568
 Leave Link  202 at Mon Mar 28 13:59:00 2022, MaxMem=  9663676416 cpu:               0.5 elap:               0.0
 (Enter /nopt/nrel/apps/gaussian/g16C_1/g16/l301.exe)
 General basis read from cards:  (5D, 7F)
                         Coordinates in L301:                         
 ---------------------------------------------------------------------
 Center     Atomic      Atomic             Coordinates (Angstroms)
 Number     Number       Type             X           Y           Z
 ---------------------------------------------------------------------
      1          1           0        0.000000    0.000000   -0.375000
      2          3           0        0.000000    0.000000    0.125000
 ---------------------------------------------------------------------
 Centers:       1
 STO-3G
 ****
 Centers:       2
 STO-3G
 ****
 FixB: optimizing general contractions.
 Ernie: Thresh=  0.10000D-02 Tol=  0.10000D-05 Strict=F.
 IA=     1 ShT= 0 ShC= 0 NL=   1 NS=   0.
 IA=     1 L=0 SC=0 ISt=    0 NBk=    0 NP=    0 IndPr=    0.
 IA=     2 ShT= 0 ShC= 0 NL=   1 NS=   0.
 IA=     2 L=0 SC=0 ISt=    0 NBk=    0 NP=    0 IndPr=    0.
 IA=     2 ShT= 1 ShC= 0 NL=   1 NS=   0.
 IA=     2 L=1 SC=0 ISt=    0 NBk=    0 NP=    0 IndPr=    0.
 LdAtmC:  AtmChg=     1.000000     3.000000
 AtZEff=     -1.0000000     -1.3500000
 NEqShl: 
              1            2            3            4
     1            1            1            1            1
     2            2            2            2            2
     3            3            3            3            3
 NEqBas: 
              1            2            3            4
     1            1            1            1            1
     2            2            2            2            2
     3            3            3            3            3
     4            4           -4           -4            4
     5            5           -5            5           -5
     6            6            6            6            6
 There are     4 symmetry adapted cartesian basis functions of A1  symmetry.
   1         1   1   1   1
   2         2   2   2   2
   3         3   3   3   3
   4         6   6   6   6
 There are     0 symmetry adapted cartesian basis functions of A2  symmetry.
 There are     1 symmetry adapted cartesian basis functions of B1  symmetry.
   5         4   4   4   4
 There are     1 symmetry adapted cartesian basis functions of B2  symmetry.
   6         5   5   5   5
 Order= 1 2 4 3
 Reordered character table:
              1            2            3            4            5
     1            1            1            1            1            1
     2            2            1            1           -1           -1
     3            4            1           -1           -1            1
     4            3            1           -1            1           -1
 NEqShl: 
              1            2            3            4
     1            1            1            1            1
     2            2            2            2            2
     3            3            3            3            3
 NEqBas: 
              1            2            3            4
     1            1            1            1            1
     2            2            2            2            2
     3            3            3            3            3
     4            4           -4           -4            4
     5            5           -5            5           -5
     6            6            6            6            6
 There are     4 symmetry adapted basis functions of A1  symmetry.
   1         1   1   1   1
   2         2   2   2   2
   3         3   3   3   3
   4         6   6   6   6
 There are     0 symmetry adapted basis functions of A2  symmetry.
 There are     1 symmetry adapted basis functions of B1  symmetry.
   5         4   4   4   4
 There are     1 symmetry adapted basis functions of B2  symmetry.
   6         5   5   5   5
 Order= 1 2 4 3
 Reordered character table:
              1            2            3            4            5
     1            1            1            1            1            1
     2            2            1            1           -1           -1
     3            4            1           -1           -1            1
     4            3            1           -1            1           -1
     6 basis functions,    18 primitive gaussians,     6 cartesian basis functions
     2 alpha electrons        2 beta electrons
       nuclear repulsion energy         3.1750632655 Hartrees.
 IS=     1 IAt=     1 ISR=     1 T=0 IP=      1 IndIP=      1 IndIPD=      0 C=  2.769344D-01  0.000000D+00                             NZ=T
 IS=     1 IAt=     1 ISR=     1 T=0 IP=      2 IndIP=      2 IndIPD=      1 C=  2.678389D-01  0.000000D+00                             NZ=T
 IS=     1 IAt=     1 ISR=     1 T=0 IP=      3 IndIP=      3 IndIPD=      2 C=  8.347367D-02  0.000000D+00                             NZ=T
 IS=     2 IAt=     2 ISR=     1 T=0 IP=      1 IndIP=      4 IndIPD=      0 C=  8.848563D-01  0.000000D+00                             NZ=T
 IS=     2 IAt=     2 ISR=     1 T=0 IP=      2 IndIP=      5 IndIPD=      1 C=  8.557945D-01  0.000000D+00                             NZ=T
 IS=     2 IAt=     2 ISR=     1 T=0 IP=      3 IndIP=      6 IndIPD=      2 C=  2.667138D-01  0.000000D+00                             NZ=T
 IS=     3 IAt=     2 ISR=     2 T=1 IP=      1 IndIP=      7 IndIPD=      0 C= -5.075852D-02  1.262991D-01                             NZ=T
 IS=     3 IAt=     2 ISR=     2 T=1 IP=      2 IndIP=      8 IndIPD=      1 C=  6.789362D-02  7.942025D-02                             NZ=T
 IS=     3 IAt=     2 ISR=     2 T=1 IP=      3 IndIP=      9 IndIPD=      2 C=  5.124033D-02  1.258150D-02                             NZ=T
 IExCor=    0 DFT=F Ex=HF Corr=None ExCW=0 ScaHFX=  1.000000
 ScaDFX=  1.000000  1.000000  1.000000  1.000000 ScalE2=  1.000000  1.000000
 IRadAn=      5 IRanWt=     -1 IRanGd=            0 ICorTp=0 IEmpDi=  4
 NAtoms=    2 NActive=    2 NUniq=    2 SFac= 1.00D+00 NAtFMM=   60 NAOKFM=F Big=F
 Integral buffers will be    131072 words long.
 Raffenetti 1 integral format.
 Two-electron integral symmetry is turned on.
 Leave Link  301 at Mon Mar 28 13:59:00 2022, MaxMem=  9663676416 cpu:               2.0 elap:               0.1
 (Enter /nopt/nrel/apps/gaussian/g16C_1/g16/l302.exe)
 NPDir=0 NMtPBC=     1 NCelOv=     1 NCel=       1 NClECP=     1 NCelD=      1
         NCelK=      1 NCelE2=     1 NClLst=     1 CellRange=     0.0.
 One-electron integrals computed using PRISM.
 One-electron integral symmetry used in STVInt
 Entering OneElI...
 Calculate overlap and kinetic energy integrals
    NBasis =   6  MinDer = 0  MaxDer = 0
 Requested accuracy = 0.1000D-12
 Symmetry will be used
 PrmmSu-InSpLW:  IPartL=    0 NPrtUS=   36 NPrtUL=    1 DoSpLW=F IThBeg=    0 IThEnd=   35 NThAct=   36.
 PrSmSu:  IncTry=   512 NBBP=              6 NTPThr=   100 NPartT=   36 Incr=           1 LDynOK=F GPUOK=F.
 PrsmSu:  NPrtUS=  36 ThrOK=T IAlg=1 LenDen=           0 ISkipM=0 DoSpLW=F IThBeg=    0 IThEnd=   35.
 Prism:   IPart=     0 DynPar=F LinDyn=F Incr=           1.
 PRISM was handed   268434353 working-precision words and     6 shell-pairs
 PRISM was handed   268434353 working-precision words and     6 shell-pairs
 PRISM was handed   268434353 working-precision words and     6 shell-pairs
 PRISM was handed   268434353 working-precision words and     6 shell-pairs
 PRISM was handed   268434353 working-precision words and     6 shell-pairs
 PRISM was handed   268434353 working-precision words and     6 shell-pairs
 PRISM was handed   268434353 working-precision words and     6 shell-pairs
 PRISM was handed   268434353 working-precision words and     6 shell-pairs
 PRISM was handed   268434353 working-precision words and     6 shell-pairs
 PRISM was handed   268434353 working-precision words and     6 shell-pairs
 PRISM was handed   268434353 working-precision words and     6 shell-pairs
 PRISM was handed   268434353 working-precision words and     6 shell-pairs
 IPart=  6 NShTot=           0 NBatch=           0 AvBLen=         0.0
 PRISM was handed   268434353 working-precision words and     6 shell-pairs
 IPart= 20 NShTot=           0 NBatch=           0 AvBLen=         0.0
 IPart= 34 NShTot=           0 NBatch=           0 AvBLen=         0.0
 IPart= 19 NShTot=           0 NBatch=           0 AvBLen=         0.0
 IPart= 10 NShTot=           0 NBatch=           0 AvBLen=         0.0
 IPart=  4 NShTot=           0 NBatch=           0 AvBLen=         0.0
 PRISM was handed   268434353 working-precision words and     6 shell-pairs
 PRISM was handed   268434353 working-precision words and     6 shell-pairs
 PRISM was handed   268434353 working-precision words and     6 shell-pairs
 IPart= 32 NShTot=           0 NBatch=           0 AvBLen=         0.0
 IPart= 22 NShTot=           0 NBatch=           0 AvBLen=         0.0
 IPart= 29 NShTot=           0 NBatch=           0 AvBLen=         0.0
 IPart=  7 NShTot=           0 NBatch=           0 AvBLen=         0.0
 IPart= 15 NShTot=           0 NBatch=           0 AvBLen=         0.0
 IPart= 35 NShTot=           0 NBatch=           0 AvBLen=         0.0
 IPart= 23 NShTot=           0 NBatch=           0 AvBLen=         0.0
 PRISM was handed   268434353 working-precision words and     6 shell-pairs
 PRISM was handed   268434353 working-precision words and     6 shell-pairs
 IPart= 27 NShTot=           0 NBatch=           0 AvBLen=         0.0
 PRISM was handed   268434353 working-precision words and     6 shell-pairs
 IPart=  2 NShTot=           1 NBatch=           1 AvBLen=         1.0
 PRISM was handed   268434353 working-precision words and     6 shell-pairs
 IPart= 11 NShTot=           0 NBatch=           0 AvBLen=         0.0
 IPart=  0 NShTot=           3 NBatch=           3 AvBLen=         1.0
 PRISM was handed   268434353 working-precision words and     6 shell-pairs
 IPart= 30 NShTot=           0 NBatch=           0 AvBLen=         0.0
 IPart= 16 NShTot=           0 NBatch=           0 AvBLen=         0.0
 PRISM was handed   268434353 working-precision words and     6 shell-pairs
 PRISM was handed   268434353 working-precision words and     6 shell-pairs
 IPart= 24 NShTot=           0 NBatch=           0 AvBLen=         0.0
 IPart= 26 NShTot=           0 NBatch=           0 AvBLen=         0.0
 PRISM was handed   268434353 working-precision words and     6 shell-pairs
 PRISM was handed   268434353 working-precision words and     6 shell-pairs
 PRISM was handed   268434353 working-precision words and     6 shell-pairs
 PRISM was handed   268434353 working-precision words and     6 shell-pairs
 PRISM was handed   268434353 working-precision words and     6 shell-pairs
 PRISM was handed   268434353 working-precision words and     6 shell-pairs
 IPart=  8 NShTot=           0 NBatch=           0 AvBLen=         0.0
 IPart= 17 NShTot=           0 NBatch=           0 AvBLen=         0.0
 PRISM was handed   268434353 working-precision words and     6 shell-pairs
 IPart= 14 NShTot=           0 NBatch=           0 AvBLen=         0.0
 IPart= 31 NShTot=           0 NBatch=           0 AvBLen=         0.0
 IPart= 18 NShTot=           0 NBatch=           0 AvBLen=         0.0
 IPart= 25 NShTot=           0 NBatch=           0 AvBLen=         0.0
 IPart=  5 NShTot=           0 NBatch=           0 AvBLen=         0.0
 IPart=  1 NShTot=           2 NBatch=           2 AvBLen=         1.0
 PRISM was handed   268434353 working-precision words and     6 shell-pairs
 PRISM was handed   268434353 working-precision words and     6 shell-pairs
 PRISM was handed   268434353 working-precision words and     6 shell-pairs
 PRISM was handed   268434353 working-precision words and     6 shell-pairs
 PRISM was handed   268434353 working-precision words and     6 shell-pairs
 IPart= 21 NShTot=           0 NBatch=           0 AvBLen=         0.0
 PRISM was handed   268434353 working-precision words and     6 shell-pairs
 IPart= 28 NShTot=           0 NBatch=           0 AvBLen=         0.0
 IPart= 12 NShTot=           0 NBatch=           0 AvBLen=         0.0
 IPart=  9 NShTot=           0 NBatch=           0 AvBLen=         0.0
 IPart= 33 NShTot=           0 NBatch=           0 AvBLen=         0.0
 IPart= 13 NShTot=           0 NBatch=           0 AvBLen=         0.0
 IPart=  3 NShTot=           0 NBatch=           0 AvBLen=         0.0
 PrSmSu:  NxtVal=             37.
 *** Overlap *** 
                1             2             3             4             5 
      1  0.100000D+01
      2  0.535801D+00  0.100000D+01
      3  0.610564D+00  0.241137D+00  0.100000D+01
      4  0.000000D+00  0.000000D+00  0.000000D+00  0.100000D+01
      5  0.000000D+00  0.000000D+00  0.000000D+00  0.000000D+00  0.100000D+01
      6 -0.377257D+00  0.000000D+00  0.000000D+00  0.000000D+00  0.000000D+00
                6 
      6  0.100000D+01
 *** Kinetic Energy *** 
                1             2             3             4             5 
      1  0.760032D+00
      2  0.388893D+00  0.357679D+01
      3  0.830580D-01 -0.202374D-01  0.102163D+00
      4  0.000000D+00  0.000000D+00  0.000000D+00  0.319682D+00
      5  0.000000D+00  0.000000D+00  0.000000D+00  0.000000D+00  0.319682D+00
      6 -0.230417D+00  0.000000D+00  0.000000D+00  0.000000D+00  0.000000D+00
                6 
      6  0.319682D+00
 Entering OneElI...
 Calculate potential energy integrals
    NBasis =   6  MinDer = 0  MaxDer = 0
 Requested accuracy = 0.1000D-12
 Symmetry will be used
 PrmmSu-InSpLW:  IPartL=    0 NPrtUS=   36 NPrtUL=    1 DoSpLW=F IThBeg=    0 IThEnd=   35 NThAct=   36.
 PrSmSu:  IncTry=   512 NBBP=             12 NTPThr=   100 NPartT=   36 Incr=           1 LDynOK=F GPUOK=F.
 PrsmSu:  NPrtUS=  36 ThrOK=T IAlg=1 LenDen=           0 ISkipM=0 DoSpLW=F IThBeg=    0 IThEnd=   35.
 Prism:   IPart=     0 DynPar=F LinDyn=F Incr=           1.
 PRISM was handed   268434362 working-precision words and     6 shell-pairs
 PRISM was handed   268434362 working-precision words and     6 shell-pairs
 PRISM was handed   268434362 working-precision words and     6 shell-pairs
 PRISM was handed   268434362 working-precision words and     6 shell-pairs
 PRISM was handed   268434362 working-precision words and     6 shell-pairs
 PRISM was handed   268434362 working-precision words and     6 shell-pairs
 PRISM was handed   268434362 working-precision words and     6 shell-pairs
 PRISM was handed   268434362 working-precision words and     6 shell-pairs
 PRISM was handed   268434362 working-precision words and     6 shell-pairs
 PRISM was handed   268434362 working-precision words and     6 shell-pairs
 PRISM was handed   268434362 working-precision words and     6 shell-pairs
 PRISM was handed   268434362 working-precision words and     6 shell-pairs
 PRISM was handed   268434362 working-precision words and     6 shell-pairs
 PRISM was handed   268434362 working-precision words and     6 shell-pairs
 PRISM was handed   268434362 working-precision words and     6 shell-pairs
 PRISM was handed   268434362 working-precision words and     6 shell-pairs
 PRISM was handed   268434362 working-precision words and     6 shell-pairs
 PRISM was handed   268434362 working-precision words and     6 shell-pairs
 PRISM was handed   268434362 working-precision words and     6 shell-pairs
 PRISM was handed   268434362 working-precision words and     6 shell-pairs
 PRISM was handed   268434362 working-precision words and     6 shell-pairs
 PRISM was handed   268434362 working-precision words and     6 shell-pairs
 PRISM was handed   268434362 working-precision words and     6 shell-pairs
 PRISM was handed   268434362 working-precision words and     6 shell-pairs
 PRISM was handed   268434362 working-precision words and     6 shell-pairs
 PRISM was handed   268434362 working-precision words and     6 shell-pairs
 PRISM was handed   268434362 working-precision words and     6 shell-pairs
 PRISM was handed   268434362 working-precision words and     6 shell-pairs
 PRISM was handed   268434362 working-precision words and     6 shell-pairs
 PRISM was handed   268434362 working-precision words and     6 shell-pairs
 PRISM was handed   268434362 working-precision words and     6 shell-pairs
 PRISM was handed   268434362 working-precision words and     6 shell-pairs
 PRISM was handed   268434362 working-precision words and     6 shell-pairs
 PRISM was handed   268434362 working-precision words and     6 shell-pairs
 PRISM was handed   268434362 working-precision words and     6 shell-pairs
 PRISM was handed   268434362 working-precision words and     6 shell-pairs
 IPart=  2 NShTot=           2 NBatch=           1 AvBLen=         2.0
 IPart=  1 NShTot=           4 NBatch=           2 AvBLen=         2.0
 IPart=  0 NShTot=           6 NBatch=           3 AvBLen=         2.0
 IPart= 20 NShTot=           0 NBatch=           0 AvBLen=         0.0
 IPart= 13 NShTot=           0 NBatch=           0 AvBLen=         0.0
 IPart= 15 NShTot=           0 NBatch=           0 AvBLen=         0.0
 IPart= 24 NShTot=           0 NBatch=           0 AvBLen=         0.0
 IPart= 34 NShTot=           0 NBatch=           0 AvBLen=         0.0
 IPart=  8 NShTot=           0 NBatch=           0 AvBLen=         0.0
 IPart= 23 NShTot=           0 NBatch=           0 AvBLen=         0.0
 IPart= 29 NShTot=           0 NBatch=           0 AvBLen=         0.0
 IPart= 33 NShTot=           0 NBatch=           0 AvBLen=         0.0
 IPart=  9 NShTot=           0 NBatch=           0 AvBLen=         0.0
 IPart= 10 NShTot=           0 NBatch=           0 AvBLen=         0.0
 IPart= 19 NShTot=           0 NBatch=           0 AvBLen=         0.0
 IPart= 11 NShTot=           0 NBatch=           0 AvBLen=         0.0
 IPart= 35 NShTot=           0 NBatch=           0 AvBLen=         0.0
 IPart= 30 NShTot=           0 NBatch=           0 AvBLen=         0.0
 IPart= 26 NShTot=           0 NBatch=           0 AvBLen=         0.0
 IPart= 21 NShTot=           0 NBatch=           0 AvBLen=         0.0
 IPart= 32 NShTot=           0 NBatch=           0 AvBLen=         0.0
 IPart= 27 NShTot=           0 NBatch=           0 AvBLen=         0.0
 IPart= 22 NShTot=           0 NBatch=           0 AvBLen=         0.0
 IPart= 31 NShTot=           0 NBatch=           0 AvBLen=         0.0
 IPart=  3 NShTot=           0 NBatch=           0 AvBLen=         0.0
 IPart= 12 NShTot=           0 NBatch=           0 AvBLen=         0.0
 IPart=  7 NShTot=           0 NBatch=           0 AvBLen=         0.0
 IPart= 14 NShTot=           0 NBatch=           0 AvBLen=         0.0
 IPart=  4 NShTot=           0 NBatch=           0 AvBLen=         0.0
 IPart= 17 NShTot=           0 NBatch=           0 AvBLen=         0.0
 IPart=  6 NShTot=           0 NBatch=           0 AvBLen=         0.0
 IPart= 28 NShTot=           0 NBatch=           0 AvBLen=         0.0
 IPart= 25 NShTot=           0 NBatch=           0 AvBLen=         0.0
 IPart=  5 NShTot=           0 NBatch=           0 AvBLen=         0.0
 IPart= 18 NShTot=           0 NBatch=           0 AvBLen=         0.0
 IPart= 16 NShTot=           0 NBatch=           0 AvBLen=         0.0
 PrSmSu:  NxtVal=             37.
 ***** Potential Energy ***** 
                1             2             3             4             5 
      1  0.373784D+01
      2  0.324467D+01  0.901793D+01
      3  0.159145D+01  0.117728D+01  0.159933D+01
      4  0.000000D+00  0.000000D+00  0.000000D+00  0.157094D+01
      5  0.000000D+00  0.000000D+00  0.000000D+00  0.000000D+00  0.157094D+01
      6 -0.107338D+01 -0.815485D-01 -0.102522D+00  0.000000D+00  0.000000D+00
                6 
      6  0.163008D+01
 ****** Core Hamiltonian ****** 
                1             2             3             4             5 
      1 -0.297781D+01
      2 -0.285577D+01 -0.544114D+01
      3 -0.150839D+01 -0.119752D+01 -0.149716D+01
      4  0.000000D+00  0.000000D+00  0.000000D+00 -0.125126D+01
      5  0.000000D+00  0.000000D+00  0.000000D+00  0.000000D+00 -0.125126D+01
      6  0.842966D+00  0.815485D-01  0.102522D+00  0.000000D+00  0.000000D+00
                6 
      6 -0.131040D+01
 SVDSVc IOpt=   1 NormSV=T IR=1
 SVDSVc V= 2.00D+00 1.04D+00 7.60D-01 1.92D-01
 SVDSVc IOpt=   1 NormSV=T IR=3
 SVDSVc V= 1.00D+00
 SVDSVc IOpt=   1 NormSV=T IR=4
 SVDSVc V= 1.00D+00
 TstOVc:  Largest diagonal error= 1.33D-15 IB=1 I=    4.
 TstOVc:  Largest same sym error= 8.60D-16 IB=1 I=    4 J=    2.
 TstOVc:  Largest diff sym error= 0.00D+00 IB=0 JB=0 I=    0 J=    0.
 Orthogonalized basis functions: 
                 1             2             3             4             5 
      1   0.468769D+00 -0.998611D-01 -0.351044D-01  0.168818D+01  0.000000D+00
      2   0.337876D+00  0.301438D+00  0.850303D+00 -0.811225D+00  0.000000D+00
      3   0.366009D+00  0.275124D+00 -0.766578D+00 -0.103401D+01  0.000000D+00
      4   0.000000D+00  0.000000D+00  0.000000D+00  0.000000D+00  0.100000D+01
      5   0.000000D+00  0.000000D+00  0.000000D+00  0.000000D+00  0.000000D+00
      6  -0.176039D+00  0.884660D+00 -0.552927D-01  0.788550D+00  0.000000D+00
                 6 
      1   0.000000D+00
      2   0.000000D+00
      3   0.000000D+00
      4   0.000000D+00
      5   0.100000D+01
      6   0.000000D+00
 NBasis=     6 RedAO= T EigKep=  1.92D-01  NBF=     4     0     1     1
 NBsUse=     6 1.00D-06 EigRej= -1.00D+00 NBFU=     4     0     1     1
 Leave Link  302 at Mon Mar 28 13:59:00 2022, MaxMem=  9663676416 cpu:               3.6 elap:               0.1
 (Enter /nopt/nrel/apps/gaussian/g16C_1/g16/l303.exe)
 DipDrv will not compute anything.
 Fermi contact integrals: 
                 1             2 
      1   0.628247D+00  0.238254D+00
      2   0.193423D+00  0.200736D+01
      3   0.798237D-01  0.683754D-01
      4   0.000000D+00  0.000000D+00
      5   0.000000D+00  0.000000D+00
      6  -0.144768D+00  0.000000D+00
 Leave Link  303 at Mon Mar 28 13:59:00 2022, MaxMem=  9663676416 cpu:               0.9 elap:               0.0
 (Enter /nopt/nrel/apps/gaussian/g16C_1/g16/l401.exe)
 ExpMin= 4.81D-02 ExpMax= 1.61D+01 ExpMxC= 1.61D+01 IAcc=3 IRadAn=         5 AccDes= 0.00D+00
 Harris functional with IExCor=  205 and IRadAn=       5 diagonalized for initial guess.
 HarFok:  IExCor=  205 AccDes= 0.00D+00 IRadAn=         5 IDoV= 1 UseB2=F ITyADJ=14
 ICtDFT=  3500011 ScaDFX=  1.000000  1.000000  1.000000  1.000000
 FoFCou: FMM=F IPFlag=           0 FMFlag=      100000 FMFlg1=           0
         NFxFlg=           0 DoJE=T BraDBF=F KetDBF=T FulRan=T
         wScrn=  0.000000 ICntrl=       500 IOpCl=  0 I1Cent=   200000004 NGrid=           0
         NMat0=    1 NMatS0=      1 NMatT0=    0 NMatD0=    1 NMtDS0=    0 NMtDT0=    0
 Petite list used in FoFCou.
 Harris En= -7.09605176841154    
 JPrj=0 DoOrth=F DoCkMO=F.
 Initial guess orbital symmetries:
       Occupied  (SG) (SG)
       Virtual   (SG) (PI) (PI) (SG)
 The electronic state of the initial guess is 1-SG.
 Leave Link  401 at Mon Mar 28 13:59:00 2022, MaxMem=  9663676416 cpu:               5.1 elap:               0.2
 (Enter /nopt/nrel/apps/gaussian/g16C_1/g16/l502.exe)
 Keep R1 ints in memory in symmetry-blocked form, NReq=7204841.
 FoFCou: FMM=F IPFlag=           0 FMFlag=           0 FMFlg1=           0
         NFxFlg=           0 DoJE=F BraDBF=F KetDBF=F FulRan=T
         wScrn=  0.000000 ICntrl=       600 IOpCl=  0 I1Cent=           0 NGrid=           0
         NMat0=    1 NMatS0=     21 NMatT0=    0 NMatD0=    1 NMtDS0=    0 NMtDT0=    0
 Petite list used in FoFCou.
 Closed shell SCF:
 Using DIIS extrapolation, IDIIS=  1040.
 NGot=  9663676416 LenX=  9663674003 LenY=  9663673121
 Requested convergence on RMS density matrix=1.00D-08 within 128 cycles.
 Requested convergence on MAX density matrix=1.00D-06.
 Requested convergence on             energy=1.00D-06.
 No special actions if energy rises.

 Cycle   1  Pass 1  IDiag  1:
 E= -7.01691653010740    
 DIIS: error= 4.80D-02 at cycle   1 NSaved=   1.
 NSaved= 1 IEnMin= 1 EnMin= -7.01691653010740     IErMin= 1 ErrMin= 4.80D-02
 ErrMax= 4.80D-02  0.00D+00 EMaxC= 1.00D-01 BMatC= 1.34D-02 BMatP= 1.34D-02
 IDIUse=3 WtCom= 5.20D-01 WtEn= 4.80D-01
 Coeff-Com:  0.100D+01
 Coeff-En:   0.100D+01
 Coeff:      0.100D+01
 Gap=     0.285 Goal=   None    Shift=    0.000
 GapD=    0.285 DampG=1.000 DampE=0.500 DampFc=0.5000 IDamp=-1.
 Damping current iteration by 5.00D-01
 RMSDP=1.78D-02 MaxDP=5.26D-02              OVMax= 0.00D+00

 Cycle   2  Pass 1  IDiag  1:
 E= -7.02163584348699     Delta-E=       -0.004719313380 Rises=F Damp=T
 DIIS: error= 2.65D-02 at cycle   2 NSaved=   2.
 NSaved= 2 IEnMin= 2 EnMin= -7.02163584348699     IErMin= 2 ErrMin= 2.65D-02
 ErrMax= 2.65D-02  0.00D+00 EMaxC= 1.00D-01 BMatC= 4.09D-03 BMatP= 1.34D-02
 IDIUse=3 WtCom= 7.35D-01 WtEn= 2.65D-01
 Coeff-Com: -0.122D+01 0.222D+01
 Coeff-En:   0.000D+00 0.100D+01
 Coeff:     -0.899D+00 0.190D+01
 Gap=     0.286 Goal=   None    Shift=    0.000
 RMSDP=1.33D-02 MaxDP=4.24D-02 DE=-4.72D-03 OVMax= 0.00D+00

 Cycle   3  Pass 1  IDiag  1:
 E= -7.02757686390189     Delta-E=       -0.005941020415 Rises=F Damp=F
 DIIS: error= 2.23D-03 at cycle   3 NSaved=   3.
 NSaved= 3 IEnMin= 3 EnMin= -7.02757686390189     IErMin= 3 ErrMin= 2.23D-03
 ErrMax= 2.23D-03  0.00D+00 EMaxC= 1.00D-01 BMatC= 3.05D-05 BMatP= 4.09D-03
 IDIUse=3 WtCom= 9.78D-01 WtEn= 2.23D-02
 Coeff-Com:  0.278D+01-0.515D+01 0.337D+01
 Coeff-En:   0.000D+00 0.000D+00 0.100D+01
 Coeff:      0.272D+01-0.503D+01 0.331D+01
 Gap=     0.290 Goal=   None    Shift=    0.000
 RMSDP=1.19D-02 MaxDP=4.51D-02 DE=-5.94D-03 OVMax= 0.00D+00

 Cycle   4  Pass 1  IDiag  1:
 E= -7.02831392072634     Delta-E=       -0.000737056824 Rises=F Damp=F
 DIIS: error= 6.89D-04 at cycle   4 NSaved=   4.
 NSaved= 4 IEnMin= 4 EnMin= -7.02831392072634     IErMin= 4 ErrMin= 6.89D-04
 ErrMax= 6.89D-04  0.00D+00 EMaxC= 1.00D-01 BMatC= 3.65D-06 BMatP= 3.05D-05
 IDIUse=3 WtCom= 9.93D-01 WtEn= 6.89D-03
 Coeff-Com: -0.750D+00 0.141D+01-0.146D+01 0.180D+01
 Coeff-En:   0.000D+00 0.000D+00 0.000D+00 0.100D+01
 Coeff:     -0.745D+00 0.140D+01-0.145D+01 0.179D+01
 Gap=     0.293 Goal=   None    Shift=    0.000
 RMSDP=6.32D-03 MaxDP=2.37D-02 DE=-7.37D-04 OVMax= 0.00D+00

 Cycle   5  Pass 1  IDiag  1:
 E= -7.02840949705445     Delta-E=       -0.000095576328 Rises=F Damp=F
 DIIS: error= 5.58D-05 at cycle   5 NSaved=   5.
 NSaved= 5 IEnMin= 5 EnMin= -7.02840949705445     IErMin= 5 ErrMin= 5.58D-05
 ErrMax= 5.58D-05  0.00D+00 EMaxC= 1.00D-01 BMatC= 2.74D-08 BMatP= 3.65D-06
 IDIUse=1 WtCom= 1.00D+00 WtEn= 0.00D+00
 Coeff-Com: -0.114D+00 0.215D+00-0.220D+00 0.324D+00 0.794D+00
 Coeff:     -0.114D+00 0.215D+00-0.220D+00 0.324D+00 0.794D+00
 Gap=     0.293 Goal=   None    Shift=    0.000
 RMSDP=3.78D-04 MaxDP=1.48D-03 DE=-9.56D-05 OVMax= 0.00D+00

 Cycle   6  Pass 1  IDiag  1:
 E= -7.02841006865678     Delta-E=       -0.000000571602 Rises=F Damp=F
 DIIS: error= 9.36D-06 at cycle   6 NSaved=   6.
 NSaved= 6 IEnMin= 6 EnMin= -7.02841006865678     IErMin= 6 ErrMin= 9.36D-06
 ErrMax= 9.36D-06  0.00D+00 EMaxC= 1.00D-01 BMatC= 7.41D-10 BMatP= 2.74D-08
 IDIUse=1 WtCom= 1.00D+00 WtEn= 0.00D+00
 Coeff-Com:  0.232D-02-0.449D-02 0.632D-02-0.101D-01-0.205D+00 0.121D+01
 Coeff:      0.232D-02-0.449D-02 0.632D-02-0.101D-01-0.205D+00 0.121D+01
 Gap=     0.293 Goal=   None    Shift=    0.000
 RMSDP=8.05D-05 MaxDP=3.15D-04 DE=-5.72D-07 OVMax= 0.00D+00

 Cycle   7  Pass 1  IDiag  1:
 E= -7.02841008576243     Delta-E=       -0.000000017106 Rises=F Damp=F
 DIIS: error= 3.35D-07 at cycle   7 NSaved=   7.
 NSaved= 7 IEnMin= 7 EnMin= -7.02841008576243     IErMin= 7 ErrMin= 3.35D-07
 ErrMax= 3.35D-07  0.00D+00 EMaxC= 1.00D-01 BMatC= 1.04D-12 BMatP= 7.41D-10
 IDIUse=1 WtCom= 1.00D+00 WtEn= 0.00D+00
 Coeff-Com:  0.179D-04-0.341D-04 0.672D-04-0.523D-04 0.150D-01-0.484D-01
 Coeff-Com:  0.103D+01
 Coeff:      0.179D-04-0.341D-04 0.672D-04-0.523D-04 0.150D-01-0.484D-01
 Coeff:      0.103D+01
 Gap=     0.293 Goal=   None    Shift=    0.000
 RMSDP=2.47D-06 MaxDP=9.67D-06 DE=-1.71D-08 OVMax= 0.00D+00

 Cycle   8  Pass 1  IDiag  1:
 E= -7.02841008578084     Delta-E=       -0.000000000018 Rises=F Damp=F
 DIIS: error= 8.99D-09 at cycle   8 NSaved=   8.
 NSaved= 8 IEnMin= 8 EnMin= -7.02841008578084     IErMin= 8 ErrMin= 8.99D-09
 ErrMax= 8.99D-09  0.00D+00 EMaxC= 1.00D-01 BMatC= 7.66D-16 BMatP= 1.04D-12
 IDIUse=1 WtCom= 1.00D+00 WtEn= 0.00D+00
 Large coefficients: NSaved=  8 BigCof=    0.00 CofMax=   10.00 Det= 1.27D-27
 Inversion failed.  Reducing to  7 matrices.
 Coeff-Com: -0.732D-09 0.605D-09-0.648D-07 0.993D-05-0.125D-03-0.294D-01
 Coeff-Com:  0.103D+01
 Coeff:     -0.732D-09 0.605D-09-0.648D-07 0.993D-05-0.125D-03-0.294D-01
 Coeff:      0.103D+01
 Gap=     0.293 Goal=   None    Shift=    0.000
 RMSDP=6.77D-08 MaxDP=2.65D-07 DE=-1.84D-11 OVMax= 0.00D+00

 Cycle   9  Pass 1  IDiag  1:
 E= -7.02841008578085     Delta-E=       -0.000000000000 Rises=F Damp=F
 DIIS: error= 8.85D-13 at cycle   9 NSaved=   8.
 NSaved= 8 IEnMin= 8 EnMin= -7.02841008578085     IErMin= 8 ErrMin= 8.85D-13
 ErrMax= 8.85D-13  0.00D+00 EMaxC= 1.00D-01 BMatC= 7.50D-24 BMatP= 7.66D-16
 IDIUse=1 WtCom= 1.00D+00 WtEn= 0.00D+00
 Coeff-Com:  0.000D+00 0.000D+00 0.000D+00 0.000D+00 0.000D+00 0.000D+00
 Coeff-Com:  0.000D+00 0.100D+01
 Coeff:      0.000D+00 0.000D+00 0.000D+00 0.000D+00 0.000D+00 0.000D+00
 Coeff:      0.000D+00 0.100D+01
 Gap=     0.293 Goal=   None    Shift=    0.000
 RMSDP=1.75D-12 MaxDP=7.36D-12 DE=-1.60D-14 OVMax= 0.00D+00

 SCF Done:  E(RHF) =  -7.02841008578     A.U. after    9 cycles
            NFock=  9  Conv=0.17D-11     -V/T= 1.8645
 KE= 8.129579447053D+00 PE=-2.229512468330D+01 EE= 3.962071884947D+00
 Leave Link  502 at Mon Mar 28 13:59:00 2022, MaxMem=  9663676416 cpu:               3.4 elap:               0.1
 (Enter /nopt/nrel/apps/gaussian/g16C_1/g16/l801.exe)
 Windowed orbitals will be sorted by symmetry type.
 ExpMin= 4.81D-02 ExpMax= 1.61D+01 ExpMxC= 1.61D+01 IAcc=3 IRadAn=         5 AccDes= 0.00D+00
 HarFok:  IExCor=  205 AccDes= 0.00D+00 IRadAn=         5 IDoV=-2 UseB2=F ITyADJ=14
 ICtDFT= 12500011 ScaDFX=  1.000000  1.000000  1.000000  1.000000
 Largest valence mixing into a core orbital is  5.60D-03
 Largest core mixing into a valence orbital is  2.39D-05
 Range of M.O.s used for correlation:     2     6
 NBasis=     6 NAE=     2 NBE=     2 NFC=     1 NFV=     0
 NROrb=      5 NOA=     1 NOB=     1 NVA=     4 NVB=     4
 Leave Link  801 at Mon Mar 28 13:59:01 2022, MaxMem=  9663676416 cpu:               2.5 elap:               0.1
 (Enter /nopt/nrel/apps/gaussian/g16C_1/g16/l804.exe)
 Closed-shell transformation, MDV=  9663676416 ITran=4 ISComp=2.
 Unit  1 TFree=          2626 TCopy=        216738.
 Semi-Direct transformation.
 ModeAB=           2 MOrb=             1 LenV=    9663557528
 LASXX=           12 LTotXX=          12 LenRXX=          12
 LTotAB=          28 MaxLAS=         105 LenRXY=         105
 NonZer=         135 LenScr=      785920 LnRSAI=           0
 LnScr1=           0 LExtra=      217703 Total=      1003740
 MaxDsk= 34359738368 SrtSym=           F ITran=            4
 DoSDTr:  NPSUse= 36
 JobTyp=0 Pass  1:  I=   1 to   1.
 (rs|ai) integrals will be sorted in core.
 Complete sort for first half transformation.
 First half transformation complete.
 Complete sort for second half transformation.
 Second half transformation complete.
 Spin components of T(2) and E(2):
     alpha-alpha T2 =       0.0000000000D+00 E2=      0.0000000000D+00
     alpha-beta  T2 =       0.1037943857D-01 E2=     -0.1174950059D-01
     beta-beta   T2 =       0.0000000000D+00 E2=      0.0000000000D+00
 ANorm=    0.1005176322D+01
 E2 =    -0.1174950059D-01 EUMP2 =    -0.70401595863731D+01
 Leave Link  804 at Mon Mar 28 13:59:01 2022, MaxMem=  9663676416 cpu:               1.9 elap:               0.1
 (Enter /nopt/nrel/apps/gaussian/g16C_1/g16/l913.exe)
 CIDS:  MDV=  9663676416.
 Frozen-core window:  NFC=   1 NFV=   0.
 IFCWin=0 IBDFC=1 NFBD=     0     0 NFCmp=     0     0 NFFFC=     0     0
 Using DD3R+UMP44R for 1st iteration.
 Using DD4RQ for 2nd and later iterations.
 Keep R2 and R3 ints in memory in symmetry-blocked form, NReq=7207203.
 FoFCou: FMM=F IPFlag=           0 FMFlag=           0 FMFlg1=           0
         NFxFlg=           0 DoJE=F BraDBF=F KetDBF=F FulRan=T
         wScrn=  0.000000 ICntrl=       600 IOpCl=  0 I1Cent=           0 NGrid=           0
         NMat0=    1 NMatS0=     21 NMatT0=    0 NMatD0=    1 NMtDS0=    0 NMtDT0=    0
 Petite list used in FoFCou.
 CIDS: In Core Option IDoMem=           1.
 Coupled Cluster theory with single and double substitutions
 ===========================================================
 Iterations= 200 Convergence= 0.100D-06
 Produce multiple copies of IABC intergrals
 Iteration Nr.   1
 **********************
 DD1Dir will call FoFMem   1 times, MxPair=         2
 NAB=     1 NAA=     0 NBB=     0.
 MP4(R+Q)=  0.12195322D-03
 Maximum subspace dimension=  5
 A-vector RMS=  1.9754773D-02 Max=  2.5203373D-02 conv= 1.00D-05.
 RLE energy=       -0.0184064187
 E3=       -0.43723085D-02        EUMP3=      -0.70445318949D+01
 E4(DQ)=   -0.16270251D-02        UMP4(DQ)=   -0.70461589200D+01
 E4(SDQ)=  -0.16997240D-02        UMP4(SDQ)=  -0.70462316189D+01
 VARIATIONAL ENERGIES WITH THE FIRST-ORDER WAVEFUNCTION:
 DE(Corr)= -0.15998859E-01 E(Corr)=     -7.0444089445    
 NORM(A)=   0.10138622D+01
 Iteration Nr.   2
 **********************
 DD1Dir will call FoFMem   1 times, MxPair=         2
 NAB=     1 NAA=     0 NBB=     0.
 A-vector RMS=  1.3819331D-02 Max=  1.1955161D-02 conv= 1.00D-05.
 RLE energy=       -0.0189604961
 DE(Corr)= -0.18587369E-01 E(CORR)=     -7.0469974549     Delta=-2.59D-03
 NORM(A)=   0.10170150D+01
 Iteration Nr.   3
 **********************
 DD1Dir will call FoFMem   1 times, MxPair=         2
 NAB=     1 NAA=     0 NBB=     0.
 A-vector RMS=  8.9384541D-03 Max=  7.9439099D-03 conv= 1.00D-05.
 RLE energy=       -0.0196643504
 DE(Corr)= -0.19052013E-01 E(CORR)=     -7.0474620988     Delta=-4.65D-04
 NORM(A)=   0.10232641D+01
 Iteration Nr.   4
 **********************
 DD1Dir will call FoFMem   1 times, MxPair=         2
 NAB=     1 NAA=     0 NBB=     0.
 A-vector RMS=  1.6677594D-03 Max=  2.6048992D-03 conv= 1.00D-05.
 RLE energy=       -0.0193193622
 DE(Corr)= -0.19551648E-01 E(CORR)=     -7.0479617333     Delta=-5.00D-04
 NORM(A)=   0.10226862D+01
 Iteration Nr.   5
 **********************
 DD1Dir will call FoFMem   1 times, MxPair=         2
 NAB=     1 NAA=     0 NBB=     0.
 A-vector RMS=  7.9432746D-04 Max=  6.2171201D-04 conv= 1.00D-05.
 RLE energy=       -0.0196412089
 DE(Corr)= -0.19408233E-01 E(CORR)=     -7.0478183189     Delta= 1.43D-04
 NORM(A)=   0.10243279D+01
 Iteration Nr.   6
 **********************
 DD1Dir will call FoFMem   1 times, MxPair=         2
 NAB=     1 NAA=     0 NBB=     0.
 A-vector RMS=  6.9966014D-04 Max=  4.9141939D-04 conv= 1.00D-05.
 RLE energy=       -0.0194992257
 DE(Corr)= -0.19572540E-01 E(CORR)=     -7.0479826255     Delta=-1.64D-04
 NORM(A)=   0.10236030D+01
 Iteration Nr.   7
 **********************
 DD1Dir will call FoFMem   1 times, MxPair=         2
 NAB=     1 NAA=     0 NBB=     0.
 A-vector RMS=  1.9926022D-05 Max=  2.7181076D-05 conv= 1.00D-05.
 RLE energy=       -0.0194993713
 DE(Corr)= -0.19498859E-01 E(CORR)=     -7.0479089452     Delta= 7.37D-05
 NORM(A)=   0.10236111D+01
 Iteration Nr.   8
 **********************
 DD1Dir will call FoFMem   1 times, MxPair=         2
 NAB=     1 NAA=     0 NBB=     0.
 A-vector RMS=  1.7421024D-06 Max=  2.2562305D-06 conv= 1.00D-05.
 RLE energy=       -0.0194999096
 DE(Corr)= -0.19499546E-01 E(CORR)=     -7.0479096318     Delta=-6.87D-07
 NORM(A)=   0.10236148D+01
 Iteration Nr.   9
 **********************
 DD1Dir will call FoFMem   1 times, MxPair=         2
 NAB=     1 NAA=     0 NBB=     0.
 A-vector RMS=  1.0889290D-06 Max=  9.2763804D-07 conv= 1.00D-05.
 RLE energy=       -0.0194997898
 DE(Corr)= -0.19499863E-01 E(CORR)=     -7.0479099488     Delta=-3.17D-07
 NORM(A)=   0.10236138D+01
 Iteration Nr.  10
 **********************
 DD1Dir will call FoFMem   1 times, MxPair=         2
 NAB=     1 NAA=     0 NBB=     0.
 A-vector RMS=  9.6842216D-08 Max=  8.5671980D-08 conv= 1.00D-05.
 RLE energy=       -0.0194997855
 DE(Corr)= -0.19499789E-01 E(CORR)=     -7.0479098753     Delta= 7.35D-08
 NORM(A)=   0.10236137D+01
 CI/CC converged in   10 iterations to DelEn= 7.35D-08 Conv= 1.00D-07 ErrA1= 9.68D-08 Conv= 1.00D-05
 Wavefunction amplitudes converged. E(Corr)=     -7.0479098753    
 Dominant configurations:
 ***********************
 Spin Case        I    J    A    B          Value
   ABAB           2    2    4    4      -0.108694D+00
   ABAB           2    2    5    5      -0.108694D+00
 Largest amplitude= 1.09D-01
 Discarding MO integrals.
 Leave Link  913 at Mon Mar 28 13:59:01 2022, MaxMem=  9663676416 cpu:               3.6 elap:               0.1
 (Enter /nopt/nrel/apps/gaussian/g16C_1/g16/l601.exe)
 Copying SCF densities to generalized density rwf, IOpCl= 0 IROHF=0.

 **********************************************************************

            Population analysis using the SCF Density.

 **********************************************************************

 Orbital symmetries:
       Occupied  (SG) (SG)
       Virtual   (SG) (PI) (PI) (SG)
 The electronic state is 1-SG.
 Alpha  occ. eigenvalues --   -2.84962  -0.27108
 Alpha virt. eigenvalues --    0.02208   0.10045   0.10045   0.69371
          Condensed to atoms (all electrons):
               1          2
     1  H    0.302644   0.352041
     2  Li   0.352041   2.993273
 Mulliken charges:
               1
     1  H    0.345315
     2  Li  -0.345315
 Sum of Mulliken charges =  -0.00000
 Mulliken charges with hydrogens summed into heavy atoms:
               1
     2  Li  -0.000000
 N-N= 3.175063265520D+00 E-N=-2.229512468331D+01  KE= 8.129579447053D+00
 Symmetry A1   KE= 8.129579447053D+00
 Symmetry A2   KE= 0.000000000000D+00
 Symmetry B1   KE= 0.000000000000D+00
 Symmetry B2   KE= 0.000000000000D+00

 Atomic contributions to Alpha molecular orbitals:
 Alpha occ 1 OE=-2.850 is Li2-s=0.9365
 Alpha occ 2 OE=-0.271 is Li2-s=0.4331 Li2-p=0.3035 H1-s=0.2634
 Alpha vir 3 OE=0.022 is Li2-s=0.5112 Li2-p=0.4839
 Alpha vir 4 OE=0.100 is Li2-p=1.0000
 Alpha vir 5 OE=0.100 is Li2-p=1.0000
 Alpha vir 6 OE=0.694 is H1-s=0.6677 Li2-p=0.2131 Li2-s=0.1192
 
 Leave Link  601 at Mon Mar 28 13:59:01 2022, MaxMem=  9663676416 cpu:               0.7 elap:               0.0
 (Enter /nopt/nrel/apps/gaussian/g16C_1/g16/l9999.exe)

 Test job not archived.
 1\1\GINC-R102U34\SP\RCCSD-FC\Gen\H1Li1\USER\28-Mar-2022\0\\#P CCSD
 (MaxCyc=200,SaveAmplitudes,ReadAmplitudes)/GEN sp pop=AllOrbitals iop(
 3/33=1,3/36=-1)\\test\\0,1\H,0,0.,0.,0.\Li,0,0.,0.,0.5\\Version=ES64L-
 G16RevC.01\State=1-SG\HF=-7.0284101\MP2=-7.0401596\MP3=-7.0445319\MP4D
 =-7.0462809\MP4DQ=-7.0461589\MP4SDQ=-7.0462316\CCSD=-7.0479099\RMSD=1.
 745e-12\PG=C*V [C*(H1Li1)]\\@


 SLITHERY-DITHERY
 FRIEDRICH A. KEKULE
 DREAMT ON A BUS OF THINGS
 FREUD WOULD THINK KEEN.
 MOST OF THE TIME THEY WERE
 HERPETOLOGICAL
 BITING THEIR TAILS IN THE
 SHAPE OF BENZENE.
 Job cpu time:       0 days  0 hours  0 minutes 30.4 seconds.
 Elapsed time:       0 days  0 hours  0 minutes  1.2 seconds.
 File lengths (MBytes):  RWF=     13 Int=      0 D2E=      0 Chk=      1 Scr=      1
 Normal termination of Gaussian 16 at Mon Mar 28 13:59:01 2022.
