 Entering Gaussian System, Link 0=g16
 Initial command:
 /nopt/nrel/apps/gaussian/g16C_1/g16/l1.exe "/lustre/eaglefs/scratch/user/qc/lih-dissc/lih-1-ccsd-3.0-321g/Gau-1042.inp" -scrdir="/lustre/eaglefs/scratch/user/qc/lih-dissc/lih-1-ccsd-3.0-321g/"
 Default is to use a total of  36 processors:
                               36 via shared-memory
                                1 via Linda
 Entering Link 1 = /nopt/nrel/apps/gaussian/g16C_1/g16/l1.exe PID=      1043.
  
 Copyright (c) 1988-2019, Gaussian, Inc.  All Rights Reserved.
  
 This is part of the Gaussian(R) 16 program.  It is based on
 the Gaussian(R) 09 system (copyright 2009, Gaussian, Inc.),
 the Gaussian(R) 03 system (copyright 2003, Gaussian, Inc.),
 the Gaussian(R) 98 system (copyright 1998, Gaussian, Inc.),
 the Gaussian(R) 94 system (copyright 1995, Gaussian, Inc.),
 the Gaussian 92(TM) system (copyright 1992, Gaussian, Inc.),
 the Gaussian 90(TM) system (copyright 1990, Gaussian, Inc.),
 the Gaussian 88(TM) system (copyright 1988, Gaussian, Inc.),
 the Gaussian 86(TM) system (copyright 1986, Carnegie Mellon
 University), and the Gaussian 82(TM) system (copyright 1983,
 Carnegie Mellon University). Gaussian is a federally registered
 trademark of Gaussian, Inc.
  
 This software contains proprietary and confidential information,
 including trade secrets, belonging to Gaussian, Inc.
  
 This software is provided under written license and may be
 used, copied, transmitted, or stored only in accord with that
 written license.
  
 The following legend is applicable only to US Government
 contracts under FAR:
  
                    RESTRICTED RIGHTS LEGEND
  
 Use, reproduction and disclosure by the US Government is
 subject to restrictions as set forth in subparagraphs (a)
 and (c) of the Commercial Computer Software - Restricted
 Rights clause in FAR 52.227-19.
  
 Gaussian, Inc.
 340 Quinnipiac St., Bldg. 40, Wallingford CT 06492
  
  
 ---------------------------------------------------------------
 Warning -- This program may not be used in any manner that
 competes with the business of Gaussian, Inc. or will provide
 assistance to any competitor of Gaussian, Inc.  The licensee
 of this program is prohibited from giving any competitor of
 Gaussian, Inc. access to this program.  By using this program,
 the user acknowledges that Gaussian, Inc. is engaged in the
 business of creating and licensing software in the field of
 computational chemistry and represents and warrants to the
 licensee that it is not a competitor of Gaussian, Inc. and that
 it will not use this program in any manner prohibited above.
 ---------------------------------------------------------------
  

 Cite this work as:
 Gaussian 16, Revision C.01,
 M. J. Frisch, G. W. Trucks, H. B. Schlegel, G. E. Scuseria, 
 M. A. Robb, J. R. Cheeseman, G. Scalmani, V. Barone, 
 G. A. Petersson, H. Nakatsuji, X. Li, M. Caricato, A. V. Marenich, 
 J. Bloino, B. G. Janesko, R. Gomperts, B. Mennucci, H. P. Hratchian, 
 J. V. Ortiz, A. F. Izmaylov, J. L. Sonnenberg, D. Williams-Young, 
 F. Ding, F. Lipparini, F. Egidi, J. Goings, B. Peng, A. Petrone, 
 T. Henderson, D. Ranasinghe, V. G. Zakrzewski, J. Gao, N. Rega, 
 G. Zheng, W. Liang, M. Hada, M. Ehara, K. Toyota, R. Fukuda, 
 J. Hasegawa, M. Ishida, T. Nakajima, Y. Honda, O. Kitao, H. Nakai, 
 T. Vreven, K. Throssell, J. A. Montgomery, Jr., J. E. Peralta, 
 F. Ogliaro, M. J. Bearpark, J. J. Heyd, E. N. Brothers, K. N. Kudin, 
 V. N. Staroverov, T. A. Keith, R. Kobayashi, J. Normand, 
 K. Raghavachari, A. P. Rendell, J. C. Burant, S. S. Iyengar, 
 J. Tomasi, M. Cossi, J. M. Millam, M. Klene, C. Adamo, R. Cammi, 
 J. W. Ochterski, R. L. Martin, K. Morokuma, O. Farkas, 
 J. B. Foresman, and D. J. Fox, Gaussian, Inc., Wallingford CT, 2019.
 
 ******************************************
 Gaussian 16:  ES64L-G16RevC.01  3-Jul-2019
                28-Mar-2022 
 ******************************************
 %chk=molecule
 Default route: CacheSize=180224 MaxDisk=256GB
 ----------------------------------------------------------------------
 #P CCSD(MaxCyc=200,SaveAmplitudes,ReadAmplitudes)/GEN sp pop=AllOrbita
 ls iop(3/33=1,3/36=-1)
 ----------------------------------------------------------------------
 1/4=180224,38=1,172=1/1;
 2/4=180224,12=2,17=6,18=5,40=1/2;
 3/4=180224,5=7,11=9,25=1,30=1,33=1,36=-1/1,2,3;
 4/4=180224/1;
 5/4=180224,5=2,38=5/2;
 8/4=180224,6=4,9=120000,10=1,24=1/1,4;
 9/4=180224,5=7,6=200,77=1/13;
 6/4=180224,7=2,8=2,9=2,10=2,96=-1/1;
 99/4=180224,5=1,9=1/99;
 Leave Link    1 at Mon Mar 28 14:00:23 2022, MaxMem=           0 cpu:               2.3 elap:               0.1
 (Enter /nopt/nrel/apps/gaussian/g16C_1/g16/l101.exe)
 ----
 test
 ----
 Symbolic Z-matrix:
 Charge =  0 Multiplicity = 1
 H                     0.        0.        0. 
 Li                    0.        0.        3. 
 
 ITRead=  0  0
 MicOpt= -1 -1
 NAtoms=      2 NQM=        2 NQMF=       0 NMMI=      0 NMMIF=      0
                NMic=       0 NMicF=      0.
                    Isotopes and Nuclear Properties:
 (Nuclear quadrupole moments (NQMom) in fm**2, nuclear magnetic moments (NMagM)
  in nuclear magnetons)

  Atom         1           2
 IAtWgt=           1           7
 AtmWgt=   1.0078250   7.0160045
 NucSpn=           1           3
 AtZEff=  -0.0000000  -0.0000000
 NQMom=    0.0000000  -4.0100000
 NMagM=    2.7928460   3.2564240
 AtZNuc=   1.0000000   3.0000000
 Leave Link  101 at Mon Mar 28 14:00:23 2022, MaxMem=  9663676416 cpu:               3.4 elap:               0.1
 (Enter /nopt/nrel/apps/gaussian/g16C_1/g16/l202.exe)
                          Input orientation:                          
 ---------------------------------------------------------------------
 Center     Atomic      Atomic             Coordinates (Angstroms)
 Number     Number       Type             X           Y           Z
 ---------------------------------------------------------------------
      1          1           0        0.000000    0.000000    0.000000
      2          3           0        0.000000    0.000000    3.000000
 ---------------------------------------------------------------------
 Stoichiometry    HLi
 Framework group  C*V[C*(HLi)]
 Deg. of freedom     1
 Full point group                 C*V     NOp   4
 Largest Abelian subgroup         C2V     NOp   4
 Largest concise Abelian subgroup C1      NOp   1
                         Standard orientation:                         
 ---------------------------------------------------------------------
 Center     Atomic      Atomic             Coordinates (Angstroms)
 Number     Number       Type             X           Y           Z
 ---------------------------------------------------------------------
      1          1           0        0.000000    0.000000   -2.250000
      2          3           0        0.000000    0.000000    0.750000
 ---------------------------------------------------------------------
 Rotational constants (GHZ):           0.0000000          63.7208238          63.7208238
 Leave Link  202 at Mon Mar 28 14:00:23 2022, MaxMem=  9663676416 cpu:               0.8 elap:               0.1
 (Enter /nopt/nrel/apps/gaussian/g16C_1/g16/l301.exe)
 General basis read from cards:  (5D, 7F)
                         Coordinates in L301:                         
 ---------------------------------------------------------------------
 Center     Atomic      Atomic             Coordinates (Angstroms)
 Number     Number       Type             X           Y           Z
 ---------------------------------------------------------------------
      1          1           0        0.000000    0.000000   -2.250000
      2          3           0        0.000000    0.000000    0.750000
 ---------------------------------------------------------------------
 Centers:       1
 STO-3G
 ****
 Centers:       2
 3-21G
 ****
 FixB: optimizing general contractions.
 Ernie: Thresh=  0.10000D-02 Tol=  0.10000D-05 Strict=F.
 IA=     1 ShT= 0 ShC= 0 NL=   1 NS=   0.
 IA=     1 L=0 SC=0 ISt=    0 NBk=    0 NP=    0 IndPr=    0.
 IA=     2 ShT= 0 ShC= 0 NL=   1 NS=   0.
 IA=     2 L=0 SC=0 ISt=    0 NBk=    0 NP=    0 IndPr=    0.
 IA=     2 ShT= 1 ShC= 0 NL=   2 NS=   1.
 IA=     2 L=1 SC=0 ISt=    0 NBk=    0 NP=    0 IndPr=    0.
 LdAtmC:  AtmChg=     1.000000     3.000000
 AtZEff=     -1.0000000     -1.3500000
 NEqShl: 
              1            2            3            4
     1            1            1            1            1
     2            2            2            2            2
     3            3            3            3            3
     4            4            4            4            4
 NEqBas: 
              1            2            3            4
     1            1            1            1            1
     2            2            2            2            2
     3            3            3            3            3
     4            4           -4           -4            4
     5            5           -5            5           -5
     6            6            6            6            6
     7            7            7            7            7
     8            8           -8           -8            8
     9            9           -9            9           -9
    10           10           10           10           10
 There are     6 symmetry adapted cartesian basis functions of A1  symmetry.
   1         1   1   1   1
   2         2   2   2   2
   3         3   3   3   3
   4         6   6   6   6
   5         7   7   7   7
   6        10  10  10  10
 There are     0 symmetry adapted cartesian basis functions of A2  symmetry.
 There are     2 symmetry adapted cartesian basis functions of B1  symmetry.
   7         4   4   4   4
   8         8   8   8   8
 There are     2 symmetry adapted cartesian basis functions of B2  symmetry.
   9         5   5   5   5
  10         9   9   9   9
 Order= 1 2 4 3
 Reordered character table:
              1            2            3            4            5
     1            1            1            1            1            1
     2            2            1            1           -1           -1
     3            4            1           -1           -1            1
     4            3            1           -1            1           -1
 NEqShl: 
              1            2            3            4
     1            1            1            1            1
     2            2            2            2            2
     3            3            3            3            3
     4            4            4            4            4
 NEqBas: 
              1            2            3            4
     1            1            1            1            1
     2            2            2            2            2
     3            3            3            3            3
     4            4           -4           -4            4
     5            5           -5            5           -5
     6            6            6            6            6
     7            7            7            7            7
     8            8           -8           -8            8
     9            9           -9            9           -9
    10           10           10           10           10
 There are     6 symmetry adapted basis functions of A1  symmetry.
   1         1   1   1   1
   2         2   2   2   2
   3         3   3   3   3
   4         6   6   6   6
   5         7   7   7   7
   6        10  10  10  10
 There are     0 symmetry adapted basis functions of A2  symmetry.
 There are     2 symmetry adapted basis functions of B1  symmetry.
   7         4   4   4   4
   8         8   8   8   8
 There are     2 symmetry adapted basis functions of B2  symmetry.
   9         5   5   5   5
  10         9   9   9   9
 Order= 1 2 4 3
 Reordered character table:
              1            2            3            4            5
     1            1            1            1            1            1
     2            2            1            1           -1           -1
     3            4            1           -1           -1            1
     4            3            1           -1            1           -1
    10 basis functions,    18 primitive gaussians,    10 cartesian basis functions
     2 alpha electrons        2 beta electrons
       nuclear repulsion energy         0.5291772109 Hartrees.
 IS=     1 IAt=     1 ISR=     1 T=0 IP=      1 IndIP=      1 IndIPD=      0 C=  2.769344D-01  0.000000D+00                             NZ=T
 IS=     1 IAt=     1 ISR=     1 T=0 IP=      2 IndIP=      2 IndIPD=      1 C=  2.678389D-01  0.000000D+00                             NZ=T
 IS=     1 IAt=     1 ISR=     1 T=0 IP=      3 IndIP=      3 IndIPD=      2 C=  8.347367D-02  0.000000D+00                             NZ=T
 IS=     2 IAt=     2 ISR=     1 T=0 IP=      1 IndIP=      4 IndIPD=      0 C=  7.424571D-01  0.000000D+00                             NZ=T
 IS=     2 IAt=     2 ISR=     1 T=0 IP=      2 IndIP=      5 IndIPD=      1 C=  9.736824D-01  0.000000D+00                             NZ=T
 IS=     2 IAt=     2 ISR=     1 T=0 IP=      3 IndIP=      6 IndIPD=      2 C=  5.265692D-01  0.000000D+00                             NZ=T
 IS=     3 IAt=     2 ISR=     2 T=1 IP=      1 IndIP=      7 IndIPD=      0 C= -1.181663D-01  1.066435D-01                             NZ=T
 IS=     3 IAt=     2 ISR=     2 T=1 IP=      2 IndIP=      8 IndIPD=      1 C=  1.473557D-01  7.547122D-02                             NZ=T
 IS=     4 IAt=     2 ISR=     3 T=1 IP=      1 IndIP=      9 IndIPD=      0 C=  4.951993D-02  1.673876D-02                             NZ=T
 IExCor=    0 DFT=F Ex=HF Corr=None ExCW=0 ScaHFX=  1.000000
 ScaDFX=  1.000000  1.000000  1.000000  1.000000 ScalE2=  1.000000  1.000000
 IRadAn=      5 IRanWt=     -1 IRanGd=            0 ICorTp=0 IEmpDi=  4
 NAtoms=    2 NActive=    2 NUniq=    2 SFac= 1.00D+00 NAtFMM=   60 NAOKFM=F Big=F
 Integral buffers will be    131072 words long.
 Raffenetti 1 integral format.
 Two-electron integral symmetry is turned on.
 Leave Link  301 at Mon Mar 28 14:00:24 2022, MaxMem=  9663676416 cpu:               2.1 elap:               0.1
 (Enter /nopt/nrel/apps/gaussian/g16C_1/g16/l302.exe)
 NPDir=0 NMtPBC=     1 NCelOv=     1 NCel=       1 NClECP=     1 NCelD=      1
         NCelK=      1 NCelE2=     1 NClLst=     1 CellRange=     0.0.
 One-electron integrals computed using PRISM.
 One-electron integral symmetry used in STVInt
 Entering OneElI...
 Calculate overlap and kinetic energy integrals
    NBasis =  10  MinDer = 0  MaxDer = 0
 Requested accuracy = 0.1000D-12
 Symmetry will be used
 PrmmSu-InSpLW:  IPartL=    0 NPrtUS=   36 NPrtUL=    1 DoSpLW=F IThBeg=    0 IThEnd=   35 NThAct=   36.
 PrSmSu:  IncTry=   512 NBBP=             10 NTPThr=   100 NPartT=   36 Incr=           1 LDynOK=F GPUOK=F.
 PrsmSu:  NPrtUS=  36 ThrOK=T IAlg=1 LenDen=           0 ISkipM=0 DoSpLW=F IThBeg=    0 IThEnd=   35.
 Prism:   IPart=     0 DynPar=F LinDyn=F Incr=           1.
 PRISM was handed   268434316 working-precision words and    10 shell-pairs
 PRISM was handed   268434316 working-precision words and    10 shell-pairs
 PRISM was handed   268434316 working-precision words and    10 shell-pairs
 PRISM was handed   268434316 working-precision words and    10 shell-pairs
 PRISM was handed   268434316 working-precision words and    10 shell-pairs
 PRISM was handed   268434316 working-precision words and    10 shell-pairs
 PRISM was handed   268434316 working-precision words and    10 shell-pairs
 PRISM was handed   268434316 working-precision words and    10 shell-pairs
 IPart=  3 NShTot=           0 NBatch=           0 AvBLen=         0.0
 IPart= 35 NShTot=           0 NBatch=           0 AvBLen=         0.0
 IPart= 19 NShTot=           0 NBatch=           0 AvBLen=         0.0
 IPart= 22 NShTot=           0 NBatch=           0 AvBLen=         0.0
 IPart= 32 NShTot=           0 NBatch=           0 AvBLen=         0.0
 IPart= 17 NShTot=           0 NBatch=           0 AvBLen=         0.0
 IPart= 14 NShTot=           0 NBatch=           0 AvBLen=         0.0
 PRISM was handed   268434316 working-precision words and    10 shell-pairs
 IPart= 12 NShTot=           0 NBatch=           0 AvBLen=         0.0
 PRISM was handed   268434316 working-precision words and    10 shell-pairs
 PRISM was handed   268434316 working-precision words and    10 shell-pairs
 IPart=  8 NShTot=           0 NBatch=           0 AvBLen=         0.0
 IPart=  4 NShTot=           0 NBatch=           0 AvBLen=         0.0
 PRISM was handed   268434316 working-precision words and    10 shell-pairs
 PRISM was handed   268434316 working-precision words and    10 shell-pairs
 PRISM was handed   268434316 working-precision words and    10 shell-pairs
 PRISM was handed   268434316 working-precision words and    10 shell-pairs
 PRISM was handed   268434316 working-precision words and    10 shell-pairs
 PRISM was handed   268434316 working-precision words and    10 shell-pairs
 IPart=  7 NShTot=           0 NBatch=           0 AvBLen=         0.0
 IPart= 24 NShTot=           0 NBatch=           0 AvBLen=         0.0
 IPart= 26 NShTot=           0 NBatch=           0 AvBLen=         0.0
 IPart= 21 NShTot=           0 NBatch=           0 AvBLen=         0.0
 IPart= 28 NShTot=           0 NBatch=           0 AvBLen=         0.0
 PRISM was handed   268434316 working-precision words and    10 shell-pairs
 PRISM was handed   268434316 working-precision words and    10 shell-pairs
 IPart= 18 NShTot=           0 NBatch=           0 AvBLen=         0.0
 PRISM was handed   268434316 working-precision words and    10 shell-pairs
 PRISM was handed   268434316 working-precision words and    10 shell-pairs
 PRISM was handed   268434316 working-precision words and    10 shell-pairs
 IPart= 30 NShTot=           0 NBatch=           0 AvBLen=         0.0
 IPart=  6 NShTot=           0 NBatch=           0 AvBLen=         0.0
 PRISM was handed   268434316 working-precision words and    10 shell-pairs
 PRISM was handed   268434316 working-precision words and    10 shell-pairs
 PRISM was handed   268434316 working-precision words and    10 shell-pairs
 PRISM was handed   268434316 working-precision words and    10 shell-pairs
 PRISM was handed   268434316 working-precision words and    10 shell-pairs
 PRISM was handed   268434316 working-precision words and    10 shell-pairs
 PRISM was handed   268434316 working-precision words and    10 shell-pairs
 PRISM was handed   268434316 working-precision words and    10 shell-pairs
 IPart= 13 NShTot=           0 NBatch=           0 AvBLen=         0.0
 PRISM was handed   268434316 working-precision words and    10 shell-pairs
 IPart= 10 NShTot=           0 NBatch=           0 AvBLen=         0.0
 IPart= 31 NShTot=           0 NBatch=           0 AvBLen=         0.0
 IPart= 15 NShTot=           0 NBatch=           0 AvBLen=         0.0
 IPart= 20 NShTot=           0 NBatch=           0 AvBLen=         0.0
 IPart=  1 NShTot=           3 NBatch=           3 AvBLen=         1.0
 IPart= 23 NShTot=           0 NBatch=           0 AvBLen=         0.0
 PRISM was handed   268434316 working-precision words and    10 shell-pairs
 PRISM was handed   268434316 working-precision words and    10 shell-pairs
 IPart= 27 NShTot=           0 NBatch=           0 AvBLen=         0.0
 IPart= 34 NShTot=           0 NBatch=           0 AvBLen=         0.0
 PRISM was handed   268434316 working-precision words and    10 shell-pairs
 IPart= 16 NShTot=           0 NBatch=           0 AvBLen=         0.0
 IPart=  9 NShTot=           0 NBatch=           0 AvBLen=         0.0
 IPart=  2 NShTot=           0 NBatch=           0 AvBLen=         0.0
 IPart=  0 NShTot=           7 NBatch=           7 AvBLen=         1.0
 PRISM was handed   268434316 working-precision words and    10 shell-pairs
 PRISM was handed   268434316 working-precision words and    10 shell-pairs
 IPart= 11 NShTot=           0 NBatch=           0 AvBLen=         0.0
 IPart=  5 NShTot=           0 NBatch=           0 AvBLen=         0.0
 IPart= 33 NShTot=           0 NBatch=           0 AvBLen=         0.0
 IPart= 29 NShTot=           0 NBatch=           0 AvBLen=         0.0
 IPart= 25 NShTot=           0 NBatch=           0 AvBLen=         0.0
 PrSmSu:  NxtVal=             37.
 *** Overlap *** 
                1             2             3             4             5 
      1  0.100000D+01
      2  0.169679D-02  0.100000D+01
      3  0.836738D-01  0.177215D+00  0.100000D+01
      4  0.000000D+00  0.000000D+00  0.000000D+00  0.100000D+01
      5  0.000000D+00  0.000000D+00  0.000000D+00  0.000000D+00  0.100000D+01
      6 -0.171735D+00  0.000000D+00  0.000000D+00  0.000000D+00  0.000000D+00
      7  0.182695D+00  0.140674D+00  0.782781D+00  0.000000D+00  0.000000D+00
      8  0.000000D+00  0.000000D+00  0.000000D+00  0.588593D+00  0.000000D+00
      9  0.000000D+00  0.000000D+00  0.000000D+00  0.000000D+00  0.588593D+00
     10 -0.311958D+00  0.000000D+00  0.000000D+00  0.000000D+00  0.000000D+00
                6             7             8             9            10 
      6  0.100000D+01
      7  0.000000D+00  0.100000D+01
      8  0.000000D+00  0.000000D+00  0.100000D+01
      9  0.000000D+00  0.000000D+00  0.000000D+00  0.100000D+01
     10  0.588593D+00  0.000000D+00  0.000000D+00  0.000000D+00  0.100000D+01
 *** Kinetic Energy *** 
                1             2             3             4             5 
      1  0.760032D+00
      2 -0.165895D-02  0.365490D+01
      3 -0.868785D-02 -0.135538D+00  0.159492D+00
      4  0.000000D+00  0.000000D+00  0.000000D+00  0.307817D+00
      5  0.000000D+00  0.000000D+00  0.000000D+00  0.000000D+00  0.307817D+00
      6 -0.210872D-02  0.000000D+00  0.000000D+00  0.000000D+00  0.000000D+00
      7  0.631882D-02  0.117904D-01  0.513380D-01  0.000000D+00  0.000000D+00
      8  0.000000D+00  0.000000D+00  0.000000D+00  0.661980D-01  0.000000D+00
      9  0.000000D+00  0.000000D+00  0.000000D+00  0.000000D+00  0.661980D-01
     10 -0.267108D-01  0.000000D+00  0.000000D+00  0.000000D+00  0.000000D+00
                6             7             8             9            10 
      6  0.307817D+00
      7  0.000000D+00  0.428467D-01
      8  0.000000D+00  0.000000D+00  0.714113D-01
      9  0.000000D+00  0.000000D+00  0.000000D+00  0.714113D-01
     10  0.661980D-01  0.000000D+00  0.000000D+00  0.000000D+00  0.714113D-01
 Entering OneElI...
 Calculate potential energy integrals
    NBasis =  10  MinDer = 0  MaxDer = 0
 Requested accuracy = 0.1000D-12
 Symmetry will be used
 PrmmSu-InSpLW:  IPartL=    0 NPrtUS=   36 NPrtUL=    1 DoSpLW=F IThBeg=    0 IThEnd=   35 NThAct=   36.
 PrSmSu:  IncTry=   512 NBBP=             20 NTPThr=   100 NPartT=   36 Incr=           1 LDynOK=F GPUOK=F.
 PrsmSu:  NPrtUS=  36 ThrOK=T IAlg=1 LenDen=           0 ISkipM=0 DoSpLW=F IThBeg=    0 IThEnd=   35.
 Prism:   IPart=     0 DynPar=F LinDyn=F Incr=           1.
 PRISM was handed   268434358 working-precision words and    10 shell-pairs
 PRISM was handed   268434358 working-precision words and    10 shell-pairs
 PRISM was handed   268434358 working-precision words and    10 shell-pairs
 PRISM was handed   268434358 working-precision words and    10 shell-pairs
 PRISM was handed   268434358 working-precision words and    10 shell-pairs
 PRISM was handed   268434358 working-precision words and    10 shell-pairs
 PRISM was handed   268434358 working-precision words and    10 shell-pairs
 PRISM was handed   268434358 working-precision words and    10 shell-pairs
 PRISM was handed   268434358 working-precision words and    10 shell-pairs
 PRISM was handed   268434358 working-precision words and    10 shell-pairs
 PRISM was handed   268434358 working-precision words and    10 shell-pairs
 PRISM was handed   268434358 working-precision words and    10 shell-pairs
 PRISM was handed   268434358 working-precision words and    10 shell-pairs
 PRISM was handed   268434358 working-precision words and    10 shell-pairs
 PRISM was handed   268434358 working-precision words and    10 shell-pairs
 PRISM was handed   268434358 working-precision words and    10 shell-pairs
 PRISM was handed   268434358 working-precision words and    10 shell-pairs
 PRISM was handed   268434358 working-precision words and    10 shell-pairs
 PRISM was handed   268434358 working-precision words and    10 shell-pairs
 PRISM was handed   268434358 working-precision words and    10 shell-pairs
 PRISM was handed   268434358 working-precision words and    10 shell-pairs
 PRISM was handed   268434358 working-precision words and    10 shell-pairs
 PRISM was handed   268434358 working-precision words and    10 shell-pairs
 PRISM was handed   268434358 working-precision words and    10 shell-pairs
 PRISM was handed   268434358 working-precision words and    10 shell-pairs
 PRISM was handed   268434358 working-precision words and    10 shell-pairs
 PRISM was handed   268434358 working-precision words and    10 shell-pairs
 PRISM was handed   268434358 working-precision words and    10 shell-pairs
 PRISM was handed   268434358 working-precision words and    10 shell-pairs
 PRISM was handed   268434358 working-precision words and    10 shell-pairs
 PRISM was handed   268434358 working-precision words and    10 shell-pairs
 PRISM was handed   268434358 working-precision words and    10 shell-pairs
 PRISM was handed   268434358 working-precision words and    10 shell-pairs
 PRISM was handed   268434358 working-precision words and    10 shell-pairs
 PRISM was handed   268434358 working-precision words and    10 shell-pairs
 PRISM was handed   268434358 working-precision words and    10 shell-pairs
 IPart= 33 NShTot=           0 NBatch=           0 AvBLen=         0.0
 IPart= 22 NShTot=           0 NBatch=           0 AvBLen=         0.0
 IPart= 21 NShTot=           0 NBatch=           0 AvBLen=         0.0
 IPart= 29 NShTot=           0 NBatch=           0 AvBLen=         0.0
 IPart= 34 NShTot=           0 NBatch=           0 AvBLen=         0.0
 IPart= 31 NShTot=           0 NBatch=           0 AvBLen=         0.0
 IPart= 30 NShTot=           0 NBatch=           0 AvBLen=         0.0
 IPart= 28 NShTot=           0 NBatch=           0 AvBLen=         0.0
 IPart= 27 NShTot=           0 NBatch=           0 AvBLen=         0.0
 IPart= 25 NShTot=           0 NBatch=           0 AvBLen=         0.0
 IPart= 24 NShTot=           0 NBatch=           0 AvBLen=         0.0
 IPart= 32 NShTot=           0 NBatch=           0 AvBLen=         0.0
 IPart= 35 NShTot=           0 NBatch=           0 AvBLen=         0.0
 IPart=  6 NShTot=           0 NBatch=           0 AvBLen=         0.0
 IPart= 26 NShTot=           0 NBatch=           0 AvBLen=         0.0
 IPart= 14 NShTot=           0 NBatch=           0 AvBLen=         0.0
 IPart=  9 NShTot=           0 NBatch=           0 AvBLen=         0.0
 IPart= 12 NShTot=           0 NBatch=           0 AvBLen=         0.0
 IPart=  2 NShTot=           0 NBatch=           0 AvBLen=         0.0
 IPart= 10 NShTot=           0 NBatch=           0 AvBLen=         0.0
 IPart=  7 NShTot=           0 NBatch=           0 AvBLen=         0.0
 IPart= 20 NShTot=           0 NBatch=           0 AvBLen=         0.0
 IPart= 11 NShTot=           0 NBatch=           0 AvBLen=         0.0
 IPart= 19 NShTot=           0 NBatch=           0 AvBLen=         0.0
 IPart= 18 NShTot=           0 NBatch=           0 AvBLen=         0.0
 IPart=  8 NShTot=           0 NBatch=           0 AvBLen=         0.0
 IPart= 13 NShTot=           0 NBatch=           0 AvBLen=         0.0
 IPart=  3 NShTot=           0 NBatch=           0 AvBLen=         0.0
 IPart=  5 NShTot=           0 NBatch=           0 AvBLen=         0.0
 IPart= 16 NShTot=           0 NBatch=           0 AvBLen=         0.0
 IPart=  4 NShTot=           0 NBatch=           0 AvBLen=         0.0
 IPart= 15 NShTot=           0 NBatch=           0 AvBLen=         0.0
 IPart= 17 NShTot=           0 NBatch=           0 AvBLen=         0.0
 IPart=  1 NShTot=           6 NBatch=           3 AvBLen=         2.0
 IPart=  0 NShTot=          14 NBatch=           7 AvBLen=         2.0
 IPart= 23 NShTot=           0 NBatch=           0 AvBLen=         0.0
 PrSmSu:  NxtVal=             37.
 ***** Potential Energy ***** 
                1             2             3             4             5 
      1  0.175579D+01
      2  0.648821D-02  0.825796D+01
      3  0.109583D+00  0.660952D+00  0.139952D+01
      4  0.000000D+00  0.000000D+00  0.000000D+00  0.132644D+01
      5  0.000000D+00  0.000000D+00  0.000000D+00  0.000000D+00  0.132644D+01
      6 -0.226877D+00 -0.368599D-02 -0.515942D-01  0.000000D+00  0.000000D+00
      7  0.228491D+00  0.639012D+00  0.995003D+00  0.000000D+00  0.000000D+00
      8  0.000000D+00  0.000000D+00  0.000000D+00  0.590368D+00  0.000000D+00
      9  0.000000D+00  0.000000D+00  0.000000D+00  0.000000D+00  0.590368D+00
     10 -0.386481D+00 -0.567996D-03 -0.324959D-01  0.000000D+00  0.000000D+00
                6             7             8             9            10 
      6  0.136138D+01
      7 -0.521772D-01  0.975738D+00
      8  0.000000D+00  0.000000D+00  0.672369D+00
      9  0.000000D+00  0.000000D+00  0.000000D+00  0.672369D+00
     10  0.621591D+00 -0.645163D-01  0.000000D+00  0.000000D+00  0.730370D+00
 ****** Core Hamiltonian ****** 
                1             2             3             4             5 
      1 -0.995759D+00
      2 -0.814716D-02 -0.460306D+01
      3 -0.118271D+00 -0.796490D+00 -0.124003D+01
      4  0.000000D+00  0.000000D+00  0.000000D+00 -0.101863D+01
      5  0.000000D+00  0.000000D+00  0.000000D+00  0.000000D+00 -0.101863D+01
      6  0.224768D+00  0.368599D-02  0.515942D-01  0.000000D+00  0.000000D+00
      7 -0.222172D+00 -0.627222D+00 -0.943664D+00  0.000000D+00  0.000000D+00
      8  0.000000D+00  0.000000D+00  0.000000D+00 -0.524170D+00  0.000000D+00
      9  0.000000D+00  0.000000D+00  0.000000D+00  0.000000D+00 -0.524170D+00
     10  0.359770D+00  0.567996D-03  0.324959D-01  0.000000D+00  0.000000D+00
                6             7             8             9            10 
      6 -0.105357D+01
      7  0.521772D-01 -0.932891D+00
      8  0.000000D+00  0.000000D+00 -0.600958D+00
      9  0.000000D+00  0.000000D+00  0.000000D+00 -0.600958D+00
     10 -0.555393D+00  0.645163D-01  0.000000D+00  0.000000D+00 -0.658959D+00
 SVDSVc IOpt=   1 NormSV=T IR=1
 SVDSVc V= 1.91D+00 1.71D+00 9.57D-01 8.25D-01 3.92D-01 2.09D-01
 SVDSVc IOpt=   1 NormSV=T IR=3
 SVDSVc V= 1.59D+00 4.11D-01
 SVDSVc IOpt=   1 NormSV=T IR=4
 SVDSVc V= 1.59D+00 4.11D-01
 TstOVc:  Largest diagonal error= 1.55D-15 IB=1 I=    6.
 TstOVc:  Largest same sym error= 5.22D-16 IB=1 I=    4 J=    3.
 TstOVc:  Largest diff sym error= 0.00D+00 IB=0 JB=0 I=    0 J=    0.
 Orthogonalized basis functions: 
                 1             2             3             4             5 
      1   0.223648D+00 -0.234021D+00 -0.305371D+00  0.903893D+00  0.303351D+00
      2   0.155590D+00  0.978995D-01  0.939806D+00  0.332949D+00  0.206104D-01
      3   0.437889D+00  0.228332D+00 -0.879138D-01 -0.244558D+00 -0.115123D+00
      4   0.000000D+00  0.000000D+00  0.000000D+00  0.000000D+00  0.000000D+00
      5   0.000000D+00  0.000000D+00  0.000000D+00  0.000000D+00  0.000000D+00
      6  -0.159965D+00  0.447353D+00 -0.156132D+00  0.439508D+00 -0.104191D+01
      7   0.447637D+00  0.210432D+00 -0.175252D+00 -0.117286D+00  0.523070D-01
      8   0.000000D+00  0.000000D+00  0.000000D+00  0.000000D+00  0.000000D+00
      9   0.000000D+00  0.000000D+00  0.000000D+00  0.000000D+00  0.000000D+00
     10  -0.180949D+00  0.472591D+00 -0.775966D-01  0.132971D+00  0.116455D+01
                 6             7             8             9            10 
      1  -0.236595D+00  0.000000D+00  0.000000D+00  0.000000D+00  0.000000D+00
      2   0.660297D-01  0.000000D+00  0.000000D+00  0.000000D+00  0.000000D+00
      3  -0.152153D+01  0.000000D+00  0.000000D+00  0.000000D+00  0.000000D+00
      4   0.000000D+00  0.561020D+00  0.110243D+01  0.000000D+00  0.000000D+00
      5   0.000000D+00  0.000000D+00  0.000000D+00  0.561020D+00  0.110243D+01
      6   0.404035D-01  0.000000D+00  0.000000D+00  0.000000D+00  0.000000D+00
      7   0.154823D+01  0.000000D+00  0.000000D+00  0.000000D+00  0.000000D+00
      8   0.000000D+00  0.561020D+00 -0.110243D+01  0.000000D+00  0.000000D+00
      9   0.000000D+00  0.000000D+00  0.000000D+00  0.561020D+00 -0.110243D+01
     10  -0.123343D+00  0.000000D+00  0.000000D+00  0.000000D+00  0.000000D+00
 NBasis=    10 RedAO= T EigKep=  2.09D-01  NBF=     6     0     2     2
 NBsUse=    10 1.00D-06 EigRej= -1.00D+00 NBFU=     6     0     2     2
 Leave Link  302 at Mon Mar 28 14:00:24 2022, MaxMem=  9663676416 cpu:               4.5 elap:               0.2
 (Enter /nopt/nrel/apps/gaussian/g16C_1/g16/l303.exe)
 DipDrv will not compute anything.
 Fermi contact integrals: 
                 1             2 
      1   0.628247D+00  0.366994D-03
      2   0.000000D+00  0.224271D+01
      3   0.550918D-02  0.291894D-01
      4   0.000000D+00  0.000000D+00
      5   0.000000D+00  0.000000D+00
      6  -0.159964D-01  0.000000D+00
      7   0.197731D-01  0.495199D-01
      8   0.000000D+00  0.000000D+00
      9   0.000000D+00  0.000000D+00
     10  -0.378913D-01  0.000000D+00
 Leave Link  303 at Mon Mar 28 14:00:24 2022, MaxMem=  9663676416 cpu:               0.8 elap:               0.0
 (Enter /nopt/nrel/apps/gaussian/g16C_1/g16/l401.exe)
 ExpMin= 2.86D-02 ExpMax= 3.68D+01 ExpMxC= 3.68D+01 IAcc=3 IRadAn=         5 AccDes= 0.00D+00
 Harris functional with IExCor=  205 and IRadAn=       5 diagonalized for initial guess.
 HarFok:  IExCor=  205 AccDes= 0.00D+00 IRadAn=         5 IDoV= 1 UseB2=F ITyADJ=14
 ICtDFT=  3500011 ScaDFX=  1.000000  1.000000  1.000000  1.000000
 FoFCou: FMM=F IPFlag=           0 FMFlag=      100000 FMFlg1=           0
         NFxFlg=           0 DoJE=T BraDBF=F KetDBF=T FulRan=T
         wScrn=  0.000000 ICntrl=       500 IOpCl=  0 I1Cent=   200000004 NGrid=           0
         NMat0=    1 NMatS0=      1 NMatT0=    0 NMatD0=    1 NMtDS0=    0 NMtDT0=    0
 Petite list used in FoFCou.
 Harris En= -7.88184336468521    
 JPrj=0 DoOrth=F DoCkMO=F.
 Initial guess orbital symmetries:
       Occupied  (SG) (SG)
       Virtual   (SG) (PI) (PI) (SG) (SG) (PI) (PI) (SG)
 The electronic state of the initial guess is 1-SG.
 Leave Link  401 at Mon Mar 28 14:00:24 2022, MaxMem=  9663676416 cpu:               3.3 elap:               0.1
 (Enter /nopt/nrel/apps/gaussian/g16C_1/g16/l502.exe)
 Keep R1 ints in memory in symmetry-blocked form, NReq=7206198.
 FoFCou: FMM=F IPFlag=           0 FMFlag=           0 FMFlg1=           0
         NFxFlg=           0 DoJE=F BraDBF=F KetDBF=F FulRan=T
         wScrn=  0.000000 ICntrl=       600 IOpCl=  0 I1Cent=           0 NGrid=           0
         NMat0=    1 NMatS0=     55 NMatT0=    0 NMatD0=    1 NMtDS0=    0 NMtDT0=    0
 Petite list used in FoFCou.
 Closed shell SCF:
 Using DIIS extrapolation, IDIIS=  1040.
 NGot=  9663676416 LenX=  9663673310 LenY=  9663672428
 Requested convergence on RMS density matrix=1.00D-08 within 128 cycles.
 Requested convergence on MAX density matrix=1.00D-06.
 Requested convergence on             energy=1.00D-06.
 No special actions if energy rises.

 Cycle   1  Pass 1  IDiag  1:
 E= -7.76203477199723    
 DIIS: error= 3.30D-02 at cycle   1 NSaved=   1.
 NSaved= 1 IEnMin= 1 EnMin= -7.76203477199723     IErMin= 1 ErrMin= 3.30D-02
 ErrMax= 3.30D-02  0.00D+00 EMaxC= 1.00D-01 BMatC= 1.51D-02 BMatP= 1.51D-02
 IDIUse=3 WtCom= 6.70D-01 WtEn= 3.30D-01
 Coeff-Com:  0.100D+01
 Coeff-En:   0.100D+01
 Coeff:      0.100D+01
 Gap=     0.101 Goal=   None    Shift=    0.000
 GapD=    0.101 DampG=1.000 DampE=0.500 DampFc=0.5000 IDamp=-1.
 Damping current iteration by 5.00D-01
 RMSDP=4.17D-02 MaxDP=3.20D-01              OVMax= 2.89D-01

 Cycle   2  Pass 1  IDiag  1:
 E= -7.79374131910445     Delta-E=       -0.031706547107 Rises=F Damp=T
 DIIS: error= 1.23D-02 at cycle   2 NSaved=   2.
 NSaved= 2 IEnMin= 2 EnMin= -7.79374131910445     IErMin= 2 ErrMin= 1.23D-02
 ErrMax= 1.23D-02  0.00D+00 EMaxC= 1.00D-01 BMatC= 2.85D-03 BMatP= 1.51D-02
 IDIUse=3 WtCom= 8.77D-01 WtEn= 1.23D-01
 Coeff-Com: -0.733D+00 0.173D+01
 Coeff-En:   0.000D+00 0.100D+01
 Coeff:     -0.643D+00 0.164D+01
 Gap=     0.205 Goal=   None    Shift=    0.000
 RMSDP=1.43D-02 MaxDP=1.10D-01 DE=-3.17D-02 OVMax= 2.24D-02

 Cycle   3  Pass 1  IDiag  1:
 E= -7.82196093209813     Delta-E=       -0.028219612994 Rises=F Damp=F
 DIIS: error= 5.25D-04 at cycle   3 NSaved=   3.
 NSaved= 3 IEnMin= 3 EnMin= -7.82196093209813     IErMin= 3 ErrMin= 5.25D-04
 ErrMax= 5.25D-04  0.00D+00 EMaxC= 1.00D-01 BMatC= 3.39D-06 BMatP= 2.85D-03
 IDIUse=3 WtCom= 9.95D-01 WtEn= 5.25D-03
 Coeff-Com:  0.111D+00-0.267D+00 0.116D+01
 Coeff-En:   0.000D+00 0.000D+00 0.100D+01
 Coeff:      0.110D+00-0.266D+00 0.116D+01
 Gap=     0.209 Goal=   None    Shift=    0.000
 RMSDP=3.11D-04 MaxDP=1.22D-03 DE=-2.82D-02 OVMax= 1.44D-03

 Cycle   4  Pass 1  IDiag  1:
 E= -7.82196603886625     Delta-E=       -0.000005106768 Rises=F Damp=F
 DIIS: error= 5.71D-05 at cycle   4 NSaved=   4.
 NSaved= 4 IEnMin= 4 EnMin= -7.82196603886625     IErMin= 4 ErrMin= 5.71D-05
 ErrMax= 5.71D-05  0.00D+00 EMaxC= 1.00D-01 BMatC= 3.41D-08 BMatP= 3.39D-06
 IDIUse=1 WtCom= 1.00D+00 WtEn= 0.00D+00
 Coeff-Com:  0.239D-01-0.561D-01 0.200D+00 0.832D+00
 Coeff:      0.239D-01-0.561D-01 0.200D+00 0.832D+00
 Gap=     0.209 Goal=   None    Shift=    0.000
 RMSDP=6.20D-05 MaxDP=2.86D-04 DE=-5.11D-06 OVMax= 5.25D-04

 Cycle   5  Pass 1  IDiag  1:
 E= -7.82196634295728     Delta-E=       -0.000000304091 Rises=F Damp=F
 DIIS: error= 3.67D-05 at cycle   5 NSaved=   5.
 NSaved= 5 IEnMin= 5 EnMin= -7.82196634295728     IErMin= 5 ErrMin= 3.67D-05
 ErrMax= 3.67D-05  0.00D+00 EMaxC= 1.00D-01 BMatC= 1.15D-08 BMatP= 3.41D-08
 IDIUse=1 WtCom= 1.00D+00 WtEn= 0.00D+00
 Coeff-Com:  0.794D-02-0.192D-01 0.842D-01-0.111D+01 0.203D+01
 Coeff:      0.794D-02-0.192D-01 0.842D-01-0.111D+01 0.203D+01
 Gap=     0.209 Goal=   None    Shift=    0.000
 RMSDP=6.83D-05 MaxDP=2.94D-04 DE=-3.04D-07 OVMax= 6.46D-04

 Cycle   6  Pass 1  IDiag  1:
 E= -7.82196651054070     Delta-E=       -0.000000167583 Rises=F Damp=F
 DIIS: error= 9.73D-06 at cycle   6 NSaved=   6.
 NSaved= 6 IEnMin= 6 EnMin= -7.82196651054070     IErMin= 6 ErrMin= 9.73D-06
 ErrMax= 9.73D-06  0.00D+00 EMaxC= 1.00D-01 BMatC= 7.69D-10 BMatP= 1.15D-08
 IDIUse=1 WtCom= 1.00D+00 WtEn= 0.00D+00
 Coeff-Com:  0.698D-03-0.153D-02 0.723D-03 0.653D+00-0.149D+01 0.184D+01
 Coeff:      0.698D-03-0.153D-02 0.723D-03 0.653D+00-0.149D+01 0.184D+01
 Gap=     0.209 Goal=   None    Shift=    0.000
 RMSDP=2.10D-05 MaxDP=7.89D-05 DE=-1.68D-07 OVMax= 2.08D-04

 Cycle   7  Pass 1  IDiag  1:
 E= -7.82196652287916     Delta-E=       -0.000000012338 Rises=F Damp=F
 DIIS: error= 8.15D-07 at cycle   7 NSaved=   7.
 NSaved= 7 IEnMin= 7 EnMin= -7.82196652287916     IErMin= 7 ErrMin= 8.15D-07
 ErrMax= 8.15D-07  0.00D+00 EMaxC= 1.00D-01 BMatC= 6.37D-12 BMatP= 7.69D-10
 IDIUse=1 WtCom= 1.00D+00 WtEn= 0.00D+00
 Coeff-Com: -0.233D-04 0.324D-04 0.722D-03-0.109D+00 0.243D+00-0.381D+00
 Coeff-Com:  0.125D+01
 Coeff:     -0.233D-04 0.324D-04 0.722D-03-0.109D+00 0.243D+00-0.381D+00
 Coeff:      0.125D+01
 Gap=     0.209 Goal=   None    Shift=    0.000
 RMSDP=2.11D-06 MaxDP=7.77D-06 DE=-1.23D-08 OVMax= 2.09D-05

 Cycle   8  Pass 1  IDiag  1:
 E= -7.82196652297671     Delta-E=       -0.000000000098 Rises=F Damp=F
 DIIS: error= 3.17D-08 at cycle   8 NSaved=   8.
 NSaved= 8 IEnMin= 8 EnMin= -7.82196652297671     IErMin= 8 ErrMin= 3.17D-08
 ErrMax= 3.17D-08  0.00D+00 EMaxC= 1.00D-01 BMatC= 7.90D-15 BMatP= 6.37D-12
 IDIUse=1 WtCom= 1.00D+00 WtEn= 0.00D+00
 Coeff-Com:  0.118D-05-0.220D-05-0.122D-04 0.301D-02-0.614D-02 0.137D-01
 Coeff-Com: -0.560D-01 0.105D+01
 Coeff:      0.118D-05-0.220D-05-0.122D-04 0.301D-02-0.614D-02 0.137D-01
 Coeff:     -0.560D-01 0.105D+01
 Gap=     0.209 Goal=   None    Shift=    0.000
 RMSDP=7.83D-08 MaxDP=3.08D-07 DE=-9.76D-11 OVMax= 7.72D-07

 Cycle   9  Pass 1  IDiag  1:
 E= -7.82196652297684     Delta-E=       -0.000000000000 Rises=F Damp=F
 DIIS: error= 1.36D-09 at cycle   9 NSaved=   9.
 NSaved= 9 IEnMin= 9 EnMin= -7.82196652297684     IErMin= 9 ErrMin= 1.36D-09
 ErrMax= 1.36D-09  0.00D+00 EMaxC= 1.00D-01 BMatC= 1.77D-17 BMatP= 7.90D-15
 IDIUse=1 WtCom= 1.00D+00 WtEn= 0.00D+00
 Coeff-Com: -0.118D-06 0.239D-06 0.155D-06-0.199D-03 0.324D-03-0.134D-02
 Coeff-Com:  0.635D-02-0.177D+00 0.117D+01
 Coeff:     -0.118D-06 0.239D-06 0.155D-06-0.199D-03 0.324D-03-0.134D-02
 Coeff:      0.635D-02-0.177D+00 0.117D+01
 Gap=     0.209 Goal=   None    Shift=    0.000
 RMSDP=3.60D-09 MaxDP=1.17D-08 DE=-1.23D-13 OVMax= 3.41D-08

 SCF Done:  E(RHF) =  -7.82196652298     A.U. after    9 cycles
            NFock=  9  Conv=0.36D-08     -V/T= 2.0046
 KE= 7.786501466574D+00 PE=-1.899250842342D+01 EE= 2.854863222948D+00
 Leave Link  502 at Mon Mar 28 14:00:24 2022, MaxMem=  9663676416 cpu:               2.8 elap:               0.1
 (Enter /nopt/nrel/apps/gaussian/g16C_1/g16/l801.exe)
 Windowed orbitals will be sorted by symmetry type.
 ExpMin= 2.86D-02 ExpMax= 3.68D+01 ExpMxC= 3.68D+01 IAcc=3 IRadAn=         5 AccDes= 0.00D+00
 HarFok:  IExCor=  205 AccDes= 0.00D+00 IRadAn=         5 IDoV=-2 UseB2=F ITyADJ=14
 ICtDFT= 12500011 ScaDFX=  1.000000  1.000000  1.000000  1.000000
 Largest valence mixing into a core orbital is  5.32D-04
 Largest core mixing into a valence orbital is  6.23D-05
 Range of M.O.s used for correlation:     2    10
 NBasis=    10 NAE=     2 NBE=     2 NFC=     1 NFV=     0
 NROrb=      9 NOA=     1 NOB=     1 NVA=     8 NVB=     8
 Leave Link  801 at Mon Mar 28 14:00:24 2022, MaxMem=  9663676416 cpu:               2.8 elap:               0.1
 (Enter /nopt/nrel/apps/gaussian/g16C_1/g16/l804.exe)
 Closed-shell transformation, MDV=  9663676416 ITran=4 ISComp=2.
 Unit  1 TFree=          4817 TCopy=        115370.
 Semi-Direct transformation.
 ModeAB=           2 MOrb=             1 LenV=    9663556741
 LASXX=           88 LTotXX=          88 LenRXX=          88
 LTotAB=         141 MaxLAS=         495 LenRXY=         495
 NonZer=         603 LenScr=      785920 LnRSAI=           0
 LnScr1=           0 LExtra=      218791 Total=      1005294
 MaxDsk= 34359738368 SrtSym=           F ITran=            4
 DoSDTr:  NPSUse= 36
 JobTyp=0 Pass  1:  I=   1 to   1.
 (rs|ai) integrals will be sorted in core.
 Complete sort for first half transformation.
 First half transformation complete.
 Complete sort for second half transformation.
 Second half transformation complete.
 Spin components of T(2) and E(2):
     alpha-alpha T2 =       0.0000000000D+00 E2=      0.0000000000D+00
     alpha-beta  T2 =       0.3720614414D-01 E2=     -0.2840663733D-01
     beta-beta   T2 =       0.0000000000D+00 E2=      0.0000000000D+00
 ANorm=    0.1018433181D+01
 E2 =    -0.2840663733D-01 EUMP2 =    -0.78503731603024D+01
 Leave Link  804 at Mon Mar 28 14:00:24 2022, MaxMem=  9663676416 cpu:               1.1 elap:               0.1
 (Enter /nopt/nrel/apps/gaussian/g16C_1/g16/l913.exe)
 CIDS:  MDV=  9663676416.
 Frozen-core window:  NFC=   1 NFV=   0.
 IFCWin=0 IBDFC=1 NFBD=     0     0 NFCmp=     0     0 NFFFC=     0     0
 Using DD3R+UMP44R for 1st iteration.
 Using DD4RQ for 2nd and later iterations.
 Keep R2 and R3 ints in memory in symmetry-blocked form, NReq=7208580.
 FoFCou: FMM=F IPFlag=           0 FMFlag=           0 FMFlg1=           0
         NFxFlg=           0 DoJE=F BraDBF=F KetDBF=F FulRan=T
         wScrn=  0.000000 ICntrl=       600 IOpCl=  0 I1Cent=           0 NGrid=           0
         NMat0=    1 NMatS0=     55 NMatT0=    0 NMatD0=    1 NMtDS0=    0 NMtDT0=    0
 Petite list used in FoFCou.
 CIDS: In Core Option IDoMem=           1.
 Coupled Cluster theory with single and double substitutions
 ===========================================================
 Iterations= 200 Convergence= 0.100D-06
 Produce multiple copies of IABC intergrals
 Iteration Nr.   1
 **********************
 DD1Dir will call FoFMem   1 times, MxPair=         2
 NAB=     1 NAA=     0 NBB=     0.
 MP4(R+Q)=  0.10569014D-02
 Maximum subspace dimension=  5
 A-vector RMS=  3.3079273D-02 Max=  3.1662622D-02 conv= 1.00D-05.
 RLE energy=       -0.0505925552
 E3=       -0.13522683D-01        EUMP3=      -0.78638958429D+01
 E4(DQ)=   -0.61508006D-02        UMP4(DQ)=   -0.78700466435D+01
 E4(SDQ)=  -0.66650652D-02        UMP4(SDQ)=  -0.78705609081D+01
 VARIATIONAL ENERGIES WITH THE FIRST-ORDER WAVEFUNCTION:
 DE(Corr)= -0.40863560E-01 E(Corr)=     -7.8628300834    
 NORM(A)=   0.10616814D+01
 Iteration Nr.   2
 **********************
 DD1Dir will call FoFMem   1 times, MxPair=         2
 NAB=     1 NAA=     0 NBB=     0.
 A-vector RMS=  1.7741629D-02 Max=  2.7450521D-02 conv= 1.00D-05.
 RLE energy=       -0.0524894449
 DE(Corr)= -0.51451174E-01 E(CORR)=     -7.8734176970     Delta=-1.06D-02
 NORM(A)=   0.10721989D+01
 Iteration Nr.   3
 **********************
 DD1Dir will call FoFMem   1 times, MxPair=         2
 NAB=     1 NAA=     0 NBB=     0.
 A-vector RMS=  1.8460977D-02 Max=  2.2183858D-02 conv= 1.00D-05.
 RLE energy=       -0.0539133301
 DE(Corr)= -0.52625684E-01 E(CORR)=     -7.8745922066     Delta=-1.17D-03
 NORM(A)=   0.10938838D+01
 Iteration Nr.   4
 **********************
 DD1Dir will call FoFMem   1 times, MxPair=         2
 NAB=     1 NAA=     0 NBB=     0.
 A-vector RMS=  6.8381757D-03 Max=  1.7536748D-02 conv= 1.00D-05.
 RLE energy=       -0.0565670060
 DE(Corr)= -0.54497606E-01 E(CORR)=     -7.8764641289     Delta=-1.87D-03
 NORM(A)=   0.11231481D+01
 Iteration Nr.   5
 **********************
 DD1Dir will call FoFMem   1 times, MxPair=         2
 NAB=     1 NAA=     0 NBB=     0.
 A-vector RMS=  3.2425812D-03 Max=  3.7727347D-03 conv= 1.00D-05.
 RLE energy=       -0.0552416728
 DE(Corr)= -0.56161793E-01 E(CORR)=     -7.8781283157     Delta=-1.66D-03
 NORM(A)=   0.11161312D+01
 Iteration Nr.   6
 **********************
 DD1Dir will call FoFMem   1 times, MxPair=         2
 NAB=     1 NAA=     0 NBB=     0.
 A-vector RMS=  2.9391655D-03 Max=  3.3245411D-03 conv= 1.00D-05.
 RLE energy=       -0.0562083933
 DE(Corr)= -0.55419193E-01 E(CORR)=     -7.8773857160     Delta= 7.43D-04
 NORM(A)=   0.11276026D+01
 Iteration Nr.   7
 **********************
 DD1Dir will call FoFMem   1 times, MxPair=         2
 NAB=     1 NAA=     0 NBB=     0.
 A-vector RMS=  2.3422431D-03 Max=  3.4527828D-03 conv= 1.00D-05.
 RLE energy=       -0.0557745746
 DE(Corr)= -0.56105733E-01 E(CORR)=     -7.8780722560     Delta=-6.87D-04
 NORM(A)=   0.11230964D+01
 Iteration Nr.   8
 **********************
 DD1Dir will call FoFMem   1 times, MxPair=         2
 NAB=     1 NAA=     0 NBB=     0.
 A-vector RMS=  4.2602632D-04 Max=  8.3314805D-04 conv= 1.00D-05.
 RLE energy=       -0.0558170033
 DE(Corr)= -0.55783236E-01 E(CORR)=     -7.8777497586     Delta= 3.22D-04
 NORM(A)=   0.11235152D+01
 Iteration Nr.   9
 **********************
 DD1Dir will call FoFMem   1 times, MxPair=         2
 NAB=     1 NAA=     0 NBB=     0.
 A-vector RMS=  5.4564238D-05 Max=  6.2053377D-05 conv= 1.00D-05.
 RLE energy=       -0.0558217251
 DE(Corr)= -0.55817695E-01 E(CORR)=     -7.8777842185     Delta=-3.45D-05
 NORM(A)=   0.11236031D+01
 Iteration Nr.  10
 **********************
 DD1Dir will call FoFMem   1 times, MxPair=         2
 NAB=     1 NAA=     0 NBB=     0.
 A-vector RMS=  8.5595321D-06 Max=  7.8237313D-06 conv= 1.00D-05.
 RLE energy=       -0.0558240001
 DE(Corr)= -0.55822752E-01 E(CORR)=     -7.8777892754     Delta=-5.06D-06
 NORM(A)=   0.11236207D+01
 Iteration Nr.  11
 **********************
 DD1Dir will call FoFMem   1 times, MxPair=         2
 NAB=     1 NAA=     0 NBB=     0.
 A-vector RMS=  3.1325010D-06 Max=  3.5798762D-06 conv= 1.00D-05.
 RLE energy=       -0.0558236859
 DE(Corr)= -0.55823823E-01 E(CORR)=     -7.8777903460     Delta=-1.07D-06
 NORM(A)=   0.11236210D+01
 Iteration Nr.  12
 **********************
 DD1Dir will call FoFMem   1 times, MxPair=         2
 NAB=     1 NAA=     0 NBB=     0.
 A-vector RMS=  1.8309092D-06 Max=  1.6972138D-06 conv= 1.00D-05.
 RLE energy=       -0.0558238600
 DE(Corr)= -0.55823747E-01 E(CORR)=     -7.8777902702     Delta= 7.57D-08
 NORM(A)=   0.11236212D+01
 CI/CC converged in   12 iterations to DelEn= 7.57D-08 Conv= 1.00D-07 ErrA1= 1.83D-06 Conv= 1.00D-05
 Wavefunction amplitudes converged. E(Corr)=     -7.8777902702    
 Dominant configurations:
 ***********************
 Spin Case        I    J    A    B          Value
    AA            2         3            0.175621D+00
   ABAB           2    2    3    3      -0.171143D+00
   ABAB           2    2    3    6      -0.116737D+00
   ABAB           2    2    3    9       0.140055D+00
   ABAB           2    2    3   10      -0.108012D+00
   ABAB           2    2    6    3      -0.116737D+00
   ABAB           2    2    9    3       0.140055D+00
   ABAB           2    2    9    9      -0.128424D+00
   ABAB           2    2   10    3      -0.108012D+00
 Largest amplitude= 1.76D-01
 Discarding MO integrals.
 Leave Link  913 at Mon Mar 28 14:00:24 2022, MaxMem=  9663676416 cpu:               3.4 elap:               0.1
 (Enter /nopt/nrel/apps/gaussian/g16C_1/g16/l601.exe)
 Copying SCF densities to generalized density rwf, IOpCl= 0 IROHF=0.

 **********************************************************************

            Population analysis using the SCF Density.

 **********************************************************************

 Orbital symmetries:
       Occupied  (SG) (SG)
       Virtual   (SG) (PI) (PI) (SG) (PI) (PI) (SG) (SG)
 The electronic state is 1-SG.
 Alpha  occ. eigenvalues --   -2.51778  -0.23036
 Alpha virt. eigenvalues --   -0.02172   0.03136   0.03136   0.14650   0.18544
 Alpha virt. eigenvalues --    0.18544   0.18675   0.22635
          Condensed to atoms (all electrons):
               1          2
     1  H    0.648989   0.243819
     2  Li   0.243819   2.863373
 Mulliken charges:
               1
     1  H    0.107192
     2  Li  -0.107192
 Sum of Mulliken charges =   0.00000
 Mulliken charges with hydrogens summed into heavy atoms:
               1
     2  Li   0.000000
 N-N= 5.291772109200D-01 E-N=-1.899250843111D+01  KE= 7.786501466574D+00
 Symmetry A1   KE= 7.786501466574D+00
 Symmetry A2   KE= 0.000000000000D+00
 Symmetry B1   KE= 0.000000000000D+00
 Symmetry B2   KE= 0.000000000000D+00

 Atomic contributions to Alpha molecular orbitals:
 Alpha occ 1 OE=-2.518 is Li2-s=1.0000
 Alpha occ 2 OE=-0.230 is H1-s=0.4464 Li2-s=0.3213 Li2-p=0.2323
 Alpha vir 3 OE=-0.022 is Li2-s=0.5701 Li2-p=0.3958
 Alpha vir 4 OE=0.031 is Li2-p=1.0000
 Alpha vir 5 OE=0.031 is Li2-p=1.0000
 Alpha vir 6 OE=0.146 is Li2-s=0.6206 Li2-p=0.2856
 Alpha vir 7 OE=0.185 is Li2-p=1.0000
 Alpha vir 8 OE=0.185 is Li2-p=1.0000
 Alpha vir 9 OE=0.187 is Li2-p=0.7773 H1-s=0.1666
 Alpha vir 10 OE=0.226 is Li2-s=0.4319 Li2-p=0.3089 H1-s=0.2591
 
 Leave Link  601 at Mon Mar 28 14:00:24 2022, MaxMem=  9663676416 cpu:               2.1 elap:               0.1
 (Enter /nopt/nrel/apps/gaussian/g16C_1/g16/l9999.exe)

 Test job not archived.
 1\1\GINC-R102U34\SP\RCCSD-FC\Gen\H1Li1\USER\28-Mar-2022\0\\#P CCSD
 (MaxCyc=200,SaveAmplitudes,ReadAmplitudes)/GEN sp pop=AllOrbitals iop(
 3/33=1,3/36=-1)\\test\\0,1\H,0,0.,0.,0.\Li,0,0.,0.,3.\\Version=ES64L-G
 16RevC.01\State=1-SG\HF=-7.8219665\MP2=-7.8503732\MP3=-7.8638958\MP4D=
 -7.8711035\MP4DQ=-7.8700466\MP4SDQ=-7.8705609\CCSD=-7.8777903\RMSD=3.6
 04e-09\PG=C*V [C*(H1Li1)]\\@


 My opinions may have changed, but not the fact that I am right.
                       -- Ashleigh Brilliant
 Job cpu time:       0 days  0 hours  0 minutes 31.1 seconds.
 Elapsed time:       0 days  0 hours  0 minutes  1.2 seconds.
 File lengths (MBytes):  RWF=     13 Int=      0 D2E=      0 Chk=      1 Scr=      1
 Normal termination of Gaussian 16 at Mon Mar 28 14:00:24 2022.
