 Entering Gaussian System, Link 0=g16
 Initial command:
 /nopt/nrel/apps/gaussian/g16C_1/g16/l1.exe "/lustre/eaglefs/scratch/user/qc/kh-dissc/kh-1-ccsd-2.8-sto3g/Gau-30655.inp" -scrdir="/lustre/eaglefs/scratch/user/qc/kh-dissc/kh-1-ccsd-2.8-sto3g/"
 Default is to use a total of  36 processors:
                               36 via shared-memory
                                1 via Linda
 Entering Link 1 = /nopt/nrel/apps/gaussian/g16C_1/g16/l1.exe PID=     30656.
  
 Copyright (c) 1988-2019, Gaussian, Inc.  All Rights Reserved.
  
 This is part of the Gaussian(R) 16 program.  It is based on
 the Gaussian(R) 09 system (copyright 2009, Gaussian, Inc.),
 the Gaussian(R) 03 system (copyright 2003, Gaussian, Inc.),
 the Gaussian(R) 98 system (copyright 1998, Gaussian, Inc.),
 the Gaussian(R) 94 system (copyright 1995, Gaussian, Inc.),
 the Gaussian 92(TM) system (copyright 1992, Gaussian, Inc.),
 the Gaussian 90(TM) system (copyright 1990, Gaussian, Inc.),
 the Gaussian 88(TM) system (copyright 1988, Gaussian, Inc.),
 the Gaussian 86(TM) system (copyright 1986, Carnegie Mellon
 University), and the Gaussian 82(TM) system (copyright 1983,
 Carnegie Mellon University). Gaussian is a federally registered
 trademark of Gaussian, Inc.
  
 This software contains proprietary and confidential information,
 including trade secrets, belonging to Gaussian, Inc.
  
 This software is provided under written license and may be
 used, copied, transmitted, or stored only in accord with that
 written license.
  
 The following legend is applicable only to US Government
 contracts under FAR:
  
                    RESTRICTED RIGHTS LEGEND
  
 Use, reproduction and disclosure by the US Government is
 subject to restrictions as set forth in subparagraphs (a)
 and (c) of the Commercial Computer Software - Restricted
 Rights clause in FAR 52.227-19.
  
 Gaussian, Inc.
 340 Quinnipiac St., Bldg. 40, Wallingford CT 06492
  
  
 ---------------------------------------------------------------
 Warning -- This program may not be used in any manner that
 competes with the business of Gaussian, Inc. or will provide
 assistance to any competitor of Gaussian, Inc.  The licensee
 of this program is prohibited from giving any competitor of
 Gaussian, Inc. access to this program.  By using this program,
 the user acknowledges that Gaussian, Inc. is engaged in the
 business of creating and licensing software in the field of
 computational chemistry and represents and warrants to the
 licensee that it is not a competitor of Gaussian, Inc. and that
 it will not use this program in any manner prohibited above.
 ---------------------------------------------------------------
  

 Cite this work as:
 Gaussian 16, Revision C.01,
 M. J. Frisch, G. W. Trucks, H. B. Schlegel, G. E. Scuseria, 
 M. A. Robb, J. R. Cheeseman, G. Scalmani, V. Barone, 
 G. A. Petersson, H. Nakatsuji, X. Li, M. Caricato, A. V. Marenich, 
 J. Bloino, B. G. Janesko, R. Gomperts, B. Mennucci, H. P. Hratchian, 
 J. V. Ortiz, A. F. Izmaylov, J. L. Sonnenberg, D. Williams-Young, 
 F. Ding, F. Lipparini, F. Egidi, J. Goings, B. Peng, A. Petrone, 
 T. Henderson, D. Ranasinghe, V. G. Zakrzewski, J. Gao, N. Rega, 
 G. Zheng, W. Liang, M. Hada, M. Ehara, K. Toyota, R. Fukuda, 
 J. Hasegawa, M. Ishida, T. Nakajima, Y. Honda, O. Kitao, H. Nakai, 
 T. Vreven, K. Throssell, J. A. Montgomery, Jr., J. E. Peralta, 
 F. Ogliaro, M. J. Bearpark, J. J. Heyd, E. N. Brothers, K. N. Kudin, 
 V. N. Staroverov, T. A. Keith, R. Kobayashi, J. Normand, 
 K. Raghavachari, A. P. Rendell, J. C. Burant, S. S. Iyengar, 
 J. Tomasi, M. Cossi, J. M. Millam, M. Klene, C. Adamo, R. Cammi, 
 J. W. Ochterski, R. L. Martin, K. Morokuma, O. Farkas, 
 J. B. Foresman, and D. J. Fox, Gaussian, Inc., Wallingford CT, 2019.
 
 ******************************************
 Gaussian 16:  ES64L-G16RevC.01  3-Jul-2019
                28-Mar-2022 
 ******************************************
 %chk=molecule
 Default route: CacheSize=180224 MaxDisk=256GB
 ----------------------------------------------------------------------
 #P CCSD(MaxCyc=200,SaveAmplitudes,ReadAmplitudes)/GEN sp pop=AllOrbita
 ls iop(3/33=1,3/36=-1)
 ----------------------------------------------------------------------
 1/4=180224,38=1,172=1/1;
 2/4=180224,12=2,17=6,18=5,40=1/2;
 3/4=180224,5=7,11=9,25=1,30=1,33=1,36=-1/1,2,3;
 4/4=180224/1;
 5/4=180224,5=2,38=5/2;
 8/4=180224,6=4,9=120000,10=1,24=1/1,4;
 9/4=180224,5=7,6=200,77=1/13;
 6/4=180224,7=2,8=2,9=2,10=2,96=-1/1;
 99/4=180224,5=1,9=1/99;
 Leave Link    1 at Mon Mar 28 14:30:25 2022, MaxMem=           0 cpu:               2.2 elap:               0.1
 (Enter /nopt/nrel/apps/gaussian/g16C_1/g16/l101.exe)
 ----
 test
 ----
 Symbolic Z-matrix:
 Charge =  0 Multiplicity = 1
 H                     0.        0.        0. 
 K                     0.        0.        2.8 
 
 ITRead=  0  0
 MicOpt= -1 -1
 NAtoms=      2 NQM=        2 NQMF=       0 NMMI=      0 NMMIF=      0
                NMic=       0 NMicF=      0.
                    Isotopes and Nuclear Properties:
 (Nuclear quadrupole moments (NQMom) in fm**2, nuclear magnetic moments (NMagM)
  in nuclear magnetons)

  Atom         1           2
 IAtWgt=           1          39
 AtmWgt=   1.0078250  38.9637079
 NucSpn=           1           3
 AtZEff=  -0.0000000  -0.0000000
 NQMom=    0.0000000   5.8500000
 NMagM=    2.7928460   0.3914660
 AtZNuc=   1.0000000  19.0000000
 Leave Link  101 at Mon Mar 28 14:30:25 2022, MaxMem=  9663676416 cpu:               3.2 elap:               0.1
 (Enter /nopt/nrel/apps/gaussian/g16C_1/g16/l202.exe)
                          Input orientation:                          
 ---------------------------------------------------------------------
 Center     Atomic      Atomic             Coordinates (Angstroms)
 Number     Number       Type             X           Y           Z
 ---------------------------------------------------------------------
      1          1           0        0.000000    0.000000    0.000000
      2         19           0        0.000000    0.000000    2.800000
 ---------------------------------------------------------------------
 Stoichiometry    HK
 Framework group  C*V[C*(HK)]
 Deg. of freedom     1
 Full point group                 C*V     NOp   4
 Largest Abelian subgroup         C2V     NOp   4
 Largest concise Abelian subgroup C1      NOp   1
                         Standard orientation:                         
 ---------------------------------------------------------------------
 Center     Atomic      Atomic             Coordinates (Angstroms)
 Number     Number       Type             X           Y           Z
 ---------------------------------------------------------------------
      1          1           0        0.000000    0.000000   -2.660000
      2         19           0        0.000000    0.000000    0.140000
 ---------------------------------------------------------------------
 Rotational constants (GHZ):           0.0000000          65.6155115          65.6155115
 Leave Link  202 at Mon Mar 28 14:30:25 2022, MaxMem=  9663676416 cpu:               0.5 elap:               0.0
 (Enter /nopt/nrel/apps/gaussian/g16C_1/g16/l301.exe)
 General basis read from cards:  (5D, 7F)
                         Coordinates in L301:                         
 ---------------------------------------------------------------------
 Center     Atomic      Atomic             Coordinates (Angstroms)
 Number     Number       Type             X           Y           Z
 ---------------------------------------------------------------------
      1          1           0        0.000000    0.000000   -2.660000
      2         19           0        0.000000    0.000000    0.140000
 ---------------------------------------------------------------------
 Centers:       1
 STO-3G
 ****
 Centers:       2
 STO-3G
 ****
 FixB: optimizing general contractions.
 Ernie: Thresh=  0.10000D-02 Tol=  0.10000D-05 Strict=F.
 IA=     1 ShT= 0 ShC= 0 NL=   1 NS=   0.
 IA=     1 L=0 SC=0 ISt=    0 NBk=    0 NP=    0 IndPr=    0.
 IA=     2 ShT= 0 ShC= 0 NL=   1 NS=   0.
 IA=     2 L=0 SC=0 ISt=    0 NBk=    0 NP=    0 IndPr=    0.
 IA=     2 ShT= 1 ShC= 0 NL=   3 NS=   0.
 IA=     2 L=1 SC=0 ISt=    1 NBk=    3 NP=    9 IndPr=    0.
 DoElim1:  L=1 select primitive    1 from    2 using    1 C=-1.00D-01
 DoElim1:  L=1 select primitive    1 from    3 using    1 C=-1.00D-01
 DoElim1:  L=1 select primitive    4 from    3 using    2 C=-2.20D-01
 DoElim2:  L=1 select primitive    9 from    2 using    3 C= 1.13D+00
 DoElim2:  L=1 select primitive    9 from    1 using    3 C= 1.13D+00
 DoElim2:  L=1 select primitive    7 from    1 using    2 C= 9.00D-01
 DoElim1:  L=1 select primitive    1 from    2 using    1 C= 1.56D-01
 DoElim1:  L=1 select primitive    1 from    3 using    1 C= 1.56D-01
 DoElim1:  L=1 select primitive    4 from    3 using    2 C= 1.06D-02
 DoElim2:  L=1 select primitive    8 from    2 using    3 C= 5.72D-01
 DoElim2:  L=1 select primitive    8 from    1 using    3 C= 5.72D-01
 DoElim2:  L=1 select primitive    5 from    1 using    2 C= 5.95D-01
 Delete L=1 primitive    7 from    3 C=  0.00D+00.
 Delete L=1 primitive    5 from    3 C=  0.00D+00.
 Delete L=1 primitive    4 from    3 C=  0.00D+00.
 Delete L=1 primitive    3 from    3 C=  0.00D+00.
 Delete L=1 primitive    2 from    3 C=  0.00D+00.
 Delete L=1 primitive    1 from    3 C=  0.00D+00.
 Delete L=1 primitive    9 from    2 C=  0.00D+00.
 Delete L=1 primitive    8 from    2 C=  0.00D+00.
 Delete L=1 primitive    6 from    2 C=  0.00D+00.
 Delete L=1 primitive    3 from    2 C=  0.00D+00.
 Delete L=1 primitive    2 from    2 C=  0.00D+00.
 Delete L=1 primitive    1 from    2 C=  0.00D+00.
 Delete L=1 primitive    9 from    1 C=  0.00D+00.
 Delete L=1 primitive    8 from    1 C=  0.00D+00.
 Delete L=1 primitive    7 from    1 C=  0.00D+00.
 Delete L=1 primitive    6 from    1 C=  0.00D+00.
 Delete L=1 primitive    5 from    1 C=  0.00D+00.
 Delete L=1 primitive    4 from    1 C=  0.00D+00.
 IA=     2 L=1 SC=0 ISt=    0 NBk=    0 NP=    0 IndPr=    9.
 LdAtmC:  AtmChg=     1.000000    19.000000
 AtZEff=     -1.0000000    -22.4200000
 NEqShl: 
              1            2            3            4
     1            1            1            1            1
     2            2            2            2            2
     3            3            3            3            3
     4            4            4            4            4
     5            5            5            5            5
 NEqBas: 
              1            2            3            4
     1            1            1            1            1
     2            2            2            2            2
     3            3            3            3            3
     4            4           -4           -4            4
     5            5           -5            5           -5
     6            6            6            6            6
     7            7            7            7            7
     8            8           -8           -8            8
     9            9           -9            9           -9
    10           10           10           10           10
    11           11           11           11           11
    12           12          -12          -12           12
    13           13          -13           13          -13
    14           14           14           14           14
 There are     8 symmetry adapted cartesian basis functions of A1  symmetry.
   1         1   1   1   1
   2         2   2   2   2
   3         3   3   3   3
   4         6   6   6   6
   5         7   7   7   7
   6        10  10  10  10
   7        11  11  11  11
   8        14  14  14  14
 There are     0 symmetry adapted cartesian basis functions of A2  symmetry.
 There are     3 symmetry adapted cartesian basis functions of B1  symmetry.
   9         4   4   4   4
  10         8   8   8   8
  11        12  12  12  12
 There are     3 symmetry adapted cartesian basis functions of B2  symmetry.
  12         5   5   5   5
  13         9   9   9   9
  14        13  13  13  13
 Order= 1 2 4 3
 Reordered character table:
              1            2            3            4            5
     1            1            1            1            1            1
     2            2            1            1           -1           -1
     3            4            1           -1           -1            1
     4            3            1           -1            1           -1
 NEqShl: 
              1            2            3            4
     1            1            1            1            1
     2            2            2            2            2
     3            3            3            3            3
     4            4            4            4            4
     5            5            5            5            5
 NEqBas: 
              1            2            3            4
     1            1            1            1            1
     2            2            2            2            2
     3            3            3            3            3
     4            4           -4           -4            4
     5            5           -5            5           -5
     6            6            6            6            6
     7            7            7            7            7
     8            8           -8           -8            8
     9            9           -9            9           -9
    10           10           10           10           10
    11           11           11           11           11
    12           12          -12          -12           12
    13           13          -13           13          -13
    14           14           14           14           14
 There are     8 symmetry adapted basis functions of A1  symmetry.
   1         1   1   1   1
   2         2   2   2   2
   3         3   3   3   3
   4         6   6   6   6
   5         7   7   7   7
   6        10  10  10  10
   7        11  11  11  11
   8        14  14  14  14
 There are     0 symmetry adapted basis functions of A2  symmetry.
 There are     3 symmetry adapted basis functions of B1  symmetry.
   9         4   4   4   4
  10         8   8   8   8
  11        12  12  12  12
 There are     3 symmetry adapted basis functions of B2  symmetry.
  12         5   5   5   5
  13         9   9   9   9
  14        13  13  13  13
 Order= 1 2 4 3
 Reordered character table:
              1            2            3            4            5
     1            1            1            1            1            1
     2            2            1            1           -1           -1
     3            4            1           -1           -1            1
     4            3            1           -1            1           -1
    14 basis functions,    42 primitive gaussians,    14 cartesian basis functions
    10 alpha electrons       10 beta electrons
       nuclear repulsion energy         3.5908453598 Hartrees.
 IS=     1 IAt=     1 ISR=     1 T=0 IP=      1 IndIP=      1 IndIPD=      0 C=  2.769344D-01  0.000000D+00                             NZ=T
 IS=     1 IAt=     1 ISR=     1 T=0 IP=      2 IndIP=      2 IndIPD=      1 C=  2.678389D-01  0.000000D+00                             NZ=T
 IS=     1 IAt=     1 ISR=     1 T=0 IP=      3 IndIP=      3 IndIPD=      2 C=  8.347367D-02  0.000000D+00                             NZ=T
 IS=     2 IAt=     2 ISR=     1 T=0 IP=      1 IndIP=      4 IndIPD=      0 C=  1.610141D+01  0.000000D+00                             NZ=T
 IS=     2 IAt=     2 ISR=     1 T=0 IP=      2 IndIP=      5 IndIPD=      1 C=  1.557258D+01  0.000000D+00                             NZ=T
 IS=     2 IAt=     2 ISR=     1 T=0 IP=      3 IndIP=      6 IndIPD=      2 C=  4.853293D+00  0.000000D+00                             NZ=T
 IS=     3 IAt=     2 ISR=     2 T=1 IP=      1 IndIP=      7 IndIPD=      0 C= -1.387647D+00  3.133407D+01                             NZ=T
 IS=     3 IAt=     2 ISR=     2 T=1 IP=      2 IndIP=      8 IndIPD=      1 C=  1.856089D+00  1.970370D+01                             NZ=T
 IS=     3 IAt=     2 ISR=     2 T=1 IP=      3 IndIP=      9 IndIPD=      2 C=  1.400818D+00  3.121398D+00                             NZ=T
 IS=     4 IAt=     2 ISR=     3 T=1 IP=      1 IndIP=     10 IndIPD=      0 C= -4.134697D-01  7.617973D-02                             NZ=T
 IS=     4 IAt=     2 ISR=     3 T=1 IP=      2 IndIP=     11 IndIPD=      1 C=  1.630428D-01  8.683221D-01                             NZ=T
 IS=     4 IAt=     2 ISR=     3 T=1 IP=      3 IndIP=     12 IndIPD=      2 C=  3.220075D-01  2.086659D-01                             NZ=T
 IS=     5 IAt=     2 ISR=     4 T=1 IP=      1 IndIP=     13 IndIPD=      0 C= -1.316621D-01 -7.357036D-02                             NZ=T
 IS=     5 IAt=     2 ISR=     4 T=1 IP=      2 IndIP=     14 IndIPD=      1 C=  3.957719D-03  9.951033D-02                             NZ=T
 IS=     5 IAt=     2 ISR=     4 T=1 IP=      3 IndIP=     15 IndIPD=      2 C=  1.236808D-01  3.446781D-02                             NZ=T
 IExCor=    0 DFT=F Ex=HF Corr=None ExCW=0 ScaHFX=  1.000000
 ScaDFX=  1.000000  1.000000  1.000000  1.000000 ScalE2=  1.000000  1.000000
 IRadAn=      5 IRanWt=     -1 IRanGd=            0 ICorTp=0 IEmpDi=  4
 NAtoms=    2 NActive=    2 NUniq=    2 SFac= 1.00D+00 NAtFMM=   60 NAOKFM=F Big=F
 Integral buffers will be    131072 words long.
 Raffenetti 1 integral format.
 Two-electron integral symmetry is turned on.
 Leave Link  301 at Mon Mar 28 14:30:25 2022, MaxMem=  9663676416 cpu:               2.1 elap:               0.1
 (Enter /nopt/nrel/apps/gaussian/g16C_1/g16/l302.exe)
 NPDir=0 NMtPBC=     1 NCelOv=     1 NCel=       1 NClECP=     1 NCelD=      1
         NCelK=      1 NCelE2=     1 NClLst=     1 CellRange=     0.0.
 One-electron integrals computed using PRISM.
 One-electron integral symmetry used in STVInt
 Entering OneElI...
 Calculate overlap and kinetic energy integrals
    NBasis =  14  MinDer = 0  MaxDer = 0
 Requested accuracy = 0.1000D-12
 Symmetry will be used
 PrmmSu-InSpLW:  IPartL=    0 NPrtUS=   36 NPrtUL=    1 DoSpLW=F IThBeg=    0 IThEnd=   35 NThAct=   36.
 PrSmSu:  IncTry=   512 NBBP=             15 NTPThr=   100 NPartT=   36 Incr=           1 LDynOK=F GPUOK=F.
 PrsmSu:  NPrtUS=  36 ThrOK=T IAlg=1 LenDen=           0 ISkipM=0 DoSpLW=F IThBeg=    0 IThEnd=   35.
 Prism:   IPart=     0 DynPar=F LinDyn=F Incr=           1.
 PRISM was handed   268433378 working-precision words and    15 shell-pairs
 PRISM was handed   268433378 working-precision words and    15 shell-pairs
 PRISM was handed   268433378 working-precision words and    15 shell-pairs
 PRISM was handed   268433378 working-precision words and    15 shell-pairs
 PRISM was handed   268433378 working-precision words and    15 shell-pairs
 PRISM was handed   268433378 working-precision words and    15 shell-pairs
 PRISM was handed   268433378 working-precision words and    15 shell-pairs
 PRISM was handed   268433378 working-precision words and    15 shell-pairs
 PRISM was handed   268433378 working-precision words and    15 shell-pairs
 PRISM was handed   268433378 working-precision words and    15 shell-pairs
 PRISM was handed   268433378 working-precision words and    15 shell-pairs
 PRISM was handed   268433378 working-precision words and    15 shell-pairs
 IPart= 11 NShTot=           0 NBatch=           0 AvBLen=         0.0
 IPart= 16 NShTot=           0 NBatch=           0 AvBLen=         0.0
 IPart= 20 NShTot=           0 NBatch=           0 AvBLen=         0.0
 IPart=  8 NShTot=           0 NBatch=           0 AvBLen=         0.0
 IPart= 29 NShTot=           0 NBatch=           0 AvBLen=         0.0
 IPart= 15 NShTot=           0 NBatch=           0 AvBLen=         0.0
 IPart= 33 NShTot=           0 NBatch=           0 AvBLen=         0.0
 IPart= 23 NShTot=           0 NBatch=           0 AvBLen=         0.0
 PRISM was handed   268433378 working-precision words and    15 shell-pairs
 IPart= 32 NShTot=           0 NBatch=           0 AvBLen=         0.0
 PRISM was handed   268433378 working-precision words and    15 shell-pairs
 PRISM was handed   268433378 working-precision words and    15 shell-pairs
 PRISM was handed   268433378 working-precision words and    15 shell-pairs
 PRISM was handed   268433378 working-precision words and    15 shell-pairs
 IPart=  5 NShTot=           1 NBatch=           1 AvBLen=         1.0
 PRISM was handed   268433378 working-precision words and    15 shell-pairs
 PRISM was handed   268433378 working-precision words and    15 shell-pairs
 PRISM was handed   268433378 working-precision words and    15 shell-pairs
 IPart=  2 NShTot=           2 NBatch=           2 AvBLen=         1.0
 PRISM was handed   268433378 working-precision words and    15 shell-pairs
 IPart=  4 NShTot=           2 NBatch=           2 AvBLen=         1.0
 PRISM was handed   268433378 working-precision words and    15 shell-pairs
 IPart=  7 NShTot=           0 NBatch=           0 AvBLen=         0.0
 IPart= 18 NShTot=           0 NBatch=           0 AvBLen=         0.0
 IPart=  3 NShTot=           2 NBatch=           2 AvBLen=         1.0
 IPart= 25 NShTot=           0 NBatch=           0 AvBLen=         0.0
 IPart= 34 NShTot=           0 NBatch=           0 AvBLen=         0.0
 IPart= 22 NShTot=           0 NBatch=           0 AvBLen=         0.0
 IPart= 24 NShTot=           0 NBatch=           0 AvBLen=         0.0
 PRISM was handed   268433378 working-precision words and    15 shell-pairs
 IPart= 14 NShTot=           0 NBatch=           0 AvBLen=         0.0
 IPart= 27 NShTot=           0 NBatch=           0 AvBLen=         0.0
 PRISM was handed   268433378 working-precision words and    15 shell-pairs
 PRISM was handed   268433378 working-precision words and    15 shell-pairs
 PRISM was handed   268433378 working-precision words and    15 shell-pairs
 IPart=  6 NShTot=           0 NBatch=           0 AvBLen=         0.0
 IPart= 19 NShTot=           0 NBatch=           0 AvBLen=         0.0
 IPart= 17 NShTot=           0 NBatch=           0 AvBLen=         0.0
 IPart= 31 NShTot=           0 NBatch=           0 AvBLen=         0.0
 PRISM was handed   268433378 working-precision words and    15 shell-pairs
 IPart=  0 NShTot=           5 NBatch=           5 AvBLen=         1.0
 PRISM was handed   268433378 working-precision words and    15 shell-pairs
 PRISM was handed   268433378 working-precision words and    15 shell-pairs
 PRISM was handed   268433378 working-precision words and    15 shell-pairs
 PRISM was handed   268433378 working-precision words and    15 shell-pairs
 IPart= 10 NShTot=           0 NBatch=           0 AvBLen=         0.0
 PRISM was handed   268433378 working-precision words and    15 shell-pairs
 PRISM was handed   268433378 working-precision words and    15 shell-pairs
 PRISM was handed   268433378 working-precision words and    15 shell-pairs
 PRISM was handed   268433378 working-precision words and    15 shell-pairs
 PRISM was handed   268433378 working-precision words and    15 shell-pairs
 IPart= 26 NShTot=           0 NBatch=           0 AvBLen=         0.0
 IPart= 21 NShTot=           0 NBatch=           0 AvBLen=         0.0
 IPart= 28 NShTot=           0 NBatch=           0 AvBLen=         0.0
 IPart=  1 NShTot=           3 NBatch=           3 AvBLen=         1.0
 IPart= 35 NShTot=           0 NBatch=           0 AvBLen=         0.0
 IPart= 30 NShTot=           0 NBatch=           0 AvBLen=         0.0
 IPart=  9 NShTot=           0 NBatch=           0 AvBLen=         0.0
 IPart= 12 NShTot=           0 NBatch=           0 AvBLen=         0.0
 IPart= 13 NShTot=           0 NBatch=           0 AvBLen=         0.0
 PrSmSu:  NxtVal=             37.
 *** Overlap *** 
                1             2             3             4             5 
      1  0.100000D+01
      2  0.128016D-03  0.100000D+01
      3  0.100570D-02  0.354956D+00  0.100000D+01
      4  0.000000D+00  0.000000D+00  0.000000D+00  0.100000D+01
      5  0.000000D+00  0.000000D+00  0.000000D+00  0.000000D+00  0.100000D+01
      6 -0.551835D-03  0.000000D+00  0.000000D+00  0.000000D+00  0.000000D+00
      7  0.138908D-01  0.177465D-01  0.276696D+00  0.000000D+00  0.000000D+00
      8  0.000000D+00  0.000000D+00  0.000000D+00  0.290978D+00  0.000000D+00
      9  0.000000D+00  0.000000D+00  0.000000D+00  0.000000D+00  0.290978D+00
     10 -0.180746D-01  0.000000D+00  0.000000D+00  0.000000D+00  0.000000D+00
     11  0.138738D+00 -0.411512D-03  0.141138D-01  0.000000D+00  0.000000D+00
     12  0.000000D+00  0.000000D+00  0.000000D+00  0.256077D-01  0.000000D+00
     13  0.000000D+00  0.000000D+00  0.000000D+00  0.000000D+00  0.256077D-01
     14 -0.213623D+00  0.000000D+00  0.000000D+00  0.000000D+00  0.000000D+00
                6             7             8             9            10 
      6  0.100000D+01
      7  0.000000D+00  0.100000D+01
      8  0.000000D+00  0.000000D+00  0.100000D+01
      9  0.000000D+00  0.000000D+00  0.000000D+00  0.100000D+01
     10  0.290978D+00  0.000000D+00  0.000000D+00  0.000000D+00  0.100000D+01
     11  0.000000D+00  0.437056D+00  0.000000D+00  0.000000D+00  0.000000D+00
     12  0.000000D+00  0.000000D+00  0.445695D+00  0.000000D+00  0.000000D+00
     13  0.000000D+00  0.000000D+00  0.000000D+00  0.445695D+00  0.000000D+00
     14  0.256077D-01  0.000000D+00  0.000000D+00  0.000000D+00  0.445695D+00
               11            12            13            14 
     11  0.100000D+01
     12  0.000000D+00  0.100000D+01
     13  0.000000D+00  0.000000D+00  0.100000D+01
     14  0.000000D+00  0.000000D+00  0.000000D+00  0.100000D+01
 *** Kinetic Energy *** 
                1             2             3             4             5 
      1  0.760032D+00
      2 -0.138409D-03  0.171191D+03
      3 -0.100102D-02  0.616344D+00  0.841372D+01
      4  0.000000D+00  0.000000D+00  0.000000D+00  0.263276D+02
      5  0.000000D+00  0.000000D+00  0.000000D+00  0.000000D+00  0.263276D+02
      6  0.374360D-03  0.000000D+00  0.000000D+00  0.000000D+00  0.000000D+00
      7 -0.729516D-02 -0.508771D+00 -0.622783D+00  0.000000D+00  0.000000D+00
      8  0.000000D+00  0.000000D+00  0.000000D+00  0.115183D+01  0.000000D+00
      9  0.000000D+00  0.000000D+00  0.000000D+00  0.000000D+00  0.115183D+01
     10  0.680295D-02  0.000000D+00  0.000000D+00  0.000000D+00  0.000000D+00
     11 -0.236638D-02 -0.277145D-01 -0.148074D+00  0.000000D+00  0.000000D+00
     12  0.000000D+00  0.000000D+00  0.000000D+00 -0.149366D-01  0.000000D+00
     13  0.000000D+00  0.000000D+00  0.000000D+00  0.000000D+00 -0.149366D-01
     14 -0.788713D-02  0.000000D+00  0.000000D+00  0.000000D+00  0.000000D+00
                6             7             8             9            10 
      6  0.263276D+02
      7  0.000000D+00  0.750794D+00
      8  0.000000D+00  0.000000D+00  0.175622D+01
      9  0.000000D+00  0.000000D+00  0.000000D+00  0.175622D+01
     10  0.115183D+01  0.000000D+00  0.000000D+00  0.000000D+00  0.175622D+01
     11  0.000000D+00 -0.454110D-01  0.000000D+00  0.000000D+00  0.000000D+00
     12  0.000000D+00  0.000000D+00  0.159934D+00  0.000000D+00  0.000000D+00
     13  0.000000D+00  0.000000D+00  0.000000D+00  0.159934D+00  0.000000D+00
     14 -0.149366D-01  0.000000D+00  0.000000D+00  0.000000D+00  0.159934D+00
               11            12            13            14 
     11  0.146782D+00
     12  0.000000D+00  0.289753D+00
     13  0.000000D+00  0.000000D+00  0.289753D+00
     14  0.000000D+00  0.000000D+00  0.000000D+00  0.289753D+00
 Entering OneElI...
 Calculate potential energy integrals
    NBasis =  14  MinDer = 0  MaxDer = 0
 Requested accuracy = 0.1000D-12
 Symmetry will be used
 PrmmSu-InSpLW:  IPartL=    0 NPrtUS=   36 NPrtUL=    1 DoSpLW=F IThBeg=    0 IThEnd=   35 NThAct=   36.
 PrSmSu:  IncTry=   512 NBBP=             30 NTPThr=   100 NPartT=   36 Incr=           1 LDynOK=F GPUOK=F.
 PrsmSu:  NPrtUS=  36 ThrOK=T IAlg=1 LenDen=           0 ISkipM=0 DoSpLW=F IThBeg=    0 IThEnd=   35.
 Prism:   IPart=     0 DynPar=F LinDyn=F Incr=           1.
 PRISM was handed   268433487 working-precision words and    15 shell-pairs
 PRISM was handed   268433487 working-precision words and    15 shell-pairs
 PRISM was handed   268433487 working-precision words and    15 shell-pairs
 PRISM was handed   268433487 working-precision words and    15 shell-pairs
 PRISM was handed   268433487 working-precision words and    15 shell-pairs
 PRISM was handed   268433487 working-precision words and    15 shell-pairs
 PRISM was handed   268433487 working-precision words and    15 shell-pairs
 PRISM was handed   268433487 working-precision words and    15 shell-pairs
 PRISM was handed   268433487 working-precision words and    15 shell-pairs
 PRISM was handed   268433487 working-precision words and    15 shell-pairs
 PRISM was handed   268433487 working-precision words and    15 shell-pairs
 PRISM was handed   268433487 working-precision words and    15 shell-pairs
 PRISM was handed   268433487 working-precision words and    15 shell-pairs
 PRISM was handed   268433487 working-precision words and    15 shell-pairs
 PRISM was handed   268433487 working-precision words and    15 shell-pairs
 PRISM was handed   268433487 working-precision words and    15 shell-pairs
 PRISM was handed   268433487 working-precision words and    15 shell-pairs
 PRISM was handed   268433487 working-precision words and    15 shell-pairs
 PRISM was handed   268433487 working-precision words and    15 shell-pairs
 PRISM was handed   268433487 working-precision words and    15 shell-pairs
 PRISM was handed   268433487 working-precision words and    15 shell-pairs
 PRISM was handed   268433487 working-precision words and    15 shell-pairs
 PRISM was handed   268433487 working-precision words and    15 shell-pairs
 PRISM was handed   268433487 working-precision words and    15 shell-pairs
 PRISM was handed   268433487 working-precision words and    15 shell-pairs
 PRISM was handed   268433487 working-precision words and    15 shell-pairs
 PRISM was handed   268433487 working-precision words and    15 shell-pairs
 PRISM was handed   268433487 working-precision words and    15 shell-pairs
 PRISM was handed   268433487 working-precision words and    15 shell-pairs
 PRISM was handed   268433487 working-precision words and    15 shell-pairs
 PRISM was handed   268433487 working-precision words and    15 shell-pairs
 PRISM was handed   268433487 working-precision words and    15 shell-pairs
 PRISM was handed   268433487 working-precision words and    15 shell-pairs
 PRISM was handed   268433487 working-precision words and    15 shell-pairs
 PRISM was handed   268433487 working-precision words and    15 shell-pairs
 PRISM was handed   268433487 working-precision words and    15 shell-pairs
 IPart= 21 NShTot=           0 NBatch=           0 AvBLen=         0.0
 IPart= 18 NShTot=           0 NBatch=           0 AvBLen=         0.0
 IPart= 34 NShTot=           0 NBatch=           0 AvBLen=         0.0
 IPart= 28 NShTot=           0 NBatch=           0 AvBLen=         0.0
 IPart= 31 NShTot=           0 NBatch=           0 AvBLen=         0.0
 IPart= 27 NShTot=           0 NBatch=           0 AvBLen=         0.0
 IPart=  6 NShTot=           0 NBatch=           0 AvBLen=         0.0
 IPart= 11 NShTot=           0 NBatch=           0 AvBLen=         0.0
 IPart=  9 NShTot=           0 NBatch=           0 AvBLen=         0.0
 IPart= 19 NShTot=           0 NBatch=           0 AvBLen=         0.0
 IPart= 20 NShTot=           0 NBatch=           0 AvBLen=         0.0
 IPart= 16 NShTot=           0 NBatch=           0 AvBLen=         0.0
 IPart= 15 NShTot=           0 NBatch=           0 AvBLen=         0.0
 IPart= 29 NShTot=           0 NBatch=           0 AvBLen=         0.0
 IPart= 23 NShTot=           0 NBatch=           0 AvBLen=         0.0
 IPart=  7 NShTot=           0 NBatch=           0 AvBLen=         0.0
 IPart= 32 NShTot=           0 NBatch=           0 AvBLen=         0.0
 IPart= 10 NShTot=           0 NBatch=           0 AvBLen=         0.0
 IPart= 13 NShTot=           0 NBatch=           0 AvBLen=         0.0
 IPart= 17 NShTot=           0 NBatch=           0 AvBLen=         0.0
 IPart= 22 NShTot=           0 NBatch=           0 AvBLen=         0.0
 IPart=  8 NShTot=           0 NBatch=           0 AvBLen=         0.0
 IPart= 33 NShTot=           0 NBatch=           0 AvBLen=         0.0
 IPart= 35 NShTot=           0 NBatch=           0 AvBLen=         0.0
 IPart= 14 NShTot=           0 NBatch=           0 AvBLen=         0.0
 IPart= 26 NShTot=           0 NBatch=           0 AvBLen=         0.0
 IPart= 24 NShTot=           0 NBatch=           0 AvBLen=         0.0
 IPart= 30 NShTot=           0 NBatch=           0 AvBLen=         0.0
 IPart= 12 NShTot=           0 NBatch=           0 AvBLen=         0.0
 IPart= 25 NShTot=           0 NBatch=           0 AvBLen=         0.0
 IPart=  4 NShTot=           2 NBatch=           1 AvBLen=         2.0
 IPart=  5 NShTot=           2 NBatch=           1 AvBLen=         2.0
 IPart=  2 NShTot=           4 NBatch=           2 AvBLen=         2.0
 IPart=  3 NShTot=           4 NBatch=           2 AvBLen=         2.0
 IPart=  1 NShTot=           6 NBatch=           3 AvBLen=         2.0
 IPart=  0 NShTot=          12 NBatch=           6 AvBLen=         2.0
 PrSmSu:  NxtVal=             37.
 ***** Potential Energy ***** 
                1             2             3             4             5 
      1  0.481745D+01
      2  0.230223D-01  0.349962D+03
      3  0.457763D-01  0.639573D+02  0.695569D+02
      4  0.000000D+00  0.000000D+00  0.000000D+00  0.690014D+02
      5  0.000000D+00  0.000000D+00  0.000000D+00  0.000000D+00  0.690014D+02
      6 -0.191086D-01 -0.108230D-02 -0.709753D-02  0.000000D+00  0.000000D+00
      7  0.153492D+00  0.276998D+01  0.111273D+02  0.000000D+00  0.000000D+00
      8  0.000000D+00  0.000000D+00  0.000000D+00  0.116183D+02  0.000000D+00
      9  0.000000D+00  0.000000D+00  0.000000D+00  0.000000D+00  0.116183D+02
     10 -0.177113D+00 -0.658441D-04 -0.331414D-02  0.000000D+00  0.000000D+00
     11  0.740749D+00 -0.973707D-01  0.362020D+00  0.000000D+00  0.000000D+00
     12  0.000000D+00  0.000000D+00  0.000000D+00  0.886512D+00  0.000000D+00
     13  0.000000D+00  0.000000D+00  0.000000D+00  0.000000D+00  0.886512D+00
     14 -0.112230D+01 -0.372896D-05 -0.320859D-03  0.000000D+00  0.000000D+00
                6             7             8             9            10 
      6  0.690019D+02
      7 -0.346781D-02  0.176110D+02
      8  0.000000D+00  0.000000D+00  0.176370D+02
      9  0.000000D+00  0.000000D+00  0.000000D+00  0.176370D+02
     10  0.116188D+02 -0.262383D-01  0.000000D+00  0.000000D+00  0.176445D+02
     11 -0.257274D-03  0.506863D+01  0.000000D+00  0.000000D+00 -0.174363D-01
     12  0.000000D+00  0.000000D+00  0.525664D+01  0.000000D+00  0.000000D+00
     13  0.000000D+00  0.000000D+00  0.000000D+00  0.525664D+01  0.000000D+00
     14  0.886567D+00 -0.169537D-01  0.000000D+00  0.000000D+00  0.526394D+01
               11            12            13            14 
     11  0.698476D+01
     12  0.000000D+00  0.697062D+01
     13  0.000000D+00  0.000000D+00  0.697062D+01
     14 -0.637801D-01  0.000000D+00  0.000000D+00  0.701314D+01
 ****** Core Hamiltonian ****** 
                1             2             3             4             5 
      1 -0.405742D+01
      2 -0.231607D-01 -0.178771D+03
      3 -0.467773D-01 -0.633410D+02 -0.611431D+02
      4  0.000000D+00  0.000000D+00  0.000000D+00 -0.426738D+02
      5  0.000000D+00  0.000000D+00  0.000000D+00  0.000000D+00 -0.426738D+02
      6  0.194830D-01  0.108230D-02  0.709753D-02  0.000000D+00  0.000000D+00
      7 -0.160787D+00 -0.327875D+01 -0.117501D+02  0.000000D+00  0.000000D+00
      8  0.000000D+00  0.000000D+00  0.000000D+00 -0.104665D+02  0.000000D+00
      9  0.000000D+00  0.000000D+00  0.000000D+00  0.000000D+00 -0.104665D+02
     10  0.183916D+00  0.658441D-04  0.331414D-02  0.000000D+00  0.000000D+00
     11 -0.743115D+00  0.696561D-01 -0.510094D+00  0.000000D+00  0.000000D+00
     12  0.000000D+00  0.000000D+00  0.000000D+00 -0.901449D+00  0.000000D+00
     13  0.000000D+00  0.000000D+00  0.000000D+00  0.000000D+00 -0.901449D+00
     14  0.111441D+01  0.372896D-05  0.320859D-03  0.000000D+00  0.000000D+00
                6             7             8             9            10 
      6 -0.426744D+02
      7  0.346781D-02 -0.168602D+02
      8  0.000000D+00  0.000000D+00 -0.158808D+02
      9  0.000000D+00  0.000000D+00  0.000000D+00 -0.158808D+02
     10 -0.104670D+02  0.262383D-01  0.000000D+00  0.000000D+00 -0.158883D+02
     11  0.257274D-03 -0.511404D+01  0.000000D+00  0.000000D+00  0.174363D-01
     12  0.000000D+00  0.000000D+00 -0.509671D+01  0.000000D+00  0.000000D+00
     13  0.000000D+00  0.000000D+00  0.000000D+00 -0.509671D+01  0.000000D+00
     14 -0.901503D+00  0.169537D-01  0.000000D+00  0.000000D+00 -0.510400D+01
               11            12            13            14 
     11 -0.683797D+01
     12  0.000000D+00 -0.668087D+01
     13  0.000000D+00  0.000000D+00 -0.668087D+01
     14  0.637801D-01  0.000000D+00  0.000000D+00 -0.672338D+01
 SVDSVc IOpt=   1 NormSV=T IR=1
 SVDSVc V= 1.60D+00 1.56D+00 1.28D+00 1.08D+00 8.77D-01 6.96D-01 4.62D-01 4.33D-01
 SVDSVc IOpt=   1 NormSV=T IR=3
 SVDSVc V= 1.54D+00 9.77D-01 4.79D-01
 SVDSVc IOpt=   1 NormSV=T IR=4
 SVDSVc V= 1.54D+00 9.77D-01 4.79D-01
 TstOVc:  Largest diagonal error= 8.88D-16 IB=1 I=    7.
 TstOVc:  Largest same sym error= 6.87D-16 IB=1 I=    8 J=    7.
 TstOVc:  Largest diff sym error= 0.00D+00 IB=0 JB=0 I=    0 J=    0.
 Orthogonalized basis functions: 
                 1             2             3             4             5 
      1   0.203693D+00 -0.892777D-01 -0.214183D+00  0.596165D+00 -0.647602D+00
      2   0.177181D+00  0.184113D+00  0.536003D+00  0.176642D+00 -0.187975D+00
      3   0.283175D+00  0.277331D+00  0.434484D+00  0.507110D-01  0.540905D-01
      4   0.000000D+00  0.000000D+00  0.000000D+00  0.000000D+00  0.000000D+00
      5   0.000000D+00  0.000000D+00  0.000000D+00  0.000000D+00  0.000000D+00
      6  -0.166087D+00  0.231320D+00 -0.102891D+00  0.584256D+00  0.649789D+00
      7   0.373728D+00  0.318427D+00 -0.224097D+00 -0.208860D+00  0.222976D+00
      8   0.000000D+00  0.000000D+00  0.000000D+00  0.000000D+00  0.000000D+00
      9   0.000000D+00  0.000000D+00  0.000000D+00  0.000000D+00  0.000000D+00
     10  -0.316908D+00  0.416035D+00 -0.992707D-01  0.193258D+00 -0.241905D+00
     11   0.323647D+00  0.231277D+00 -0.433894D+00 -0.972091D-01 -0.687299D-01
     12   0.000000D+00  0.000000D+00  0.000000D+00  0.000000D+00  0.000000D+00
     13   0.000000D+00  0.000000D+00  0.000000D+00  0.000000D+00  0.000000D+00
     14  -0.312866D+00  0.372564D+00 -0.400883D-02 -0.321890D+00 -0.383781D+00
                 6             7             8             9            10 
      1  -0.256442D+00 -0.172854D+00  0.340949D+00  0.000000D+00  0.000000D+00
      2   0.736556D+00  0.290337D+00  0.330529D+00  0.000000D+00  0.000000D+00
      3  -0.615055D+00 -0.468106D+00 -0.566915D+00  0.000000D+00  0.000000D+00
      4   0.000000D+00  0.000000D+00  0.000000D+00  0.323218D+00  0.847647D+00
      5   0.000000D+00  0.000000D+00  0.000000D+00  0.000000D+00  0.000000D+00
      6   0.122236D+00 -0.407655D+00  0.270434D+00  0.000000D+00  0.000000D+00
      7  -0.297645D+00  0.558052D+00  0.769330D+00  0.000000D+00  0.000000D+00
      8   0.000000D+00  0.000000D+00  0.000000D+00  0.562627D+00 -0.196580D-01
      9   0.000000D+00  0.000000D+00  0.000000D+00  0.000000D+00  0.000000D+00
     10  -0.127906D+00  0.816898D+00 -0.576019D+00  0.000000D+00  0.000000D+00
     11   0.574618D+00 -0.396494D+00 -0.662618D+00  0.000000D+00  0.000000D+00
     12   0.000000D+00  0.000000D+00  0.000000D+00  0.475981D+00 -0.552364D+00
     13   0.000000D+00  0.000000D+00  0.000000D+00  0.000000D+00  0.000000D+00
     14  -0.297825D-02 -0.726387D+00  0.569481D+00  0.000000D+00  0.000000D+00
                11            12            13            14 
      1   0.000000D+00  0.000000D+00  0.000000D+00  0.000000D+00
      2   0.000000D+00  0.000000D+00  0.000000D+00  0.000000D+00
      3   0.000000D+00  0.000000D+00  0.000000D+00  0.000000D+00
      4  -0.534697D+00  0.000000D+00  0.000000D+00  0.000000D+00
      5   0.000000D+00  0.323218D+00  0.847647D+00 -0.534697D+00
      6   0.000000D+00  0.000000D+00  0.000000D+00  0.000000D+00
      7   0.000000D+00  0.000000D+00  0.000000D+00  0.000000D+00
      8   0.103243D+01  0.000000D+00  0.000000D+00  0.000000D+00
      9   0.000000D+00  0.562627D+00 -0.196580D-01  0.103243D+01
     10   0.000000D+00  0.000000D+00  0.000000D+00  0.000000D+00
     11   0.000000D+00  0.000000D+00  0.000000D+00  0.000000D+00
     12  -0.857278D+00  0.000000D+00  0.000000D+00  0.000000D+00
     13   0.000000D+00  0.475981D+00 -0.552364D+00 -0.857278D+00
     14   0.000000D+00  0.000000D+00  0.000000D+00  0.000000D+00
 NBasis=    14 RedAO= T EigKep=  4.33D-01  NBF=     8     0     3     3
 NBsUse=    14 1.00D-06 EigRej= -1.00D+00 NBFU=     8     0     3     3
 Leave Link  302 at Mon Mar 28 14:30:25 2022, MaxMem=  9663676416 cpu:               3.5 elap:               0.1
 (Enter /nopt/nrel/apps/gaussian/g16C_1/g16/l303.exe)
 DipDrv will not compute anything.
 Fermi contact integrals: 
                 1             2 
      1   0.628247D+00  0.738651D-03
      2   0.000000D+00  0.365273D+02
      3   0.000000D+00  0.186926D+01
      4   0.000000D+00  0.000000D+00
      5   0.000000D+00  0.000000D+00
      6   0.000000D+00  0.000000D+00
      7   0.456591D-05  0.715806D-01
      8   0.000000D+00  0.000000D+00
      9   0.000000D+00  0.000000D+00
     10  -0.156556D-04  0.000000D+00
     11   0.124255D-01 -0.402363D-02
     12   0.000000D+00  0.000000D+00
     13   0.000000D+00  0.000000D+00
     14  -0.211733D-01  0.000000D+00
 Leave Link  303 at Mon Mar 28 14:30:25 2022, MaxMem=  9663676416 cpu:               1.0 elap:               0.1
 (Enter /nopt/nrel/apps/gaussian/g16C_1/g16/l401.exe)
 ExpMin= 8.21D-02 ExpMax= 7.72D+02 ExpMxC= 7.72D+02 IAcc=3 IRadAn=         5 AccDes= 0.00D+00
 Harris functional with IExCor=  205 and IRadAn=       5 diagonalized for initial guess.
 HarFok:  IExCor=  205 AccDes= 0.00D+00 IRadAn=         5 IDoV= 1 UseB2=F ITyADJ=14
 ICtDFT=  3500011 ScaDFX=  1.000000  1.000000  1.000000  1.000000
 FoFCou: FMM=F IPFlag=           0 FMFlag=      100000 FMFlg1=           0
         NFxFlg=           0 DoJE=T BraDBF=F KetDBF=T FulRan=T
         wScrn=  0.000000 ICntrl=       500 IOpCl=  0 I1Cent=   200000004 NGrid=           0
         NMat0=    1 NMatS0=      1 NMatT0=    0 NMatD0=    1 NMtDS0=    0 NMtDT0=    0
 Petite list used in FoFCou.
 Harris En= -592.903434373907    
 JPrj=0 DoOrth=F DoCkMO=F.
 Initial guess orbital symmetries:
       Occupied  (SG) (SG) (SG) (PI) (PI) (SG) (SG) (PI) (PI) (SG)
       Virtual   (SG) (PI) (PI) (SG)
 The electronic state of the initial guess is 1-SG.
 Leave Link  401 at Mon Mar 28 14:30:26 2022, MaxMem=  9663676416 cpu:               3.6 elap:               0.1
 (Enter /nopt/nrel/apps/gaussian/g16C_1/g16/l502.exe)
 Keep R1 ints in memory in symmetry-blocked form, NReq=7216392.
 FoFCou: FMM=F IPFlag=           0 FMFlag=           0 FMFlg1=           0
         NFxFlg=           0 DoJE=F BraDBF=F KetDBF=F FulRan=T
         wScrn=  0.000000 ICntrl=       600 IOpCl=  0 I1Cent=           0 NGrid=           0
         NMat0=    1 NMatS0=    105 NMatT0=    0 NMatD0=    1 NMtDS0=    0 NMtDT0=    0
 Petite list used in FoFCou.
 Closed shell SCF:
 Using DIIS extrapolation, IDIIS=  1040.
 NGot=  9663676416 LenX=  9663671753 LenY=  9663670871
 Requested convergence on RMS density matrix=1.00D-08 within 128 cycles.
 Requested convergence on MAX density matrix=1.00D-06.
 Requested convergence on             energy=1.00D-06.
 No special actions if energy rises.

 Cycle   1  Pass 1  IDiag  1:
 E= -593.438490977413    
 DIIS: error= 5.26D-02 at cycle   1 NSaved=   1.
 NSaved= 1 IEnMin= 1 EnMin= -593.438490977413     IErMin= 1 ErrMin= 5.26D-02
 ErrMax= 5.26D-02  0.00D+00 EMaxC= 1.00D-01 BMatC= 5.47D-02 BMatP= 5.47D-02
 IDIUse=3 WtCom= 4.74D-01 WtEn= 5.26D-01
 Coeff-Com:  0.100D+01
 Coeff-En:   0.100D+01
 Coeff:      0.100D+01
 Gap=     0.132 Goal=   None    Shift=    0.000
 GapD=    0.132 DampG=1.000 DampE=0.500 DampFc=0.5000 IDamp=-1.
 Damping current iteration by 5.00D-01
 RMSDP=4.93D-02 MaxDP=3.30D-01              OVMax= 0.00D+00

 Cycle   2  Pass 1  IDiag  1:
 E= -593.479603281039     Delta-E=       -0.041112303626 Rises=F Damp=T
 DIIS: error= 2.50D-02 at cycle   2 NSaved=   2.
 NSaved= 2 IEnMin= 2 EnMin= -593.479603281039     IErMin= 2 ErrMin= 2.50D-02
 ErrMax= 2.50D-02  0.00D+00 EMaxC= 1.00D-01 BMatC= 1.04D-02 BMatP= 5.47D-02
 IDIUse=3 WtCom= 7.50D-01 WtEn= 2.50D-01
 Coeff-Com: -0.749D+00 0.175D+01
 Coeff-En:   0.000D+00 0.100D+01
 Coeff:     -0.562D+00 0.156D+01
 Gap=     0.273 Goal=   None    Shift=    0.000
 RMSDP=1.51D-02 MaxDP=9.34D-02 DE=-4.11D-02 OVMax= 0.00D+00

 Cycle   3  Pass 1  IDiag  1:
 E= -593.518654357579     Delta-E=       -0.039051076540 Rises=F Damp=F
 DIIS: error= 1.22D-03 at cycle   3 NSaved=   3.
 NSaved= 3 IEnMin= 3 EnMin= -593.518654357579     IErMin= 3 ErrMin= 1.22D-03
 ErrMax= 1.22D-03  0.00D+00 EMaxC= 1.00D-01 BMatC= 1.55D-05 BMatP= 1.04D-02
 IDIUse=3 WtCom= 9.88D-01 WtEn= 1.22D-02
 Coeff-Com: -0.125D-01 0.127D-01 0.100D+01
 Coeff-En:   0.000D+00 0.000D+00 0.100D+01
 Coeff:     -0.123D-01 0.125D-01 0.100D+01
 Gap=     0.279 Goal=   None    Shift=    0.000
 RMSDP=8.28D-04 MaxDP=5.22D-03 DE=-3.91D-02 OVMax= 0.00D+00

 Cycle   4  Pass 1  IDiag  1:
 E= -593.518700107212     Delta-E=       -0.000045749633 Rises=F Damp=F
 DIIS: error= 1.71D-04 at cycle   4 NSaved=   4.
 NSaved= 4 IEnMin= 4 EnMin= -593.518700107212     IErMin= 4 ErrMin= 1.71D-04
 ErrMax= 1.71D-04  0.00D+00 EMaxC= 1.00D-01 BMatC= 8.07D-07 BMatP= 1.55D-05
 IDIUse=3 WtCom= 9.98D-01 WtEn= 1.71D-03
 Coeff-Com:  0.541D-02-0.942D-02-0.212D+00 0.122D+01
 Coeff-En:   0.000D+00 0.000D+00 0.000D+00 0.100D+01
 Coeff:      0.540D-02-0.940D-02-0.212D+00 0.122D+01
 Gap=     0.280 Goal=   None    Shift=    0.000
 RMSDP=2.41D-04 MaxDP=1.35D-03 DE=-4.57D-05 OVMax= 0.00D+00

 Cycle   5  Pass 1  IDiag  1:
 E= -593.518703311628     Delta-E=       -0.000003204416 Rises=F Damp=F
 DIIS: error= 5.87D-05 at cycle   5 NSaved=   5.
 NSaved= 5 IEnMin= 5 EnMin= -593.518703311628     IErMin= 5 ErrMin= 5.87D-05
 ErrMax= 5.87D-05  0.00D+00 EMaxC= 1.00D-01 BMatC= 4.28D-08 BMatP= 8.07D-07
 IDIUse=1 WtCom= 1.00D+00 WtEn= 0.00D+00
 Coeff-Com: -0.415D-02 0.894D-02-0.323D-01-0.486D-01 0.108D+01
 Coeff:     -0.415D-02 0.894D-02-0.323D-01-0.486D-01 0.108D+01
 Gap=     0.280 Goal=   None    Shift=    0.000
 RMSDP=4.99D-05 MaxDP=2.67D-04 DE=-3.20D-06 OVMax= 0.00D+00

 Cycle   6  Pass 1  IDiag  1:
 E= -593.518703463930     Delta-E=       -0.000000152301 Rises=F Damp=F
 DIIS: error= 1.10D-05 at cycle   6 NSaved=   6.
 NSaved= 6 IEnMin= 6 EnMin= -593.518703463930     IErMin= 6 ErrMin= 1.10D-05
 ErrMax= 1.10D-05  0.00D+00 EMaxC= 1.00D-01 BMatC= 2.09D-09 BMatP= 4.28D-08
 IDIUse=1 WtCom= 1.00D+00 WtEn= 0.00D+00
 Coeff-Com:  0.845D-03-0.180D-02 0.594D-02 0.317D-01-0.565D+00 0.153D+01
 Coeff:      0.845D-03-0.180D-02 0.594D-02 0.317D-01-0.565D+00 0.153D+01
 Gap=     0.280 Goal=   None    Shift=    0.000
 RMSDP=1.64D-05 MaxDP=8.92D-05 DE=-1.52D-07 OVMax= 0.00D+00

 Cycle   7  Pass 1  IDiag  1:
 E= -593.518703472646     Delta-E=       -0.000000008716 Rises=F Damp=F
 DIIS: error= 1.44D-06 at cycle   7 NSaved=   7.
 NSaved= 7 IEnMin= 7 EnMin= -593.518703472646     IErMin= 7 ErrMin= 1.44D-06
 ErrMax= 1.44D-06  0.00D+00 EMaxC= 1.00D-01 BMatC= 3.09D-11 BMatP= 2.09D-09
 IDIUse=1 WtCom= 1.00D+00 WtEn= 0.00D+00
 Coeff-Com: -0.167D-03 0.353D-03-0.701D-03-0.892D-02 0.141D+00-0.305D+00
 Coeff-Com:  0.117D+01
 Coeff:     -0.167D-03 0.353D-03-0.701D-03-0.892D-02 0.141D+00-0.305D+00
 Coeff:      0.117D+01
 Gap=     0.280 Goal=   None    Shift=    0.000
 RMSDP=1.49D-06 MaxDP=9.21D-06 DE=-8.72D-09 OVMax= 0.00D+00

 Cycle   8  Pass 1  IDiag  1:
 E= -593.518703472722     Delta-E=       -0.000000000076 Rises=F Damp=F
 DIIS: error= 4.19D-07 at cycle   8 NSaved=   8.
 NSaved= 8 IEnMin= 8 EnMin= -593.518703472722     IErMin= 8 ErrMin= 4.19D-07
 ErrMax= 4.19D-07  0.00D+00 EMaxC= 1.00D-01 BMatC= 2.10D-12 BMatP= 3.09D-11
 IDIUse=1 WtCom= 1.00D+00 WtEn= 0.00D+00
 Coeff-Com:  0.138D-04-0.277D-04-0.120D-03 0.234D-02-0.310D-01 0.421D-01
 Coeff-Com: -0.338D+00 0.132D+01
 Coeff:      0.138D-04-0.277D-04-0.120D-03 0.234D-02-0.310D-01 0.421D-01
 Coeff:     -0.338D+00 0.132D+01
 Gap=     0.280 Goal=   None    Shift=    0.000
 RMSDP=4.65D-07 MaxDP=2.44D-06 DE=-7.58D-11 OVMax= 0.00D+00

 Cycle   9  Pass 1  IDiag  1:
 E= -593.518703472729     Delta-E=       -0.000000000008 Rises=F Damp=F
 DIIS: error= 2.99D-08 at cycle   9 NSaved=   9.
 NSaved= 9 IEnMin= 9 EnMin= -593.518703472729     IErMin= 9 ErrMin= 2.99D-08
 ErrMax= 2.99D-08  0.00D+00 EMaxC= 1.00D-01 BMatC= 1.37D-14 BMatP= 2.10D-12
 IDIUse=1 WtCom= 1.00D+00 WtEn= 0.00D+00
 Coeff-Com: -0.132D-05 0.255D-05 0.248D-04-0.361D-03 0.470D-02-0.475D-02
 Coeff-Com:  0.512D-01-0.185D+00 0.113D+01
 Coeff:     -0.132D-05 0.255D-05 0.248D-04-0.361D-03 0.470D-02-0.475D-02
 Coeff:      0.512D-01-0.185D+00 0.113D+01
 Gap=     0.280 Goal=   None    Shift=    0.000
 RMSDP=3.88D-08 MaxDP=2.09D-07 DE=-7.73D-12 OVMax= 0.00D+00

 Cycle  10  Pass 1  IDiag  1:
 E= -593.518703472729     Delta-E=        0.000000000000 Rises=F Damp=F
 DIIS: error= 3.13D-09 at cycle  10 NSaved=  10.
 NSaved=10 IEnMin= 9 EnMin= -593.518703472729     IErMin=10 ErrMin= 3.13D-09
 ErrMax= 3.13D-09  0.00D+00 EMaxC= 1.00D-01 BMatC= 1.19D-16 BMatP= 1.37D-14
 IDIUse=1 WtCom= 1.00D+00 WtEn= 0.00D+00
 Coeff-Com:  0.268D-07-0.533D-07-0.339D-06 0.938D-05-0.139D-03 0.899D-04
 Coeff-Com: -0.132D-02-0.260D-02-0.597D-01 0.106D+01
 Coeff:      0.268D-07-0.533D-07-0.339D-06 0.938D-05-0.139D-03 0.899D-04
 Coeff:     -0.132D-02-0.260D-02-0.597D-01 0.106D+01
 Gap=     0.280 Goal=   None    Shift=    0.000
 RMSDP=3.36D-09 MaxDP=1.78D-08 DE= 1.14D-13 OVMax= 0.00D+00

 SCF Done:  E(RHF) =  -593.518703473     A.U. after   10 cycles
            NFock= 10  Conv=0.34D-08     -V/T= 1.9993
 KE= 5.939455113363D+02 PE=-1.419349853875D+03 EE= 2.282947937062D+02
 Leave Link  502 at Mon Mar 28 14:30:26 2022, MaxMem=  9663676416 cpu:               3.1 elap:               0.1
 (Enter /nopt/nrel/apps/gaussian/g16C_1/g16/l801.exe)
 Windowed orbitals will be sorted by symmetry type.
 ExpMin= 8.21D-02 ExpMax= 7.72D+02 ExpMxC= 7.72D+02 IAcc=3 IRadAn=         5 AccDes= 0.00D+00
 HarFok:  IExCor=  205 AccDes= 0.00D+00 IRadAn=         5 IDoV=-2 UseB2=F ITyADJ=14
 ICtDFT= 12500011 ScaDFX=  1.000000  1.000000  1.000000  1.000000
 Largest valence mixing into a core orbital is  1.32D-03
 Largest core mixing into a valence orbital is  7.33D-05
 Range of M.O.s used for correlation:    10    14
 NBasis=    14 NAE=    10 NBE=    10 NFC=     9 NFV=     0
 NROrb=      5 NOA=     1 NOB=     1 NVA=     4 NVB=     4
 Leave Link  801 at Mon Mar 28 14:30:26 2022, MaxMem=  9663676416 cpu:               1.6 elap:               0.1
 (Enter /nopt/nrel/apps/gaussian/g16C_1/g16/l804.exe)
 Closed-shell transformation, MDV=  9663676416 ITran=4 ISComp=2.
 Unit  1 TFree=          8174 TCopy=        219116.
 Semi-Direct transformation.
 ModeAB=           2 MOrb=             1 LenV=    9663555802
 LASXX=           12 LTotXX=          12 LenRXX=          12
 LTotAB=          28 MaxLAS=         525 LenRXY=         525
 NonZer=         615 LenScr=      785920 LnRSAI=           0
 LnScr1=           0 LExtra=      220081 Total=      1006538
 MaxDsk= 34359738368 SrtSym=           F ITran=            4
 DoSDTr:  NPSUse= 36
 JobTyp=0 Pass  1:  I=   1 to   1.
 (rs|ai) integrals will be sorted in core.
 Complete sort for first half transformation.
 First half transformation complete.
 Complete sort for second half transformation.
 Second half transformation complete.
 Spin components of T(2) and E(2):
     alpha-alpha T2 =       0.0000000000D+00 E2=      0.0000000000D+00
     alpha-beta  T2 =       0.3901156274D-01 E2=     -0.2880210574D-01
     beta-beta   T2 =       0.0000000000D+00 E2=      0.0000000000D+00
 ANorm=    0.1019319166D+01
 E2 =    -0.2880210574D-01 EUMP2 =    -0.59354750557847D+03
 Leave Link  804 at Mon Mar 28 14:30:26 2022, MaxMem=  9663676416 cpu:               2.3 elap:               0.1
 (Enter /nopt/nrel/apps/gaussian/g16C_1/g16/l913.exe)
 CIDS:  MDV=  9663676416.
 Frozen-core window:  NFC=   9 NFV=   0.
 IFCWin=0 IBDFC=1 NFBD=     0     0 NFCmp=     0     0 NFFFC=     0     0
 Using DD3R+UMP44R for 1st iteration.
 Using DD4RQ for 2nd and later iterations.
 Keep R2 and R3 ints in memory in symmetry-blocked form, NReq=7218778.
 FoFCou: FMM=F IPFlag=           0 FMFlag=           0 FMFlg1=           0
         NFxFlg=           0 DoJE=F BraDBF=F KetDBF=F FulRan=T
         wScrn=  0.000000 ICntrl=       600 IOpCl=  0 I1Cent=           0 NGrid=           0
         NMat0=    1 NMatS0=    105 NMatT0=    0 NMatD0=    1 NMtDS0=    0 NMtDT0=    0
 Petite list used in FoFCou.
 CIDS: In Core Option IDoMem=           1.
 Coupled Cluster theory with single and double substitutions
 ===========================================================
 Iterations= 200 Convergence= 0.100D-06
 Produce multiple copies of IABC intergrals
 Iteration Nr.   1
 **********************
 DD1Dir will call FoFMem   1 times, MxPair=         2
 NAB=     1 NAA=     0 NBB=     0.
 MP4(R+Q)=  0.11236152D-02
 Maximum subspace dimension=  5
 A-vector RMS=  9.0187708D-02 Max=  6.8566911D-02 conv= 1.00D-05.
 RLE energy=       -0.0465325586
 E3=       -0.12577864D-01        EUMP3=      -0.59356008344D+03
 E4(DQ)=   -0.53594664D-02        UMP4(DQ)=   -0.59356544291D+03
 E4(SDQ)=  -0.81002733D-02        UMP4(SDQ)=  -0.59356818372D+03
 VARIATIONAL ENERGIES WITH THE FIRST-ORDER WAVEFUNCTION:
 DE(Corr)= -0.39789573E-01 E(Corr)=     -593.55849305    
 NORM(A)=   0.10651705D+01
 Iteration Nr.   2
 **********************
 DD1Dir will call FoFMem   1 times, MxPair=         2
 NAB=     1 NAA=     0 NBB=     0.
 A-vector RMS=  2.1766207D-02 Max=  6.9418490D-02 conv= 1.00D-05.
 RLE energy=       -0.0564174623
 DE(Corr)= -0.52554908E-01 E(CORR)=     -593.57125838     Delta=-1.28D-02
 NORM(A)=   0.10974021D+01
 Iteration Nr.   3
 **********************
 DD1Dir will call FoFMem   1 times, MxPair=         2
 NAB=     1 NAA=     0 NBB=     0.
 A-vector RMS=  1.9320007D-02 Max=  1.3932666D-02 conv= 1.00D-05.
 RLE energy=       -0.0556060359
 DE(Corr)= -0.55664787E-01 E(CORR)=     -593.57436826     Delta=-3.11D-03
 NORM(A)=   0.11025991D+01
 Iteration Nr.   4
 **********************
 DD1Dir will call FoFMem   1 times, MxPair=         2
 NAB=     1 NAA=     0 NBB=     0.
 A-vector RMS=  7.8673333D-03 Max=  1.1014940D-02 conv= 1.00D-05.
 RLE energy=       -0.0568048486
 DE(Corr)= -0.56065357E-01 E(CORR)=     -593.57476883     Delta=-4.01D-04
 NORM(A)=   0.11146507D+01
 Iteration Nr.   5
 **********************
 DD1Dir will call FoFMem   1 times, MxPair=         2
 NAB=     1 NAA=     0 NBB=     0.
 A-vector RMS=  5.4216038D-04 Max=  1.1879843D-03 conv= 1.00D-05.
 RLE energy=       -0.0569834630
 DE(Corr)= -0.56920517E-01 E(CORR)=     -593.57562399     Delta=-8.55D-04
 NORM(A)=   0.11153576D+01
 Iteration Nr.   6
 **********************
 DD1Dir will call FoFMem   1 times, MxPair=         2
 NAB=     1 NAA=     0 NBB=     0.
 A-vector RMS=  5.3267634D-05 Max=  1.1725617D-04 conv= 1.00D-05.
 RLE energy=       -0.0569594836
 DE(Corr)= -0.56970787E-01 E(CORR)=     -593.57567426     Delta=-5.03D-05
 NORM(A)=   0.11152406D+01
 Iteration Nr.   7
 **********************
 DD1Dir will call FoFMem   1 times, MxPair=         2
 NAB=     1 NAA=     0 NBB=     0.
 A-vector RMS=  1.5074085D-05 Max=  1.3555988D-05 conv= 1.00D-05.
 RLE energy=       -0.0569614258
 DE(Corr)= -0.56959956E-01 E(CORR)=     -593.57566343     Delta= 1.08D-05
 NORM(A)=   0.11152552D+01
 Iteration Nr.   8
 **********************
 DD1Dir will call FoFMem   1 times, MxPair=         2
 NAB=     1 NAA=     0 NBB=     0.
 A-vector RMS=  6.6730520D-07 Max=  9.8249243D-07 conv= 1.00D-05.
 RLE energy=       -0.0569616105
 DE(Corr)= -0.56961518E-01 E(CORR)=     -593.57566499     Delta=-1.56D-06
 NORM(A)=   0.11152563D+01
 Iteration Nr.   9
 **********************
 DD1Dir will call FoFMem   1 times, MxPair=         2
 NAB=     1 NAA=     0 NBB=     0.
 A-vector RMS=  1.4290395D-08 Max=  1.2156357D-08 conv= 1.00D-05.
 RLE energy=       -0.0569616106
 DE(Corr)= -0.56961610E-01 E(CORR)=     -593.57566508     Delta=-9.21D-08
 NORM(A)=   0.11152563D+01
 CI/CC converged in    9 iterations to DelEn=-9.21D-08 Conv= 1.00D-07 ErrA1= 1.43D-08 Conv= 1.00D-05
 Wavefunction amplitudes converged. E(Corr)=     -593.57566508    
 Dominant configurations:
 ***********************
 Spin Case        I    J    A    B          Value
    AA           10        11            0.170502D+00
   ABAB          10   10   11   11      -0.333979D+00
   ABAB          10   10   11   14       0.176843D+00
   ABAB          10   10   14   11       0.176843D+00
   ABAB          10   10   14   14      -0.106967D+00
 Largest amplitude= 3.34D-01
 Discarding MO integrals.
 Leave Link  913 at Mon Mar 28 14:30:26 2022, MaxMem=  9663676416 cpu:               3.3 elap:               0.1
 (Enter /nopt/nrel/apps/gaussian/g16C_1/g16/l601.exe)
 Copying SCF densities to generalized density rwf, IOpCl= 0 IROHF=0.

 **********************************************************************

            Population analysis using the SCF Density.

 **********************************************************************

 Orbital symmetries:
       Occupied  (SG) (SG) (PI) (PI) (SG) (SG) (PI) (PI) (SG) (SG)
       Virtual   (SG) (PI) (PI) (SG)
 The electronic state is 1-SG.
 Alpha  occ. eigenvalues -- -131.95134 -14.17110 -11.27495 -11.27495 -11.27426
 Alpha  occ. eigenvalues --   -1.67644  -0.89196  -0.89196  -0.88646  -0.11396
 Alpha virt. eigenvalues --    0.16597   0.34020   0.34020   0.43883
          Condensed to atoms (all electrons):
               1          2
     1  H    1.121600   0.167759
     2  K    0.167759  18.542883
 Mulliken charges:
               1
     1  H   -0.289359
     2  K    0.289359
 Sum of Mulliken charges =  -0.00000
 Mulliken charges with hydrogens summed into heavy atoms:
               1
     2  K   -0.000000
 N-N= 3.590845359814D+00 E-N=-1.419349854013D+03  KE= 5.939455113363D+02
 Symmetry A1   KE= 4.768560670937D+02
 Symmetry A2   KE= 0.000000000000D+00
 Symmetry B1   KE= 5.854472212131D+01
 Symmetry B2   KE= 5.854472212131D+01

 Atomic contributions to Alpha molecular orbitals:
 Alpha occ 1 OE=-131.951 is K2-s=1.0000
 Alpha occ 2 OE=-14.171 is K2-s=1.0000
 Alpha occ 3 OE=-11.275 is K2-p=1.0000
 Alpha occ 4 OE=-11.275 is K2-p=1.0000
 Alpha occ 5 OE=-11.274 is K2-p=1.0000
 Alpha occ 6 OE=-1.676 is K2-s=0.9983
 Alpha occ 7 OE=-0.892 is K2-p=1.0000
 Alpha occ 8 OE=-0.892 is K2-p=1.0000
 Alpha occ 9 OE=-0.886 is K2-p=0.9980
 Alpha occ 10 OE=-0.114 is H1-s=0.6445 K2-s=0.2897
 Alpha vir 11 OE=0.166 is K2-s=0.6580 K2-p=0.1740 H1-s=0.1680
 Alpha vir 12 OE=0.340 is K2-p=1.0000
 Alpha vir 13 OE=0.340 is K2-p=1.0000
 Alpha vir 14 OE=0.439 is K2-p=0.7606 H1-s=0.1873
 
 Leave Link  601 at Mon Mar 28 14:30:26 2022, MaxMem=  9663676416 cpu:               1.1 elap:               0.1
 (Enter /nopt/nrel/apps/gaussian/g16C_1/g16/l9999.exe)

 Test job not archived.
 1\1\GINC-R102U34\SP\RCCSD-FC\Gen\H1K1\USER\28-Mar-2022\0\\#P CCSD(
 MaxCyc=200,SaveAmplitudes,ReadAmplitudes)/GEN sp pop=AllOrbitals iop(3
 /33=1,3/36=-1)\\test\\0,1\H,0,0.,0.,0.\K,0,0.,0.,2.8\\Version=ES64L-G1
 6RevC.01\State=1-SG\HF=-593.5187035\MP2=-593.5475056\MP3=-593.5600834\
 MP4D=-593.5665665\MP4DQ=-593.5654429\MP4SDQ=-593.5681837\CCSD=-593.575
 6651\RMSD=3.364e-09\PG=C*V [C*(H1K1)]\\@


 TWO ROADS DIVERGED IN A WOOD, AND I--
 I TOOK THE ONE LESS TRAVELED BY,
 AND THAT HAS MADE ALL THE DIFFERENCE.

                       -- ROBERT FROST
 Job cpu time:       0 days  0 hours  0 minutes 28.8 seconds.
 Elapsed time:       0 days  0 hours  0 minutes  1.1 seconds.
 File lengths (MBytes):  RWF=     13 Int=      0 D2E=      0 Chk=      1 Scr=      1
 Normal termination of Gaussian 16 at Mon Mar 28 14:30:26 2022.
