 Entering Gaussian System, Link 0=g16
 Initial command:
 /nopt/nrel/apps/gaussian/g16C_1/g16/l1.exe "/lustre/eaglefs/scratch/user/qc/tih-dissc-sto3g/tih-4-ccsd-1.3-ccd/Gau-235245.inp" -scrdir="/lustre/eaglefs/scratch/user/qc/tih-dissc-sto3g/tih-4-ccsd-1.3-ccd/"
 Default is to use a total of  36 processors:
                               36 via shared-memory
                                1 via Linda
 Entering Link 1 = /nopt/nrel/apps/gaussian/g16C_1/g16/l1.exe PID=    235246.
  
 Copyright (c) 1988-2019, Gaussian, Inc.  All Rights Reserved.
  
 This is part of the Gaussian(R) 16 program.  It is based on
 the Gaussian(R) 09 system (copyright 2009, Gaussian, Inc.),
 the Gaussian(R) 03 system (copyright 2003, Gaussian, Inc.),
 the Gaussian(R) 98 system (copyright 1998, Gaussian, Inc.),
 the Gaussian(R) 94 system (copyright 1995, Gaussian, Inc.),
 the Gaussian 92(TM) system (copyright 1992, Gaussian, Inc.),
 the Gaussian 90(TM) system (copyright 1990, Gaussian, Inc.),
 the Gaussian 88(TM) system (copyright 1988, Gaussian, Inc.),
 the Gaussian 86(TM) system (copyright 1986, Carnegie Mellon
 University), and the Gaussian 82(TM) system (copyright 1983,
 Carnegie Mellon University). Gaussian is a federally registered
 trademark of Gaussian, Inc.
  
 This software contains proprietary and confidential information,
 including trade secrets, belonging to Gaussian, Inc.
  
 This software is provided under written license and may be
 used, copied, transmitted, or stored only in accord with that
 written license.
  
 The following legend is applicable only to US Government
 contracts under FAR:
  
                    RESTRICTED RIGHTS LEGEND
  
 Use, reproduction and disclosure by the US Government is
 subject to restrictions as set forth in subparagraphs (a)
 and (c) of the Commercial Computer Software - Restricted
 Rights clause in FAR 52.227-19.
  
 Gaussian, Inc.
 340 Quinnipiac St., Bldg. 40, Wallingford CT 06492
  
  
 ---------------------------------------------------------------
 Warning -- This program may not be used in any manner that
 competes with the business of Gaussian, Inc. or will provide
 assistance to any competitor of Gaussian, Inc.  The licensee
 of this program is prohibited from giving any competitor of
 Gaussian, Inc. access to this program.  By using this program,
 the user acknowledges that Gaussian, Inc. is engaged in the
 business of creating and licensing software in the field of
 computational chemistry and represents and warrants to the
 licensee that it is not a competitor of Gaussian, Inc. and that
 it will not use this program in any manner prohibited above.
 ---------------------------------------------------------------
  

 Cite this work as:
 Gaussian 16, Revision C.01,
 M. J. Frisch, G. W. Trucks, H. B. Schlegel, G. E. Scuseria, 
 M. A. Robb, J. R. Cheeseman, G. Scalmani, V. Barone, 
 G. A. Petersson, H. Nakatsuji, X. Li, M. Caricato, A. V. Marenich, 
 J. Bloino, B. G. Janesko, R. Gomperts, B. Mennucci, H. P. Hratchian, 
 J. V. Ortiz, A. F. Izmaylov, J. L. Sonnenberg, D. Williams-Young, 
 F. Ding, F. Lipparini, F. Egidi, J. Goings, B. Peng, A. Petrone, 
 T. Henderson, D. Ranasinghe, V. G. Zakrzewski, J. Gao, N. Rega, 
 G. Zheng, W. Liang, M. Hada, M. Ehara, K. Toyota, R. Fukuda, 
 J. Hasegawa, M. Ishida, T. Nakajima, Y. Honda, O. Kitao, H. Nakai, 
 T. Vreven, K. Throssell, J. A. Montgomery, Jr., J. E. Peralta, 
 F. Ogliaro, M. J. Bearpark, J. J. Heyd, E. N. Brothers, K. N. Kudin, 
 V. N. Staroverov, T. A. Keith, R. Kobayashi, J. Normand, 
 K. Raghavachari, A. P. Rendell, J. C. Burant, S. S. Iyengar, 
 J. Tomasi, M. Cossi, J. M. Millam, M. Klene, C. Adamo, R. Cammi, 
 J. W. Ochterski, R. L. Martin, K. Morokuma, O. Farkas, 
 J. B. Foresman, and D. J. Fox, Gaussian, Inc., Wallingford CT, 2019.
 
 ******************************************
 Gaussian 16:  ES64L-G16RevC.01  3-Jul-2019
                28-Mar-2022 
 ******************************************
 %chk=molecule
 Default route: CacheSize=180224 MaxDisk=256GB
 --------------------------------------------------------------
 #P CCSD(MaxCyc=200)/GEN sp pop=AllOrbitals iop(3/33=1,3/36=-1)
 --------------------------------------------------------------
 1/4=180224,38=1,172=1/1;
 2/4=180224,12=2,17=6,18=5,40=1/2;
 3/4=180224,5=7,11=9,25=1,30=1,33=1,36=-1/1,2,3;
 4/4=180224/1;
 5/4=180224,5=2,38=5/2;
 8/4=180224,6=4,9=120000,10=1/1,4;
 9/4=180224,5=7,6=200/13;
 6/4=180224,7=2,8=2,9=2,10=2,96=-1/1;
 99/4=180224,5=1,9=1/99;
 Leave Link    1 at Mon Mar 28 10:01:54 2022, MaxMem=           0 cpu:               4.0 elap:               0.1
 (Enter /nopt/nrel/apps/gaussian/g16C_1/g16/l101.exe)
 ----
 test
 ----
 Symbolic Z-matrix:
 Charge =  0 Multiplicity = 4
 H                     0.        0.        0. 
 Ti                    0.        0.        1.3 
 
 ITRead=  0  0
 MicOpt= -1 -1
 NAtoms=      2 NQM=        2 NQMF=       0 NMMI=      0 NMMIF=      0
                NMic=       0 NMicF=      0.
                    Isotopes and Nuclear Properties:
 (Nuclear quadrupole moments (NQMom) in fm**2, nuclear magnetic moments (NMagM)
  in nuclear magnetons)

  Atom         1           2
 IAtWgt=           1          48
 AtmWgt=   1.0078250  47.9479467
 NucSpn=           1           0
 AtZEff=  -0.0000000  -0.0000000
 NQMom=    0.0000000   0.0000000
 NMagM=    2.7928460   0.0000000
 AtZNuc=   1.0000000  22.0000000
 Leave Link  101 at Mon Mar 28 10:01:54 2022, MaxMem=  9663676416 cpu:               3.2 elap:               0.1
 (Enter /nopt/nrel/apps/gaussian/g16C_1/g16/l202.exe)
                          Input orientation:                          
 ---------------------------------------------------------------------
 Center     Atomic      Atomic             Coordinates (Angstroms)
 Number     Number       Type             X           Y           Z
 ---------------------------------------------------------------------
      1          1           0        0.000000    0.000000    0.000000
      2         22           0        0.000000    0.000000    1.300000
 ---------------------------------------------------------------------
 Stoichiometry    HTi(4)
 Framework group  C*V[C*(HTi)]
 Deg. of freedom     1
 Full point group                 C*V     NOp   4
 Largest Abelian subgroup         C2V     NOp   4
 Largest concise Abelian subgroup C1      NOp   1
                         Standard orientation:                         
 ---------------------------------------------------------------------
 Center     Atomic      Atomic             Coordinates (Angstroms)
 Number     Number       Type             X           Y           Z
 ---------------------------------------------------------------------
      1          1           0        0.000000    0.000000   -1.243478
      2         22           0        0.000000    0.000000    0.056522
 ---------------------------------------------------------------------
 Rotational constants (GHZ):           0.0000000         302.9557775         302.9557775
 Leave Link  202 at Mon Mar 28 10:01:54 2022, MaxMem=  9663676416 cpu:               0.4 elap:               0.0
 (Enter /nopt/nrel/apps/gaussian/g16C_1/g16/l301.exe)
 General basis read from cards:  (5D, 7F)
                         Coordinates in L301:                         
 ---------------------------------------------------------------------
 Center     Atomic      Atomic             Coordinates (Angstroms)
 Number     Number       Type             X           Y           Z
 ---------------------------------------------------------------------
      1          1           0        0.000000    0.000000   -1.243478
      2         22           0        0.000000    0.000000    0.056522
 ---------------------------------------------------------------------
 Centers:       1
 STO-3G
 ****
 Centers:       2
 cc-pVDZ
 ****
 FixB: optimizing general contractions.
 Ernie: Thresh=  0.10000D-02 Tol=  0.10000D-05 Strict=F.
 IA=     1 ShT= 0 ShC= 0 NL=   1 NS=   0.
 IA=     1 L=0 SC=0 ISt=    0 NBk=    0 NP=    0 IndPr=    0.
 IA=     2 ShT= 0 ShC= 0 NL=   6 NS=   1.
 IA=     2 L=0 SC=0 ISt=    1 NBk=    5 NP=   20 IndPr=    0.
 DoElim1:  L=0 select primitive    4 from    2 using    1 C= 1.39D-03
 DoElim1:  L=0 select primitive    4 from    3 using    1 C= 1.39D-03
 DoElim1:  L=0 select primitive    4 from    4 using    1 C= 1.39D-03
 DoElim1:  L=0 select primitive    4 from    5 using    1 C= 1.39D-03
 DoElim1:  L=0 select primitive    8 from    3 using    2 C=-3.89D-03
 DoElim1:  L=0 select primitive    8 from    4 using    2 C=-3.89D-03
 DoElim1:  L=0 select primitive    8 from    5 using    2 C=-3.89D-03
 DoElim1:  L=0 select primitive   11 from    3 using    5 C= 1.17D-02
 DoElim1:  L=0 select primitive   11 from    4 using    5 C= 1.17D-02
 DoElim1:  L=0 select primitive   13 from    4 using    3 C=-8.51D-02
 DoElim2:  L=0 select primitive   19 from    3 using    4 C= 5.74D-01
 DoElim2:  L=0 select primitive   19 from    5 using    4 C= 5.74D-01
 DoElim2:  L=0 select primitive   19 from    2 using    4 C= 5.74D-01
 DoElim2:  L=0 select primitive   19 from    1 using    4 C= 5.74D-01
 DoElim2:  L=0 select primitive   16 from    5 using    3 C= 9.20D-01
 DoElim2:  L=0 select primitive   16 from    2 using    3 C= 9.20D-01
 DoElim2:  L=0 select primitive   16 from    1 using    3 C= 9.20D-01
 DoElim2:  L=0 select primitive   18 from    2 using    5 C= 2.21D+00
 DoElim2:  L=0 select primitive   18 from    1 using    5 C= 2.21D+00
 DoElim2:  L=0 select primitive   14 from    1 using    2 C= 5.61D-01
 DoElim:  L=0 eliminating redundant primitive   20        0.025465 from    1
 DoElim:  L=0 eliminating redundant primitive   20        0.025465 from    2
 DoElim:  L=0 eliminating redundant primitive   20        0.025465 from    3
 DoElim:  L=0 eliminating redundant primitive   20        0.025465 from    4
 DoElim:  L=0 eliminating redundant primitive   20        0.025465 from    5
 Delete L=0 primitive   20 from    5 C=  0.00D+00.
 Delete L=0 primitive   19 from    5 C=  1.06D-16.
 Delete L=0 primitive   16 from    5 C=  8.35D-17.
 Delete L=0 primitive    8 from    5 C=  4.74D-20.
 Delete L=0 primitive    4 from    5 C=  4.08D-21.
 Delete L=0 primitive    3 from    5 C=  5.15D-07.
 Delete L=0 primitive    2 from    5 C=  2.27D-08.
 Delete L=0 primitive    1 from    5 C=  9.55D-09.
 Delete L=0 primitive   20 from    4 C=  0.00D+00.
 Delete L=0 primitive   13 from    4 C=  1.29D-19.
 Delete L=0 primitive   11 from    4 C=  2.99D-20.
 Delete L=0 primitive    8 from    4 C=  1.24D-20.
 Delete L=0 primitive    7 from    4 C=  4.43D-07.
 Delete L=0 primitive    6 from    4 C=  1.27D-08.
 Delete L=0 primitive    5 from    4 C=  3.14D-08.
 Delete L=0 primitive    4 from    4 C=  2.49D-21.
 Delete L=0 primitive    3 from    4 C=  1.55D-09.
 Delete L=0 primitive    2 from    4 C=  6.75D-11.
 Delete L=0 primitive    1 from    4 C=  2.88D-11.
 Delete L=0 primitive   20 from    3 C=  0.00D+00.
 Delete L=0 primitive   19 from    3 C=  1.53D-17.
 Delete L=0 primitive   11 from    3 C=  7.09D-20.
 Delete L=0 primitive    8 from    3 C=  2.65D-20.
 Delete L=0 primitive    4 from    3 C=  2.52D-20.
 Delete L=0 primitive    3 from    3 C=  1.58D-07.
 Delete L=0 primitive    2 from    3 C=  6.88D-09.
 Delete L=0 primitive    1 from    3 C=  2.93D-09.
 Delete L=0 primitive   20 from    2 C=  0.00D+00.
 Delete L=0 primitive   19 from    2 C=  2.91D-19.
 Delete L=0 primitive   18 from    2 C=  6.20D-20.
 Delete L=0 primitive   16 from    2 C=  4.25D-19.
 Delete L=0 primitive    4 from    2 C=  7.32D-20.
 Delete L=0 primitive    3 from    2 C=  1.41D-07.
 Delete L=0 primitive    2 from    2 C=  3.76D-08.
 Delete L=0 primitive    1 from    2 C=  4.97D-09.
 Delete L=0 primitive   20 from    1 C=  0.00D+00.
 Delete L=0 primitive   19 from    1 C=  3.58D-20.
 Delete L=0 primitive   18 from    1 C=  2.69D-21.
 Delete L=0 primitive   16 from    1 C=  3.10D-20.
 Delete L=0 primitive   14 from    1 C=  5.49D-19.
 IA=     2 L=0 SC=0 ISt=    0 NBk=    0 NP=    0 IndPr=   60.
 IA=     2 ShT= 1 ShC= 1 NL=   5 NS=   1.
 IA=     2 L=1 SC=1 ISt=    1 NBk=    4 NP=   16 IndPr=    0.
 DoElim1:  L=1 select primitive    3 from    2 using    1 C= 2.25D-03
 DoElim1:  L=1 select primitive    3 from    3 using    1 C= 2.25D-03
 DoElim1:  L=1 select primitive    3 from    4 using    1 C= 2.25D-03
 DoElim1:  L=1 select primitive    6 from    3 using    2 C=-1.46D-03
 DoElim1:  L=1 select primitive    6 from    4 using    2 C=-1.46D-03
 DoElim1:  L=1 select primitive    9 from    3 using    4 C=-2.24D-03
 DoElim2:  L=1 select primitive   15 from    4 using    3 C= 9.82D-01
 DoElim2:  L=1 select primitive   15 from    2 using    3 C= 9.82D-01
 DoElim2:  L=1 select primitive   15 from    1 using    3 C= 9.82D-01
 DoElim2:  L=1 select primitive   16 from    2 using    4 C=-1.67D-01
 DoElim2:  L=1 select primitive   16 from    1 using    4 C=-1.67D-01
 DoElim2:  L=1 select primitive   12 from    1 using    2 C= 4.62D-01
 DoElim:  L=1 eliminating redundant primitive   16        0.029401 from    1
 DoElim:  L=1 eliminating redundant primitive   16        0.029401 from    2
 DoElim:  L=1 eliminating redundant primitive   16        0.029401 from    3
 DoElim:  L=1 eliminating redundant primitive   16        0.029401 from    4
 Delete L=1 primitive   16 from    4 C=  0.00D+00.
 Delete L=1 primitive   15 from    4 C=  5.44D-18.
 Delete L=1 primitive    6 from    4 C=  1.08D-20.
 Delete L=1 primitive    3 from    4 C=  1.02D-21.
 Delete L=1 primitive    2 from    4 C=  6.07D-07.
 Delete L=1 primitive    1 from    4 C=  5.39D-07.
 Delete L=1 primitive   16 from    3 C=  0.00D+00.
 Delete L=1 primitive    9 from    3 C=  2.49D-20.
 Delete L=1 primitive    6 from    3 C=  1.35D-20.
 Delete L=1 primitive    4 from    3 C=  8.39D-07.
 Delete L=1 primitive    3 from    3 C=  1.18D-21.
 Delete L=1 primitive    2 from    3 C=  3.85D-07.
 Delete L=1 primitive    1 from    3 C=  1.23D-07.
 Delete L=1 primitive   16 from    2 C=  0.00D+00.
 Delete L=1 primitive   15 from    2 C=  4.51D-20.
 Delete L=1 primitive    3 from    2 C=  4.45D-21.
 Delete L=1 primitive    2 from    2 C=  3.29D-07.
 Delete L=1 primitive    1 from    2 C=  2.32D-07.
 Delete L=1 primitive   16 from    1 C=  0.00D+00.
 Delete L=1 primitive   15 from    1 C=  1.95D-23.
 Delete L=1 primitive   12 from    1 C=  4.81D-20.
 IA=     2 L=1 SC=1 ISt=    0 NBk=    0 NP=    0 IndPr=   43.
 IA=     2 ShT= 2 ShC= 2 NL=   3 NS=   1.
 IA=     2 L=2 SC=2 ISt=    1 NBk=    2 NP=    8 IndPr=    0.
 DoElim1:  L=2 select primitive    1 from    1 using    2 C=-3.97D-03
 DoElim2:  L=2 select primitive    7 from    2 using    1 C= 8.24D-01
 DoElim:  L=2 eliminating redundant primitive    8        0.051884 from    1
 DoElim:  L=2 eliminating redundant primitive    8        0.051884 from    2
 Delete L=2 primitive    8 from    2 C=  0.00D+00.
 Delete L=2 primitive    7 from    2 C=  3.53D-17.
 Delete L=2 primitive    8 from    1 C=  0.00D+00.
 Delete L=2 primitive    1 from    1 C=  6.00D-20.
 IA=     2 L=2 SC=2 ISt=    0 NBk=    0 NP=    0 IndPr=   12.
 IA=     2 ShT= 3 ShC= 3 NL=   1 NS=   0.
 IA=     2 L=3 SC=3 ISt=    0 NBk=    0 NP=    0 IndPr=    0.
 Ernie:  65 primitive shells out of 188 were deleted.
 LdAtmC:  AtmChg=     1.000000    22.000000
 AtZEff=     -1.0000000    -23.9800000
 NEqShl: 
              1            2            3            4
     1            1            1            1            1
     2            2            2            2            2
     3            3            3            3            3
     4            4            4            4            4
     5            5            5            5            5
     6            6            6            6            6
     7            7            7            7            7
     8            8            8            8            8
     9            9            9            9            9
    10           10           10           10           10
    11           11           11           11           11
    12           12           12           12           12
    13           13           13           13           13
    14           14           14           14           14
    15           15           15           15           15
    16           16           16           16           16
 NEqBas: 
              1            2            3            4
     1            1            1            1            1
     2            2            2            2            2
     3            3            3            3            3
     4            4            4            4            4
     5            5            5            5            5
     6            6            6            6            6
     7            7            7            7            7
     8            8           -8           -8            8
     9            9           -9            9           -9
    10           10           10           10           10
    11           11          -11          -11           11
    12           12          -12           12          -12
    13           13           13           13           13
    14           14          -14          -14           14
    15           15          -15           15          -15
    16           16           16           16           16
    17           17          -17          -17           17
    18           18          -18           18          -18
    19           19           19           19           19
    20           20          -20          -20           20
    21           21          -21           21          -21
    22           22           22           22           22
    23           23           23           23           23
    24           24           24           24           24
    25           25           25           25           25
    26           26           26          -26          -26
    27           27          -27          -27           27
    28           28          -28           28          -28
    29           29           29           29           29
    30           30           30           30           30
    31           31           31           31           31
    32           32           32          -32          -32
    33           33          -33          -33           33
    34           34          -34           34          -34
    35           35           35           35           35
    36           36           36           36           36
    37           37           37           37           37
    38           38           38          -38          -38
    39           39          -39          -39           39
    40           40          -40           40          -40
    41           41          -41          -41           41
    42           42          -42           42          -42
    43           43           43           43           43
    44           44          -44          -44           44
    45           45          -45           45          -45
    46           46           46           46           46
    47           47          -47          -47           47
    48           48          -48           48          -48
    49           49           49           49           49
    50           50           50          -50          -50
 There are    24 symmetry adapted cartesian basis functions of A1  symmetry.
   1         1   1   1   1
   2         2   2   2   2
   3         3   3   3   3
   4         4   4   4   4
   5         5   5   5   5
   6         6   6   6   6
   7         7   7   7   7
   8        10  10  10  10
   9        13  13  13  13
  10        16  16  16  16
  11        19  19  19  19
  12        22  22  22  22
  13        23  23  23  23
  14        24  24  24  24
  15        25  25  25  25
  16        29  29  29  29
  17        30  30  30  30
  18        31  31  31  31
  19        35  35  35  35
  20        36  36  36  36
  21        37  37  37  37
  22        43  43  43  43
  23        46  46  46  46
  24        49  49  49  49
 There are     4 symmetry adapted cartesian basis functions of A2  symmetry.
  25        26  26  26  26
  26        32  32  32  32
  27        38  38  38  38
  28        50  50  50  50
 There are    11 symmetry adapted cartesian basis functions of B1  symmetry.
  29         8   8   8   8
  30        11  11  11  11
  31        14  14  14  14
  32        17  17  17  17
  33        20  20  20  20
  34        27  27  27  27
  35        33  33  33  33
  36        39  39  39  39
  37        41  41  41  41
  38        44  44  44  44
  39        47  47  47  47
 There are    11 symmetry adapted cartesian basis functions of B2  symmetry.
  40         9   9   9   9
  41        12  12  12  12
  42        15  15  15  15
  43        18  18  18  18
  44        21  21  21  21
  45        28  28  28  28
  46        34  34  34  34
  47        40  40  40  40
  48        42  42  42  42
  49        45  45  45  45
  50        48  48  48  48
 Order= 1 2 4 3
 Reordered character table:
              1            2            3            4            5
     1            1            1            1            1            1
     2            2            1            1           -1           -1
     3            4            1           -1           -1            1
     4            3            1           -1            1           -1
 NEqShl: 
              1            2            3            4
     1            1            1            1            1
     2            2            2            2            2
     3            3            3            3            3
     4            4            4            4            4
     5            5            5            5            5
     6            6            6            6            6
     7            7            7            7            7
     8            8            8            8            8
     9            9            9            9            9
    10           10           10           10           10
    11           11           11           11           11
    12           12           12           12           12
    13           13           13           13           13
    14           14           14           14           14
    15           15           15           15           15
    16           16           16           16           16
 NEqBas: 
              1            2            3            4
     1            1            1            1            1
     2            2            2            2            2
     3            3            3            3            3
     4            4            4            4            4
     5            5            5            5            5
     6            6            6            6            6
     7            7            7            7            7
     8            8           -8           -8            8
     9            9           -9            9           -9
    10           10           10           10           10
    11           11          -11          -11           11
    12           12          -12           12          -12
    13           13           13           13           13
    14           14          -14          -14           14
    15           15          -15           15          -15
    16           16           16           16           16
    17           17          -17          -17           17
    18           18          -18           18          -18
    19           19           19           19           19
    20           20          -20          -20           20
    21           21          -21           21          -21
    22           22           22           22           22
    23           23           23           23           23
    24           24          -24          -24           24
    25           25          -25           25          -25
    26           26           26           26           26
    27           27           27          -27          -27
    28           28           28           28           28
    29           29          -29          -29           29
    30           30          -30           30          -30
    31           31           31           31           31
    32           32           32          -32          -32
    33           33           33           33           33
    34           34          -34          -34           34
    35           35          -35           35          -35
    36           36           36           36           36
    37           37           37          -37          -37
    38           38           38           38           38
    39           39          -39          -39           39
    40           40          -40           40          -40
    41           41           41           41           41
    42           42           42          -42          -42
    43           43          -43          -43           43
    44           44          -44           44          -44
 There are    20 symmetry adapted basis functions of A1  symmetry.
   1         1   1   1   1
   2         2   2   2   2
   3         3   3   3   3
   4         4   4   4   4
   5         5   5   5   5
   6         6   6   6   6
   7         7   7   7   7
   8        10  10  10  10
   9        13  13  13  13
  10        16  16  16  16
  11        19  19  19  19
  12        22  22  22  22
  13        23  23  23  23
  14        26  26  26  26
  15        28  28  28  28
  16        31  31  31  31
  17        33  33  33  33
  18        36  36  36  36
  19        38  38  38  38
  20        41  41  41  41
 There are     4 symmetry adapted basis functions of A2  symmetry.
  21        27  27  27  27
  22        32  32  32  32
  23        37  37  37  37
  24        42  42  42  42
 There are    10 symmetry adapted basis functions of B1  symmetry.
  25         8   8   8   8
  26        11  11  11  11
  27        14  14  14  14
  28        17  17  17  17
  29        20  20  20  20
  30        24  24  24  24
  31        29  29  29  29
  32        34  34  34  34
  33        39  39  39  39
  34        43  43  43  43
 There are    10 symmetry adapted basis functions of B2  symmetry.
  35         9   9   9   9
  36        12  12  12  12
  37        15  15  15  15
  38        18  18  18  18
  39        21  21  21  21
  40        25  25  25  25
  41        30  30  30  30
  42        35  35  35  35
  43        40  40  40  40
  44        44  44  44  44
 Order= 1 2 4 3
 Reordered character table:
              1            2            3            4            5
     1            1            1            1            1            1
     2            2            1            1           -1           -1
     3            4            1           -1           -1            1
     4            3            1           -1            1           -1
    44 basis functions,   294 primitive gaussians,    50 cartesian basis functions
    13 alpha electrons       10 beta electrons
       nuclear repulsion energy         8.9553066463 Hartrees.
 IS=     1 IAt=     1 ISR=     1 T=0 IP=      1 IndIP=      1 IndIPD=      0 C=  2.769344D-01  0.000000D+00                             NZ=T
 IS=     1 IAt=     1 ISR=     1 T=0 IP=      2 IndIP=      2 IndIPD=      1 C=  2.678389D-01  0.000000D+00                             NZ=T
 IS=     1 IAt=     1 ISR=     1 T=0 IP=      3 IndIP=      3 IndIPD=      2 C=  8.347367D-02  0.000000D+00                             NZ=T
 IS=     2 IAt=     2 ISR=     1 T=0 IP=      1 IndIP=      4 IndIPD=      0 C=  4.601961D-01  0.000000D+00                             NZ=T
 IS=     2 IAt=     2 ISR=     1 T=0 IP=      2 IndIP=      5 IndIPD=      1 C=  8.613523D-01  0.000000D+00                             NZ=T
 IS=     2 IAt=     2 ISR=     1 T=0 IP=      3 IndIP=      6 IndIPD=      2 C=  1.492098D+00  0.000000D+00                             NZ=T
 IS=     2 IAt=     2 ISR=     1 T=0 IP=      4 IndIP=      7 IndIPD=      3 C=  2.442647D+00  0.000000D+00                             NZ=T
 IS=     2 IAt=     2 ISR=     1 T=0 IP=      5 IndIP=      8 IndIPD=      4 C=  3.817597D+00  0.000000D+00                             NZ=T
 IS=     2 IAt=     2 ISR=     1 T=0 IP=      6 IndIP=      9 IndIPD=      5 C=  5.697836D+00  0.000000D+00                             NZ=T
 IS=     2 IAt=     2 ISR=     1 T=0 IP=      7 IndIP=     10 IndIPD=      6 C=  8.012644D+00  0.000000D+00                             NZ=T
 IS=     2 IAt=     2 ISR=     1 T=0 IP=      8 IndIP=     11 IndIPD=      7 C=  1.023886D+01  0.000000D+00                             NZ=T
 IS=     2 IAt=     2 ISR=     1 T=0 IP=      9 IndIP=     12 IndIPD=      8 C=  1.103553D+01  0.000000D+00                             NZ=T
 IS=     2 IAt=     2 ISR=     1 T=0 IP=     10 IndIP=     13 IndIPD=      9 C=  8.646511D+00  0.000000D+00                             NZ=T
 IS=     2 IAt=     2 ISR=     1 T=0 IP=     11 IndIP=     14 IndIPD=     10 C=  3.676375D+00  0.000000D+00                             NZ=T
 IS=     2 IAt=     2 ISR=     1 T=0 IP=     12 IndIP=     15 IndIPD=     11 C=  4.678885D-01  0.000000D+00                             NZ=T
 IS=     2 IAt=     2 ISR=     1 T=0 IP=     13 IndIP=     16 IndIPD=     12 C= -1.409058D-02  0.000000D+00                             NZ=T
 IS=     2 IAt=     2 ISR=     1 T=0 IP=     14 IndIP=     17 IndIPD=     13 C= -1.843009D-03  0.000000D+00                             NZ=T
 IS=     2 IAt=     2 ISR=     1 T=0 IP=     15 IndIP=     18 IndIPD=     14 C= -1.927139D-04  0.000000D+00                             NZ=T
 IS=     3 IAt=     2 ISR=     2 T=0 IP=      1 IndIP=     19 IndIPD=      0 C= -4.156296D-03  0.000000D+00                             NZ=T
 IS=     3 IAt=     2 ISR=     2 T=0 IP=      2 IndIP=     20 IndIPD=      1 C= -2.174157D-02  0.000000D+00                             NZ=T
 IS=     3 IAt=     2 ISR=     2 T=0 IP=      3 IndIP=     21 IndIPD=      2 C= -8.573226D-02  0.000000D+00                             NZ=T
 IS=     3 IAt=     2 ISR=     2 T=0 IP=      4 IndIP=     22 IndIPD=      3 C= -2.732897D-01  0.000000D+00                             NZ=T
 IS=     3 IAt=     2 ISR=     2 T=0 IP=      5 IndIP=     23 IndIPD=      4 C= -7.085232D-01  0.000000D+00                             NZ=T
 IS=     3 IAt=     2 ISR=     2 T=0 IP=      6 IndIP=     24 IndIPD=      5 C= -1.357083D+00  0.000000D+00                             NZ=T
 IS=     3 IAt=     2 ISR=     2 T=0 IP=      7 IndIP=     25 IndIPD=      6 C= -1.326175D+00  0.000000D+00                             NZ=T
 IS=     3 IAt=     2 ISR=     2 T=0 IP=      8 IndIP=     26 IndIPD=      7 C=  4.708339D-01  0.000000D+00                             NZ=T
 IS=     3 IAt=     2 ISR=     2 T=0 IP=      9 IndIP=     27 IndIPD=      8 C=  2.041210D+00  0.000000D+00                             NZ=T
 IS=     3 IAt=     2 ISR=     2 T=0 IP=     10 IndIP=     28 IndIPD=      9 C=  1.171232D+00  0.000000D+00                             NZ=T
 IS=     3 IAt=     2 ISR=     2 T=0 IP=     11 IndIP=     29 IndIPD=     10 C=  1.186302D-01  0.000000D+00                             NZ=T
 IS=     3 IAt=     2 ISR=     2 T=0 IP=     12 IndIP=     30 IndIPD=     11 C=  1.645608D-03  0.000000D+00                             NZ=T
 IS=     4 IAt=     2 ISR=     3 T=0 IP=      1 IndIP=     31 IndIPD=      0 C= -2.009719D-03  0.000000D+00                             NZ=T
 IS=     4 IAt=     2 ISR=     3 T=0 IP=      2 IndIP=     32 IndIPD=      1 C=  3.685234D-04  0.000000D+00                             NZ=T
 IS=     4 IAt=     2 ISR=     3 T=0 IP=      3 IndIP=     33 IndIPD=      2 C= -6.543288D-03  0.000000D+00                             NZ=T
 IS=     4 IAt=     2 ISR=     3 T=0 IP=      4 IndIP=     34 IndIPD=      3 C= -1.867953D-02  0.000000D+00                             NZ=T
 IS=     4 IAt=     2 ISR=     3 T=0 IP=      5 IndIP=     35 IndIPD=      4 C=  1.006848D-02  0.000000D+00                             NZ=T
 IS=     4 IAt=     2 ISR=     3 T=0 IP=      6 IndIP=     36 IndIPD=      5 C=  2.898501D-02  0.000000D+00                             NZ=T
 IS=     4 IAt=     2 ISR=     3 T=0 IP=      7 IndIP=     37 IndIPD=      6 C= -3.297137D-01  0.000000D+00                             NZ=T
 IS=     4 IAt=     2 ISR=     3 T=0 IP=      8 IndIP=     38 IndIPD=      7 C= -5.569360D-01  0.000000D+00                             NZ=T
 IS=     4 IAt=     2 ISR=     3 T=0 IP=      9 IndIP=     39 IndIPD=      8 C=  1.218651D-01  0.000000D+00                             NZ=T
 IS=     4 IAt=     2 ISR=     3 T=0 IP=     10 IndIP=     40 IndIPD=      9 C=  6.285222D-01  0.000000D+00                             NZ=T
 IS=     4 IAt=     2 ISR=     3 T=0 IP=     11 IndIP=     41 IndIPD=     10 C=  1.786727D-01  0.000000D+00                             NZ=T
 IS=     4 IAt=     2 ISR=     3 T=0 IP=     12 IndIP=     42 IndIPD=     11 C= -6.692340D-02  0.000000D+00                             NZ=T
 IS=     5 IAt=     2 ISR=     4 T=0 IP=      1 IndIP=     43 IndIPD=      0 C= -2.538325D-04  0.000000D+00                             NZ=T
 IS=     5 IAt=     2 ISR=     4 T=0 IP=      2 IndIP=     44 IndIPD=      1 C=  1.195747D-04  0.000000D+00                             NZ=T
 IS=     5 IAt=     2 ISR=     4 T=0 IP=      3 IndIP=     45 IndIPD=      2 C=  4.327939D-05  0.000000D+00                             NZ=T
 IS=     5 IAt=     2 ISR=     4 T=0 IP=      4 IndIP=     46 IndIPD=      3 C=  5.652494D-03  0.000000D+00                             NZ=T
 IS=     5 IAt=     2 ISR=     4 T=0 IP=      5 IndIP=     47 IndIPD=      4 C= -9.239048D-03  0.000000D+00                             NZ=T
 IS=     5 IAt=     2 ISR=     4 T=0 IP=      6 IndIP=     48 IndIPD=      5 C= -3.834623D-02  0.000000D+00                             NZ=T
 IS=     5 IAt=     2 ISR=     4 T=0 IP=      7 IndIP=     49 IndIPD=      6 C= -8.755720D-02  0.000000D+00                             NZ=T
 IS=     5 IAt=     2 ISR=     4 T=0 IP=      8 IndIP=     50 IndIPD=      7 C=  5.141708D-02  0.000000D+00                             NZ=T
 IS=     5 IAt=     2 ISR=     4 T=0 IP=      9 IndIP=     51 IndIPD=      8 C=  6.056180D-02  0.000000D+00                             NZ=T
 IS=     6 IAt=     2 ISR=     5 T=0 IP=      1 IndIP=     52 IndIPD=      0 C=  2.864993D-03  0.000000D+00                             NZ=T
 IS=     6 IAt=     2 ISR=     5 T=0 IP=      2 IndIP=     53 IndIPD=      1 C= -6.088676D-04  0.000000D+00                             NZ=T
 IS=     6 IAt=     2 ISR=     5 T=0 IP=      3 IndIP=     54 IndIPD=      2 C=  9.145188D-03  0.000000D+00                             NZ=T
 IS=     6 IAt=     2 ISR=     5 T=0 IP=      4 IndIP=     55 IndIPD=      3 C=  3.068466D-02  0.000000D+00                             NZ=T
 IS=     6 IAt=     2 ISR=     5 T=0 IP=      5 IndIP=     56 IndIPD=      4 C=  1.270586D-02  0.000000D+00                             NZ=T
 IS=     6 IAt=     2 ISR=     5 T=0 IP=      6 IndIP=     57 IndIPD=      5 C=  6.411399D-02  0.000000D+00                             NZ=T
 IS=     6 IAt=     2 ISR=     5 T=0 IP=      7 IndIP=     58 IndIPD=      6 C= -4.813885D-02  0.000000D+00                             NZ=T
 IS=     6 IAt=     2 ISR=     5 T=0 IP=      8 IndIP=     59 IndIPD=      7 C= -7.768119D-02  0.000000D+00                             NZ=T
 IS=     6 IAt=     2 ISR=     5 T=0 IP=      9 IndIP=     60 IndIPD=      8 C= -2.457033D-01  0.000000D+00                             NZ=T
 IS=     6 IAt=     2 ISR=     5 T=0 IP=     10 IndIP=     61 IndIPD=      9 C=  9.551324D-02  0.000000D+00                             NZ=T
 IS=     6 IAt=     2 ISR=     5 T=0 IP=     11 IndIP=     62 IndIPD=     10 C=  5.526306D-02  0.000000D+00                             NZ=T
 IS=     6 IAt=     2 ISR=     5 T=0 IP=     12 IndIP=     63 IndIPD=     11 C=  1.188443D-01  0.000000D+00                             NZ=T
 IS=     7 IAt=     2 ISR=     6 T=0 IP=      1 IndIP=     64 IndIPD=      0 C=  4.543263D-02  0.000000D+00                             NZ=T
 IS=     8 IAt=     2 ISR=     7 T=1 IP=      1 IndIP=     65 IndIPD=      0 C=  0.000000D+00  7.795981D+00                             NZ=T
 IS=     8 IAt=     2 ISR=     7 T=1 IP=      2 IndIP=     66 IndIPD=      1 C=  0.000000D+00  1.143990D+01                             NZ=T
 IS=     8 IAt=     2 ISR=     7 T=1 IP=      3 IndIP=     67 IndIPD=      2 C=  0.000000D+00  1.612790D+01                             NZ=T
 IS=     8 IAt=     2 ISR=     7 T=1 IP=      4 IndIP=     68 IndIPD=      3 C=  0.000000D+00  2.120141D+01                             NZ=T
 IS=     8 IAt=     2 ISR=     7 T=1 IP=      5 IndIP=     69 IndIPD=      4 C=  0.000000D+00  2.533977D+01                             NZ=T
 IS=     8 IAt=     2 ISR=     7 T=1 IP=      6 IndIP=     70 IndIPD=      5 C=  0.000000D+00  2.664657D+01                             NZ=T
 IS=     8 IAt=     2 ISR=     7 T=1 IP=      7 IndIP=     71 IndIPD=      6 C=  0.000000D+00  2.296005D+01                             NZ=T
 IS=     8 IAt=     2 ISR=     7 T=1 IP=      8 IndIP=     72 IndIPD=      7 C=  0.000000D+00  1.495671D+01                             NZ=T
 IS=     8 IAt=     2 ISR=     7 T=1 IP=      9 IndIP=     73 IndIPD=      8 C=  0.000000D+00  6.394973D+00                             NZ=T
 IS=     8 IAt=     2 ISR=     7 T=1 IP=     10 IndIP=     74 IndIPD=      9 C=  0.000000D+00  1.316040D+00                             NZ=T
 IS=     8 IAt=     2 ISR=     7 T=1 IP=     11 IndIP=     75 IndIPD=     10 C=  0.000000D+00  8.037045D-02                             NZ=T
 IS=     8 IAt=     2 ISR=     7 T=1 IP=     12 IndIP=     76 IndIPD=     11 C=  0.000000D+00 -1.639389D-04                             NZ=T
 IS=     8 IAt=     2 ISR=     7 T=1 IP=     13 IndIP=     77 IndIPD=     12 C=  0.000000D+00 -1.884516D-05                             NZ=T
 IS=     9 IAt=     2 ISR=     8 T=1 IP=      1 IndIP=     78 IndIPD=      0 C=  0.000000D+00 -4.027304D-02                             NZ=T
 IS=     9 IAt=     2 ISR=     8 T=1 IP=      2 IndIP=     79 IndIPD=      1 C=  0.000000D+00 -1.519980D-01                             NZ=T
 IS=     9 IAt=     2 ISR=     8 T=1 IP=      3 IndIP=     80 IndIPD=      2 C=  0.000000D+00 -3.797862D-01                             NZ=T
 IS=     9 IAt=     2 ISR=     8 T=1 IP=      4 IndIP=     81 IndIPD=      3 C=  0.000000D+00 -6.057571D-01                             NZ=T
 IS=     9 IAt=     2 ISR=     8 T=1 IP=      5 IndIP=     82 IndIPD=      4 C=  0.000000D+00 -6.349846D-01                             NZ=T
 IS=     9 IAt=     2 ISR=     8 T=1 IP=      6 IndIP=     83 IndIPD=      5 C=  0.000000D+00 -3.948474D-01                             NZ=T
 IS=     9 IAt=     2 ISR=     8 T=1 IP=      7 IndIP=     84 IndIPD=      6 C=  0.000000D+00  5.551180D-01                             NZ=T
 IS=     9 IAt=     2 ISR=     8 T=1 IP=      8 IndIP=     85 IndIPD=      7 C=  0.000000D+00  1.049291D+00                             NZ=T
 IS=     9 IAt=     2 ISR=     8 T=1 IP=      9 IndIP=     86 IndIPD=      8 C=  0.000000D+00  6.036670D-01                             NZ=T
 IS=     9 IAt=     2 ISR=     8 T=1 IP=     10 IndIP=     87 IndIPD=      9 C=  0.000000D+00  1.523990D-01                             NZ=T
 IS=     9 IAt=     2 ISR=     8 T=1 IP=     11 IndIP=     88 IndIPD=     10 C=  0.000000D+00  8.253888D-03                             NZ=T
 IS=    10 IAt=     2 ISR=     9 T=1 IP=      1 IndIP=     89 IndIPD=      0 C=  0.000000D+00 -3.269879D-03                             NZ=T
 IS=    10 IAt=     2 ISR=     9 T=1 IP=      2 IndIP=     90 IndIPD=      1 C=  0.000000D+00 -8.378074D-03                             NZ=T
 IS=    10 IAt=     2 ISR=     9 T=1 IP=      3 IndIP=     91 IndIPD=      2 C=  0.000000D+00  2.529722D-03                             NZ=T
 IS=    10 IAt=     2 ISR=     9 T=1 IP=      4 IndIP=     92 IndIPD=      3 C=  0.000000D+00 -8.607827D-03                             NZ=T
 IS=    10 IAt=     2 ISR=     9 T=1 IP=      5 IndIP=     93 IndIPD=      4 C=  0.000000D+00 -2.397739D-02                             NZ=T
 IS=    10 IAt=     2 ISR=     9 T=1 IP=      6 IndIP=     94 IndIPD=      5 C=  0.000000D+00 -3.614299D-02                             NZ=T
 IS=    10 IAt=     2 ISR=     9 T=1 IP=      7 IndIP=     95 IndIPD=      6 C=  0.000000D+00 -2.100047D-02                             NZ=T
 IS=    10 IAt=     2 ISR=     9 T=1 IP=      8 IndIP=     96 IndIPD=      7 C=  0.000000D+00  5.981245D-02                             NZ=T
 IS=    10 IAt=     2 ISR=     9 T=1 IP=      9 IndIP=     97 IndIPD=      8 C=  0.000000D+00  3.898314D-02                             NZ=T
 IS=    11 IAt=     2 ISR=    10 T=1 IP=      1 IndIP=     98 IndIPD=      0 C=  0.000000D+00  1.995377D-01                             NZ=T
 IS=    11 IAt=     2 ISR=    10 T=1 IP=      2 IndIP=     99 IndIPD=      1 C=  0.000000D+00 -9.916829D-02                             NZ=T
 IS=    11 IAt=     2 ISR=    10 T=1 IP=      3 IndIP=    100 IndIPD=      2 C=  0.000000D+00 -5.154941D-01                             NZ=T
 IS=    11 IAt=     2 ISR=    10 T=1 IP=      4 IndIP=    101 IndIPD=      3 C=  0.000000D+00 -2.299023D-01                             NZ=T
 IS=    11 IAt=     2 ISR=    10 T=1 IP=      5 IndIP=    102 IndIPD=      4 C=  0.000000D+00 -4.427241D-01                             NZ=T
 IS=    11 IAt=     2 ISR=    10 T=1 IP=      6 IndIP=    103 IndIPD=      5 C=  0.000000D+00  6.312007D-01                             NZ=T
 IS=    11 IAt=     2 ISR=    10 T=1 IP=      7 IndIP=    104 IndIPD=      6 C=  0.000000D+00  7.247077D-01                             NZ=T
 IS=    11 IAt=     2 ISR=    10 T=1 IP=      8 IndIP=    105 IndIPD=      7 C=  0.000000D+00  5.879952D-01                             NZ=T
 IS=    11 IAt=     2 ISR=    10 T=1 IP=      9 IndIP=    106 IndIPD=      8 C=  0.000000D+00 -4.923816D-02                             NZ=T
 IS=    11 IAt=     2 ISR=    10 T=1 IP=     10 IndIP=    107 IndIPD=      9 C=  0.000000D+00  1.070378D-01                             NZ=T
 IS=    12 IAt=     2 ISR=    11 T=1 IP=      1 IndIP=    108 IndIPD=      0 C=  0.000000D+00  1.735373D-02                             NZ=T
 IS=    13 IAt=     2 ISR=    12 T=2 IP=      1 IndIP=    109 IndIPD=      1 C=  0.000000D+00  0.000000D+00  2.253599D-02  0.000000D+00 NZ=T
 IS=    13 IAt=     2 ISR=    12 T=2 IP=      2 IndIP=    110 IndIPD=      2 C=  0.000000D+00  0.000000D+00 -1.113976D-01  0.000000D+00 NZ=T
 IS=    13 IAt=     2 ISR=    12 T=2 IP=      3 IndIP=    111 IndIPD=      3 C=  0.000000D+00  0.000000D+00  7.556885D-04  0.000000D+00 NZ=T
 IS=    13 IAt=     2 ISR=    12 T=2 IP=      4 IndIP=    112 IndIPD=      4 C=  0.000000D+00  0.000000D+00  8.195510D-02  0.000000D+00 NZ=T
 IS=    13 IAt=     2 ISR=    12 T=2 IP=      5 IndIP=    113 IndIPD=      5 C=  0.000000D+00  0.000000D+00  1.108254D-01  0.000000D+00 NZ=T
 IS=    13 IAt=     2 ISR=    12 T=2 IP=      6 IndIP=    114 IndIPD=      6 C=  0.000000D+00  0.000000D+00  4.815533D-02  0.000000D+00 NZ=T
 IS=    14 IAt=     2 ISR=    13 T=2 IP=      1 IndIP=    115 IndIPD=      7 C=  0.000000D+00  0.000000D+00 -1.207446D+01  0.000000D+00 NZ=T
 IS=    14 IAt=     2 ISR=    13 T=2 IP=      2 IndIP=    116 IndIPD=      8 C=  0.000000D+00  0.000000D+00 -9.614714D+00  0.000000D+00 NZ=T
 IS=    14 IAt=     2 ISR=    13 T=2 IP=      3 IndIP=    117 IndIPD=      9 C=  0.000000D+00  0.000000D+00 -5.925403D+00  0.000000D+00 NZ=T
 IS=    14 IAt=     2 ISR=    13 T=2 IP=      4 IndIP=    118 IndIPD=     10 C=  0.000000D+00  0.000000D+00 -2.773498D+00  0.000000D+00 NZ=T
 IS=    14 IAt=     2 ISR=    13 T=2 IP=      5 IndIP=    119 IndIPD=     11 C=  0.000000D+00  0.000000D+00 -8.295859D-01  0.000000D+00 NZ=T
 IS=    14 IAt=     2 ISR=    13 T=2 IP=      6 IndIP=    120 IndIPD=     12 C=  0.000000D+00  0.000000D+00 -1.298928D-01  0.000000D+00 NZ=T
 IS=    15 IAt=     2 ISR=    14 T=2 IP=      1 IndIP=    121 IndIPD=     13 C=  0.000000D+00  0.000000D+00  9.283634D-03  0.000000D+00 NZ=T
 IS=    16 IAt=     2 ISR=    15 T=3 IP=      1 IndIP=    122 IndIPD=     14 C=  0.000000D+00  0.000000D+00  0.000000D+00  8.360800D-01 NZ=T
 IS=    16 IAt=     2 ISR=    15 T=3 IP=      2 IndIP=    123 IndIPD=     15 C=  0.000000D+00  0.000000D+00  0.000000D+00  6.866491D-02 NZ=T
 IExCor=    0 DFT=F Ex=HF Corr=None ExCW=0 ScaHFX=  1.000000
 ScaDFX=  1.000000  1.000000  1.000000  1.000000 ScalE2=  1.000000  1.000000
 IRadAn=      5 IRanWt=     -1 IRanGd=            0 ICorTp=0 IEmpDi=  4
 NAtoms=    2 NActive=    2 NUniq=    2 SFac= 1.00D+00 NAtFMM=   60 NAOKFM=F Big=F
 Integral buffers will be    131072 words long.
 Raffenetti 2 integral format.
 Two-electron integral symmetry is turned on.
 Leave Link  301 at Mon Mar 28 10:01:54 2022, MaxMem=  9663676416 cpu:               2.3 elap:               0.1
 (Enter /nopt/nrel/apps/gaussian/g16C_1/g16/l302.exe)
 NPDir=0 NMtPBC=     1 NCelOv=     1 NCel=       1 NClECP=     1 NCelD=      1
         NCelK=      1 NCelE2=     1 NClLst=     1 CellRange=     0.0.
 One-electron integrals computed using PRISM.
 One-electron integral symmetry used in STVInt
 Entering OneElI...
 Calculate overlap and kinetic energy integrals
    NBasis =  44  MinDer = 0  MaxDer = 0
 Requested accuracy = 0.1000D-12
 Symmetry will be used
 PrmmSu-InSpLW:  IPartL=    0 NPrtUS=   36 NPrtUL=    1 DoSpLW=F IThBeg=    0 IThEnd=   35 NThAct=   36.
 PrSmSu:  IncTry=   512 NBBP=            136 NTPThr=   100 NPartT=   36 Incr=           1 LDynOK=F GPUOK=F.
 PrsmSu:  NPrtUS=  36 ThrOK=T IAlg=1 LenDen=           0 ISkipM=0 DoSpLW=F IThBeg=    0 IThEnd=   35.
 Prism:   IPart=     0 DynPar=F LinDyn=F Incr=           1.
 PRISM was handed   268364371 working-precision words and   136 shell-pairs
 PRISM was handed   268364371 working-precision words and   136 shell-pairs
 PRISM was handed   268364371 working-precision words and   136 shell-pairs
 PRISM was handed   268364371 working-precision words and   136 shell-pairs
 PRISM was handed   268364371 working-precision words and   136 shell-pairs
 PRISM was handed   268364371 working-precision words and   136 shell-pairs
 PRISM was handed   268364371 working-precision words and   136 shell-pairs
 PRISM was handed   268364371 working-precision words and   136 shell-pairs
 PRISM was handed   268364371 working-precision words and   136 shell-pairs
 PRISM was handed   268364371 working-precision words and   136 shell-pairs
 PRISM was handed   268364371 working-precision words and   136 shell-pairs
 PRISM was handed   268364371 working-precision words and   136 shell-pairs
 PRISM was handed   268364371 working-precision words and   136 shell-pairs
 PRISM was handed   268364371 working-precision words and   136 shell-pairs
 PRISM was handed   268364371 working-precision words and   136 shell-pairs
 IPart= 10 NShTot=           0 NBatch=           0 AvBLen=         0.0
 IPart= 16 NShTot=           0 NBatch=           0 AvBLen=         0.0
 IPart= 21 NShTot=           0 NBatch=           0 AvBLen=         0.0
 IPart= 24 NShTot=           0 NBatch=           0 AvBLen=         0.0
 IPart= 29 NShTot=           0 NBatch=           0 AvBLen=         0.0
 IPart=  7 NShTot=           0 NBatch=           0 AvBLen=         0.0
 IPart= 28 NShTot=           0 NBatch=           0 AvBLen=         0.0
 IPart=  9 NShTot=           0 NBatch=           0 AvBLen=         0.0
 IPart= 18 NShTot=           0 NBatch=           0 AvBLen=         0.0
 IPart=  8 NShTot=           0 NBatch=           0 AvBLen=         0.0
 PRISM was handed   268364371 working-precision words and   136 shell-pairs
 PRISM was handed   268364371 working-precision words and   136 shell-pairs
 IPart=  3 NShTot=           2 NBatch=           2 AvBLen=         1.0
 IPart=  4 NShTot=           2 NBatch=           2 AvBLen=         1.0
 IPart=  2 NShTot=          14 NBatch=          14 AvBLen=         1.0
 PRISM was handed   268364371 working-precision words and   136 shell-pairs
 PRISM was handed   268364371 working-precision words and   136 shell-pairs
 PRISM was handed   268364371 working-precision words and   136 shell-pairs
 IPart=  1 NShTot=          27 NBatch=          27 AvBLen=         1.0
 PRISM was handed   268364371 working-precision words and   136 shell-pairs
 PRISM was handed   268364371 working-precision words and   136 shell-pairs
 PRISM was handed   268364371 working-precision words and   136 shell-pairs
 PRISM was handed   268364371 working-precision words and   136 shell-pairs
 PRISM was handed   268364371 working-precision words and   136 shell-pairs
 PRISM was handed   268364371 working-precision words and   136 shell-pairs
 PRISM was handed   268364371 working-precision words and   136 shell-pairs
 IPart=  6 NShTot=           0 NBatch=           0 AvBLen=         0.0
 IPart= 13 NShTot=           0 NBatch=           0 AvBLen=         0.0
 IPart= 27 NShTot=           0 NBatch=           0 AvBLen=         0.0
 IPart= 19 NShTot=           0 NBatch=           0 AvBLen=         0.0
 IPart= 14 NShTot=           0 NBatch=           0 AvBLen=         0.0
 PRISM was handed   268364371 working-precision words and   136 shell-pairs
 PRISM was handed   268364371 working-precision words and   136 shell-pairs
 PRISM was handed   268364371 working-precision words and   136 shell-pairs
 PRISM was handed   268364371 working-precision words and   136 shell-pairs
 PRISM was handed   268364371 working-precision words and   136 shell-pairs
 PRISM was handed   268364371 working-precision words and   136 shell-pairs
 PRISM was handed   268364371 working-precision words and   136 shell-pairs
 PRISM was handed   268364371 working-precision words and   136 shell-pairs
 PRISM was handed   268364371 working-precision words and   136 shell-pairs
 IPart= 26 NShTot=           0 NBatch=           0 AvBLen=         0.0
 IPart= 11 NShTot=           0 NBatch=           0 AvBLen=         0.0
 IPart= 32 NShTot=           0 NBatch=           0 AvBLen=         0.0
 IPart= 30 NShTot=           0 NBatch=           0 AvBLen=         0.0
 IPart= 12 NShTot=           0 NBatch=           0 AvBLen=         0.0
 IPart= 15 NShTot=           0 NBatch=           0 AvBLen=         0.0
 IPart=  5 NShTot=           2 NBatch=           2 AvBLen=         1.0
 IPart= 22 NShTot=           0 NBatch=           0 AvBLen=         0.0
 IPart= 20 NShTot=           0 NBatch=           0 AvBLen=         0.0
 IPart= 35 NShTot=           0 NBatch=           0 AvBLen=         0.0
 IPart= 33 NShTot=           0 NBatch=           0 AvBLen=         0.0
 IPart= 25 NShTot=           0 NBatch=           0 AvBLen=         0.0
 IPart= 34 NShTot=           0 NBatch=           0 AvBLen=         0.0
 IPart= 31 NShTot=           0 NBatch=           0 AvBLen=         0.0
 IPart= 23 NShTot=           0 NBatch=           0 AvBLen=         0.0
 IPart= 17 NShTot=           0 NBatch=           0 AvBLen=         0.0
 IPart=  0 NShTot=          89 NBatch=          89 AvBLen=         1.0
 PrSmSu:  NxtVal=             37.
 *** Overlap *** 
                1             2             3             4             5 
      1  0.100000D+01
      2  0.498848D-02  0.100000D+01
      3  0.418800D-01  0.279117D+00  0.100000D+01
      4  0.579259D-02  0.133214D-01  0.392900D+00  0.100000D+01
      5  0.454483D+00 -0.249446D-02  0.242605D-02 -0.181656D+00  0.100000D+01
      6  0.477950D+00 -0.202905D-02  0.120603D+00  0.248298D+00  0.863186D+00
      7  0.336802D+00  0.625628D-02  0.500412D-01 -0.893107D-01  0.867545D+00
      8  0.000000D+00  0.000000D+00  0.000000D+00  0.000000D+00  0.000000D+00
      9  0.000000D+00  0.000000D+00  0.000000D+00  0.000000D+00  0.000000D+00
     10 -0.132712D-01  0.000000D+00  0.000000D+00  0.000000D+00  0.000000D+00
     11  0.000000D+00  0.000000D+00  0.000000D+00  0.000000D+00  0.000000D+00
     12  0.000000D+00  0.000000D+00  0.000000D+00  0.000000D+00  0.000000D+00
     13 -0.241681D+00  0.000000D+00  0.000000D+00  0.000000D+00  0.000000D+00
     14  0.000000D+00  0.000000D+00  0.000000D+00  0.000000D+00  0.000000D+00
     15  0.000000D+00  0.000000D+00  0.000000D+00  0.000000D+00  0.000000D+00
     16 -0.544512D+00  0.000000D+00  0.000000D+00  0.000000D+00  0.000000D+00
     17  0.000000D+00  0.000000D+00  0.000000D+00  0.000000D+00  0.000000D+00
     18  0.000000D+00  0.000000D+00  0.000000D+00  0.000000D+00  0.000000D+00
     19 -0.440186D+00  0.000000D+00  0.000000D+00  0.000000D+00  0.000000D+00
     20  0.000000D+00  0.000000D+00  0.000000D+00  0.000000D+00  0.000000D+00
     21  0.000000D+00  0.000000D+00  0.000000D+00  0.000000D+00  0.000000D+00
     22 -0.269948D+00  0.000000D+00  0.000000D+00  0.000000D+00  0.000000D+00
     23  0.450814D+00  0.000000D+00  0.000000D+00  0.000000D+00  0.000000D+00
     24  0.000000D+00  0.000000D+00  0.000000D+00  0.000000D+00  0.000000D+00
     25  0.000000D+00  0.000000D+00  0.000000D+00  0.000000D+00  0.000000D+00
     26  0.000000D+00  0.000000D+00  0.000000D+00  0.000000D+00  0.000000D+00
     27  0.000000D+00  0.000000D+00  0.000000D+00  0.000000D+00  0.000000D+00
     28 -0.196828D+00  0.000000D+00  0.000000D+00  0.000000D+00  0.000000D+00
     29  0.000000D+00  0.000000D+00  0.000000D+00  0.000000D+00  0.000000D+00
     30  0.000000D+00  0.000000D+00  0.000000D+00  0.000000D+00  0.000000D+00
     31  0.000000D+00  0.000000D+00  0.000000D+00  0.000000D+00  0.000000D+00
     32  0.000000D+00  0.000000D+00  0.000000D+00  0.000000D+00  0.000000D+00
     33  0.221153D+00  0.000000D+00  0.000000D+00  0.000000D+00  0.000000D+00
     34  0.000000D+00  0.000000D+00  0.000000D+00  0.000000D+00  0.000000D+00
     35  0.000000D+00  0.000000D+00  0.000000D+00  0.000000D+00  0.000000D+00
     36  0.000000D+00  0.000000D+00  0.000000D+00  0.000000D+00  0.000000D+00
     37  0.000000D+00  0.000000D+00  0.000000D+00  0.000000D+00  0.000000D+00
     38 -0.293294D+00  0.000000D+00  0.000000D+00  0.000000D+00  0.000000D+00
     39  0.000000D+00  0.000000D+00  0.000000D+00  0.000000D+00  0.000000D+00
     40  0.000000D+00  0.000000D+00  0.000000D+00  0.000000D+00  0.000000D+00
     41  0.000000D+00  0.000000D+00  0.000000D+00  0.000000D+00  0.000000D+00
     42  0.000000D+00  0.000000D+00  0.000000D+00  0.000000D+00  0.000000D+00
     43  0.000000D+00  0.000000D+00  0.000000D+00  0.000000D+00  0.000000D+00
     44  0.000000D+00  0.000000D+00  0.000000D+00  0.000000D+00  0.000000D+00
                6             7             8             9            10 
      6  0.100000D+01
      7  0.671026D+00  0.100000D+01
      8  0.000000D+00  0.000000D+00  0.100000D+01
      9  0.000000D+00  0.000000D+00  0.000000D+00  0.100000D+01
     10  0.000000D+00  0.000000D+00  0.000000D+00  0.000000D+00  0.100000D+01
     11  0.000000D+00  0.000000D+00  0.321080D+00  0.000000D+00  0.000000D+00
     12  0.000000D+00  0.000000D+00  0.000000D+00  0.321080D+00  0.000000D+00
     13  0.000000D+00  0.000000D+00  0.000000D+00  0.000000D+00  0.321080D+00
     14  0.000000D+00  0.000000D+00  0.108247D-01  0.000000D+00  0.000000D+00
     15  0.000000D+00  0.000000D+00  0.000000D+00  0.108247D-01  0.000000D+00
     16  0.000000D+00  0.000000D+00  0.000000D+00  0.000000D+00  0.108247D-01
     17  0.000000D+00  0.000000D+00  0.264262D+00  0.000000D+00  0.000000D+00
     18  0.000000D+00  0.000000D+00  0.000000D+00  0.264262D+00  0.000000D+00
     19  0.000000D+00  0.000000D+00  0.000000D+00  0.000000D+00  0.264262D+00
     20  0.000000D+00  0.000000D+00  0.499923D-02  0.000000D+00  0.000000D+00
     21  0.000000D+00  0.000000D+00  0.000000D+00  0.499923D-02  0.000000D+00
     22  0.000000D+00  0.000000D+00  0.000000D+00  0.000000D+00  0.499923D-02
     23  0.000000D+00  0.000000D+00  0.000000D+00  0.000000D+00  0.000000D+00
     24  0.000000D+00  0.000000D+00  0.000000D+00  0.000000D+00  0.000000D+00
     25  0.000000D+00  0.000000D+00  0.000000D+00  0.000000D+00  0.000000D+00
     26  0.000000D+00  0.000000D+00  0.000000D+00  0.000000D+00  0.000000D+00
     27  0.000000D+00  0.000000D+00  0.000000D+00  0.000000D+00  0.000000D+00
     28  0.000000D+00  0.000000D+00  0.000000D+00  0.000000D+00  0.000000D+00
     29  0.000000D+00  0.000000D+00  0.000000D+00  0.000000D+00  0.000000D+00
     30  0.000000D+00  0.000000D+00  0.000000D+00  0.000000D+00  0.000000D+00
     31  0.000000D+00  0.000000D+00  0.000000D+00  0.000000D+00  0.000000D+00
     32  0.000000D+00  0.000000D+00  0.000000D+00  0.000000D+00  0.000000D+00
     33  0.000000D+00  0.000000D+00  0.000000D+00  0.000000D+00  0.000000D+00
     34  0.000000D+00  0.000000D+00  0.000000D+00  0.000000D+00  0.000000D+00
     35  0.000000D+00  0.000000D+00  0.000000D+00  0.000000D+00  0.000000D+00
     36  0.000000D+00  0.000000D+00  0.000000D+00  0.000000D+00  0.000000D+00
     37  0.000000D+00  0.000000D+00  0.000000D+00  0.000000D+00  0.000000D+00
     38  0.000000D+00  0.000000D+00  0.000000D+00  0.000000D+00  0.000000D+00
     39  0.000000D+00  0.000000D+00  0.000000D+00  0.000000D+00  0.000000D+00
     40  0.000000D+00  0.000000D+00  0.000000D+00  0.000000D+00  0.000000D+00
     41  0.000000D+00  0.000000D+00  0.000000D+00  0.000000D+00  0.000000D+00
     42  0.000000D+00  0.000000D+00  0.000000D+00  0.000000D+00  0.000000D+00
     43  0.000000D+00  0.000000D+00  0.000000D+00  0.000000D+00  0.000000D+00
     44  0.000000D+00  0.000000D+00  0.000000D+00  0.000000D+00  0.000000D+00
               11            12            13            14            15 
     11  0.100000D+01
     12  0.000000D+00  0.100000D+01
     13  0.000000D+00  0.000000D+00  0.100000D+01
     14  0.312924D+00  0.000000D+00  0.000000D+00  0.100000D+01
     15  0.000000D+00  0.312924D+00  0.000000D+00  0.000000D+00  0.100000D+01
     16  0.000000D+00  0.000000D+00  0.312924D+00  0.000000D+00  0.000000D+00
     17  0.908738D+00  0.000000D+00  0.000000D+00  0.652514D+00  0.000000D+00
     18  0.000000D+00  0.908738D+00  0.000000D+00  0.000000D+00  0.652514D+00
     19  0.000000D+00  0.000000D+00  0.908738D+00  0.000000D+00  0.000000D+00
     20  0.102417D+00  0.000000D+00  0.000000D+00  0.695333D+00  0.000000D+00
     21  0.000000D+00  0.102417D+00  0.000000D+00  0.000000D+00  0.695333D+00
     22  0.000000D+00  0.000000D+00  0.102417D+00  0.000000D+00  0.000000D+00
     23  0.000000D+00  0.000000D+00  0.000000D+00  0.000000D+00  0.000000D+00
     24  0.000000D+00  0.000000D+00  0.000000D+00  0.000000D+00  0.000000D+00
     25  0.000000D+00  0.000000D+00  0.000000D+00  0.000000D+00  0.000000D+00
     26  0.000000D+00  0.000000D+00  0.000000D+00  0.000000D+00  0.000000D+00
     27  0.000000D+00  0.000000D+00  0.000000D+00  0.000000D+00  0.000000D+00
     28  0.000000D+00  0.000000D+00  0.000000D+00  0.000000D+00  0.000000D+00
     29  0.000000D+00  0.000000D+00  0.000000D+00  0.000000D+00  0.000000D+00
     30  0.000000D+00  0.000000D+00  0.000000D+00  0.000000D+00  0.000000D+00
     31  0.000000D+00  0.000000D+00  0.000000D+00  0.000000D+00  0.000000D+00
     32  0.000000D+00  0.000000D+00  0.000000D+00  0.000000D+00  0.000000D+00
     33  0.000000D+00  0.000000D+00  0.000000D+00  0.000000D+00  0.000000D+00
     34  0.000000D+00  0.000000D+00  0.000000D+00  0.000000D+00  0.000000D+00
     35  0.000000D+00  0.000000D+00  0.000000D+00  0.000000D+00  0.000000D+00
     36  0.000000D+00  0.000000D+00  0.000000D+00  0.000000D+00  0.000000D+00
     37  0.000000D+00  0.000000D+00  0.000000D+00  0.000000D+00  0.000000D+00
     38  0.000000D+00  0.000000D+00  0.000000D+00  0.000000D+00  0.000000D+00
     39  0.000000D+00  0.000000D+00  0.000000D+00  0.000000D+00  0.000000D+00
     40  0.000000D+00  0.000000D+00  0.000000D+00  0.000000D+00  0.000000D+00
     41  0.000000D+00  0.000000D+00  0.000000D+00  0.000000D+00  0.000000D+00
     42  0.000000D+00  0.000000D+00  0.000000D+00  0.000000D+00  0.000000D+00
     43  0.000000D+00  0.000000D+00  0.000000D+00  0.000000D+00  0.000000D+00
     44  0.000000D+00  0.000000D+00  0.000000D+00  0.000000D+00  0.000000D+00
               16            17            18            19            20 
     16  0.100000D+01
     17  0.000000D+00  0.100000D+01
     18  0.000000D+00  0.000000D+00  0.100000D+01
     19  0.652514D+00  0.000000D+00  0.000000D+00  0.100000D+01
     20  0.000000D+00  0.287068D+00  0.000000D+00  0.000000D+00  0.100000D+01
     21  0.000000D+00  0.000000D+00  0.287068D+00  0.000000D+00  0.000000D+00
     22  0.695333D+00  0.000000D+00  0.000000D+00  0.287068D+00  0.000000D+00
     23  0.000000D+00  0.000000D+00  0.000000D+00  0.000000D+00  0.000000D+00
     24  0.000000D+00  0.000000D+00  0.000000D+00  0.000000D+00  0.000000D+00
     25  0.000000D+00  0.000000D+00  0.000000D+00  0.000000D+00  0.000000D+00
     26  0.000000D+00  0.000000D+00  0.000000D+00  0.000000D+00  0.000000D+00
     27  0.000000D+00  0.000000D+00  0.000000D+00  0.000000D+00  0.000000D+00
     28  0.000000D+00  0.000000D+00  0.000000D+00  0.000000D+00  0.000000D+00
     29  0.000000D+00  0.000000D+00  0.000000D+00  0.000000D+00  0.000000D+00
     30  0.000000D+00  0.000000D+00  0.000000D+00  0.000000D+00  0.000000D+00
     31  0.000000D+00  0.000000D+00  0.000000D+00  0.000000D+00  0.000000D+00
     32  0.000000D+00  0.000000D+00  0.000000D+00  0.000000D+00  0.000000D+00
     33  0.000000D+00  0.000000D+00  0.000000D+00  0.000000D+00  0.000000D+00
     34  0.000000D+00  0.000000D+00  0.000000D+00  0.000000D+00  0.000000D+00
     35  0.000000D+00  0.000000D+00  0.000000D+00  0.000000D+00  0.000000D+00
     36  0.000000D+00  0.000000D+00  0.000000D+00  0.000000D+00  0.000000D+00
     37  0.000000D+00  0.000000D+00  0.000000D+00  0.000000D+00  0.000000D+00
     38  0.000000D+00  0.000000D+00  0.000000D+00  0.000000D+00  0.000000D+00
     39  0.000000D+00  0.000000D+00  0.000000D+00  0.000000D+00  0.000000D+00
     40  0.000000D+00  0.000000D+00  0.000000D+00  0.000000D+00  0.000000D+00
     41  0.000000D+00  0.000000D+00  0.000000D+00  0.000000D+00  0.000000D+00
     42  0.000000D+00  0.000000D+00  0.000000D+00  0.000000D+00  0.000000D+00
     43  0.000000D+00  0.000000D+00  0.000000D+00  0.000000D+00  0.000000D+00
     44  0.000000D+00  0.000000D+00  0.000000D+00  0.000000D+00  0.000000D+00
               21            22            23            24            25 
     21  0.100000D+01
     22  0.000000D+00  0.100000D+01
     23  0.000000D+00  0.000000D+00  0.100000D+01
     24  0.000000D+00  0.000000D+00  0.000000D+00  0.100000D+01
     25  0.000000D+00  0.000000D+00  0.000000D+00  0.000000D+00  0.100000D+01
     26  0.000000D+00  0.000000D+00  0.000000D+00  0.000000D+00  0.000000D+00
     27  0.000000D+00  0.000000D+00  0.000000D+00  0.000000D+00  0.000000D+00
     28  0.000000D+00  0.000000D+00 -0.540500D+00  0.000000D+00  0.000000D+00
     29  0.000000D+00  0.000000D+00  0.000000D+00 -0.540500D+00  0.000000D+00
     30  0.000000D+00  0.000000D+00  0.000000D+00  0.000000D+00 -0.540500D+00
     31  0.000000D+00  0.000000D+00  0.000000D+00  0.000000D+00  0.000000D+00
     32  0.000000D+00  0.000000D+00  0.000000D+00  0.000000D+00  0.000000D+00
     33  0.000000D+00  0.000000D+00  0.516004D+00  0.000000D+00  0.000000D+00
     34  0.000000D+00  0.000000D+00  0.000000D+00  0.516004D+00  0.000000D+00
     35  0.000000D+00  0.000000D+00  0.000000D+00  0.000000D+00  0.516004D+00
     36  0.000000D+00  0.000000D+00  0.000000D+00  0.000000D+00  0.000000D+00
     37  0.000000D+00  0.000000D+00  0.000000D+00  0.000000D+00  0.000000D+00
     38  0.000000D+00  0.000000D+00  0.000000D+00  0.000000D+00  0.000000D+00
     39  0.000000D+00  0.000000D+00  0.000000D+00  0.000000D+00  0.000000D+00
     40  0.000000D+00  0.000000D+00  0.000000D+00  0.000000D+00  0.000000D+00
     41  0.000000D+00  0.000000D+00  0.000000D+00  0.000000D+00  0.000000D+00
     42  0.000000D+00  0.000000D+00  0.000000D+00  0.000000D+00  0.000000D+00
     43  0.000000D+00  0.000000D+00  0.000000D+00  0.000000D+00  0.000000D+00
     44  0.000000D+00  0.000000D+00  0.000000D+00  0.000000D+00  0.000000D+00
               26            27            28            29            30 
     26  0.100000D+01
     27  0.000000D+00  0.100000D+01
     28  0.000000D+00  0.000000D+00  0.100000D+01
     29  0.000000D+00  0.000000D+00  0.000000D+00  0.100000D+01
     30  0.000000D+00  0.000000D+00  0.000000D+00  0.000000D+00  0.100000D+01
     31 -0.540500D+00  0.000000D+00  0.000000D+00  0.000000D+00  0.000000D+00
     32  0.000000D+00 -0.540500D+00  0.000000D+00  0.000000D+00  0.000000D+00
     33  0.000000D+00  0.000000D+00 -0.926197D-01  0.000000D+00  0.000000D+00
     34  0.000000D+00  0.000000D+00  0.000000D+00 -0.926197D-01  0.000000D+00
     35  0.000000D+00  0.000000D+00  0.000000D+00  0.000000D+00 -0.926197D-01
     36  0.516004D+00  0.000000D+00  0.000000D+00  0.000000D+00  0.000000D+00
     37  0.000000D+00  0.516004D+00  0.000000D+00  0.000000D+00  0.000000D+00
     38  0.000000D+00  0.000000D+00  0.000000D+00  0.000000D+00  0.000000D+00
     39  0.000000D+00  0.000000D+00  0.000000D+00  0.000000D+00  0.000000D+00
     40  0.000000D+00  0.000000D+00  0.000000D+00  0.000000D+00  0.000000D+00
     41  0.000000D+00  0.000000D+00  0.000000D+00  0.000000D+00  0.000000D+00
     42  0.000000D+00  0.000000D+00  0.000000D+00  0.000000D+00  0.000000D+00
     43  0.000000D+00  0.000000D+00  0.000000D+00  0.000000D+00  0.000000D+00
     44  0.000000D+00  0.000000D+00  0.000000D+00  0.000000D+00  0.000000D+00
               31            32            33            34            35 
     31  0.100000D+01
     32  0.000000D+00  0.100000D+01
     33  0.000000D+00  0.000000D+00  0.100000D+01
     34  0.000000D+00  0.000000D+00  0.000000D+00  0.100000D+01
     35  0.000000D+00  0.000000D+00  0.000000D+00  0.000000D+00  0.100000D+01
     36 -0.926197D-01  0.000000D+00  0.000000D+00  0.000000D+00  0.000000D+00
     37  0.000000D+00 -0.926197D-01  0.000000D+00  0.000000D+00  0.000000D+00
     38  0.000000D+00  0.000000D+00  0.000000D+00  0.000000D+00  0.000000D+00
     39  0.000000D+00  0.000000D+00  0.000000D+00  0.000000D+00  0.000000D+00
     40  0.000000D+00  0.000000D+00  0.000000D+00  0.000000D+00  0.000000D+00
     41  0.000000D+00  0.000000D+00  0.000000D+00  0.000000D+00  0.000000D+00
     42  0.000000D+00  0.000000D+00  0.000000D+00  0.000000D+00  0.000000D+00
     43  0.000000D+00  0.000000D+00  0.000000D+00  0.000000D+00  0.000000D+00
     44  0.000000D+00  0.000000D+00  0.000000D+00  0.000000D+00  0.000000D+00
               36            37            38            39            40 
     36  0.100000D+01
     37  0.000000D+00  0.100000D+01
     38  0.000000D+00  0.000000D+00  0.100000D+01
     39  0.000000D+00  0.000000D+00  0.000000D+00  0.100000D+01
     40  0.000000D+00  0.000000D+00  0.000000D+00  0.000000D+00  0.100000D+01
     41  0.000000D+00  0.000000D+00  0.000000D+00  0.000000D+00  0.000000D+00
     42  0.000000D+00  0.000000D+00  0.000000D+00  0.000000D+00  0.000000D+00
     43  0.000000D+00  0.000000D+00  0.000000D+00  0.000000D+00  0.000000D+00
     44  0.000000D+00  0.000000D+00  0.000000D+00  0.000000D+00  0.000000D+00
               41            42            43            44 
     41  0.100000D+01
     42  0.000000D+00  0.100000D+01
     43  0.000000D+00  0.000000D+00  0.100000D+01
     44  0.000000D+00  0.000000D+00  0.000000D+00  0.100000D+01
 *** Kinetic Energy *** 
                1             2             3             4             5 
      1  0.760032D+00
      2 -0.178815D-02  0.232583D+03
      3 -0.119467D-01 -0.128622D+02  0.115288D+02
      4 -0.431297D-01 -0.154895D+01 -0.820755D+00  0.179517D+01
      5  0.633636D-01 -0.285017D-01 -0.171041D+00 -0.215769D+00  0.125751D+00
      6  0.712532D-01 -0.104443D+00 -0.732067D+00  0.362044D+00  0.760212D-01
      7  0.210761D-01  0.478399D-03  0.379823D-02 -0.234796D-02  0.464183D-01
      8  0.000000D+00  0.000000D+00  0.000000D+00  0.000000D+00  0.000000D+00
      9  0.000000D+00  0.000000D+00  0.000000D+00  0.000000D+00  0.000000D+00
     10  0.280803D-02  0.000000D+00  0.000000D+00  0.000000D+00  0.000000D+00
     11  0.000000D+00  0.000000D+00  0.000000D+00  0.000000D+00  0.000000D+00
     12  0.000000D+00  0.000000D+00  0.000000D+00  0.000000D+00  0.000000D+00
     13 -0.755328D-01  0.000000D+00  0.000000D+00  0.000000D+00  0.000000D+00
     14  0.000000D+00  0.000000D+00  0.000000D+00  0.000000D+00  0.000000D+00
     15  0.000000D+00  0.000000D+00  0.000000D+00  0.000000D+00  0.000000D+00
     16 -0.166959D+00  0.000000D+00  0.000000D+00  0.000000D+00  0.000000D+00
     17  0.000000D+00  0.000000D+00  0.000000D+00  0.000000D+00  0.000000D+00
     18  0.000000D+00  0.000000D+00  0.000000D+00  0.000000D+00  0.000000D+00
     19 -0.155677D+00  0.000000D+00  0.000000D+00  0.000000D+00  0.000000D+00
     20  0.000000D+00  0.000000D+00  0.000000D+00  0.000000D+00  0.000000D+00
     21  0.000000D+00  0.000000D+00  0.000000D+00  0.000000D+00  0.000000D+00
     22 -0.331926D-01  0.000000D+00  0.000000D+00  0.000000D+00  0.000000D+00
     23  0.312080D+00  0.000000D+00  0.000000D+00  0.000000D+00  0.000000D+00
     24  0.000000D+00  0.000000D+00  0.000000D+00  0.000000D+00  0.000000D+00
     25  0.000000D+00  0.000000D+00  0.000000D+00  0.000000D+00  0.000000D+00
     26  0.000000D+00  0.000000D+00  0.000000D+00  0.000000D+00  0.000000D+00
     27  0.000000D+00  0.000000D+00  0.000000D+00  0.000000D+00  0.000000D+00
     28 -0.160035D+00  0.000000D+00  0.000000D+00  0.000000D+00  0.000000D+00
     29  0.000000D+00  0.000000D+00  0.000000D+00  0.000000D+00  0.000000D+00
     30  0.000000D+00  0.000000D+00  0.000000D+00  0.000000D+00  0.000000D+00
     31  0.000000D+00  0.000000D+00  0.000000D+00  0.000000D+00  0.000000D+00
     32  0.000000D+00  0.000000D+00  0.000000D+00  0.000000D+00  0.000000D+00
     33  0.625625D-01  0.000000D+00  0.000000D+00  0.000000D+00  0.000000D+00
     34  0.000000D+00  0.000000D+00  0.000000D+00  0.000000D+00  0.000000D+00
     35  0.000000D+00  0.000000D+00  0.000000D+00  0.000000D+00  0.000000D+00
     36  0.000000D+00  0.000000D+00  0.000000D+00  0.000000D+00  0.000000D+00
     37  0.000000D+00  0.000000D+00  0.000000D+00  0.000000D+00  0.000000D+00
     38 -0.362715D+00  0.000000D+00  0.000000D+00  0.000000D+00  0.000000D+00
     39  0.000000D+00  0.000000D+00  0.000000D+00  0.000000D+00  0.000000D+00
     40  0.000000D+00  0.000000D+00  0.000000D+00  0.000000D+00  0.000000D+00
     41  0.000000D+00  0.000000D+00  0.000000D+00  0.000000D+00  0.000000D+00
     42  0.000000D+00  0.000000D+00  0.000000D+00  0.000000D+00  0.000000D+00
     43  0.000000D+00  0.000000D+00  0.000000D+00  0.000000D+00  0.000000D+00
     44  0.000000D+00  0.000000D+00  0.000000D+00  0.000000D+00  0.000000D+00
                6             7             8             9            10 
      6  0.256601D+00
      7  0.417924D-01  0.381975D-01
      8  0.000000D+00  0.000000D+00  0.395927D+02
      9  0.000000D+00  0.000000D+00  0.000000D+00  0.395927D+02
     10  0.000000D+00  0.000000D+00  0.000000D+00  0.000000D+00  0.395927D+02
     11  0.000000D+00  0.000000D+00  0.114763D+01  0.000000D+00  0.000000D+00
     12  0.000000D+00  0.000000D+00  0.000000D+00  0.114763D+01  0.000000D+00
     13  0.000000D+00  0.000000D+00  0.000000D+00  0.000000D+00  0.114763D+01
     14  0.000000D+00  0.000000D+00 -0.629779D-01  0.000000D+00  0.000000D+00
     15  0.000000D+00  0.000000D+00  0.000000D+00 -0.629779D-01  0.000000D+00
     16  0.000000D+00  0.000000D+00  0.000000D+00  0.000000D+00 -0.629779D-01
     17  0.000000D+00  0.000000D+00  0.118366D+01  0.000000D+00  0.000000D+00
     18  0.000000D+00  0.000000D+00  0.000000D+00  0.118366D+01  0.000000D+00
     19  0.000000D+00  0.000000D+00  0.000000D+00  0.000000D+00  0.118366D+01
     20  0.000000D+00  0.000000D+00  0.731911D-03  0.000000D+00  0.000000D+00
     21  0.000000D+00  0.000000D+00  0.000000D+00  0.731911D-03  0.000000D+00
     22  0.000000D+00  0.000000D+00  0.000000D+00  0.000000D+00  0.731911D-03
     23  0.000000D+00  0.000000D+00  0.000000D+00  0.000000D+00  0.000000D+00
     24  0.000000D+00  0.000000D+00  0.000000D+00  0.000000D+00  0.000000D+00
     25  0.000000D+00  0.000000D+00  0.000000D+00  0.000000D+00  0.000000D+00
     26  0.000000D+00  0.000000D+00  0.000000D+00  0.000000D+00  0.000000D+00
     27  0.000000D+00  0.000000D+00  0.000000D+00  0.000000D+00  0.000000D+00
     28  0.000000D+00  0.000000D+00  0.000000D+00  0.000000D+00  0.000000D+00
     29  0.000000D+00  0.000000D+00  0.000000D+00  0.000000D+00  0.000000D+00
     30  0.000000D+00  0.000000D+00  0.000000D+00  0.000000D+00  0.000000D+00
     31  0.000000D+00  0.000000D+00  0.000000D+00  0.000000D+00  0.000000D+00
     32  0.000000D+00  0.000000D+00  0.000000D+00  0.000000D+00  0.000000D+00
     33  0.000000D+00  0.000000D+00  0.000000D+00  0.000000D+00  0.000000D+00
     34  0.000000D+00  0.000000D+00  0.000000D+00  0.000000D+00  0.000000D+00
     35  0.000000D+00  0.000000D+00  0.000000D+00  0.000000D+00  0.000000D+00
     36  0.000000D+00  0.000000D+00  0.000000D+00  0.000000D+00  0.000000D+00
     37  0.000000D+00  0.000000D+00  0.000000D+00  0.000000D+00  0.000000D+00
     38  0.000000D+00  0.000000D+00  0.000000D+00  0.000000D+00  0.000000D+00
     39  0.000000D+00  0.000000D+00  0.000000D+00  0.000000D+00  0.000000D+00
     40  0.000000D+00  0.000000D+00  0.000000D+00  0.000000D+00  0.000000D+00
     41  0.000000D+00  0.000000D+00  0.000000D+00  0.000000D+00  0.000000D+00
     42  0.000000D+00  0.000000D+00  0.000000D+00  0.000000D+00  0.000000D+00
     43  0.000000D+00  0.000000D+00  0.000000D+00  0.000000D+00  0.000000D+00
     44  0.000000D+00  0.000000D+00  0.000000D+00  0.000000D+00  0.000000D+00
               11            12            13            14            15 
     11  0.260289D+01
     12  0.000000D+00  0.260289D+01
     13  0.000000D+00  0.000000D+00  0.260289D+01
     14  0.536747D-01  0.000000D+00  0.000000D+00  0.237446D+00
     15  0.000000D+00  0.536747D-01  0.000000D+00  0.000000D+00  0.237446D+00
     16  0.000000D+00  0.000000D+00  0.536747D-01  0.000000D+00  0.000000D+00
     17  0.203947D+01  0.000000D+00  0.000000D+00  0.159802D+00  0.000000D+00
     18  0.000000D+00  0.203947D+01  0.000000D+00  0.000000D+00  0.159802D+00
     19  0.000000D+00  0.000000D+00  0.203947D+01  0.000000D+00  0.000000D+00
     20  0.140941D-01  0.000000D+00  0.000000D+00  0.758826D-01  0.000000D+00
     21  0.000000D+00  0.140941D-01  0.000000D+00  0.000000D+00  0.758826D-01
     22  0.000000D+00  0.000000D+00  0.140941D-01  0.000000D+00  0.000000D+00
     23  0.000000D+00  0.000000D+00  0.000000D+00  0.000000D+00  0.000000D+00
     24  0.000000D+00  0.000000D+00  0.000000D+00  0.000000D+00  0.000000D+00
     25  0.000000D+00  0.000000D+00  0.000000D+00  0.000000D+00  0.000000D+00
     26  0.000000D+00  0.000000D+00  0.000000D+00  0.000000D+00  0.000000D+00
     27  0.000000D+00  0.000000D+00  0.000000D+00  0.000000D+00  0.000000D+00
     28  0.000000D+00  0.000000D+00  0.000000D+00  0.000000D+00  0.000000D+00
     29  0.000000D+00  0.000000D+00  0.000000D+00  0.000000D+00  0.000000D+00
     30  0.000000D+00  0.000000D+00  0.000000D+00  0.000000D+00  0.000000D+00
     31  0.000000D+00  0.000000D+00  0.000000D+00  0.000000D+00  0.000000D+00
     32  0.000000D+00  0.000000D+00  0.000000D+00  0.000000D+00  0.000000D+00
     33  0.000000D+00  0.000000D+00  0.000000D+00  0.000000D+00  0.000000D+00
     34  0.000000D+00  0.000000D+00  0.000000D+00  0.000000D+00  0.000000D+00
     35  0.000000D+00  0.000000D+00  0.000000D+00  0.000000D+00  0.000000D+00
     36  0.000000D+00  0.000000D+00  0.000000D+00  0.000000D+00  0.000000D+00
     37  0.000000D+00  0.000000D+00  0.000000D+00  0.000000D+00  0.000000D+00
     38  0.000000D+00  0.000000D+00  0.000000D+00  0.000000D+00  0.000000D+00
     39  0.000000D+00  0.000000D+00  0.000000D+00  0.000000D+00  0.000000D+00
     40  0.000000D+00  0.000000D+00  0.000000D+00  0.000000D+00  0.000000D+00
     41  0.000000D+00  0.000000D+00  0.000000D+00  0.000000D+00  0.000000D+00
     42  0.000000D+00  0.000000D+00  0.000000D+00  0.000000D+00  0.000000D+00
     43  0.000000D+00  0.000000D+00  0.000000D+00  0.000000D+00  0.000000D+00
     44  0.000000D+00  0.000000D+00  0.000000D+00  0.000000D+00  0.000000D+00
               16            17            18            19            20 
     16  0.237446D+00
     17  0.000000D+00  0.167591D+01
     18  0.000000D+00  0.000000D+00  0.167591D+01
     19  0.159802D+00  0.000000D+00  0.000000D+00  0.167591D+01
     20  0.000000D+00  0.366117D-01  0.000000D+00  0.000000D+00  0.735025D-01
     21  0.000000D+00  0.000000D+00  0.366117D-01  0.000000D+00  0.000000D+00
     22  0.758826D-01  0.000000D+00  0.000000D+00  0.366117D-01  0.000000D+00
     23  0.000000D+00  0.000000D+00  0.000000D+00  0.000000D+00  0.000000D+00
     24  0.000000D+00  0.000000D+00  0.000000D+00  0.000000D+00  0.000000D+00
     25  0.000000D+00  0.000000D+00  0.000000D+00  0.000000D+00  0.000000D+00
     26  0.000000D+00  0.000000D+00  0.000000D+00  0.000000D+00  0.000000D+00
     27  0.000000D+00  0.000000D+00  0.000000D+00  0.000000D+00  0.000000D+00
     28  0.000000D+00  0.000000D+00  0.000000D+00  0.000000D+00  0.000000D+00
     29  0.000000D+00  0.000000D+00  0.000000D+00  0.000000D+00  0.000000D+00
     30  0.000000D+00  0.000000D+00  0.000000D+00  0.000000D+00  0.000000D+00
     31  0.000000D+00  0.000000D+00  0.000000D+00  0.000000D+00  0.000000D+00
     32  0.000000D+00  0.000000D+00  0.000000D+00  0.000000D+00  0.000000D+00
     33  0.000000D+00  0.000000D+00  0.000000D+00  0.000000D+00  0.000000D+00
     34  0.000000D+00  0.000000D+00  0.000000D+00  0.000000D+00  0.000000D+00
     35  0.000000D+00  0.000000D+00  0.000000D+00  0.000000D+00  0.000000D+00
     36  0.000000D+00  0.000000D+00  0.000000D+00  0.000000D+00  0.000000D+00
     37  0.000000D+00  0.000000D+00  0.000000D+00  0.000000D+00  0.000000D+00
     38  0.000000D+00  0.000000D+00  0.000000D+00  0.000000D+00  0.000000D+00
     39  0.000000D+00  0.000000D+00  0.000000D+00  0.000000D+00  0.000000D+00
     40  0.000000D+00  0.000000D+00  0.000000D+00  0.000000D+00  0.000000D+00
     41  0.000000D+00  0.000000D+00  0.000000D+00  0.000000D+00  0.000000D+00
     42  0.000000D+00  0.000000D+00  0.000000D+00  0.000000D+00  0.000000D+00
     43  0.000000D+00  0.000000D+00  0.000000D+00  0.000000D+00  0.000000D+00
     44  0.000000D+00  0.000000D+00  0.000000D+00  0.000000D+00  0.000000D+00
               21            22            23            24            25 
     21  0.735025D-01
     22  0.000000D+00  0.735025D-01
     23  0.000000D+00  0.000000D+00  0.748962D+00
     24  0.000000D+00  0.000000D+00  0.000000D+00  0.748962D+00
     25  0.000000D+00  0.000000D+00  0.000000D+00  0.000000D+00  0.748962D+00
     26  0.000000D+00  0.000000D+00  0.000000D+00  0.000000D+00  0.000000D+00
     27  0.000000D+00  0.000000D+00  0.000000D+00  0.000000D+00  0.000000D+00
     28  0.000000D+00  0.000000D+00 -0.801358D+00  0.000000D+00  0.000000D+00
     29  0.000000D+00  0.000000D+00  0.000000D+00 -0.801358D+00  0.000000D+00
     30  0.000000D+00  0.000000D+00  0.000000D+00  0.000000D+00 -0.801358D+00
     31  0.000000D+00  0.000000D+00  0.000000D+00  0.000000D+00  0.000000D+00
     32  0.000000D+00  0.000000D+00  0.000000D+00  0.000000D+00  0.000000D+00
     33  0.000000D+00  0.000000D+00  0.143749D+00  0.000000D+00  0.000000D+00
     34  0.000000D+00  0.000000D+00  0.000000D+00  0.143749D+00  0.000000D+00
     35  0.000000D+00  0.000000D+00  0.000000D+00  0.000000D+00  0.143749D+00
     36  0.000000D+00  0.000000D+00  0.000000D+00  0.000000D+00  0.000000D+00
     37  0.000000D+00  0.000000D+00  0.000000D+00  0.000000D+00  0.000000D+00
     38  0.000000D+00  0.000000D+00  0.000000D+00  0.000000D+00  0.000000D+00
     39  0.000000D+00  0.000000D+00  0.000000D+00  0.000000D+00  0.000000D+00
[...]
     alpha-beta  T2 =       0.1313908180D-01 E2=     -0.2469809427D-01
     beta-beta   T2 =       0.0000000000D+00 E2=      0.0000000000D+00
 ANorm=    0.1011725276D+01
 E2 =    -0.4463877054D-01 EUMP2 =    -0.84890956102056D+03
 (S**2,0)=  0.37587D+01           (S**2,1)=  0.37558D+01
 E(PUHF)=      -0.84886521970D+03        E(PMP2)=      -0.84890980898D+03
 Leave Link  804 at Mon Mar 28 10:01:57 2022, MaxMem=  9663676416 cpu:              35.1 elap:               1.0
 (Enter /nopt/nrel/apps/gaussian/g16C_1/g16/l913.exe)
 CIDS:  MDV=  9663676416.
 Frozen-core window:  NFC=   9 NFV=   0.
 IFCWin=0 IBDFC=1 NFBD=     0     0 NFCmp=     0     0 NFFFC=     0     0
 Using original routines for 1st iteration.
 Using DD4UQ or CC4UQ for 2nd and later iterations.
 Keep R2 and R3 ints in memory in symmetry-blocked form, NReq=27572108.
 FoFCou: FMM=F IPFlag=           0 FMFlag=           0 FMFlg1=           0
         NFxFlg=           0 DoJE=F BraDBF=F KetDBF=F FulRan=T
         wScrn=  0.000000 ICntrl=       600 IOpCl=  0 I1Cent=           0 NGrid=           0
         NMat0=    1 NMatS0=    990 NMatT0=    0 NMatD0=    1 NMtDS0=    0 NMtDT0=    0
 Petite list used in FoFCou.
 CIDS: In Core Option IDoMem=           1.
 Coupled Cluster theory with single and double substitutions
 ===========================================================
 Iterations= 200 Convergence= 0.100D-06
 Produce multiple copies of IABC intergrals
 Iteration Nr.   1
 **********************
 DD1Dir will call FoFMem   1 times, MxPair=        14
 NAB=     4 NAA=     6 NBB=     0.
 E(PMP3)=      -0.84891911167D+03
 MP4(R+Q)=  0.64697646D-03
 Maximum subspace dimension=  5
 A-vector RMS=  8.8806140D-03 Max=  2.0657825D-02 conv= 1.00D-05.
 RLE energy=       -0.0554722454
 E3=       -0.93530912D-02        EUMP3=      -0.84891891411D+03
 E4(DQ)=   -0.21224470D-02        UMP4(DQ)=   -0.84892103656D+03
 E4(SDQ)=  -0.34388147D-02        UMP4(SDQ)=  -0.84892235293D+03
 VARIATIONAL ENERGIES WITH THE FIRST-ORDER WAVEFUNCTION:
 DE(Corr)= -0.53356521E-01 E(Corr)=     -848.91827877    
 NORM(A)=   0.10206812D+01
 Iteration Nr.   2
 **********************
 DD1Dir will call FoFMem   1 times, MxPair=        14
 NAB=     4 NAA=     6 NBB=     0.
 A-vector RMS=  4.7179891D-03 Max=  1.5704700D-02 conv= 1.00D-05.
 RLE energy=       -0.0606890664
 DE(Corr)= -0.57767037E-01 E(CORR)=     -848.92268929     Delta=-4.41D-03
 NORM(A)=   0.10311159D+01
 Iteration Nr.   3
 **********************
 DD1Dir will call FoFMem   1 times, MxPair=        14
 NAB=     4 NAA=     6 NBB=     0.
 A-vector RMS=  2.6397714D-03 Max=  1.2091076D-02 conv= 1.00D-05.
 RLE energy=       -0.0630952799
 DE(Corr)= -0.60745886E-01 E(CORR)=     -848.92566814     Delta=-2.98D-03
 NORM(A)=   0.10451435D+01
 Iteration Nr.   4
 **********************
 DD1Dir will call FoFMem   1 times, MxPair=        14
 NAB=     4 NAA=     6 NBB=     0.
 A-vector RMS=  1.4232190D-03 Max=  5.5214472D-03 conv= 1.00D-05.
 RLE energy=       -0.0645284328
 DE(Corr)= -0.63148823E-01 E(CORR)=     -848.92807107     Delta=-2.40D-03
 NORM(A)=   0.10585357D+01
 Iteration Nr.   5
 **********************
 DD1Dir will call FoFMem   1 times, MxPair=        14
 NAB=     4 NAA=     6 NBB=     0.
 A-vector RMS=  1.0864177D-03 Max=  3.9969984D-03 conv= 1.00D-05.
 RLE energy=       -0.0650440279
 DE(Corr)= -0.64457492E-01 E(CORR)=     -848.92937974     Delta=-1.31D-03
 NORM(A)=   0.10675405D+01
 Iteration Nr.   6
 **********************
 DD1Dir will call FoFMem   1 times, MxPair=        14
 NAB=     4 NAA=     6 NBB=     0.
 A-vector RMS=  1.1110687D-03 Max=  5.4216406D-03 conv= 1.00D-05.
 RLE energy=       -0.0657293945
 DE(Corr)= -0.65083700E-01 E(CORR)=     -848.93000595     Delta=-6.26D-04
 NORM(A)=   0.10761633D+01
 Iteration Nr.   7
 **********************
 DD1Dir will call FoFMem   1 times, MxPair=        14
 NAB=     4 NAA=     6 NBB=     0.
 A-vector RMS=  9.7036189D-04 Max=  5.6363357D-03 conv= 1.00D-05.
 RLE energy=       -0.0659139993
 DE(Corr)= -0.65662912E-01 E(CORR)=     -848.93058516     Delta=-5.79D-04
 NORM(A)=   0.10795359D+01
 Iteration Nr.   8
 **********************
 DD1Dir will call FoFMem   1 times, MxPair=        14
 NAB=     4 NAA=     6 NBB=     0.
 A-vector RMS=  5.5118696D-04 Max=  2.7586994D-03 conv= 1.00D-05.
 RLE energy=       -0.0660138338
 DE(Corr)= -0.65894728E-01 E(CORR)=     -848.93081698     Delta=-2.32D-04
 NORM(A)=   0.10810535D+01
 Iteration Nr.   9
 **********************
 DD1Dir will call FoFMem   1 times, MxPair=        14
 NAB=     4 NAA=     6 NBB=     0.
 A-vector RMS=  2.8924838D-04 Max=  9.9083430D-04 conv= 1.00D-05.
 RLE energy=       -0.0659986420
 DE(Corr)= -0.65993254E-01 E(CORR)=     -848.93091550     Delta=-9.85D-05
 NORM(A)=   0.10813669D+01
 Iteration Nr.  10
 **********************
 DD1Dir will call FoFMem   1 times, MxPair=        14
 NAB=     4 NAA=     6 NBB=     0.
 A-vector RMS=  1.5235812D-04 Max=  4.2830296D-04 conv= 1.00D-05.
 RLE energy=       -0.0659942702
 DE(Corr)= -0.66004852E-01 E(CORR)=     -848.93092710     Delta=-1.16D-05
 NORM(A)=   0.10813147D+01
 Iteration Nr.  11
 **********************
 DD1Dir will call FoFMem   1 times, MxPair=        14
 NAB=     4 NAA=     6 NBB=     0.
 A-vector RMS=  8.4495334D-05 Max=  2.5887771D-04 conv= 1.00D-05.
 RLE energy=       -0.0659747527
 DE(Corr)= -0.65995757E-01 E(CORR)=     -848.93091801     Delta= 9.10D-06
 NORM(A)=   0.10811432D+01
 Iteration Nr.  12
 **********************
 DD1Dir will call FoFMem   1 times, MxPair=        14
 NAB=     4 NAA=     6 NBB=     0.
 A-vector RMS=  4.5350646D-05 Max=  1.3928022D-04 conv= 1.00D-05.
 RLE energy=       -0.0659656042
 DE(Corr)= -0.65978977E-01 E(CORR)=     -848.93090123     Delta= 1.68D-05
 NORM(A)=   0.10810117D+01
 Iteration Nr.  13
 **********************
 DD1Dir will call FoFMem   1 times, MxPair=        14
 NAB=     4 NAA=     6 NBB=     0.
 A-vector RMS=  2.7456209D-05 Max=  6.2606047D-05 conv= 1.00D-05.
 RLE energy=       -0.0659613288
 DE(Corr)= -0.65969230E-01 E(CORR)=     -848.93089148     Delta= 9.75D-06
 NORM(A)=   0.10809139D+01
 Iteration Nr.  14
 **********************
 DD1Dir will call FoFMem   1 times, MxPair=        14
 NAB=     4 NAA=     6 NBB=     0.
 A-vector RMS=  1.9250367D-05 Max=  4.2677250D-05 conv= 1.00D-05.
 RLE energy=       -0.0659592935
 DE(Corr)= -0.65963982E-01 E(CORR)=     -848.93088623     Delta= 5.25D-06
 NORM(A)=   0.10808457D+01
 Iteration Nr.  15
 **********************
 DD1Dir will call FoFMem   1 times, MxPair=        14
 NAB=     4 NAA=     6 NBB=     0.
 A-vector RMS=  1.3526469D-05 Max=  5.2649779D-05 conv= 1.00D-05.
 RLE energy=       -0.0659596808
 DE(Corr)= -0.65961796E-01 E(CORR)=     -848.93088405     Delta= 2.19D-06
 NORM(A)=   0.10807987D+01
 Iteration Nr.  16
 **********************
 DD1Dir will call FoFMem   1 times, MxPair=        14
 NAB=     4 NAA=     6 NBB=     0.
 A-vector RMS=  9.0695574D-06 Max=  5.1180271D-05 conv= 1.00D-05.
 RLE energy=       -0.0659575570
 DE(Corr)= -0.65960833E-01 E(CORR)=     -848.93088308     Delta= 9.63D-07
 NORM(A)=   0.10807499D+01
 Iteration Nr.  17
 **********************
 DD1Dir will call FoFMem   1 times, MxPair=        14
 NAB=     4 NAA=     6 NBB=     0.
 A-vector RMS=  7.3660938D-06 Max=  3.2888723D-05 conv= 1.00D-05.
 RLE energy=       -0.0659562587
 DE(Corr)= -0.65958689E-01 E(CORR)=     -848.93088094     Delta= 2.14D-06
 NORM(A)=   0.10807162D+01
 Iteration Nr.  18
 **********************
 DD1Dir will call FoFMem   1 times, MxPair=        14
 NAB=     4 NAA=     6 NBB=     0.
 A-vector RMS=  5.1927254D-06 Max=  1.7785176D-05 conv= 1.00D-05.
 RLE energy=       -0.0659549562
 DE(Corr)= -0.65956844E-01 E(CORR)=     -848.93087909     Delta= 1.84D-06
 NORM(A)=   0.10806901D+01
 Iteration Nr.  19
 **********************
 DD1Dir will call FoFMem   1 times, MxPair=        14
 NAB=     4 NAA=     6 NBB=     0.
 A-vector RMS=  3.7231351D-06 Max=  9.2797848D-06 conv= 1.00D-05.
 RLE energy=       -0.0659547326
 DE(Corr)= -0.65955464E-01 E(CORR)=     -848.93087771     Delta= 1.38D-06
 NORM(A)=   0.10806757D+01
 Iteration Nr.  20
 **********************
 DD1Dir will call FoFMem   1 times, MxPair=        14
 NAB=     4 NAA=     6 NBB=     0.
 A-vector RMS=  2.6266865D-06 Max=  7.7970626D-06 conv= 1.00D-05.
 RLE energy=       -0.0659545649
 DE(Corr)= -0.65954917E-01 E(CORR)=     -848.93087717     Delta= 5.48D-07
 NORM(A)=   0.10806673D+01
 Iteration Nr.  21
 **********************
 DD1Dir will call FoFMem   1 times, MxPair=        14
 NAB=     4 NAA=     6 NBB=     0.
 A-vector RMS=  1.6193112D-06 Max=  5.5067054D-06 conv= 1.00D-05.
 RLE energy=       -0.0659543432
 DE(Corr)= -0.65954629E-01 E(CORR)=     -848.93087688     Delta= 2.88D-07
 NORM(A)=   0.10806600D+01
 Iteration Nr.  22
 **********************
 DD1Dir will call FoFMem   1 times, MxPair=        14
 NAB=     4 NAA=     6 NBB=     0.
 A-vector RMS=  1.1207717D-06 Max=  3.5588509D-06 conv= 1.00D-05.
 RLE energy=       -0.0659541593
 DE(Corr)= -0.65954316E-01 E(CORR)=     -848.93087657     Delta= 3.13D-07
 NORM(A)=   0.10806566D+01
 Iteration Nr.  23
 **********************
 DD1Dir will call FoFMem   1 times, MxPair=        14
 NAB=     4 NAA=     6 NBB=     0.
 A-vector RMS=  8.5113772D-07 Max=  2.7650705D-06 conv= 1.00D-05.
 RLE energy=       -0.0659540427
 DE(Corr)= -0.65954106E-01 E(CORR)=     -848.93087636     Delta= 2.10D-07
 NORM(A)=   0.10806552D+01
 Iteration Nr.  24
 **********************
 DD1Dir will call FoFMem   1 times, MxPair=        14
 NAB=     4 NAA=     6 NBB=     0.
 A-vector RMS=  5.6444119D-07 Max=  2.0698807D-06 conv= 1.00D-05.
 RLE energy=       -0.0659540666
 DE(Corr)= -0.65953997E-01 E(CORR)=     -848.93087625     Delta= 1.09D-07
 NORM(A)=   0.10806556D+01
 Iteration Nr.  25
 **********************
 DD1Dir will call FoFMem   1 times, MxPair=        14
 NAB=     4 NAA=     6 NBB=     0.
 A-vector RMS=  3.8762084D-07 Max=  1.2958236D-06 conv= 1.00D-05.
 RLE energy=       -0.0659541123
 DE(Corr)= -0.65954010E-01 E(CORR)=     -848.93087626     Delta=-1.27D-08
 NORM(A)=   0.10806566D+01
 CI/CC converged in   25 iterations to DelEn=-1.27D-08 Conv= 1.00D-07 ErrA1= 3.88D-07 Conv= 1.00D-05
 Wavefunction amplitudes converged. E(Corr)=     -848.93087626    
 Dominant configurations:
 ***********************
 Spin Case        I    J    A    B          Value
    AA           13        16           -0.111156D+00
   AAAA          11   12   18   19      -0.134292D+00
   AAAA          11   12   18   26       0.142208D+00
   AAAA          11   12   27   19       0.142208D+00
   AAAA          11   12   27   26      -0.143231D+00
 Largest amplitude= 1.43D-01

 S**2, projected HF & approx projected MPn energies after annihilation of
 unwanted spin states (see manual for definitions):

 spins       (S**2,0) (S**2,1)    PUHF        PMP2        PMP3        PMP4
 annihilated
 s+1         3.74999  3.74999 -848.865220 -848.909809 -848.919112

 Discarding MO integrals.
 Leave Link  913 at Mon Mar 28 10:01:58 2022, MaxMem=  9663676416 cpu:              60.9 elap:               1.7
 (Enter /nopt/nrel/apps/gaussian/g16C_1/g16/l601.exe)
 Copying SCF densities to generalized density rwf, IOpCl= 1 IROHF=0.

 **********************************************************************

            Population analysis using the SCF Density.

 **********************************************************************

 Orbital symmetries:
 Alpha Orbitals:
       Occupied  (SG) (SG) (PI) (PI) (SG) (SG) (SG) (PI) (PI) (SG)
                 (PI) (PI) (SG)
       Virtual   (PI) (PI) (SG) (SG) (DLTA) (DLTA) (PI) (PI) (SG)
                 (PI) (PI) (SG) (DLTA) (DLTA) (SG) (SG) (PI) (PI)
                 (DLTA) (DLTA) (SG) (PI) (PI) (SG) (PI) (PI) (DLTA)
                 (DLTA) (PHI) (PHI) (SG)
 Beta  Orbitals:
       Occupied  (SG) (SG) (PI) (PI) (SG) (SG) (PI) (PI) (SG) (SG)
       Virtual   (SG) (PI) (PI) (SG) (DLTA) (DLTA) (SG) (PI) (PI)
                 (SG) (PI) (PI) (SG) (DLTA) (DLTA) (PI) (PI) (SG)
                 (SG) (DLTA) (DLTA) (PI) (PI) (SG) (PI) (PI) (SG)
                 (PHI) (PHI) (PI) (PI) (DLTA) (DLTA) (SG)
 The electronic state is 4-SG.
 Alpha  occ. eigenvalues -- -183.20618 -21.36917 -17.73859 -17.73859 -17.73725
 Alpha  occ. eigenvalues --   -2.87817  -1.86690  -1.80150  -1.80150  -0.41792
 Alpha  occ. eigenvalues --   -0.36525  -0.36525  -0.21784
 Alpha virt. eigenvalues --    0.02088   0.02088   0.04796   0.09730   0.10585
 Alpha virt. eigenvalues --    0.10585   0.16263   0.16263   0.16513   0.19771
 Alpha virt. eigenvalues --    0.19771   0.22065   0.22670   0.22670   0.63346
 Alpha virt. eigenvalues --    0.76249   0.81173   0.81173   0.90225   0.90225
 Alpha virt. eigenvalues --    0.94227   0.97085   0.97085   1.07120   1.21652
 Alpha virt. eigenvalues --    1.21652   1.22378   1.22378   1.25636   1.25636
 Alpha virt. eigenvalues --    2.33606
  Beta  occ. eigenvalues -- -183.20463 -21.33601 -17.71302 -17.71302 -17.69106
  Beta  occ. eigenvalues --   -2.74950  -1.68237  -1.68237  -1.63411  -0.37510
  Beta virt. eigenvalues --    0.02540   0.05035   0.05035   0.07198   0.13423
  Beta virt. eigenvalues --    0.13423   0.13980   0.14595   0.14595   0.19787
  Beta virt. eigenvalues --    0.23952   0.23952   0.26193   0.26524   0.26524
  Beta virt. eigenvalues --    0.30455   0.30455   0.67866   0.80232   0.93762
  Beta virt. eigenvalues --    0.93762   0.97519   0.97519   0.97821   0.98479
  Beta virt. eigenvalues --    0.98479   1.11776   1.28419   1.28419   1.29765
  Beta virt. eigenvalues --    1.29765   1.31987   1.31987   2.38055
          Condensed to atoms (all electrons):
               1          2
     1  H    0.583515   0.382799
     2  Ti   0.382799  21.650887
          Atomic-Atomic Spin Densities.
               1          2
     1  H    0.011765  -0.010771
     2  Ti  -0.010771   3.009777
 Mulliken charges and spin densities:
               1          2
     1  H    0.033686   0.000994
     2  Ti  -0.033686   2.999006
 Sum of Mulliken charges =   0.00000   3.00000
 Mulliken charges and spin densities with hydrogens summed into heavy atoms:
               1          2
     2  Ti   0.000000   3.000000
 N-N= 8.955306646338D+00 E-N=-2.031751284334D+03  KE= 8.493961047350D+02
 Symmetry A1   KE= 6.571716044635D+02
 Symmetry A2   KE= 2.482185152501D-49
 Symmetry B1   KE= 9.611225013572D+01
 Symmetry B2   KE= 9.611225013572D+01
 Symmetry A1   SP= 1.000000000000D+00
 Symmetry A2   SP= 1.108124087973D-49
 Symmetry B1   SP= 1.000000000000D+00
 Symmetry B2   SP= 1.000000000000D+00

 Atomic contributions to Alpha molecular orbitals:
 Alpha occ 1 OE=-183.206 is Ti2-s=1.0000
 Alpha occ 2 OE=-21.369 is Ti2-s=1.0000
 Alpha occ 3 OE=-17.739 is Ti2-p=1.0000
 Alpha occ 4 OE=-17.739 is Ti2-p=1.0000
 Alpha occ 5 OE=-17.737 is Ti2-p=1.0000
 Alpha occ 6 OE=-2.878 is Ti2-s=0.9964
 Alpha occ 7 OE=-1.867 is Ti2-p=0.9782
 Alpha occ 8 OE=-1.801 is Ti2-p=0.9998
 Alpha occ 9 OE=-1.801 is Ti2-p=0.9998
 Alpha occ 10 OE=-0.418 is H1-s=0.4526 Ti2-d=0.2592 Ti2-s=0.1821
 Alpha occ 11 OE=-0.365 is Ti2-d=0.9965
 Alpha occ 12 OE=-0.365 is Ti2-d=0.9965
 Alpha occ 13 OE=-0.218 is Ti2-s=0.7097 Ti2-p=0.1829 Ti2-d=0.1019
 Alpha vir 14 OE=0.021 is Ti2-p=0.9902
 Alpha vir 15 OE=0.021 is Ti2-p=0.9902
 Alpha vir 16 OE=0.048 is Ti2-p=0.7378 Ti2-d=0.2204
 Alpha vir 17 OE=0.097 is Ti2-s=0.9599
 Alpha vir 18 OE=0.106 is Ti2-d=0.9999
 Alpha vir 19 OE=0.106 is Ti2-d=0.9999
 Alpha vir 20 OE=0.163 is Ti2-d=0.9776
 Alpha vir 21 OE=0.163 is Ti2-d=0.9776
 Alpha vir 22 OE=0.165 is Ti2-d=0.5933 Ti2-p=0.3992
 Alpha vir 23 OE=0.198 is Ti2-p=0.9838
 Alpha vir 24 OE=0.198 is Ti2-p=0.9838
 Alpha vir 25 OE=0.221 is Ti2-d=0.5913 Ti2-p=0.4108
 Alpha vir 26 OE=0.227 is Ti2-d=1.0000
 Alpha vir 27 OE=0.227 is Ti2-d=1.0000
 Alpha vir 28 OE=0.633 is Ti2-s=0.6627 H1-s=0.1232 Ti2-d=0.1001
 Alpha vir 29 OE=0.762 is Ti2-s=0.3399 Ti2-d=0.3190 Ti2-p=0.1408 H1-s=0.1330
 Alpha vir 30 OE=0.812 is Ti2-d=0.9991
 Alpha vir 31 OE=0.812 is Ti2-d=0.9991
 Alpha vir 32 OE=0.902 is Ti2-d=0.9992
 Alpha vir 33 OE=0.902 is Ti2-d=0.9992
 Alpha vir 34 OE=0.942 is Ti2-d=0.5388 Ti2-p=0.4195
 Alpha vir 35 OE=0.971 is Ti2-p=0.9996
 Alpha vir 36 OE=0.971 is Ti2-p=0.9996
 Alpha vir 37 OE=1.071 is Ti2-p=0.4064 Ti2-f=0.4053 Ti2-d=0.1330
 Alpha vir 38 OE=1.217 is Ti2-f=0.9994
 Alpha vir 39 OE=1.217 is Ti2-f=0.9994
 Alpha vir 40 OE=1.224 is Ti2-f=0.9991
 Alpha vir 41 OE=1.224 is Ti2-f=0.9991
 Alpha vir 42 OE=1.256 is Ti2-f=1.0000
 Alpha vir 43 OE=1.256 is Ti2-f=1.0000
 Alpha vir 44 OE=2.336 is Ti2-f=0.4558 H1-s=0.2429 Ti2-p=0.1379 Ti2-d=0.1122

 Atomic contributions to Beta  molecular orbitals:
 Beta  occ 1 OE=-183.205 is Ti2-s=1.0000
 Beta  occ 2 OE=-21.336 is Ti2-s=1.0000
 Beta  occ 3 OE=-17.713 is Ti2-p=1.0000
 Beta  occ 4 OE=-17.713 is Ti2-p=1.0000
 Beta  occ 5 OE=-17.691 is Ti2-p=1.0000
 Beta  occ 6 OE=-2.750 is Ti2-s=0.9951
 Beta  occ 7 OE=-1.682 is Ti2-p=0.9999
 Beta  occ 8 OE=-1.682 is Ti2-p=0.9999
 Beta  occ 9 OE=-1.634 is Ti2-p=0.9762
 Beta  occ 10 OE=-0.375 is H1-s=0.4547 Ti2-s=0.2118 Ti2-d=0.2032 Ti2-p=0.1236
 Beta  vir 11 OE=0.025 is Ti2-s=0.7642 Ti2-p=0.1563
 Beta  vir 12 OE=0.050 is Ti2-p=0.9998
 Beta  vir 13 OE=0.050 is Ti2-p=0.9998
 Beta  vir 14 OE=0.072 is Ti2-p=0.7791 Ti2-d=0.1296
 Beta  vir 15 OE=0.134 is Ti2-d=1.0000
 Beta  vir 16 OE=0.134 is Ti2-d=1.0000
 Beta  vir 17 OE=0.140 is Ti2-s=0.6975 Ti2-d=0.3026
 Beta  vir 18 OE=0.146 is Ti2-d=0.9979
 Beta  vir 19 OE=0.146 is Ti2-d=0.9979
 Beta  vir 20 OE=0.198 is Ti2-d=0.5809 Ti2-p=0.2536 Ti2-s=0.1561
 Beta  vir 21 OE=0.240 is Ti2-p=0.9968
 Beta  vir 22 OE=0.240 is Ti2-p=0.9968
 Beta  vir 23 OE=0.262 is Ti2-p=0.5182 Ti2-d=0.4898
 Beta  vir 24 OE=0.265 is Ti2-d=1.0000
 Beta  vir 25 OE=0.265 is Ti2-d=1.0000
 Beta  vir 26 OE=0.305 is Ti2-d=0.9986
 Beta  vir 27 OE=0.305 is Ti2-d=0.9986
 Beta  vir 28 OE=0.679 is Ti2-s=0.6444 H1-s=0.1220 Ti2-p=0.1038 Ti2-d=0.1033
 Beta  vir 29 OE=0.802 is Ti2-s=0.3228 Ti2-d=0.3132 Ti2-p=0.1791 H1-s=0.1259
 Beta  vir 30 OE=0.938 is Ti2-d=1.0000
 Beta  vir 31 OE=0.938 is Ti2-d=1.0000
 Beta  vir 32 OE=0.975 is Ti2-d=0.9467
 Beta  vir 33 OE=0.975 is Ti2-d=0.9467
 Beta  vir 34 OE=0.978 is Ti2-d=0.5274 Ti2-p=0.4498
 Beta  vir 35 OE=0.985 is Ti2-p=0.9475
 Beta  vir 36 OE=0.985 is Ti2-p=0.9475
 Beta  vir 37 OE=1.118 is Ti2-f=0.4195 Ti2-p=0.3414 Ti2-d=0.1697
 Beta  vir 38 OE=1.284 is Ti2-f=1.0000
 Beta  vir 39 OE=1.284 is Ti2-f=1.0000
 Beta  vir 40 OE=1.298 is Ti2-f=0.9989
 Beta  vir 41 OE=1.298 is Ti2-f=0.9989
 Beta  vir 42 OE=1.320 is Ti2-f=1.0000
 Beta  vir 43 OE=1.320 is Ti2-f=1.0000
 Beta  vir 44 OE=2.381 is Ti2-f=0.4772 H1-s=0.2335 Ti2-p=0.1177 Ti2-d=0.1109
 
 Leave Link  601 at Mon Mar 28 10:01:59 2022, MaxMem=  9663676416 cpu:               1.1 elap:               0.1
 (Enter /nopt/nrel/apps/gaussian/g16C_1/g16/l9999.exe)

 Test job not archived.
 1\1\GINC-R1I7N35\SP\UCCSD-FC\Gen\H1Ti1(4)\USER\28-Mar-2022\0\\#P C
 CSD(MaxCyc=200)/GEN sp pop=AllOrbitals iop(3/33=1,3/36=-1)\\test\\0,4\
 H,0,0.,0.,0.\Ti,0,0.,0.,1.3\\Version=ES64L-G16RevC.01\State=4-SG\HF=-8
 48.8649223\MP2=-848.909561\MP3=-848.9189141\MP4D=-848.9216835\MP4DQ=-8
 48.9210366\PUHF=-848.8652197\PMP2-0=-848.909809\PMP3-0=-848.9191117\MP
 4SDQ=-848.9223529\CCSD=-848.9308763\S2=3.758741\S2-1=3.755829\S2A=3.75
 0016\RMSD=3.800e-09\PG=C*V [C*(H1Ti1)]\\@


      HUMANKIND PERIODICALLY GOES THROUGH A SPEEDUP OF ITS AFFAIRS, 
      THEREBY EXPERIENCING THE RACE BETWEEN THE RENEWABLE VITALITY
      OF THE LIVING, AND THE BECKONING VITIATION OF DECADENCE.
      IN THIS PERIODIC RACE, ANY PAUSE BECOMES A LUXURY.
      ONLY THEN CAN ONE REFLECT THAT ALL IS PERMITTED;
      ALL IS POSSIBLE.

                              -- THE APOCRYPHA OF MUAD'DIB
                                 CHILDREN OF DUNE, BY FRANK HERBERT
 Job cpu time:       0 days  0 hours  2 minutes 50.6 seconds.
 Elapsed time:       0 days  0 hours  0 minutes  5.1 seconds.
 File lengths (MBytes):  RWF=     14 Int=      0 D2E=      0 Chk=      1 Scr=      1
 Normal termination of Gaussian 16 at Mon Mar 28 10:01:59 2022.
