 Entering Gaussian System, Link 0=g16
 Initial command:
 /nopt/nrel/apps/gaussian/g16C_1/g16/l1.exe "/lustre/eaglefs/scratch/user/qc/nah-dissc/nah-1-ccsd-2.5-321g/Gau-3112.inp" -scrdir="/lustre/eaglefs/scratch/user/qc/nah-dissc/nah-1-ccsd-2.5-321g/"
 Default is to use a total of  36 processors:
                               36 via shared-memory
                                1 via Linda
 Entering Link 1 = /nopt/nrel/apps/gaussian/g16C_1/g16/l1.exe PID=      3113.
  
 Copyright (c) 1988-2019, Gaussian, Inc.  All Rights Reserved.
  
 This is part of the Gaussian(R) 16 program.  It is based on
 the Gaussian(R) 09 system (copyright 2009, Gaussian, Inc.),
 the Gaussian(R) 03 system (copyright 2003, Gaussian, Inc.),
 the Gaussian(R) 98 system (copyright 1998, Gaussian, Inc.),
 the Gaussian(R) 94 system (copyright 1995, Gaussian, Inc.),
 the Gaussian 92(TM) system (copyright 1992, Gaussian, Inc.),
 the Gaussian 90(TM) system (copyright 1990, Gaussian, Inc.),
 the Gaussian 88(TM) system (copyright 1988, Gaussian, Inc.),
 the Gaussian 86(TM) system (copyright 1986, Carnegie Mellon
 University), and the Gaussian 82(TM) system (copyright 1983,
 Carnegie Mellon University). Gaussian is a federally registered
 trademark of Gaussian, Inc.
  
 This software contains proprietary and confidential information,
 including trade secrets, belonging to Gaussian, Inc.
  
 This software is provided under written license and may be
 used, copied, transmitted, or stored only in accord with that
 written license.
  
 The following legend is applicable only to US Government
 contracts under FAR:
  
                    RESTRICTED RIGHTS LEGEND
  
 Use, reproduction and disclosure by the US Government is
 subject to restrictions as set forth in subparagraphs (a)
 and (c) of the Commercial Computer Software - Restricted
 Rights clause in FAR 52.227-19.
  
 Gaussian, Inc.
 340 Quinnipiac St., Bldg. 40, Wallingford CT 06492
  
  
 ---------------------------------------------------------------
 Warning -- This program may not be used in any manner that
 competes with the business of Gaussian, Inc. or will provide
 assistance to any competitor of Gaussian, Inc.  The licensee
 of this program is prohibited from giving any competitor of
 Gaussian, Inc. access to this program.  By using this program,
 the user acknowledges that Gaussian, Inc. is engaged in the
 business of creating and licensing software in the field of
 computational chemistry and represents and warrants to the
 licensee that it is not a competitor of Gaussian, Inc. and that
 it will not use this program in any manner prohibited above.
 ---------------------------------------------------------------
  

 Cite this work as:
 Gaussian 16, Revision C.01,
 M. J. Frisch, G. W. Trucks, H. B. Schlegel, G. E. Scuseria, 
 M. A. Robb, J. R. Cheeseman, G. Scalmani, V. Barone, 
 G. A. Petersson, H. Nakatsuji, X. Li, M. Caricato, A. V. Marenich, 
 J. Bloino, B. G. Janesko, R. Gomperts, B. Mennucci, H. P. Hratchian, 
 J. V. Ortiz, A. F. Izmaylov, J. L. Sonnenberg, D. Williams-Young, 
 F. Ding, F. Lipparini, F. Egidi, J. Goings, B. Peng, A. Petrone, 
 T. Henderson, D. Ranasinghe, V. G. Zakrzewski, J. Gao, N. Rega, 
 G. Zheng, W. Liang, M. Hada, M. Ehara, K. Toyota, R. Fukuda, 
 J. Hasegawa, M. Ishida, T. Nakajima, Y. Honda, O. Kitao, H. Nakai, 
 T. Vreven, K. Throssell, J. A. Montgomery, Jr., J. E. Peralta, 
 F. Ogliaro, M. J. Bearpark, J. J. Heyd, E. N. Brothers, K. N. Kudin, 
 V. N. Staroverov, T. A. Keith, R. Kobayashi, J. Normand, 
 K. Raghavachari, A. P. Rendell, J. C. Burant, S. S. Iyengar, 
 J. Tomasi, M. Cossi, J. M. Millam, M. Klene, C. Adamo, R. Cammi, 
 J. W. Ochterski, R. L. Martin, K. Morokuma, O. Farkas, 
 J. B. Foresman, and D. J. Fox, Gaussian, Inc., Wallingford CT, 2019.
 
 ******************************************
 Gaussian 16:  ES64L-G16RevC.01  3-Jul-2019
                28-Mar-2022 
 ******************************************
 %chk=molecule
 Default route: CacheSize=180224 MaxDisk=256GB
 ----------------------------------------------------------------------
 #P CCSD(MaxCyc=200,SaveAmplitudes,ReadAmplitudes)/GEN sp pop=AllOrbita
 ls iop(3/33=1,3/36=-1)
 ----------------------------------------------------------------------
 1/4=180224,38=1,172=1/1;
 2/4=180224,12=2,17=6,18=5,40=1/2;
 3/4=180224,5=7,11=9,25=1,30=1,33=1,36=-1/1,2,3;
 4/4=180224/1;
 5/4=180224,5=2,38=5/2;
 8/4=180224,6=4,9=120000,10=1,24=1/1,4;
 9/4=180224,5=7,6=200,77=1/13;
 6/4=180224,7=2,8=2,9=2,10=2,96=-1/1;
 99/4=180224,5=1,9=1/99;
 Leave Link    1 at Mon Mar 28 14:19:32 2022, MaxMem=           0 cpu:               2.7 elap:               0.1
 (Enter /nopt/nrel/apps/gaussian/g16C_1/g16/l101.exe)
 ----
 test
 ----
 Symbolic Z-matrix:
 Charge =  0 Multiplicity = 1
 H                     0.        0.        0. 
 Na                    0.        0.        2.5 
 
 ITRead=  0  0
 MicOpt= -1 -1
 NAtoms=      2 NQM=        2 NQMF=       0 NMMI=      0 NMMIF=      0
                NMic=       0 NMicF=      0.
                    Isotopes and Nuclear Properties:
 (Nuclear quadrupole moments (NQMom) in fm**2, nuclear magnetic moments (NMagM)
  in nuclear magnetons)

  Atom         1           2
 IAtWgt=           1          23
 AtmWgt=   1.0078250  22.9897697
 NucSpn=           1           3
 AtZEff=  -0.0000000  -0.0000000
 NQMom=    0.0000000  10.4000000
 NMagM=    2.7928460   2.2175200
 AtZNuc=   1.0000000  11.0000000
 Leave Link  101 at Mon Mar 28 14:19:32 2022, MaxMem=  9663676416 cpu:               2.6 elap:               0.1
 (Enter /nopt/nrel/apps/gaussian/g16C_1/g16/l202.exe)
                          Input orientation:                          
 ---------------------------------------------------------------------
 Center     Atomic      Atomic             Coordinates (Angstroms)
 Number     Number       Type             X           Y           Z
 ---------------------------------------------------------------------
      1          1           0        0.000000    0.000000    0.000000
      2         11           0        0.000000    0.000000    2.500000
 ---------------------------------------------------------------------
 Stoichiometry    HNa
 Framework group  C*V[C*(HNa)]
 Deg. of freedom     1
 Full point group                 C*V     NOp   4
 Largest Abelian subgroup         C2V     NOp   4
 Largest concise Abelian subgroup C1      NOp   1
                         Standard orientation:                         
 ---------------------------------------------------------------------
 Center     Atomic      Atomic             Coordinates (Angstroms)
 Number     Number       Type             X           Y           Z
 ---------------------------------------------------------------------
      1          1           0        0.000000    0.000000   -2.291667
      2         11           0        0.000000    0.000000    0.208333
 ---------------------------------------------------------------------
 Rotational constants (GHZ):           0.0000000          83.7500612          83.7500612
 Leave Link  202 at Mon Mar 28 14:19:32 2022, MaxMem=  9663676416 cpu:               1.0 elap:               0.0
 (Enter /nopt/nrel/apps/gaussian/g16C_1/g16/l301.exe)
 General basis read from cards:  (5D, 7F)
                         Coordinates in L301:                         
 ---------------------------------------------------------------------
 Center     Atomic      Atomic             Coordinates (Angstroms)
 Number     Number       Type             X           Y           Z
 ---------------------------------------------------------------------
      1          1           0        0.000000    0.000000   -2.291667
      2         11           0        0.000000    0.000000    0.208333
 ---------------------------------------------------------------------
 Centers:       1
 STO-3G
 ****
 Centers:       2
 3-21G
 ****
 FixB: optimizing general contractions.
 Ernie: Thresh=  0.10000D-02 Tol=  0.10000D-05 Strict=F.
 IA=     1 ShT= 0 ShC= 0 NL=   1 NS=   0.
 IA=     1 L=0 SC=0 ISt=    0 NBk=    0 NP=    0 IndPr=    0.
 IA=     2 ShT= 0 ShC= 0 NL=   1 NS=   0.
 IA=     2 L=0 SC=0 ISt=    0 NBk=    0 NP=    0 IndPr=    0.
 IA=     2 ShT= 1 ShC= 0 NL=   3 NS=   1.
 IA=     2 L=1 SC=0 ISt=    1 NBk=    2 NP=    5 IndPr=    0.
 DoElim1:  L=1 select primitive    1 from    2 using    1 C=-1.12D-01
 DoElim2:  L=1 select primitive    5 from    1 using    2 C= 1.09D+00
 DoElim1:  L=1 select primitive    1 from    2 using    1 C= 1.28D-01
 DoElim2:  L=1 select primitive    5 from    1 using    2 C= 9.97D-01
 Delete L=1 primitive    3 from    2 C=  0.00D+00.
 Delete L=1 primitive    2 from    2 C=  0.00D+00.
 Delete L=1 primitive    1 from    2 C=  0.00D+00.
 Delete L=1 primitive    5 from    1 C=  0.00D+00.
 Delete L=1 primitive    4 from    1 C=  0.00D+00.
 IA=     2 L=1 SC=0 ISt=    0 NBk=    0 NP=    0 IndPr=    5.
 LdAtmC:  AtmChg=     1.000000    11.000000
 AtZEff=     -1.0000000    -10.0400000
 NEqShl: 
              1            2            3            4
     1            1            1            1            1
     2            2            2            2            2
     3            3            3            3            3
     4            4            4            4            4
     5            5            5            5            5
 NEqBas: 
              1            2            3            4
     1            1            1            1            1
     2            2            2            2            2
     3            3            3            3            3
     4            4           -4           -4            4
     5            5           -5            5           -5
     6            6            6            6            6
     7            7            7            7            7
     8            8           -8           -8            8
     9            9           -9            9           -9
    10           10           10           10           10
    11           11           11           11           11
    12           12          -12          -12           12
    13           13          -13           13          -13
    14           14           14           14           14
 There are     8 symmetry adapted cartesian basis functions of A1  symmetry.
   1         1   1   1   1
   2         2   2   2   2
   3         3   3   3   3
   4         6   6   6   6
   5         7   7   7   7
   6        10  10  10  10
   7        11  11  11  11
   8        14  14  14  14
 There are     0 symmetry adapted cartesian basis functions of A2  symmetry.
 There are     3 symmetry adapted cartesian basis functions of B1  symmetry.
   9         4   4   4   4
  10         8   8   8   8
  11        12  12  12  12
 There are     3 symmetry adapted cartesian basis functions of B2  symmetry.
  12         5   5   5   5
  13         9   9   9   9
  14        13  13  13  13
 Order= 1 2 4 3
 Reordered character table:
              1            2            3            4            5
     1            1            1            1            1            1
     2            2            1            1           -1           -1
     3            4            1           -1           -1            1
     4            3            1           -1            1           -1
 NEqShl: 
              1            2            3            4
     1            1            1            1            1
     2            2            2            2            2
     3            3            3            3            3
     4            4            4            4            4
     5            5            5            5            5
 NEqBas: 
              1            2            3            4
     1            1            1            1            1
     2            2            2            2            2
     3            3            3            3            3
     4            4           -4           -4            4
     5            5           -5            5           -5
     6            6            6            6            6
     7            7            7            7            7
     8            8           -8           -8            8
     9            9           -9            9           -9
    10           10           10           10           10
    11           11           11           11           11
    12           12          -12          -12           12
    13           13          -13           13          -13
    14           14           14           14           14
 There are     8 symmetry adapted basis functions of A1  symmetry.
   1         1   1   1   1
   2         2   2   2   2
   3         3   3   3   3
   4         6   6   6   6
   5         7   7   7   7
   6        10  10  10  10
   7        11  11  11  11
   8        14  14  14  14
 There are     0 symmetry adapted basis functions of A2  symmetry.
 There are     3 symmetry adapted basis functions of B1  symmetry.
   9         4   4   4   4
  10         8   8   8   8
  11        12  12  12  12
 There are     3 symmetry adapted basis functions of B2  symmetry.
  12         5   5   5   5
  13         9   9   9   9
  14        13  13  13  13
 Order= 1 2 4 3
 Reordered character table:
              1            2            3            4            5
     1            1            1            1            1            1
     2            2            1            1           -1           -1
     3            4            1           -1           -1            1
     4            3            1           -1            1           -1
    14 basis functions,    30 primitive gaussians,    14 cartesian basis functions
     6 alpha electrons        6 beta electrons
       nuclear repulsion energy         2.3283797280 Hartrees.
 IS=     1 IAt=     1 ISR=     1 T=0 IP=      1 IndIP=      1 IndIPD=      0 C=  2.769344D-01  0.000000D+00                             NZ=T
 IS=     1 IAt=     1 ISR=     1 T=0 IP=      2 IndIP=      2 IndIPD=      1 C=  2.678389D-01  0.000000D+00                             NZ=T
 IS=     1 IAt=     1 ISR=     1 T=0 IP=      3 IndIP=      3 IndIPD=      2 C=  8.347367D-02  0.000000D+00                             NZ=T
 IS=     2 IAt=     2 ISR=     1 T=0 IP=      1 IndIP=      4 IndIPD=      0 C=  5.445177D+00  0.000000D+00                             NZ=T
 IS=     2 IAt=     2 ISR=     1 T=0 IP=      2 IndIP=      5 IndIPD=      1 C=  7.646982D+00  0.000000D+00                             NZ=T
 IS=     2 IAt=     2 ISR=     1 T=0 IP=      3 IndIP=      6 IndIPD=      2 C=  4.092173D+00  0.000000D+00                             NZ=T
 IS=     3 IAt=     2 ISR=     2 T=1 IP=      1 IndIP=      7 IndIPD=      0 C= -6.837842D-01  6.561431D+00                             NZ=T
 IS=     3 IAt=     2 ISR=     2 T=1 IP=      2 IndIP=      8 IndIPD=      1 C=  4.933805D-01  3.558943D+00                             NZ=T
 IS=     3 IAt=     2 ISR=     2 T=1 IP=      3 IndIP=      9 IndIPD=      2 C=  5.590773D-01  7.618119D-01                             NZ=T
 IS=     4 IAt=     2 ISR=     3 T=1 IP=      1 IndIP=     10 IndIPD=      0 C= -9.334168D-02  5.458439D-03                             NZ=T
 IS=     4 IAt=     2 ISR=     3 T=1 IP=      2 IndIP=     11 IndIPD=      1 C=  9.521265D-02  4.304303D-02                             NZ=T
 IS=     5 IAt=     2 ISR=     4 T=1 IP=      1 IndIP=     12 IndIPD=      0 C=  4.404717D-02  1.377061D-02                             NZ=T
 IExCor=    0 DFT=F Ex=HF Corr=None ExCW=0 ScaHFX=  1.000000
 ScaDFX=  1.000000  1.000000  1.000000  1.000000 ScalE2=  1.000000  1.000000
 IRadAn=      5 IRanWt=     -1 IRanGd=            0 ICorTp=0 IEmpDi=  4
 NAtoms=    2 NActive=    2 NUniq=    2 SFac= 1.00D+00 NAtFMM=   60 NAOKFM=F Big=F
 Integral buffers will be    131072 words long.
 Raffenetti 1 integral format.
 Two-electron integral symmetry is turned on.
 Leave Link  301 at Mon Mar 28 14:19:32 2022, MaxMem=  9663676416 cpu:               1.9 elap:               0.1
 (Enter /nopt/nrel/apps/gaussian/g16C_1/g16/l302.exe)
 NPDir=0 NMtPBC=     1 NCelOv=     1 NCel=       1 NClECP=     1 NCelD=      1
         NCelK=      1 NCelE2=     1 NClLst=     1 CellRange=     0.0.
 One-electron integrals computed using PRISM.
 One-electron integral symmetry used in STVInt
 Entering OneElI...
 Calculate overlap and kinetic energy integrals
    NBasis =  14  MinDer = 0  MaxDer = 0
 Requested accuracy = 0.1000D-12
 Symmetry will be used
 PrmmSu-InSpLW:  IPartL=    0 NPrtUS=   36 NPrtUL=    1 DoSpLW=F IThBeg=    0 IThEnd=   35 NThAct=   36.
 PrSmSu:  IncTry=   512 NBBP=             15 NTPThr=   100 NPartT=   36 Incr=           1 LDynOK=F GPUOK=F.
 PrsmSu:  NPrtUS=  36 ThrOK=T IAlg=1 LenDen=           0 ISkipM=0 DoSpLW=F IThBeg=    0 IThEnd=   35.
 Prism:   IPart=     0 DynPar=F LinDyn=F Incr=           1.
 PRISM was handed   268433858 working-precision words and    15 shell-pairs
 PRISM was handed   268433858 working-precision words and    15 shell-pairs
 PRISM was handed   268433858 working-precision words and    15 shell-pairs
 PRISM was handed   268433858 working-precision words and    15 shell-pairs
 PRISM was handed   268433858 working-precision words and    15 shell-pairs
 PRISM was handed   268433858 working-precision words and    15 shell-pairs
 PRISM was handed   268433858 working-precision words and    15 shell-pairs
 PRISM was handed   268433858 working-precision words and    15 shell-pairs
 PRISM was handed   268433858 working-precision words and    15 shell-pairs
 PRISM was handed   268433858 working-precision words and    15 shell-pairs
 PRISM was handed   268433858 working-precision words and    15 shell-pairs
 PRISM was handed   268433858 working-precision words and    15 shell-pairs
 PRISM was handed   268433858 working-precision words and    15 shell-pairs
 IPart= 27 NShTot=           0 NBatch=           0 AvBLen=         0.0
 IPart= 10 NShTot=           0 NBatch=           0 AvBLen=         0.0
 IPart= 24 NShTot=           0 NBatch=           0 AvBLen=         0.0
 IPart= 18 NShTot=           0 NBatch=           0 AvBLen=         0.0
 IPart= 35 NShTot=           0 NBatch=           0 AvBLen=         0.0
 IPart=  4 NShTot=           0 NBatch=           0 AvBLen=         0.0
 IPart= 34 NShTot=           0 NBatch=           0 AvBLen=         0.0
 PRISM was handed   268433858 working-precision words and    15 shell-pairs
 IPart= 31 NShTot=           0 NBatch=           0 AvBLen=         0.0
 IPart= 15 NShTot=           0 NBatch=           0 AvBLen=         0.0
 IPart=  7 NShTot=           0 NBatch=           0 AvBLen=         0.0
 IPart= 16 NShTot=           0 NBatch=           0 AvBLen=         0.0
 PRISM was handed   268433858 working-precision words and    15 shell-pairs
 PRISM was handed   268433858 working-precision words and    15 shell-pairs
 PRISM was handed   268433858 working-precision words and    15 shell-pairs
 PRISM was handed   268433858 working-precision words and    15 shell-pairs
 IPart= 33 NShTot=           0 NBatch=           0 AvBLen=         0.0
 IPart= 11 NShTot=           0 NBatch=           0 AvBLen=         0.0
 IPart= 20 NShTot=           0 NBatch=           0 AvBLen=         0.0
 IPart=  1 NShTot=           3 NBatch=           3 AvBLen=         1.0
 IPart= 29 NShTot=           0 NBatch=           0 AvBLen=         0.0
 IPart= 19 NShTot=           0 NBatch=           0 AvBLen=         0.0
 PRISM was handed   268433858 working-precision words and    15 shell-pairs
 PRISM was handed   268433858 working-precision words and    15 shell-pairs
 PRISM was handed   268433858 working-precision words and    15 shell-pairs
 PRISM was handed   268433858 working-precision words and    15 shell-pairs
 PRISM was handed   268433858 working-precision words and    15 shell-pairs
 PRISM was handed   268433858 working-precision words and    15 shell-pairs
 IPart=  2 NShTot=           0 NBatch=           0 AvBLen=         0.0
 PRISM was handed   268433858 working-precision words and    15 shell-pairs
 PRISM was handed   268433858 working-precision words and    15 shell-pairs
 IPart= 21 NShTot=           0 NBatch=           0 AvBLen=         0.0
 IPart=  8 NShTot=           0 NBatch=           0 AvBLen=         0.0
 IPart= 32 NShTot=           0 NBatch=           0 AvBLen=         0.0
 PRISM was handed   268433858 working-precision words and    15 shell-pairs
 IPart=  6 NShTot=           0 NBatch=           0 AvBLen=         0.0
 IPart= 22 NShTot=           0 NBatch=           0 AvBLen=         0.0
 PRISM was handed   268433858 working-precision words and    15 shell-pairs
 IPart=  5 NShTot=           0 NBatch=           0 AvBLen=         0.0
 IPart= 30 NShTot=           0 NBatch=           0 AvBLen=         0.0
 IPart=  9 NShTot=           0 NBatch=           0 AvBLen=         0.0
 PRISM was handed   268433858 working-precision words and    15 shell-pairs
 IPart=  3 NShTot=           0 NBatch=           0 AvBLen=         0.0
 PRISM was handed   268433858 working-precision words and    15 shell-pairs
 IPart= 25 NShTot=           0 NBatch=           0 AvBLen=         0.0
 PRISM was handed   268433858 working-precision words and    15 shell-pairs
 PRISM was handed   268433858 working-precision words and    15 shell-pairs
 PRISM was handed   268433858 working-precision words and    15 shell-pairs
 PRISM was handed   268433858 working-precision words and    15 shell-pairs
 PRISM was handed   268433858 working-precision words and    15 shell-pairs
 PRISM was handed   268433858 working-precision words and    15 shell-pairs
 IPart= 28 NShTot=           0 NBatch=           0 AvBLen=         0.0
 IPart=  0 NShTot=          12 NBatch=          12 AvBLen=         1.0
 IPart= 23 NShTot=           0 NBatch=           0 AvBLen=         0.0
 IPart= 26 NShTot=           0 NBatch=           0 AvBLen=         0.0
 IPart= 17 NShTot=           0 NBatch=           0 AvBLen=         0.0
 IPart= 12 NShTot=           0 NBatch=           0 AvBLen=         0.0
 IPart= 14 NShTot=           0 NBatch=           0 AvBLen=         0.0
 IPart= 13 NShTot=           0 NBatch=           0 AvBLen=         0.0
 PrSmSu:  NxtVal=             37.
 *** Overlap *** 
                1             2             3             4             5 
      1  0.100000D+01
      2  0.718295D-03  0.100000D+01
      3  0.105233D-01  0.226762D+00  0.100000D+01
      4  0.000000D+00  0.000000D+00  0.000000D+00  0.100000D+01
      5  0.000000D+00  0.000000D+00  0.000000D+00  0.000000D+00  0.100000D+01
      6 -0.113208D-01  0.000000D+00  0.000000D+00  0.000000D+00  0.000000D+00
      7  0.221408D+00  0.175172D-02  0.143132D+00  0.000000D+00  0.000000D+00
      8  0.000000D+00  0.000000D+00  0.000000D+00  0.120813D+00  0.000000D+00
      9  0.000000D+00  0.000000D+00  0.000000D+00  0.000000D+00  0.120813D+00
     10 -0.386028D+00  0.000000D+00  0.000000D+00  0.000000D+00  0.000000D+00
     11  0.230234D+00  0.160858D-01  0.166618D+00  0.000000D+00  0.000000D+00
     12  0.000000D+00  0.000000D+00  0.000000D+00  0.399192D-01  0.000000D+00
     13  0.000000D+00  0.000000D+00  0.000000D+00  0.000000D+00  0.399192D-01
     14 -0.307907D+00  0.000000D+00  0.000000D+00  0.000000D+00  0.000000D+00
                6             7             8             9            10 
      6  0.100000D+01
      7  0.000000D+00  0.100000D+01
      8  0.000000D+00  0.000000D+00  0.100000D+01
      9  0.000000D+00  0.000000D+00  0.000000D+00  0.100000D+01
     10  0.120813D+00  0.000000D+00  0.000000D+00  0.000000D+00  0.100000D+01
     11  0.000000D+00  0.876080D+00  0.000000D+00  0.000000D+00  0.000000D+00
     12  0.000000D+00  0.000000D+00  0.775774D+00  0.000000D+00  0.000000D+00
     13  0.000000D+00  0.000000D+00  0.000000D+00  0.775774D+00  0.000000D+00
     14  0.399192D-01  0.000000D+00  0.000000D+00  0.000000D+00  0.775774D+00
               11            12            13            14 
     11  0.100000D+01
     12  0.000000D+00  0.100000D+01
     13  0.000000D+00  0.000000D+00  0.100000D+01
     14  0.000000D+00  0.000000D+00  0.000000D+00  0.100000D+01
 *** Kinetic Energy *** 
                1             2             3             4             5 
      1  0.760032D+00
      2 -0.540075D-03  0.570648D+02
      3 -0.568243D-02 -0.145971D+01  0.183414D+01
      4  0.000000D+00  0.000000D+00  0.000000D+00  0.585712D+01
      5  0.000000D+00  0.000000D+00  0.000000D+00  0.000000D+00  0.585712D+01
      6  0.363358D-02  0.000000D+00  0.000000D+00  0.000000D+00  0.000000D+00
      7  0.110386D-01 -0.420609D-01 -0.141303D+00  0.000000D+00  0.000000D+00
      8  0.000000D+00  0.000000D+00  0.000000D+00  0.441422D-01  0.000000D+00
      9  0.000000D+00  0.000000D+00  0.000000D+00  0.000000D+00  0.441422D-01
     10 -0.525817D-01  0.000000D+00  0.000000D+00  0.000000D+00  0.000000D+00
     11  0.102392D-01  0.117775D-02  0.119127D-01  0.000000D+00  0.000000D+00
     12  0.000000D+00  0.000000D+00  0.000000D+00  0.476129D-02  0.000000D+00
     13  0.000000D+00  0.000000D+00  0.000000D+00  0.000000D+00  0.476129D-02
     14 -0.273661D-01  0.000000D+00  0.000000D+00  0.000000D+00  0.000000D+00
                6             7             8             9            10 
      6  0.585712D+01
      7  0.000000D+00  0.106538D+00
      8  0.000000D+00  0.000000D+00  0.153112D+00
      9  0.000000D+00  0.000000D+00  0.000000D+00  0.153112D+00
     10  0.441422D-01  0.000000D+00  0.000000D+00  0.000000D+00  0.153112D+00
     11  0.000000D+00  0.447876D-01  0.000000D+00  0.000000D+00  0.000000D+00
     12  0.000000D+00  0.000000D+00  0.676855D-01  0.000000D+00  0.000000D+00
     13  0.000000D+00  0.000000D+00  0.000000D+00  0.676855D-01  0.000000D+00
     14  0.476129D-02  0.000000D+00  0.000000D+00  0.000000D+00  0.676855D-01
               11            12            13            14 
     11  0.366524D-01
     12  0.000000D+00  0.610873D-01
     13  0.000000D+00  0.000000D+00  0.610873D-01
     14  0.000000D+00  0.000000D+00  0.000000D+00  0.610873D-01
 Entering OneElI...
 Calculate potential energy integrals
    NBasis =  14  MinDer = 0  MaxDer = 0
 Requested accuracy = 0.1000D-12
 Symmetry will be used
 PrmmSu-InSpLW:  IPartL=    0 NPrtUS=   36 NPrtUL=    1 DoSpLW=F IThBeg=    0 IThEnd=   35 NThAct=   36.
 PrSmSu:  IncTry=   512 NBBP=             30 NTPThr=   100 NPartT=   36 Incr=           1 LDynOK=F GPUOK=F.
 PrsmSu:  NPrtUS=  36 ThrOK=T IAlg=1 LenDen=           0 ISkipM=0 DoSpLW=F IThBeg=    0 IThEnd=   35.
 Prism:   IPart=     0 DynPar=F LinDyn=F Incr=           1.
 PRISM was handed   268433958 working-precision words and    15 shell-pairs
 PRISM was handed   268433958 working-precision words and    15 shell-pairs
 PRISM was handed   268433958 working-precision words and    15 shell-pairs
 PRISM was handed   268433958 working-precision words and    15 shell-pairs
 PRISM was handed   268433958 working-precision words and    15 shell-pairs
 PRISM was handed   268433958 working-precision words and    15 shell-pairs
 PRISM was handed   268433958 working-precision words and    15 shell-pairs
 PRISM was handed   268433958 working-precision words and    15 shell-pairs
 PRISM was handed   268433958 working-precision words and    15 shell-pairs
 PRISM was handed   268433958 working-precision words and    15 shell-pairs
 PRISM was handed   268433958 working-precision words and    15 shell-pairs
 PRISM was handed   268433958 working-precision words and    15 shell-pairs
 PRISM was handed   268433958 working-precision words and    15 shell-pairs
 PRISM was handed   268433958 working-precision words and    15 shell-pairs
 PRISM was handed   268433958 working-precision words and    15 shell-pairs
 PRISM was handed   268433958 working-precision words and    15 shell-pairs
 PRISM was handed   268433958 working-precision words and    15 shell-pairs
 PRISM was handed   268433958 working-precision words and    15 shell-pairs
 PRISM was handed   268433958 working-precision words and    15 shell-pairs
 PRISM was handed   268433958 working-precision words and    15 shell-pairs
 PRISM was handed   268433958 working-precision words and    15 shell-pairs
 PRISM was handed   268433958 working-precision words and    15 shell-pairs
 PRISM was handed   268433958 working-precision words and    15 shell-pairs
 PRISM was handed   268433958 working-precision words and    15 shell-pairs
 PRISM was handed   268433958 working-precision words and    15 shell-pairs
 PRISM was handed   268433958 working-precision words and    15 shell-pairs
 PRISM was handed   268433958 working-precision words and    15 shell-pairs
 PRISM was handed   268433958 working-precision words and    15 shell-pairs
 PRISM was handed   268433958 working-precision words and    15 shell-pairs
 PRISM was handed   268433958 working-precision words and    15 shell-pairs
 PRISM was handed   268433958 working-precision words and    15 shell-pairs
 PRISM was handed   268433958 working-precision words and    15 shell-pairs
 PRISM was handed   268433958 working-precision words and    15 shell-pairs
 PRISM was handed   268433958 working-precision words and    15 shell-pairs
 PRISM was handed   268433958 working-precision words and    15 shell-pairs
 PRISM was handed   268433958 working-precision words and    15 shell-pairs
 IPart=  1 NShTot=           6 NBatch=           3 AvBLen=         2.0
 IPart=  0 NShTot=          24 NBatch=          12 AvBLen=         2.0
 IPart= 34 NShTot=           0 NBatch=           0 AvBLen=         0.0
 IPart= 31 NShTot=           0 NBatch=           0 AvBLen=         0.0
 IPart= 33 NShTot=           0 NBatch=           0 AvBLen=         0.0
 IPart= 29 NShTot=           0 NBatch=           0 AvBLen=         0.0
 IPart= 14 NShTot=           0 NBatch=           0 AvBLen=         0.0
 IPart=  6 NShTot=           0 NBatch=           0 AvBLen=         0.0
 IPart= 12 NShTot=           0 NBatch=           0 AvBLen=         0.0
 IPart= 15 NShTot=           0 NBatch=           0 AvBLen=         0.0
 IPart= 24 NShTot=           0 NBatch=           0 AvBLen=         0.0
 IPart= 27 NShTot=           0 NBatch=           0 AvBLen=         0.0
 IPart= 30 NShTot=           0 NBatch=           0 AvBLen=         0.0
 IPart= 32 NShTot=           0 NBatch=           0 AvBLen=         0.0
 IPart= 35 NShTot=           0 NBatch=           0 AvBLen=         0.0
 IPart= 21 NShTot=           0 NBatch=           0 AvBLen=         0.0
 IPart= 17 NShTot=           0 NBatch=           0 AvBLen=         0.0
 IPart= 11 NShTot=           0 NBatch=           0 AvBLen=         0.0
 IPart=  5 NShTot=           0 NBatch=           0 AvBLen=         0.0
 IPart= 16 NShTot=           0 NBatch=           0 AvBLen=         0.0
 IPart= 13 NShTot=           0 NBatch=           0 AvBLen=         0.0
 IPart= 26 NShTot=           0 NBatch=           0 AvBLen=         0.0
 IPart= 28 NShTot=           0 NBatch=           0 AvBLen=         0.0
 IPart= 19 NShTot=           0 NBatch=           0 AvBLen=         0.0
 IPart=  4 NShTot=           0 NBatch=           0 AvBLen=         0.0
 IPart= 23 NShTot=           0 NBatch=           0 AvBLen=         0.0
 IPart= 10 NShTot=           0 NBatch=           0 AvBLen=         0.0
 IPart=  8 NShTot=           0 NBatch=           0 AvBLen=         0.0
 IPart= 22 NShTot=           0 NBatch=           0 AvBLen=         0.0
 IPart= 25 NShTot=           0 NBatch=           0 AvBLen=         0.0
 IPart=  3 NShTot=           0 NBatch=           0 AvBLen=         0.0
 IPart=  7 NShTot=           0 NBatch=           0 AvBLen=         0.0
 IPart= 20 NShTot=           0 NBatch=           0 AvBLen=         0.0
 IPart=  9 NShTot=           0 NBatch=           0 AvBLen=         0.0
 IPart=  2 NShTot=           0 NBatch=           0 AvBLen=         0.0
 IPart= 18 NShTot=           0 NBatch=           0 AvBLen=         0.0
 PrSmSu:  NxtVal=             37.
 ***** Potential Energy ***** 
                1             2             3             4             5 
      1  0.355495D+01
      2  0.451776D-01  0.117366D+03
      3  0.120781D+00  0.127907D+02  0.183279D+02
      4  0.000000D+00  0.000000D+00  0.000000D+00  0.188475D+02
      5  0.000000D+00  0.000000D+00  0.000000D+00  0.000000D+00  0.188475D+02
      6 -0.100148D+00 -0.168980D-02 -0.197875D-01  0.000000D+00  0.000000D+00
      7  0.769512D+00  0.827997D-01  0.136240D+01  0.000000D+00  0.000000D+00
      8  0.000000D+00  0.000000D+00  0.000000D+00  0.116587D+01  0.000000D+00
      9  0.000000D+00  0.000000D+00  0.000000D+00  0.000000D+00  0.116587D+01
     10 -0.126598D+01 -0.192809D-04 -0.351947D-02  0.000000D+00  0.000000D+00
     11  0.741919D+00  0.102045D+01  0.213851D+01  0.000000D+00  0.000000D+00
     12  0.000000D+00  0.000000D+00  0.000000D+00  0.371365D+00  0.000000D+00
     13  0.000000D+00  0.000000D+00  0.000000D+00  0.000000D+00  0.371365D+00
     14 -0.919145D+00 -0.553757D-05 -0.117755D-02  0.000000D+00  0.000000D+00
                6             7             8             9            10 
      6  0.188518D+02
      7 -0.643111D-02  0.376407D+01
      8  0.000000D+00  0.000000D+00  0.308199D+01
      9  0.000000D+00  0.000000D+00  0.000000D+00  0.308199D+01
     10  0.116744D+01 -0.826404D-01  0.000000D+00  0.000000D+00  0.315589D+01
     11 -0.572096D-02  0.303028D+01  0.000000D+00  0.000000D+00 -0.798041D-01
     12  0.000000D+00  0.000000D+00  0.200445D+01  0.000000D+00  0.000000D+00
     13  0.000000D+00  0.000000D+00  0.000000D+00  0.200445D+01  0.000000D+00
     14  0.371916D+00 -0.542877D-01  0.000000D+00  0.000000D+00  0.205909D+01
               11            12            13            14 
     11  0.292600D+01
     12  0.000000D+00  0.196631D+01
     13  0.000000D+00  0.000000D+00  0.196631D+01
     14 -0.665536D-01  0.000000D+00  0.000000D+00  0.201769D+01
 ****** Core Hamiltonian ****** 
                1             2             3             4             5 
      1 -0.279491D+01
      2 -0.457177D-01 -0.603012D+02
      3 -0.126463D+00 -0.142504D+02 -0.164938D+02
      4  0.000000D+00  0.000000D+00  0.000000D+00 -0.129904D+02
      5  0.000000D+00  0.000000D+00  0.000000D+00  0.000000D+00 -0.129904D+02
      6  0.103782D+00  0.168980D-02  0.197875D-01  0.000000D+00  0.000000D+00
      7 -0.758473D+00 -0.124861D+00 -0.150370D+01  0.000000D+00  0.000000D+00
      8  0.000000D+00  0.000000D+00  0.000000D+00 -0.112173D+01  0.000000D+00
      9  0.000000D+00  0.000000D+00  0.000000D+00  0.000000D+00 -0.112173D+01
     10  0.121340D+01  0.192809D-04  0.351947D-02  0.000000D+00  0.000000D+00
     11 -0.731680D+00 -0.101927D+01 -0.212660D+01  0.000000D+00  0.000000D+00
     12  0.000000D+00  0.000000D+00  0.000000D+00 -0.366603D+00  0.000000D+00
     13  0.000000D+00  0.000000D+00  0.000000D+00  0.000000D+00 -0.366603D+00
     14  0.891779D+00  0.553757D-05  0.117755D-02  0.000000D+00  0.000000D+00
                6             7             8             9            10 
      6 -0.129947D+02
      7  0.643111D-02 -0.365754D+01
      8  0.000000D+00  0.000000D+00 -0.292888D+01
      9  0.000000D+00  0.000000D+00  0.000000D+00 -0.292888D+01
     10 -0.112330D+01  0.826404D-01  0.000000D+00  0.000000D+00 -0.300278D+01
     11  0.572096D-02 -0.298549D+01  0.000000D+00  0.000000D+00  0.798041D-01
     12  0.000000D+00  0.000000D+00 -0.193677D+01  0.000000D+00  0.000000D+00
     13  0.000000D+00  0.000000D+00  0.000000D+00 -0.193677D+01  0.000000D+00
     14 -0.367155D+00  0.542877D-01  0.000000D+00  0.000000D+00 -0.199141D+01
               11            12            13            14 
     11 -0.288935D+01
     12  0.000000D+00 -0.190522D+01
     13  0.000000D+00  0.000000D+00 -0.190522D+01
     14  0.665536D-01  0.000000D+00  0.000000D+00 -0.195660D+01
 SVDSVc IOpt=   1 NormSV=T IR=1
 SVDSVc V= 2.14D+00 1.88D+00 1.20D+00 9.95D-01 7.67D-01 6.81D-01 2.14D-01 1.23D-01
 SVDSVc IOpt=   1 NormSV=T IR=3
 SVDSVc V= 1.79D+00 9.88D-01 2.20D-01
 SVDSVc IOpt=   1 NormSV=T IR=4
 SVDSVc V= 1.79D+00 9.88D-01 2.20D-01
 TstOVc:  Largest diagonal error= 1.78D-15 IB=3 I=   11.
 TstOVc:  Largest same sym error= 1.10D-15 IB=1 I=    7 J=    3.
 TstOVc:  Largest diff sym error= 0.00D+00 IB=0 JB=0 I=    0 J=    0.
 Orthogonalized basis functions: 
                 1             2             3             4             5 
      1   0.302429D+00 -0.891673D-01 -0.794794D-01  0.132589D+00 -0.384848D+00
      2   0.230291D-01  0.423521D-01  0.671247D+00  0.410400D-01 -0.733138D+00
      3   0.908732D-01  0.136305D+00  0.589142D+00  0.137482D-02  0.757614D+00
      4   0.000000D+00  0.000000D+00  0.000000D+00  0.000000D+00  0.000000D+00
      5   0.000000D+00  0.000000D+00  0.000000D+00  0.000000D+00  0.000000D+00
      6  -0.449305D-01  0.649581D-01 -0.301784D-01  0.987631D+00  0.646876D-01
      7   0.307083D+00  0.358274D+00 -0.127202D+00 -0.356759D-01 -0.245560D-01
      8   0.000000D+00  0.000000D+00  0.000000D+00  0.000000D+00  0.000000D+00
      9   0.000000D+00  0.000000D+00  0.000000D+00  0.000000D+00  0.000000D+00
     10  -0.301980D+00  0.351133D+00 -0.414482D-01  0.234585D-02 -0.104910D+00
     11   0.309624D+00  0.359995D+00 -0.105977D+00 -0.336205D-01 -0.185059D-01
     12   0.000000D+00  0.000000D+00  0.000000D+00  0.000000D+00  0.000000D+00
     13   0.000000D+00  0.000000D+00  0.000000D+00  0.000000D+00  0.000000D+00
     14  -0.287779D+00  0.343752D+00 -0.453251D-01 -0.878436D-01 -0.170000D+00
                 6             7             8             9            10 
      1   0.969930D+00  0.214820D+00 -0.302078D-01  0.000000D+00  0.000000D+00
      2  -0.250920D+00 -0.241446D-02 -0.197361D-01  0.000000D+00  0.000000D+00
      3   0.367471D+00  0.932146D-02 -0.514515D-01  0.000000D+00  0.000000D+00
      4   0.000000D+00  0.000000D+00  0.000000D+00  0.106366D+00  0.993078D+00
      5   0.000000D+00  0.000000D+00  0.000000D+00  0.000000D+00  0.000000D+00
      6  -0.100750D+00 -0.164284D+00  0.194334D-02  0.000000D+00  0.000000D+00
      7  -0.241179D+00 -0.415572D-01 -0.200315D+01  0.000000D+00  0.000000D+00
      8   0.000000D+00  0.000000D+00  0.000000D+00  0.525558D+00 -0.486986D-01
      9   0.000000D+00  0.000000D+00  0.000000D+00  0.000000D+00  0.000000D+00
     10   0.222792D+00  0.157026D+01 -0.189304D-01  0.000000D+00  0.000000D+00
     11  -0.216763D+00 -0.185385D-01  0.202022D+01  0.000000D+00  0.000000D+00
     12   0.000000D+00  0.000000D+00  0.000000D+00  0.520070D+00 -0.153894D+00
     13   0.000000D+00  0.000000D+00  0.000000D+00  0.000000D+00  0.000000D+00
     14   0.406635D+00 -0.145788D+01  0.605461D-02  0.000000D+00  0.000000D+00
                11            12            13            14 
      1   0.000000D+00  0.000000D+00  0.000000D+00  0.000000D+00
      2   0.000000D+00  0.000000D+00  0.000000D+00  0.000000D+00
      3   0.000000D+00  0.000000D+00  0.000000D+00  0.000000D+00
      4  -0.157598D+00  0.000000D+00  0.000000D+00  0.000000D+00
      5   0.000000D+00  0.106366D+00  0.993078D+00 -0.157598D+00
      6   0.000000D+00  0.000000D+00  0.000000D+00  0.000000D+00
      7   0.000000D+00  0.000000D+00  0.000000D+00  0.000000D+00
      8   0.151160D+01  0.000000D+00  0.000000D+00  0.000000D+00
      9   0.000000D+00  0.525558D+00 -0.486986D-01  0.151160D+01
     10   0.000000D+00  0.000000D+00  0.000000D+00  0.000000D+00
     11   0.000000D+00  0.000000D+00  0.000000D+00  0.000000D+00
     12  -0.149532D+01  0.000000D+00  0.000000D+00  0.000000D+00
     13   0.000000D+00  0.520070D+00 -0.153894D+00 -0.149532D+01
     14   0.000000D+00  0.000000D+00  0.000000D+00  0.000000D+00
 NBasis=    14 RedAO= T EigKep=  1.23D-01  NBF=     8     0     3     3
 NBsUse=    14 1.00D-06 EigRej= -1.00D+00 NBFU=     8     0     3     3
 Leave Link  302 at Mon Mar 28 14:19:32 2022, MaxMem=  9663676416 cpu:               3.1 elap:               0.1
 (Enter /nopt/nrel/apps/gaussian/g16C_1/g16/l303.exe)
 DipDrv will not compute anything.
 Fermi contact integrals: 
                 1             2 
      1   0.628247D+00  0.192696D-02
      2   0.000000D+00  0.171843D+02
      3   0.000000D+00  0.368674D+00
      4   0.000000D+00  0.000000D+00
      5   0.000000D+00  0.000000D+00
      6   0.000000D+00  0.000000D+00
      7   0.244298D-01  0.187097D-02
      8   0.000000D+00  0.000000D+00
      9   0.000000D+00  0.000000D+00
     10  -0.521785D-01  0.000000D+00
     11   0.255310D-01  0.440472D-01
     12   0.000000D+00  0.000000D+00
     13   0.000000D+00  0.000000D+00
     14  -0.377088D-01  0.000000D+00
 Leave Link  303 at Mon Mar 28 14:19:32 2022, MaxMem=  9663676416 cpu:               1.0 elap:               0.1
 (Enter /nopt/nrel/apps/gaussian/g16C_1/g16/l401.exe)
 ExpMin= 2.44D-02 ExpMax= 5.48D+02 ExpMxC= 5.48D+02 IAcc=3 IRadAn=         5 AccDes= 0.00D+00
 Harris functional with IExCor=  205 and IRadAn=       5 diagonalized for initial guess.
 HarFok:  IExCor=  205 AccDes= 0.00D+00 IRadAn=         5 IDoV= 1 UseB2=F ITyADJ=14
 ICtDFT=  3500011 ScaDFX=  1.000000  1.000000  1.000000  1.000000
 FoFCou: FMM=F IPFlag=           0 FMFlag=      100000 FMFlg1=           0
         NFxFlg=           0 DoJE=T BraDBF=F KetDBF=T FulRan=T
         wScrn=  0.000000 ICntrl=       500 IOpCl=  0 I1Cent=   200000004 NGrid=           0
         NMat0=    1 NMatS0=      1 NMatT0=    0 NMatD0=    1 NMtDS0=    0 NMtDT0=    0
 Petite list used in FoFCou.
 Harris En= -161.190933917836    
 JPrj=0 DoOrth=F DoCkMO=F.
 Initial guess orbital symmetries:
       Occupied  (SG) (SG) (SG) (PI) (PI) (SG)
       Virtual   (SG) (PI) (PI) (SG) (SG) (PI) (PI) (SG)
 The electronic state of the initial guess is 1-SG.
 Leave Link  401 at Mon Mar 28 14:19:32 2022, MaxMem=  9663676416 cpu:               5.1 elap:               0.2
 (Enter /nopt/nrel/apps/gaussian/g16C_1/g16/l502.exe)
 Keep R1 ints in memory in symmetry-blocked form, NReq=7213017.
 FoFCou: FMM=F IPFlag=           0 FMFlag=           0 FMFlg1=           0
         NFxFlg=           0 DoJE=F BraDBF=F KetDBF=F FulRan=T
         wScrn=  0.000000 ICntrl=       600 IOpCl=  0 I1Cent=           0 NGrid=           0
         NMat0=    1 NMatS0=    105 NMatT0=    0 NMatD0=    1 NMtDS0=    0 NMtDT0=    0
 Petite list used in FoFCou.
 Closed shell SCF:
 Using DIIS extrapolation, IDIIS=  1040.
 NGot=  9663676416 LenX=  9663671753 LenY=  9663670871
 Requested convergence on RMS density matrix=1.00D-08 within 128 cycles.
 Requested convergence on MAX density matrix=1.00D-06.
 Requested convergence on             energy=1.00D-06.
 No special actions if energy rises.

 Cycle   1  Pass 1  IDiag  1:
 E= -161.288808326488    
 DIIS: error= 3.81D-02 at cycle   1 NSaved=   1.
 NSaved= 1 IEnMin= 1 EnMin= -161.288808326488     IErMin= 1 ErrMin= 3.81D-02
 ErrMax= 3.81D-02  0.00D+00 EMaxC= 1.00D-01 BMatC= 1.72D-02 BMatP= 1.72D-02
 IDIUse=3 WtCom= 6.19D-01 WtEn= 3.81D-01
 Coeff-Com:  0.100D+01
 Coeff-En:   0.100D+01
 Coeff:      0.100D+01
 Gap=     0.168 Goal=   None    Shift=    0.000
 GapD=    0.168 DampG=1.000 DampE=0.500 DampFc=0.5000 IDamp=-1.
 Damping current iteration by 5.00D-01
 RMSDP=2.16D-02 MaxDP=2.36D-01              OVMax= 1.34D-02

 Cycle   2  Pass 1  IDiag  1:
 E= -161.312049692908     Delta-E=       -0.023241366420 Rises=F Damp=T
 DIIS: error= 1.72D-02 at cycle   2 NSaved=   2.
 NSaved= 2 IEnMin= 2 EnMin= -161.312049692908     IErMin= 2 ErrMin= 1.72D-02
 ErrMax= 1.72D-02  0.00D+00 EMaxC= 1.00D-01 BMatC= 4.05D-03 BMatP= 1.72D-02
 IDIUse=3 WtCom= 8.28D-01 WtEn= 1.72D-01
 Coeff-Com: -0.929D+00 0.193D+01
 Coeff-En:   0.000D+00 0.100D+01
 Coeff:     -0.770D+00 0.177D+01
 Gap=     0.234 Goal=   None    Shift=    0.000
 RMSDP=9.60D-03 MaxDP=1.00D-01 DE=-2.32D-02 OVMax= 6.29D-04

 Cycle   3  Pass 1  IDiag  1:
 E= -161.334294290341     Delta-E=       -0.022244597433 Rises=F Damp=F
 DIIS: error= 2.73D-04 at cycle   3 NSaved=   3.
 NSaved= 3 IEnMin= 3 EnMin= -161.334294290341     IErMin= 3 ErrMin= 2.73D-04
 ErrMax= 2.73D-04  0.00D+00 EMaxC= 1.00D-01 BMatC= 1.71D-06 BMatP= 4.05D-03
 IDIUse=3 WtCom= 9.97D-01 WtEn= 2.73D-03
 Coeff-Com:  0.151D+00-0.318D+00 0.117D+01
 Coeff-En:   0.000D+00 0.000D+00 0.100D+01
 Coeff:      0.151D+00-0.317D+00 0.117D+01
 Gap=     0.237 Goal=   None    Shift=    0.000
 RMSDP=2.35D-04 MaxDP=1.25D-03 DE=-2.22D-02 OVMax= 2.22D-04

 Cycle   4  Pass 1  IDiag  1:
 E= -161.334298332692     Delta-E=       -0.000004042351 Rises=F Damp=F
 DIIS: error= 4.99D-05 at cycle   4 NSaved=   4.
 NSaved= 4 IEnMin= 4 EnMin= -161.334298332692     IErMin= 4 ErrMin= 4.99D-05
 ErrMax= 4.99D-05  0.00D+00 EMaxC= 1.00D-01 BMatC= 2.83D-08 BMatP= 1.71D-06
 IDIUse=1 WtCom= 1.00D+00 WtEn= 0.00D+00
 Coeff-Com:  0.295D-01-0.610D-01 0.147D+00 0.884D+00
 Coeff:      0.295D-01-0.610D-01 0.147D+00 0.884D+00
 Gap=     0.237 Goal=   None    Shift=    0.000
 RMSDP=5.04D-05 MaxDP=2.94D-04 DE=-4.04D-06 OVMax= 6.57D-06

 Cycle   5  Pass 1  IDiag  1:
 E= -161.334298556203     Delta-E=       -0.000000223511 Rises=F Damp=F
 DIIS: error= 2.74D-05 at cycle   5 NSaved=   5.
 NSaved= 5 IEnMin= 5 EnMin= -161.334298556203     IErMin= 5 ErrMin= 2.74D-05
 ErrMax= 2.74D-05  0.00D+00 EMaxC= 1.00D-01 BMatC= 6.60D-09 BMatP= 2.83D-08
 IDIUse=1 WtCom= 1.00D+00 WtEn= 0.00D+00
 Coeff-Com:  0.661D-02-0.138D-01 0.540D-01-0.823D+00 0.178D+01
 Coeff:      0.661D-02-0.138D-01 0.540D-01-0.823D+00 0.178D+01
 Gap=     0.237 Goal=   None    Shift=    0.000
 RMSDP=3.52D-05 MaxDP=2.00D-04 DE=-2.24D-07 OVMax= 1.76D-07

 Cycle   6  Pass 1  IDiag  1:
 E= -161.334298630537     Delta-E=       -0.000000074335 Rises=F Damp=F
 DIIS: error= 5.95D-06 at cycle   6 NSaved=   6.
 NSaved= 6 IEnMin= 6 EnMin= -161.334298630537     IErMin= 6 ErrMin= 5.95D-06
 ErrMax= 5.95D-06  0.00D+00 EMaxC= 1.00D-01 BMatC= 2.37D-10 BMatP= 6.60D-09
 IDIUse=1 WtCom= 1.00D+00 WtEn= 0.00D+00
 Coeff-Com: -0.708D-03 0.150D-02-0.999D-02 0.501D+00-0.129D+01 0.180D+01
 Coeff:     -0.708D-03 0.150D-02-0.999D-02 0.501D+00-0.129D+01 0.180D+01
 Gap=     0.237 Goal=   None    Shift=    0.000
 RMSDP=6.74D-06 MaxDP=2.93D-05 DE=-7.43D-08 OVMax= 7.11D-07

 Cycle   7  Pass 1  IDiag  1:
 E= -161.334298633733     Delta-E=       -0.000000003196 Rises=F Damp=F
 DIIS: error= 3.47D-07 at cycle   7 NSaved=   7.
 NSaved= 7 IEnMin= 7 EnMin= -161.334298633733     IErMin= 7 ErrMin= 3.47D-07
 ErrMax= 3.47D-07  0.00D+00 EMaxC= 1.00D-01 BMatC= 1.32D-12 BMatP= 2.37D-10
 IDIUse=1 WtCom= 1.00D+00 WtEn= 0.00D+00
 Coeff-Com:  0.121D-04-0.271D-04 0.738D-03-0.680D-01 0.198D+00-0.324D+00
 Coeff-Com:  0.119D+01
 Coeff:      0.121D-04-0.271D-04 0.738D-03-0.680D-01 0.198D+00-0.324D+00
 Coeff:      0.119D+01
 Gap=     0.237 Goal=   None    Shift=    0.000
 RMSDP=7.49D-07 MaxDP=4.12D-06 DE=-3.20D-09 OVMax= 1.25D-07

 Cycle   8  Pass 1  IDiag  1:
 E= -161.334298633742     Delta-E=       -0.000000000009 Rises=F Damp=F
 DIIS: error= 1.88D-08 at cycle   8 NSaved=   8.
 NSaved= 8 IEnMin= 8 EnMin= -161.334298633742     IErMin= 8 ErrMin= 1.88D-08
 ErrMax= 1.88D-08  0.00D+00 EMaxC= 1.00D-01 BMatC= 2.90D-15 BMatP= 1.32D-12
 IDIUse=1 WtCom= 1.00D+00 WtEn= 0.00D+00
 Coeff-Com: -0.632D-05 0.135D-04-0.159D-03 0.123D-01-0.364D-01 0.587D-01
 Coeff-Com: -0.238D+00 0.120D+01
 Coeff:     -0.632D-05 0.135D-04-0.159D-03 0.123D-01-0.364D-01 0.587D-01
 Coeff:     -0.238D+00 0.120D+01
 Gap=     0.237 Goal=   None    Shift=    0.000
 RMSDP=1.55D-08 MaxDP=8.63D-08 DE=-8.92D-12 OVMax= 5.46D-10

 Cycle   9  Pass 1  IDiag  1:
 E= -161.334298633742     Delta-E=        0.000000000000 Rises=F Damp=F
 DIIS: error= 3.00D-09 at cycle   9 NSaved=   9.
 NSaved= 9 IEnMin= 8 EnMin= -161.334298633742     IErMin= 9 ErrMin= 3.00D-09
 ErrMax= 3.00D-09  0.00D+00 EMaxC= 1.00D-01 BMatC= 8.80D-17 BMatP= 2.90D-15
 IDIUse=1 WtCom= 1.00D+00 WtEn= 0.00D+00
 Coeff-Com:  0.198D-06-0.461D-06 0.170D-04-0.165D-02 0.499D-02-0.776D-02
 Coeff-Com:  0.332D-01-0.188D+00 0.116D+01
 Coeff:      0.198D-06-0.461D-06 0.170D-04-0.165D-02 0.499D-02-0.776D-02
 Coeff:      0.332D-01-0.188D+00 0.116D+01
 Gap=     0.237 Goal=   None    Shift=    0.000
 RMSDP=4.10D-09 MaxDP=2.42D-08 DE= 5.68D-14 OVMax= 1.51D-10

 SCF Done:  E(RHF) =  -161.334298634     A.U. after    9 cycles
            NFock=  9  Conv=0.41D-08     -V/T= 2.0036
 KE= 1.607544716034D+02 PE=-3.924869185042D+02 EE= 6.806976853893D+01
 Leave Link  502 at Mon Mar 28 14:19:33 2022, MaxMem=  9663676416 cpu:               3.7 elap:               0.1
 (Enter /nopt/nrel/apps/gaussian/g16C_1/g16/l801.exe)
 Windowed orbitals will be sorted by symmetry type.
 ExpMin= 2.44D-02 ExpMax= 5.48D+02 ExpMxC= 5.48D+02 IAcc=3 IRadAn=         5 AccDes= 0.00D+00
 HarFok:  IExCor=  205 AccDes= 0.00D+00 IRadAn=         5 IDoV=-2 UseB2=F ITyADJ=14
 ICtDFT= 12500011 ScaDFX=  1.000000  1.000000  1.000000  1.000000
 Largest valence mixing into a core orbital is  2.66D-04
 Largest core mixing into a valence orbital is  1.77D-04
 Range of M.O.s used for correlation:     6    14
 NBasis=    14 NAE=     6 NBE=     6 NFC=     5 NFV=     0
 NROrb=      9 NOA=     1 NOB=     1 NVA=     8 NVB=     8
 Leave Link  801 at Mon Mar 28 14:19:33 2022, MaxMem=  9663676416 cpu:               1.8 elap:               0.1
 (Enter /nopt/nrel/apps/gaussian/g16C_1/g16/l804.exe)
 Closed-shell transformation, MDV=  9663676416 ITran=4 ISComp=2.
 Unit  1 TFree=          8118 TCopy=        116765.
 Semi-Direct transformation.
 ModeAB=           2 MOrb=             1 LenV=    9663555891
 LASXX=           88 LTotXX=          88 LenRXX=          88
 LTotAB=         141 MaxLAS=         945 LenRXY=         945
 NonZer=        1107 LenScr=      785920 LnRSAI=           0
 LnScr1=           0 LExtra=      220189 Total=      1007142
 MaxDsk= 34359738368 SrtSym=           F ITran=            4
 DoSDTr:  NPSUse= 36
 JobTyp=0 Pass  1:  I=   1 to   1.
 (rs|ai) integrals will be sorted in core.
 Complete sort for first half transformation.
 First half transformation complete.
 Complete sort for second half transformation.
 Second half transformation complete.
 Spin components of T(2) and E(2):
     alpha-alpha T2 =       0.0000000000D+00 E2=      0.0000000000D+00
     alpha-beta  T2 =       0.2344907816D-01 E2=     -0.2152236812D-01
     beta-beta   T2 =       0.0000000000D+00 E2=      0.0000000000D+00
 ANorm=    0.1011656601D+01
 E2 =    -0.2152236812D-01 EUMP2 =    -0.16135582100187D+03
 Leave Link  804 at Mon Mar 28 14:19:33 2022, MaxMem=  9663676416 cpu:               3.1 elap:               0.1
 (Enter /nopt/nrel/apps/gaussian/g16C_1/g16/l913.exe)
 CIDS:  MDV=  9663676416.
 Frozen-core window:  NFC=   5 NFV=   0.
 IFCWin=0 IBDFC=1 NFBD=     0     0 NFCmp=     0     0 NFFFC=     0     0
 Using DD3R+UMP44R for 1st iteration.
 Using DD4RQ for 2nd and later iterations.
 Keep R2 and R3 ints in memory in symmetry-blocked form, NReq=7215411.
 FoFCou: FMM=F IPFlag=           0 FMFlag=           0 FMFlg1=           0
         NFxFlg=           0 DoJE=F BraDBF=F KetDBF=F FulRan=T
         wScrn=  0.000000 ICntrl=       600 IOpCl=  0 I1Cent=           0 NGrid=           0
         NMat0=    1 NMatS0=    105 NMatT0=    0 NMatD0=    1 NMtDS0=    0 NMtDT0=    0
 Petite list used in FoFCou.
 CIDS: In Core Option IDoMem=           1.
 Coupled Cluster theory with single and double substitutions
 ===========================================================
 Iterations= 200 Convergence= 0.100D-06
 Produce multiple copies of IABC intergrals
 Iteration Nr.   1
 **********************
 DD1Dir will call FoFMem   1 times, MxPair=         2
 NAB=     1 NAA=     0 NBB=     0.
 MP4(R+Q)=  0.50467969D-03
 Maximum subspace dimension=  5
 A-vector RMS=  2.2683388D-02 Max=  4.2190223D-02 conv= 1.00D-05.
 RLE energy=       -0.0364824324
 E3=       -0.93327384D-02        EUMP3=      -0.16136515374D+03
 E4(DQ)=   -0.39551494D-02        UMP4(DQ)=   -0.16136910889D+03
 E4(SDQ)=  -0.41784988D-02        UMP4(SDQ)=  -0.16136933224D+03
 VARIATIONAL ENERGIES WITH THE FIRST-ORDER WAVEFUNCTION:
 DE(Corr)= -0.30347877E-01 E(Corr)=     -161.36464651    
 NORM(A)=   0.10344887D+01
 Iteration Nr.   2
 **********************
 DD1Dir will call FoFMem   1 times, MxPair=         2
 NAB=     1 NAA=     0 NBB=     0.
 A-vector RMS=  1.1806837D-02 Max=  1.4455167D-02 conv= 1.00D-05.
 RLE energy=       -0.0375730214
 DE(Corr)= -0.36996216E-01 E(CORR)=     -161.37129485     Delta=-6.65D-03
 NORM(A)=   0.10391568D+01
 Iteration Nr.   3
 **********************
 DD1Dir will call FoFMem   1 times, MxPair=         2
 NAB=     1 NAA=     0 NBB=     0.
 A-vector RMS=  1.0244558D-02 Max=  1.2113587D-02 conv= 1.00D-05.
 RLE energy=       -0.0383042258
 DE(Corr)= -0.37654279E-01 E(CORR)=     -161.37195291     Delta=-6.58D-04
 NORM(A)=   0.10473697D+01
 Iteration Nr.   4
 **********************
 DD1Dir will call FoFMem   1 times, MxPair=         2
 NAB=     1 NAA=     0 NBB=     0.
 A-vector RMS=  3.3610718D-03 Max=  6.5130793D-03 conv= 1.00D-05.
 RLE energy=       -0.0389891387
 DE(Corr)= -0.38465659E-01 E(CORR)=     -161.37276429     Delta=-8.11D-04
 NORM(A)=   0.10538087D+01
 Iteration Nr.   5
 **********************
 DD1Dir will call FoFMem   1 times, MxPair=         2
 NAB=     1 NAA=     0 NBB=     0.
 A-vector RMS=  5.2826660D-04 Max=  5.3546861D-04 conv= 1.00D-05.
 RLE energy=       -0.0388197629
 DE(Corr)= -0.38903176E-01 E(CORR)=     -161.37320181     Delta=-4.38D-04
 NORM(A)=   0.10533102D+01
 Iteration Nr.   6
 **********************
 DD1Dir will call FoFMem   1 times, MxPair=         2
 NAB=     1 NAA=     0 NBB=     0.
 A-vector RMS=  2.3498676D-04 Max=  1.9979833D-04 conv= 1.00D-05.
 RLE energy=       -0.0388298907
 DE(Corr)= -0.38822707E-01 E(CORR)=     -161.37312134     Delta= 8.05D-05
 NORM(A)=   0.10534084D+01
 Iteration Nr.   7
 **********************
 DD1Dir will call FoFMem   1 times, MxPair=         2
 NAB=     1 NAA=     0 NBB=     0.
 A-vector RMS=  1.1753141D-04 Max=  1.2640155D-04 conv= 1.00D-05.
 RLE energy=       -0.0388338170
 DE(Corr)= -0.38830468E-01 E(CORR)=     -161.37312910     Delta=-7.76D-06
 NORM(A)=   0.10534419D+01
 Iteration Nr.   8
 **********************
 DD1Dir will call FoFMem   1 times, MxPair=         2
 NAB=     1 NAA=     0 NBB=     0.
 A-vector RMS=  1.9236577D-05 Max=  1.9366685D-05 conv= 1.00D-05.
 RLE energy=       -0.0388306176
 DE(Corr)= -0.38832329E-01 E(CORR)=     -161.37313096     Delta=-1.86D-06
 NORM(A)=   0.10534256D+01
 Iteration Nr.   9
 **********************
 DD1Dir will call FoFMem   1 times, MxPair=         2
 NAB=     1 NAA=     0 NBB=     0.
 A-vector RMS=  4.3282648D-06 Max=  8.4654513D-06 conv= 1.00D-05.
 RLE energy=       -0.0388309730
 DE(Corr)= -0.38830810E-01 E(CORR)=     -161.37312944     Delta= 1.52D-06
 NORM(A)=   0.10534264D+01
 Iteration Nr.  10
 **********************
 DD1Dir will call FoFMem   1 times, MxPair=         2
 NAB=     1 NAA=     0 NBB=     0.
 A-vector RMS=  1.5576051D-06 Max=  3.2555905D-06 conv= 1.00D-05.
 RLE energy=       -0.0388310652
 DE(Corr)= -0.38831042E-01 E(CORR)=     -161.37312968     Delta=-2.32D-07
 NORM(A)=   0.10534265D+01
 Iteration Nr.  11
 **********************
 DD1Dir will call FoFMem   1 times, MxPair=         2
 NAB=     1 NAA=     0 NBB=     0.
 A-vector RMS=  8.2098113D-07 Max=  8.5494321D-07 conv= 1.00D-05.
 RLE energy=       -0.0388309830
 DE(Corr)= -0.38831037E-01 E(CORR)=     -161.37312967     Delta= 4.62D-09
 NORM(A)=   0.10534263D+01
 CI/CC converged in   11 iterations to DelEn= 4.62D-09 Conv= 1.00D-07 ErrA1= 8.21D-07 Conv= 1.00D-05
 Wavefunction amplitudes converged. E(Corr)=     -161.37312967    
 Dominant configurations:
 ***********************
 Spin Case        I    J    A    B          Value
   ABAB           6    6    7   14       0.109076D+00
   ABAB           6    6   14    7       0.109076D+00
   ABAB           6    6   14   14      -0.163745D+00
 Largest amplitude= 1.64D-01
 Discarding MO integrals.
 Leave Link  913 at Mon Mar 28 14:19:33 2022, MaxMem=  9663676416 cpu:               4.8 elap:               0.2
 (Enter /nopt/nrel/apps/gaussian/g16C_1/g16/l601.exe)
 Copying SCF densities to generalized density rwf, IOpCl= 0 IROHF=0.

 **********************************************************************

            Population analysis using the SCF Density.

 **********************************************************************

 Orbital symmetries:
       Occupied  (SG) (SG) (PI) (PI) (SG) (SG)
       Virtual   (SG) (PI) (PI) (SG) (SG) (PI) (PI) (SG)
 The electronic state is 1-SG.
 Alpha  occ. eigenvalues --  -40.23813  -2.79022  -1.50845  -1.50845  -1.50708
 Alpha  occ. eigenvalues --   -0.24413
 Alpha virt. eigenvalues --   -0.00736   0.03692   0.03692   0.11200   0.13662
 Alpha virt. eigenvalues --    0.16319   0.16319   0.30485
          Condensed to atoms (all electrons):
               1          2
     1  H    0.631026   0.289831
     2  Na   0.289831  10.789312
 Mulliken charges:
               1
     1  H    0.079143
     2  Na  -0.079143
 Sum of Mulliken charges =  -0.00000
 Mulliken charges with hydrogens summed into heavy atoms:
               1
     2  Na  -0.000000
 N-N= 2.328379728048D+00 E-N=-3.924869184917D+02  KE= 1.607544716034D+02
 Symmetry A1   KE= 1.376796492651D+02
 Symmetry A2   KE= 0.000000000000D+00
 Symmetry B1   KE= 1.153741116920D+01
 Symmetry B2   KE= 1.153741116920D+01

 Atomic contributions to Alpha molecular orbitals:
 Alpha occ 1 OE=-40.238 is Na2-s=1.0000
 Alpha occ 2 OE=-2.790 is Na2-s=0.9998
 Alpha occ 3 OE=-1.508 is Na2-p=1.0000
 Alpha occ 4 OE=-1.508 is Na2-p=1.0000
 Alpha occ 5 OE=-1.507 is Na2-p=0.9999
 Alpha occ 6 OE=-0.244 is H1-s=0.4606 Na2-s=0.3242 Na2-p=0.2152
 Alpha vir 7 OE=-0.007 is Na2-s=0.5252 Na2-p=0.4511
 Alpha vir 8 OE=0.037 is Na2-p=1.0000
 Alpha vir 9 OE=0.037 is Na2-p=1.0000
 Alpha vir 10 OE=0.112 is Na2-p=0.6479 Na2-s=0.3019
 Alpha vir 11 OE=0.137 is Na2-s=0.7433 Na2-p=0.2286
 Alpha vir 12 OE=0.163 is Na2-p=1.0000
 Alpha vir 13 OE=0.163 is Na2-p=1.0000
 Alpha vir 14 OE=0.305 is Na2-p=0.4570 H1-s=0.4375 Na2-s=0.1054
 
 Leave Link  601 at Mon Mar 28 14:19:33 2022, MaxMem=  9663676416 cpu:               3.3 elap:               0.1
 (Enter /nopt/nrel/apps/gaussian/g16C_1/g16/l9999.exe)

 Test job not archived.
 1\1\GINC-R102U34\SP\RCCSD-FC\Gen\H1Na1\USER\28-Mar-2022\0\\#P CCSD
 (MaxCyc=200,SaveAmplitudes,ReadAmplitudes)/GEN sp pop=AllOrbitals iop(
 3/33=1,3/36=-1)\\test\\0,1\H,0,0.,0.,0.\Na,0,0.,0.,2.5\\Version=ES64L-
 G16RevC.01\State=1-SG\HF=-161.3342986\MP2=-161.355821\MP3=-161.3651537
 \MP4D=-161.3696136\MP4DQ=-161.3691089\MP4SDQ=-161.3693322\CCSD=-161.37
 31297\RMSD=4.097e-09\PG=C*V [C*(H1Na1)]\\@


 THERE IS AN OLD, OLD RECIPE IN MAINE FOR STEWING COOT. PLACE THE
 BIRD IN A KETTLE OF WATER WITH A RED BUILDING BRICK FREE OF MORTAR AND
 BLEMISHES. PARBOIL THE COOT AND BRICK TOGETHER FOR THREE HOURS.
 POUR OFF THE WATER, REFILL THE KETTLE, AND AGAIN PARBOIL FOR THREE HOURS.
 ONCE AGAIN POUR OFF THE WATER, FOR THE LAST TIME ADD FRESH WATER,
 AND LET THE COOT AND BRICK SIMMER TOGETHER OVERNIGHT. IN THE MORNING,
 THROW AWAY THE COOT AND EAT THE BRICK.
 Job cpu time:       0 days  0 hours  0 minutes 35.5 seconds.
 Elapsed time:       0 days  0 hours  0 minutes  1.4 seconds.
 File lengths (MBytes):  RWF=     13 Int=      0 D2E=      0 Chk=      1 Scr=      1
 Normal termination of Gaussian 16 at Mon Mar 28 14:19:33 2022.
