 Entering Gaussian System, Link 0=g16
 Initial command:
 /nopt/nrel/apps/gaussian/g16C_1/g16/l1.exe "/lustre/eaglefs/scratch/user/qc/tih-dissc-sto3g/tih-6-ccsd-2.2-631g/Gau-10503.inp" -scrdir="/lustre/eaglefs/scratch/user/qc/tih-dissc-sto3g/tih-6-ccsd-2.2-631g/"
 Default is to use a total of  36 processors:
                               36 via shared-memory
                                1 via Linda
 Entering Link 1 = /nopt/nrel/apps/gaussian/g16C_1/g16/l1.exe PID=     10504.
  
 Copyright (c) 1988-2019, Gaussian, Inc.  All Rights Reserved.
  
 This is part of the Gaussian(R) 16 program.  It is based on
 the Gaussian(R) 09 system (copyright 2009, Gaussian, Inc.),
 the Gaussian(R) 03 system (copyright 2003, Gaussian, Inc.),
 the Gaussian(R) 98 system (copyright 1998, Gaussian, Inc.),
 the Gaussian(R) 94 system (copyright 1995, Gaussian, Inc.),
 the Gaussian 92(TM) system (copyright 1992, Gaussian, Inc.),
 the Gaussian 90(TM) system (copyright 1990, Gaussian, Inc.),
 the Gaussian 88(TM) system (copyright 1988, Gaussian, Inc.),
 the Gaussian 86(TM) system (copyright 1986, Carnegie Mellon
 University), and the Gaussian 82(TM) system (copyright 1983,
 Carnegie Mellon University). Gaussian is a federally registered
 trademark of Gaussian, Inc.
  
 This software contains proprietary and confidential information,
 including trade secrets, belonging to Gaussian, Inc.
  
 This software is provided under written license and may be
 used, copied, transmitted, or stored only in accord with that
 written license.
  
 The following legend is applicable only to US Government
 contracts under FAR:
  
                    RESTRICTED RIGHTS LEGEND
  
 Use, reproduction and disclosure by the US Government is
 subject to restrictions as set forth in subparagraphs (a)
 and (c) of the Commercial Computer Software - Restricted
 Rights clause in FAR 52.227-19.
  
 Gaussian, Inc.
 340 Quinnipiac St., Bldg. 40, Wallingford CT 06492
  
  
 ---------------------------------------------------------------
 Warning -- This program may not be used in any manner that
 competes with the business of Gaussian, Inc. or will provide
 assistance to any competitor of Gaussian, Inc.  The licensee
 of this program is prohibited from giving any competitor of
 Gaussian, Inc. access to this program.  By using this program,
 the user acknowledges that Gaussian, Inc. is engaged in the
 business of creating and licensing software in the field of
 computational chemistry and represents and warrants to the
 licensee that it is not a competitor of Gaussian, Inc. and that
 it will not use this program in any manner prohibited above.
 ---------------------------------------------------------------
  

 Cite this work as:
 Gaussian 16, Revision C.01,
 M. J. Frisch, G. W. Trucks, H. B. Schlegel, G. E. Scuseria, 
 M. A. Robb, J. R. Cheeseman, G. Scalmani, V. Barone, 
 G. A. Petersson, H. Nakatsuji, X. Li, M. Caricato, A. V. Marenich, 
 J. Bloino, B. G. Janesko, R. Gomperts, B. Mennucci, H. P. Hratchian, 
 J. V. Ortiz, A. F. Izmaylov, J. L. Sonnenberg, D. Williams-Young, 
 F. Ding, F. Lipparini, F. Egidi, J. Goings, B. Peng, A. Petrone, 
 T. Henderson, D. Ranasinghe, V. G. Zakrzewski, J. Gao, N. Rega, 
 G. Zheng, W. Liang, M. Hada, M. Ehara, K. Toyota, R. Fukuda, 
 J. Hasegawa, M. Ishida, T. Nakajima, Y. Honda, O. Kitao, H. Nakai, 
 T. Vreven, K. Throssell, J. A. Montgomery, Jr., J. E. Peralta, 
 F. Ogliaro, M. J. Bearpark, J. J. Heyd, E. N. Brothers, K. N. Kudin, 
 V. N. Staroverov, T. A. Keith, R. Kobayashi, J. Normand, 
 K. Raghavachari, A. P. Rendell, J. C. Burant, S. S. Iyengar, 
 J. Tomasi, M. Cossi, J. M. Millam, M. Klene, C. Adamo, R. Cammi, 
 J. W. Ochterski, R. L. Martin, K. Morokuma, O. Farkas, 
 J. B. Foresman, and D. J. Fox, Gaussian, Inc., Wallingford CT, 2019.
 
 ******************************************
 Gaussian 16:  ES64L-G16RevC.01  3-Jul-2019
                28-Mar-2022 
 ******************************************
 %chk=molecule
 Default route: CacheSize=180224 MaxDisk=256GB
 ----------------------------------------------------------------------
 #P CCSD(MaxCyc=300,SaveAmplitudes,ReadAmplitudes)/GEN sp pop=AllOrbita
 ls iop(3/33=1,3/36=-1)
 ----------------------------------------------------------------------
 1/4=180224,38=1,172=1/1;
 2/4=180224,12=2,17=6,18=5,40=1/2;
 3/4=180224,5=7,11=9,25=1,30=1,33=1,36=-1/1,2,3;
 4/4=180224/1;
 5/4=180224,5=2,38=5/2;
 8/4=180224,6=4,9=120000,10=1,24=1/1,4;
 9/4=180224,5=7,6=300,77=1/13;
 6/4=180224,7=2,8=2,9=2,10=2,96=-1/1;
 99/4=180224,5=1,9=1/99;
 Leave Link    1 at Mon Mar 28 12:47:52 2022, MaxMem=           0 cpu:               2.4 elap:               0.1
 (Enter /nopt/nrel/apps/gaussian/g16C_1/g16/l101.exe)
 ----
 test
 ----
 Symbolic Z-matrix:
 Charge =  0 Multiplicity = 6
 H                     0.        0.        0. 
 Ti                    0.        0.        2.2 
 
 ITRead=  0  0
 MicOpt= -1 -1
 NAtoms=      2 NQM=        2 NQMF=       0 NMMI=      0 NMMIF=      0
                NMic=       0 NMicF=      0.
                    Isotopes and Nuclear Properties:
 (Nuclear quadrupole moments (NQMom) in fm**2, nuclear magnetic moments (NMagM)
  in nuclear magnetons)

  Atom         1           2
 IAtWgt=           1          48
 AtmWgt=   1.0078250  47.9479467
 NucSpn=           1           0
 AtZEff=  -0.0000000  -0.0000000
 NQMom=    0.0000000   0.0000000
 NMagM=    2.7928460   0.0000000
 AtZNuc=   1.0000000  22.0000000
 Leave Link  101 at Mon Mar 28 12:47:52 2022, MaxMem=  9663676416 cpu:               3.1 elap:               0.1
 (Enter /nopt/nrel/apps/gaussian/g16C_1/g16/l202.exe)
                          Input orientation:                          
 ---------------------------------------------------------------------
 Center     Atomic      Atomic             Coordinates (Angstroms)
 Number     Number       Type             X           Y           Z
 ---------------------------------------------------------------------
      1          1           0        0.000000    0.000000    0.000000
      2         22           0        0.000000    0.000000    2.200000
 ---------------------------------------------------------------------
 Stoichiometry    HTi(6)
 Framework group  C*V[C*(HTi)]
 Deg. of freedom     1
 Full point group                 C*V     NOp   4
 Largest Abelian subgroup         C2V     NOp   4
 Largest concise Abelian subgroup C1      NOp   1
                         Standard orientation:                         
 ---------------------------------------------------------------------
 Center     Atomic      Atomic             Coordinates (Angstroms)
 Number     Number       Type             X           Y           Z
 ---------------------------------------------------------------------
      1          1           0        0.000000    0.000000   -2.104348
      2         22           0        0.000000    0.000000    0.095652
 ---------------------------------------------------------------------
 Rotational constants (GHZ):           0.0000000         105.7841455         105.7841455
 Leave Link  202 at Mon Mar 28 12:47:52 2022, MaxMem=  9663676416 cpu:               0.9 elap:               0.1
 (Enter /nopt/nrel/apps/gaussian/g16C_1/g16/l301.exe)
 General basis read from cards:  (5D, 7F)
                         Coordinates in L301:                         
 ---------------------------------------------------------------------
 Center     Atomic      Atomic             Coordinates (Angstroms)
 Number     Number       Type             X           Y           Z
 ---------------------------------------------------------------------
      1          1           0        0.000000    0.000000   -2.104348
      2         22           0        0.000000    0.000000    0.095652
 ---------------------------------------------------------------------
 Centers:       1
 STO-3G
 ****
 Centers:       2
 6-31G
 ****
 FixB: optimizing general contractions.
 Ernie: Thresh=  0.10000D-02 Tol=  0.10000D-05 Strict=F.
 IA=     1 ShT= 0 ShC= 0 NL=   1 NS=   0.
 IA=     1 L=0 SC=0 ISt=    0 NBk=    0 NP=    0 IndPr=    0.
 IA=     2 ShT= 0 ShC= 0 NL=   1 NS=   0.
 IA=     2 L=0 SC=0 ISt=    0 NBk=    0 NP=    0 IndPr=    0.
 IA=     2 ShT= 1 ShC= 0 NL=   4 NS=   1.
 IA=     2 L=1 SC=0 ISt=    1 NBk=    3 NP=   15 IndPr=    0.
 DoElim1:  L=1 select primitive    1 from    2 using    1 C= 2.43D-03
 DoElim1:  L=1 select primitive    1 from    3 using    1 C= 2.43D-03
 DoElim1:  L=1 select primitive    4 from    3 using    2 C=-2.94D-03
 DoElim2:  L=1 select primitive   15 from    2 using    3 C=-1.16D+00
 DoElim2:  L=1 select primitive   15 from    1 using    3 C=-1.16D+00
 DoElim2:  L=1 select primitive   12 from    1 using    2 C=-7.43D-01
 DoElim1:  L=1 select primitive    1 from    2 using    1 C= 4.02D-03
 DoElim1:  L=1 select primitive    1 from    3 using    1 C= 4.02D-03
 DoElim1:  L=1 select primitive    4 from    3 using    2 C=-6.31D-03
 DoElim2:  L=1 select primitive   15 from    2 using    3 C= 9.90D-01
 DoElim2:  L=1 select primitive   15 from    1 using    3 C= 9.90D-01
 DoElim2:  L=1 select primitive   12 from    1 using    2 C= 5.13D-01
 Delete L=1 primitive   14 from    3 C=  0.00D+00.
 Delete L=1 primitive   12 from    3 C=  0.00D+00.
 Delete L=1 primitive   10 from    3 C=  0.00D+00.
 Delete L=1 primitive    9 from    3 C=  0.00D+00.
 Delete L=1 primitive    8 from    3 C=  0.00D+00.
 Delete L=1 primitive    7 from    3 C=  0.00D+00.
 Delete L=1 primitive    6 from    3 C=  0.00D+00.
 Delete L=1 primitive    5 from    3 C=  0.00D+00.
 Delete L=1 primitive    4 from    3 C=  0.00D+00.
 Delete L=1 primitive    3 from    3 C=  0.00D+00.
 Delete L=1 primitive    2 from    3 C=  0.00D+00.
 Delete L=1 primitive    1 from    3 C=  0.00D+00.
 Delete L=1 primitive   15 from    2 C=  0.00D+00.
 Delete L=1 primitive   13 from    2 C=  0.00D+00.
 Delete L=1 primitive   11 from    2 C=  0.00D+00.
 Delete L=1 primitive    9 from    2 C=  0.00D+00.
 Delete L=1 primitive    7 from    2 C=  0.00D+00.
 Delete L=1 primitive    5 from    2 C=  0.00D+00.
 Delete L=1 primitive    3 from    2 C=  0.00D+00.
 Delete L=1 primitive    2 from    2 C=  0.00D+00.
 Delete L=1 primitive    1 from    2 C=  0.00D+00.
 Delete L=1 primitive   15 from    1 C=  0.00D+00.
 Delete L=1 primitive   14 from    1 C=  0.00D+00.
 Delete L=1 primitive   13 from    1 C=  0.00D+00.
 Delete L=1 primitive   12 from    1 C=  0.00D+00.
 Delete L=1 primitive   11 from    1 C=  0.00D+00.
 Delete L=1 primitive   10 from    1 C=  0.00D+00.
 Delete L=1 primitive    8 from    1 C=  0.00D+00.
 Delete L=1 primitive    6 from    1 C=  0.00D+00.
 Delete L=1 primitive    4 from    1 C=  0.00D+00.
 IA=     2 L=1 SC=0 ISt=    0 NBk=    0 NP=    0 IndPr=   15.
 IA=     2 ShT= 2 ShC= 2 NL=   2 NS=   1.
 IA=     2 L=2 SC=2 ISt=    0 NBk=    0 NP=    0 IndPr=    0.
 LdAtmC:  AtmChg=     1.000000    22.000000
 AtZEff=     -1.0000000    -23.9800000
 NEqShl: 
              1            2            3            4
     1            1            1            1            1
     2            2            2            2            2
     3            3            3            3            3
     4            4            4            4            4
     5            5            5            5            5
     6            6            6            6            6
     7            7            7            7            7
     8            8            8            8            8
 NEqBas: 
              1            2            3            4
     1            1            1            1            1
     2            2            2            2            2
     3            3            3            3            3
     4            4           -4           -4            4
     5            5           -5            5           -5
     6            6            6            6            6
     7            7            7            7            7
     8            8           -8           -8            8
     9            9           -9            9           -9
    10           10           10           10           10
    11           11           11           11           11
    12           12          -12          -12           12
    13           13          -13           13          -13
    14           14           14           14           14
    15           15           15           15           15
    16           16          -16          -16           16
    17           17          -17           17          -17
    18           18           18           18           18
    19           19           19           19           19
    20           20           20           20           20
    21           21           21           21           21
    22           22           22          -22          -22
    23           23          -23          -23           23
    24           24          -24           24          -24
    25           25           25           25           25
    26           26           26           26           26
    27           27           27           27           27
    28           28           28          -28          -28
    29           29          -29          -29           29
    30           30          -30           30          -30
 There are    16 symmetry adapted cartesian basis functions of A1  symmetry.
   1         1   1   1   1
   2         2   2   2   2
   3         3   3   3   3
   4         6   6   6   6
   5         7   7   7   7
   6        10  10  10  10
   7        11  11  11  11
   8        14  14  14  14
   9        15  15  15  15
  10        18  18  18  18
  11        19  19  19  19
  12        20  20  20  20
  13        21  21  21  21
  14        25  25  25  25
  15        26  26  26  26
  16        27  27  27  27
 There are     2 symmetry adapted cartesian basis functions of A2  symmetry.
  17        22  22  22  22
  18        28  28  28  28
 There are     6 symmetry adapted cartesian basis functions of B1  symmetry.
  19         4   4   4   4
  20         8   8   8   8
  21        12  12  12  12
  22        16  16  16  16
  23        23  23  23  23
  24        29  29  29  29
 There are     6 symmetry adapted cartesian basis functions of B2  symmetry.
  25         5   5   5   5
  26         9   9   9   9
  27        13  13  13  13
  28        17  17  17  17
  29        24  24  24  24
  30        30  30  30  30
 Order= 1 2 4 3
 Reordered character table:
              1            2            3            4            5
     1            1            1            1            1            1
     2            2            1            1           -1           -1
     3            4            1           -1           -1            1
     4            3            1           -1            1           -1
 NEqShl: 
              1            2            3            4
     1            1            1            1            1
     2            2            2            2            2
     3            3            3            3            3
     4            4            4            4            4
     5            5            5            5            5
     6            6            6            6            6
     7            7            7            7            7
     8            8            8            8            8
 NEqBas: 
              1            2            3            4
     1            1            1            1            1
     2            2            2            2            2
     3            3            3            3            3
     4            4           -4           -4            4
     5            5           -5            5           -5
     6            6            6            6            6
     7            7            7            7            7
     8            8           -8           -8            8
     9            9           -9            9           -9
    10           10           10           10           10
    11           11           11           11           11
    12           12          -12          -12           12
    13           13          -13           13          -13
    14           14           14           14           14
    15           15           15           15           15
    16           16          -16          -16           16
    17           17          -17           17          -17
    18           18           18           18           18
    19           19           19           19           19
    20           20          -20          -20           20
    21           21          -21           21          -21
    22           22           22           22           22
    23           23           23          -23          -23
    24           24           24           24           24
    25           25          -25          -25           25
    26           26          -26           26          -26
    27           27           27           27           27
    28           28           28          -28          -28
 There are    14 symmetry adapted basis functions of A1  symmetry.
   1         1   1   1   1
   2         2   2   2   2
   3         3   3   3   3
   4         6   6   6   6
   5         7   7   7   7
   6        10  10  10  10
   7        11  11  11  11
   8        14  14  14  14
   9        15  15  15  15
  10        18  18  18  18
  11        19  19  19  19
  12        22  22  22  22
  13        24  24  24  24
  14        27  27  27  27
 There are     2 symmetry adapted basis functions of A2  symmetry.
  15        23  23  23  23
  16        28  28  28  28
 There are     6 symmetry adapted basis functions of B1  symmetry.
  17         4   4   4   4
  18         8   8   8   8
  19        12  12  12  12
  20        16  16  16  16
  21        20  20  20  20
  22        25  25  25  25
 There are     6 symmetry adapted basis functions of B2  symmetry.
  23         5   5   5   5
  24         9   9   9   9
  25        13  13  13  13
  26        17  17  17  17
  27        21  21  21  21
  28        26  26  26  26
 Order= 1 2 4 3
 Reordered character table:
              1            2            3            4            5
     1            1            1            1            1            1
     2            2            1            1           -1           -1
     3            4            1           -1           -1            1
     4            3            1           -1            1           -1
    28 basis functions,    97 primitive gaussians,    30 cartesian basis functions
    14 alpha electrons        9 beta electrons
       nuclear repulsion energy         5.2917721092 Hartrees.
 IS=     1 IAt=     1 ISR=     1 T=0 IP=      1 IndIP=      1 IndIPD=      0 C=  2.769344D-01  0.000000D+00                             NZ=T
 IS=     1 IAt=     1 ISR=     1 T=0 IP=      2 IndIP=      2 IndIPD=      1 C=  2.678389D-01  0.000000D+00                             NZ=T
 IS=     1 IAt=     1 ISR=     1 T=0 IP=      3 IndIP=      3 IndIPD=      2 C=  8.347367D-02  0.000000D+00                             NZ=T
 IS=     2 IAt=     2 ISR=     1 T=0 IP=      1 IndIP=      4 IndIPD=      0 C=  3.823622D+00  0.000000D+00                             NZ=T
 IS=     2 IAt=     2 ISR=     1 T=0 IP=      2 IndIP=      5 IndIPD=      1 C=  7.063955D+00  0.000000D+00                             NZ=T
 IS=     2 IAt=     2 ISR=     1 T=0 IP=      3 IndIP=      6 IndIPD=      2 C=  1.147576D+01  0.000000D+00                             NZ=T
 IS=     2 IAt=     2 ISR=     1 T=0 IP=      4 IndIP=      7 IndIPD=      3 C=  1.533813D+01  0.000000D+00                             NZ=T
 IS=     2 IAt=     2 ISR=     1 T=0 IP=      5 IndIP=      8 IndIPD=      4 C=  1.342790D+01  0.000000D+00                             NZ=T
 IS=     2 IAt=     2 ISR=     1 T=0 IP=      6 IndIP=      9 IndIPD=      5 C=  4.306715D+00  0.000000D+00                             NZ=T
 IS=     3 IAt=     2 ISR=     2 T=1 IP=      1 IndIP=     10 IndIPD=      0 C=  2.786662D-01  2.724134D+01                             NZ=T
 IS=     3 IAt=     2 ISR=     2 T=1 IP=      2 IndIP=     11 IndIPD=      1 C=  1.261924D+00  3.505718D+01                             NZ=T
 IS=     3 IAt=     2 ISR=     2 T=1 IP=      3 IndIP=     12 IndIPD=      2 C=  2.071008D+00  3.677821D+01                             NZ=T
 IS=     3 IAt=     2 ISR=     2 T=1 IP=      4 IndIP=     13 IndIPD=      3 C= -3.098929D-01  2.717167D+01                             NZ=T
 IS=     3 IAt=     2 ISR=     2 T=1 IP=      5 IndIP=     14 IndIPD=      4 C= -2.467696D+00  1.167904D+01                             NZ=T
 IS=     3 IAt=     2 ISR=     2 T=1 IP=      6 IndIP=     15 IndIPD=      5 C= -9.124724D-01  1.772051D+00                             NZ=T
 IS=     4 IAt=     2 ISR=     3 T=1 IP=      1 IndIP=     16 IndIPD=      0 C= -2.927436D-02 -7.289697D-01                             NZ=T
 IS=     4 IAt=     2 ISR=     3 T=1 IP=      2 IndIP=     17 IndIPD=      1 C=  3.057403D-01 -7.594388D-01                             NZ=T
 IS=     4 IAt=     2 ISR=     3 T=1 IP=      3 IndIP=     18 IndIPD=      2 C=  5.687287D-01  5.144727D-01                             NZ=T
 IS=     4 IAt=     2 ISR=     3 T=1 IP=      4 IndIP=     19 IndIPD=      3 C= -3.488887D-01  1.263214D+00                             NZ=T
 IS=     4 IAt=     2 ISR=     3 T=1 IP=      5 IndIP=     20 IndIPD=      4 C= -4.520346D-01  5.611750D-01                             NZ=T
 IS=     4 IAt=     2 ISR=     3 T=1 IP=      6 IndIP=     21 IndIPD=      5 C= -5.626677D-02  6.224893D-02                             NZ=T
 IS=     5 IAt=     2 ISR=     4 T=1 IP=      1 IndIP=     22 IndIPD=      0 C=  5.268162D-02 -3.876509D-01                             NZ=T
 IS=     5 IAt=     2 ISR=     4 T=1 IP=      2 IndIP=     23 IndIPD=      1 C=  1.303842D-01  4.475323D-02                             NZ=T
 IS=     5 IAt=     2 ISR=     4 T=1 IP=      3 IndIP=     24 IndIPD=      2 C= -1.293957D-01  6.389489D-02                             NZ=T
 IS=     6 IAt=     2 ISR=     5 T=1 IP=      1 IndIP=     25 IndIPD=      0 C=  5.396831D-02  1.931915D-02                             NZ=T
 IS=     7 IAt=     2 ISR=     6 T=2 IP=      1 IndIP=     26 IndIPD=      1 C=  0.000000D+00  0.000000D+00  1.377610D+01  0.000000D+00 NZ=T
 IS=     7 IAt=     2 ISR=     6 T=2 IP=      2 IndIP=     27 IndIPD=      2 C=  0.000000D+00  0.000000D+00  5.615749D+00  0.000000D+00 NZ=T
 IS=     7 IAt=     2 ISR=     6 T=2 IP=      3 IndIP=     28 IndIPD=      3 C=  0.000000D+00  0.000000D+00  1.263348D+00  0.000000D+00 NZ=T
 IS=     8 IAt=     2 ISR=     7 T=2 IP=      1 IndIP=     29 IndIPD=      4 C=  0.000000D+00  0.000000D+00  1.851834D-01  0.000000D+00 NZ=T
 IExCor=    0 DFT=F Ex=HF Corr=None ExCW=0 ScaHFX=  1.000000
 ScaDFX=  1.000000  1.000000  1.000000  1.000000 ScalE2=  1.000000  1.000000
 IRadAn=      5 IRanWt=     -1 IRanGd=            0 ICorTp=0 IEmpDi=  4
 NAtoms=    2 NActive=    2 NUniq=    2 SFac= 1.00D+00 NAtFMM=   60 NAOKFM=F Big=F
 Integral buffers will be    131072 words long.
 Raffenetti 2 integral format.
 Two-electron integral symmetry is turned on.
 Leave Link  301 at Mon Mar 28 12:47:52 2022, MaxMem=  9663676416 cpu:               2.1 elap:               0.1
 (Enter /nopt/nrel/apps/gaussian/g16C_1/g16/l302.exe)
 NPDir=0 NMtPBC=     1 NCelOv=     1 NCel=       1 NClECP=     1 NCelD=      1
         NCelK=      1 NCelE2=     1 NClLst=     1 CellRange=     0.0.
 One-electron integrals computed using PRISM.
 One-electron integral symmetry used in STVInt
 Entering OneElI...
 Calculate overlap and kinetic energy integrals
    NBasis =  28  MinDer = 0  MaxDer = 0
 Requested accuracy = 0.1000D-12
 Symmetry will be used
 PrmmSu-InSpLW:  IPartL=    0 NPrtUS=   36 NPrtUL=    1 DoSpLW=F IThBeg=    0 IThEnd=   35 NThAct=   36.
 PrSmSu:  IncTry=   512 NBBP=             36 NTPThr=   100 NPartT=   36 Incr=           1 LDynOK=F GPUOK=F.
 PrsmSu:  NPrtUS=  36 ThrOK=T IAlg=1 LenDen=           0 ISkipM=0 DoSpLW=F IThBeg=    0 IThEnd=   35.
 Prism:   IPart=     0 DynPar=F LinDyn=F Incr=           1.
 PRISM was handed   268429120 working-precision words and    36 shell-pairs
 PRISM was handed   268429120 working-precision words and    36 shell-pairs
 PRISM was handed   268429120 working-precision words and    36 shell-pairs
 PRISM was handed   268429120 working-precision words and    36 shell-pairs
 PRISM was handed   268429120 working-precision words and    36 shell-pairs
 PRISM was handed   268429120 working-precision words and    36 shell-pairs
 PRISM was handed   268429120 working-precision words and    36 shell-pairs
 PRISM was handed   268429120 working-precision words and    36 shell-pairs
 PRISM was handed   268429120 working-precision words and    36 shell-pairs
 PRISM was handed   268429120 working-precision words and    36 shell-pairs
 IPart= 14 NShTot=           0 NBatch=           0 AvBLen=         0.0
 IPart= 25 NShTot=           0 NBatch=           0 AvBLen=         0.0
 IPart=  8 NShTot=           0 NBatch=           0 AvBLen=         0.0
 IPart= 22 NShTot=           0 NBatch=           0 AvBLen=         0.0
 IPart= 23 NShTot=           0 NBatch=           0 AvBLen=         0.0
 IPart= 27 NShTot=           0 NBatch=           0 AvBLen=         0.0
 IPart=  9 NShTot=           0 NBatch=           0 AvBLen=         0.0
 IPart= 17 NShTot=           0 NBatch=           0 AvBLen=         0.0
 IPart= 16 NShTot=           0 NBatch=           0 AvBLen=         0.0
 PRISM was handed   268429120 working-precision words and    36 shell-pairs
 PRISM was handed   268429120 working-precision words and    36 shell-pairs
 PRISM was handed   268429120 working-precision words and    36 shell-pairs
 PRISM was handed   268429120 working-precision words and    36 shell-pairs
 PRISM was handed   268429120 working-precision words and    36 shell-pairs
 PRISM was handed   268429120 working-precision words and    36 shell-pairs
 PRISM was handed   268429120 working-precision words and    36 shell-pairs
 IPart= 28 NShTot=           0 NBatch=           0 AvBLen=         0.0
 IPart= 11 NShTot=           0 NBatch=           0 AvBLen=         0.0
 IPart=  4 NShTot=           0 NBatch=           0 AvBLen=         0.0
 IPart= 18 NShTot=           0 NBatch=           0 AvBLen=         0.0
 PRISM was handed   268429120 working-precision words and    36 shell-pairs
 IPart= 12 NShTot=           0 NBatch=           0 AvBLen=         0.0
 IPart= 35 NShTot=           0 NBatch=           0 AvBLen=         0.0
 IPart=  3 NShTot=           0 NBatch=           0 AvBLen=         0.0
 PRISM was handed   268429120 working-precision words and    36 shell-pairs
 PRISM was handed   268429120 working-precision words and    36 shell-pairs
 PRISM was handed   268429120 working-precision words and    36 shell-pairs
 IPart= 32 NShTot=           0 NBatch=           0 AvBLen=         0.0
 PRISM was handed   268429120 working-precision words and    36 shell-pairs
 PRISM was handed   268429120 working-precision words and    36 shell-pairs
 PRISM was handed   268429120 working-precision words and    36 shell-pairs
 PRISM was handed   268429120 working-precision words and    36 shell-pairs
 PRISM was handed   268429120 working-precision words and    36 shell-pairs
 PRISM was handed   268429120 working-precision words and    36 shell-pairs
 PRISM was handed   268429120 working-precision words and    36 shell-pairs
 IPart=  6 NShTot=           0 NBatch=           0 AvBLen=         0.0
 IPart= 30 NShTot=           0 NBatch=           0 AvBLen=         0.0
 PRISM was handed   268429120 working-precision words and    36 shell-pairs
 PRISM was handed   268429120 working-precision words and    36 shell-pairs
 IPart=  1 NShTot=           8 NBatch=           8 AvBLen=         1.0
 IPart= 26 NShTot=           0 NBatch=           0 AvBLen=         0.0
 IPart= 34 NShTot=           0 NBatch=           0 AvBLen=         0.0
 PRISM was handed   268429120 working-precision words and    36 shell-pairs
 PRISM was handed   268429120 working-precision words and    36 shell-pairs
 PRISM was handed   268429120 working-precision words and    36 shell-pairs
 IPart= 21 NShTot=           0 NBatch=           0 AvBLen=         0.0
 IPart= 24 NShTot=           0 NBatch=           0 AvBLen=         0.0
 IPart= 31 NShTot=           0 NBatch=           0 AvBLen=         0.0
 IPart=  5 NShTot=           0 NBatch=           0 AvBLen=         0.0
 IPart=  2 NShTot=           2 NBatch=           2 AvBLen=         1.0
 IPart= 29 NShTot=           0 NBatch=           0 AvBLen=         0.0
 PRISM was handed   268429120 working-precision words and    36 shell-pairs
 PRISM was handed   268429120 working-precision words and    36 shell-pairs
 PRISM was handed   268429120 working-precision words and    36 shell-pairs
 IPart= 19 NShTot=           0 NBatch=           0 AvBLen=         0.0
 IPart= 15 NShTot=           0 NBatch=           0 AvBLen=         0.0
 IPart= 33 NShTot=           0 NBatch=           0 AvBLen=         0.0
 IPart= 10 NShTot=           0 NBatch=           0 AvBLen=         0.0
 IPart=  0 NShTot=          26 NBatch=          26 AvBLen=         1.0
 IPart=  7 NShTot=           0 NBatch=           0 AvBLen=         0.0
 IPart= 20 NShTot=           0 NBatch=           0 AvBLen=         0.0
 IPart= 13 NShTot=           0 NBatch=           0 AvBLen=         0.0
 PrSmSu:  NxtVal=             37.
 *** Overlap *** 
                1             2             3             4             5 
      1  0.100000D+01
      2  0.628769D-03  0.100000D+01
      3 -0.494368D-02 -0.274497D+00  0.100000D+01
      4  0.000000D+00  0.000000D+00  0.000000D+00  0.100000D+01
      5  0.000000D+00  0.000000D+00  0.000000D+00  0.000000D+00  0.100000D+01
      6 -0.180517D-02  0.000000D+00  0.000000D+00  0.000000D+00  0.000000D+00
      7 -0.359214D-01 -0.126254D-01  0.358999D+00  0.000000D+00  0.000000D+00
      8  0.000000D+00  0.000000D+00  0.000000D+00  0.323756D+00  0.000000D+00
      9  0.000000D+00  0.000000D+00  0.000000D+00  0.000000D+00  0.323756D+00
     10 -0.492914D-01  0.000000D+00  0.000000D+00  0.000000D+00  0.000000D+00
     11 -0.260625D+00  0.708216D-02 -0.284985D-01  0.000000D+00  0.000000D+00
     12  0.000000D+00  0.000000D+00  0.000000D+00 -0.418224D-01  0.000000D+00
     13  0.000000D+00  0.000000D+00  0.000000D+00  0.000000D+00 -0.418224D-01
     14 -0.424625D+00  0.000000D+00  0.000000D+00  0.000000D+00  0.000000D+00
     15  0.271878D+00  0.748293D-02 -0.560115D-01  0.000000D+00  0.000000D+00
     16  0.000000D+00  0.000000D+00  0.000000D+00  0.532285D-02  0.000000D+00
     17  0.000000D+00  0.000000D+00  0.000000D+00  0.000000D+00  0.532285D-02
     18 -0.356497D+00  0.000000D+00  0.000000D+00  0.000000D+00  0.000000D+00
     19  0.154898D-01  0.000000D+00  0.000000D+00  0.000000D+00  0.000000D+00
     20  0.000000D+00  0.000000D+00  0.000000D+00  0.000000D+00  0.000000D+00
     21  0.000000D+00  0.000000D+00  0.000000D+00  0.000000D+00  0.000000D+00
     22  0.000000D+00  0.000000D+00  0.000000D+00  0.000000D+00  0.000000D+00
     23  0.000000D+00  0.000000D+00  0.000000D+00  0.000000D+00  0.000000D+00
     24  0.197898D+00  0.000000D+00  0.000000D+00  0.000000D+00  0.000000D+00
     25  0.000000D+00  0.000000D+00  0.000000D+00  0.000000D+00  0.000000D+00
     26  0.000000D+00  0.000000D+00  0.000000D+00  0.000000D+00  0.000000D+00
     27  0.000000D+00  0.000000D+00  0.000000D+00  0.000000D+00  0.000000D+00
     28  0.000000D+00  0.000000D+00  0.000000D+00  0.000000D+00  0.000000D+00
                6             7             8             9            10 
      6  0.100000D+01
      7  0.000000D+00  0.100000D+01
      8  0.000000D+00  0.000000D+00  0.100000D+01
      9  0.000000D+00  0.000000D+00  0.000000D+00  0.100000D+01
     10  0.323756D+00  0.000000D+00  0.000000D+00  0.000000D+00  0.100000D+01
     11  0.000000D+00  0.220325D+00  0.000000D+00  0.000000D+00  0.000000D+00
     12  0.000000D+00  0.000000D+00  0.139925D+00  0.000000D+00  0.000000D+00
     13  0.000000D+00  0.000000D+00  0.000000D+00  0.139925D+00  0.000000D+00
     14 -0.418224D-01  0.000000D+00  0.000000D+00  0.000000D+00  0.139925D+00
     15  0.000000D+00 -0.274846D+00  0.000000D+00  0.000000D+00  0.000000D+00
     16  0.000000D+00  0.000000D+00  0.104615D+00  0.000000D+00  0.000000D+00
     17  0.000000D+00  0.000000D+00  0.000000D+00  0.104615D+00  0.000000D+00
     18  0.532285D-02  0.000000D+00  0.000000D+00  0.000000D+00  0.104615D+00
     19  0.000000D+00  0.000000D+00  0.000000D+00  0.000000D+00  0.000000D+00
     20  0.000000D+00  0.000000D+00  0.000000D+00  0.000000D+00  0.000000D+00
     21  0.000000D+00  0.000000D+00  0.000000D+00  0.000000D+00  0.000000D+00
     22  0.000000D+00  0.000000D+00  0.000000D+00  0.000000D+00  0.000000D+00
     23  0.000000D+00  0.000000D+00  0.000000D+00  0.000000D+00  0.000000D+00
     24  0.000000D+00  0.000000D+00  0.000000D+00  0.000000D+00  0.000000D+00
     25  0.000000D+00  0.000000D+00  0.000000D+00  0.000000D+00  0.000000D+00
     26  0.000000D+00  0.000000D+00  0.000000D+00  0.000000D+00  0.000000D+00
     27  0.000000D+00  0.000000D+00  0.000000D+00  0.000000D+00  0.000000D+00
     28  0.000000D+00  0.000000D+00  0.000000D+00  0.000000D+00  0.000000D+00
               11            12            13            14            15 
     11  0.100000D+01
     12  0.000000D+00  0.100000D+01
     13  0.000000D+00  0.000000D+00  0.100000D+01
     14  0.000000D+00  0.000000D+00  0.000000D+00  0.100000D+01
     15 -0.865690D+00  0.000000D+00  0.000000D+00  0.000000D+00  0.100000D+01
     16  0.000000D+00  0.748550D+00  0.000000D+00  0.000000D+00  0.000000D+00
     17  0.000000D+00  0.000000D+00  0.748550D+00  0.000000D+00  0.000000D+00
     18  0.000000D+00  0.000000D+00  0.000000D+00  0.748550D+00  0.000000D+00
     19  0.000000D+00  0.000000D+00  0.000000D+00  0.000000D+00  0.000000D+00
     20  0.000000D+00  0.000000D+00  0.000000D+00  0.000000D+00  0.000000D+00
     21  0.000000D+00  0.000000D+00  0.000000D+00  0.000000D+00  0.000000D+00
     22  0.000000D+00  0.000000D+00  0.000000D+00  0.000000D+00  0.000000D+00
     23  0.000000D+00  0.000000D+00  0.000000D+00  0.000000D+00  0.000000D+00
     24  0.000000D+00  0.000000D+00  0.000000D+00  0.000000D+00  0.000000D+00
     25  0.000000D+00  0.000000D+00  0.000000D+00  0.000000D+00  0.000000D+00
     26  0.000000D+00  0.000000D+00  0.000000D+00  0.000000D+00  0.000000D+00
     27  0.000000D+00  0.000000D+00  0.000000D+00  0.000000D+00  0.000000D+00
     28  0.000000D+00  0.000000D+00  0.000000D+00  0.000000D+00  0.000000D+00
               16            17            18            19            20 
     16  0.100000D+01
     17  0.000000D+00  0.100000D+01
     18  0.000000D+00  0.000000D+00  0.100000D+01
     19  0.000000D+00  0.000000D+00  0.000000D+00  0.100000D+01
     20  0.000000D+00  0.000000D+00  0.000000D+00  0.000000D+00  0.100000D+01
     21  0.000000D+00  0.000000D+00  0.000000D+00  0.000000D+00  0.000000D+00
     22  0.000000D+00  0.000000D+00  0.000000D+00  0.000000D+00  0.000000D+00
     23  0.000000D+00  0.000000D+00  0.000000D+00  0.000000D+00  0.000000D+00
     24  0.000000D+00  0.000000D+00  0.000000D+00  0.404226D+00  0.000000D+00
     25  0.000000D+00  0.000000D+00  0.000000D+00  0.000000D+00  0.404226D+00
     26  0.000000D+00  0.000000D+00  0.000000D+00  0.000000D+00  0.000000D+00
     27  0.000000D+00  0.000000D+00  0.000000D+00  0.000000D+00  0.000000D+00
     28  0.000000D+00  0.000000D+00  0.000000D+00  0.000000D+00  0.000000D+00
               21            22            23            24            25 
     21  0.100000D+01
     22  0.000000D+00  0.100000D+01
     23  0.000000D+00  0.000000D+00  0.100000D+01
     24  0.000000D+00  0.000000D+00  0.000000D+00  0.100000D+01
     25  0.000000D+00  0.000000D+00  0.000000D+00  0.000000D+00  0.100000D+01
     26  0.404226D+00  0.000000D+00  0.000000D+00  0.000000D+00  0.000000D+00
     27  0.000000D+00  0.404226D+00  0.000000D+00  0.000000D+00  0.000000D+00
     28  0.000000D+00  0.000000D+00  0.404226D+00  0.000000D+00  0.000000D+00
               26            27            28 
     26  0.100000D+01
     27  0.000000D+00  0.100000D+01
     28  0.000000D+00  0.000000D+00  0.100000D+01
 *** Kinetic Energy *** 
                1             2             3             4             5 
      1  0.760032D+00
      2 -0.307981D-03  0.233868D+03
      3  0.228475D-02  0.128565D+02  0.116517D+02
      4  0.000000D+00  0.000000D+00  0.000000D+00  0.397344D+02
      5  0.000000D+00  0.000000D+00  0.000000D+00  0.000000D+00  0.397344D+02
      6  0.343610D-03  0.000000D+00  0.000000D+00  0.000000D+00  0.000000D+00
      7  0.119426D-01  0.130537D+01 -0.886570D+00  0.000000D+00  0.000000D+00
      8  0.000000D+00  0.000000D+00  0.000000D+00  0.141365D+01  0.000000D+00
      9  0.000000D+00  0.000000D+00  0.000000D+00  0.000000D+00  0.141365D+01
     10  0.732693D-02  0.000000D+00  0.000000D+00  0.000000D+00  0.000000D+00
     11 -0.190538D-01  0.469217D-01 -0.250757D+00  0.000000D+00  0.000000D+00
     12  0.000000D+00  0.000000D+00  0.000000D+00 -0.329355D+00  0.000000D+00
     13  0.000000D+00  0.000000D+00  0.000000D+00  0.000000D+00 -0.329355D+00
     14 -0.741307D-01  0.000000D+00  0.000000D+00  0.000000D+00  0.000000D+00
     15  0.155054D-01  0.718816D-03 -0.535103D-02  0.000000D+00  0.000000D+00
     16  0.000000D+00  0.000000D+00  0.000000D+00  0.847976D-03  0.000000D+00
     17  0.000000D+00  0.000000D+00  0.000000D+00  0.000000D+00  0.847976D-03
     18 -0.405735D-01  0.000000D+00  0.000000D+00  0.000000D+00  0.000000D+00
     19 -0.298468D-02  0.000000D+00  0.000000D+00  0.000000D+00  0.000000D+00
     20  0.000000D+00  0.000000D+00  0.000000D+00  0.000000D+00  0.000000D+00
     21  0.000000D+00  0.000000D+00  0.000000D+00  0.000000D+00  0.000000D+00
     22  0.000000D+00  0.000000D+00  0.000000D+00  0.000000D+00  0.000000D+00
     23  0.000000D+00  0.000000D+00  0.000000D+00  0.000000D+00  0.000000D+00
     24  0.373773D-01  0.000000D+00  0.000000D+00  0.000000D+00  0.000000D+00
     25  0.000000D+00  0.000000D+00  0.000000D+00  0.000000D+00  0.000000D+00
     26  0.000000D+00  0.000000D+00  0.000000D+00  0.000000D+00  0.000000D+00
     27  0.000000D+00  0.000000D+00  0.000000D+00  0.000000D+00  0.000000D+00
     28  0.000000D+00  0.000000D+00  0.000000D+00  0.000000D+00  0.000000D+00
                6             7             8             9            10 
      6  0.397344D+02
      7  0.000000D+00  0.138627D+01
      8  0.000000D+00  0.000000D+00  0.264346D+01
      9  0.000000D+00  0.000000D+00  0.000000D+00  0.264346D+01
     10  0.141365D+01  0.000000D+00  0.000000D+00  0.000000D+00  0.264346D+01
     11  0.000000D+00 -0.202155D+00  0.000000D+00  0.000000D+00  0.000000D+00
     12  0.000000D+00  0.000000D+00 -0.382323D+00  0.000000D+00  0.000000D+00
     13  0.000000D+00  0.000000D+00  0.000000D+00 -0.382323D+00  0.000000D+00
     14 -0.329355D+00  0.000000D+00  0.000000D+00  0.000000D+00 -0.382323D+00
     15  0.000000D+00 -0.250190D-01  0.000000D+00  0.000000D+00  0.000000D+00
     16  0.000000D+00  0.000000D+00  0.157808D-01  0.000000D+00  0.000000D+00
     17  0.000000D+00  0.000000D+00  0.000000D+00  0.157808D-01  0.000000D+00
     18  0.847976D-03  0.000000D+00  0.000000D+00  0.000000D+00  0.157808D-01
     19  0.000000D+00  0.000000D+00  0.000000D+00  0.000000D+00  0.000000D+00
     20  0.000000D+00  0.000000D+00  0.000000D+00  0.000000D+00  0.000000D+00
     21  0.000000D+00  0.000000D+00  0.000000D+00  0.000000D+00  0.000000D+00
     22  0.000000D+00  0.000000D+00  0.000000D+00  0.000000D+00  0.000000D+00
     23  0.000000D+00  0.000000D+00  0.000000D+00  0.000000D+00  0.000000D+00
     24  0.000000D+00  0.000000D+00  0.000000D+00  0.000000D+00  0.000000D+00
     25  0.000000D+00  0.000000D+00  0.000000D+00  0.000000D+00  0.000000D+00
     26  0.000000D+00  0.000000D+00  0.000000D+00  0.000000D+00  0.000000D+00
     27  0.000000D+00  0.000000D+00  0.000000D+00  0.000000D+00  0.000000D+00
     28  0.000000D+00  0.000000D+00  0.000000D+00  0.000000D+00  0.000000D+00
               11            12            13            14            15 
     11  0.179473D+00
     12  0.000000D+00  0.301582D+00
     13  0.000000D+00  0.000000D+00  0.301582D+00
     14  0.000000D+00  0.000000D+00  0.000000D+00  0.301582D+00
     15 -0.578075D-01  0.000000D+00  0.000000D+00  0.000000D+00  0.480540D-01
     16  0.000000D+00  0.867842D-01  0.000000D+00  0.000000D+00  0.000000D+00
     17  0.000000D+00  0.000000D+00  0.867842D-01  0.000000D+00  0.000000D+00
     18  0.000000D+00  0.000000D+00  0.000000D+00  0.867842D-01  0.000000D+00
     19  0.000000D+00  0.000000D+00  0.000000D+00  0.000000D+00  0.000000D+00
     20  0.000000D+00  0.000000D+00  0.000000D+00  0.000000D+00  0.000000D+00
     21  0.000000D+00  0.000000D+00  0.000000D+00  0.000000D+00  0.000000D+00
     22  0.000000D+00  0.000000D+00  0.000000D+00  0.000000D+00  0.000000D+00
     23  0.000000D+00  0.000000D+00  0.000000D+00  0.000000D+00  0.000000D+00
     24  0.000000D+00  0.000000D+00  0.000000D+00  0.000000D+00  0.000000D+00
     25  0.000000D+00  0.000000D+00  0.000000D+00  0.000000D+00  0.000000D+00
     26  0.000000D+00  0.000000D+00  0.000000D+00  0.000000D+00  0.000000D+00
     27  0.000000D+00  0.000000D+00  0.000000D+00  0.000000D+00  0.000000D+00
     28  0.000000D+00  0.000000D+00  0.000000D+00  0.000000D+00  0.000000D+00
               16            17            18            19            20 
     16  0.800900D-01
     17  0.000000D+00  0.800900D-01
     18  0.000000D+00  0.000000D+00  0.800900D-01
     19  0.000000D+00  0.000000D+00  0.000000D+00  0.631380D+01
     20  0.000000D+00  0.000000D+00  0.000000D+00  0.000000D+00  0.631380D+01
     21  0.000000D+00  0.000000D+00  0.000000D+00  0.000000D+00  0.000000D+00
     22  0.000000D+00  0.000000D+00  0.000000D+00  0.000000D+00  0.000000D+00
     23  0.000000D+00  0.000000D+00  0.000000D+00  0.000000D+00  0.000000D+00
     24  0.000000D+00  0.000000D+00  0.000000D+00  0.648327D+00  0.000000D+00
     25  0.000000D+00  0.000000D+00  0.000000D+00  0.000000D+00  0.648327D+00
     26  0.000000D+00  0.000000D+00  0.000000D+00  0.000000D+00  0.000000D+00
     27  0.000000D+00  0.000000D+00  0.000000D+00  0.000000D+00  0.000000D+00
     28  0.000000D+00  0.000000D+00  0.000000D+00  0.000000D+00  0.000000D+00
               21            22            23            24            25 
     21  0.631380D+01
     22  0.000000D+00  0.631380D+01
     23  0.000000D+00  0.000000D+00  0.631380D+01
     24  0.000000D+00  0.000000D+00  0.000000D+00  0.100437D+01
     25  0.000000D+00  0.000000D+00  0.000000D+00  0.000000D+00  0.100437D+01
     26  0.648327D+00  0.000000D+00  0.000000D+00  0.000000D+00  0.000000D+00
     27  0.000000D+00  0.648327D+00  0.000000D+00  0.000000D+00  0.000000D+00
     28  0.000000D+00  0.000000D+00  0.648327D+00  0.000000D+00  0.000000D+00
               26            27            28 
     26  0.100437D+01
     27  0.000000D+00  0.100437D+01
     28  0.000000D+00  0.000000D+00  0.100437D+01
 Entering OneElI...
 Calculate potential energy integrals
    NBasis =  28  MinDer = 0  MaxDer = 0
 Requested accuracy = 0.1000D-12
 Symmetry will be used
 PrmmSu-InSpLW:  IPartL=    0 NPrtUS=   36 NPrtUL=    1 DoSpLW=F IThBeg=    0 IThEnd=   35 NThAct=   36.
 PrSmSu:  IncTry=   512 NBBP=             72 NTPThr=   100 NPartT=   36 Incr=           1 LDynOK=F GPUOK=F.
 PrsmSu:  NPrtUS=  36 ThrOK=T IAlg=1 LenDen=           0 ISkipM=0 DoSpLW=F IThBeg=    0 IThEnd=   35.
 Prism:   IPart=     0 DynPar=F LinDyn=F Incr=           1.
 PRISM was handed   268429700 working-precision words and    36 shell-pairs
 PRISM was handed   268429700 working-precision words and    36 shell-pairs
 PRISM was handed   268429700 working-precision words and    36 shell-pairs
 PRISM was handed   268429700 working-precision words and    36 shell-pairs
 PRISM was handed   268429700 working-precision words and    36 shell-pairs
 PRISM was handed   268429700 working-precision words and    36 shell-pairs
 PRISM was handed   268429700 working-precision words and    36 shell-pairs
 PRISM was handed   268429700 working-precision words and    36 shell-pairs
 PRISM was handed   268429700 working-precision words and    36 shell-pairs
 PRISM was handed   268429700 working-precision words and    36 shell-pairs
 PRISM was handed   268429700 working-precision words and    36 shell-pairs
 PRISM was handed   268429700 working-precision words and    36 shell-pairs
 PRISM was handed   268429700 working-precision words and    36 shell-pairs
 PRISM was handed   268429700 working-precision words and    36 shell-pairs
 PRISM was handed   268429700 working-precision words and    36 shell-pairs
 PRISM was handed   268429700 working-precision words and    36 shell-pairs
 PRISM was handed   268429700 working-precision words and    36 shell-pairs
 PRISM was handed   268429700 working-precision words and    36 shell-pairs
 PRISM was handed   268429700 working-precision words and    36 shell-pairs
 PRISM was handed   268429700 working-precision words and    36 shell-pairs
 PRISM was handed   268429700 working-precision words and    36 shell-pairs
 PRISM was handed   268429700 working-precision words and    36 shell-pairs
 PRISM was handed   268429700 working-precision words and    36 shell-pairs
 PRISM was handed   268429700 working-precision words and    36 shell-pairs
 PRISM was handed   268429700 working-precision words and    36 shell-pairs
 PRISM was handed   268429700 working-precision words and    36 shell-pairs
 PRISM was handed   268429700 working-precision words and    36 shell-pairs
 PRISM was handed   268429700 working-precision words and    36 shell-pairs
 PRISM was handed   268429700 working-precision words and    36 shell-pairs
 PRISM was handed   268429700 working-precision words and    36 shell-pairs
 PRISM was handed   268429700 working-precision words and    36 shell-pairs
 PRISM was handed   268429700 working-precision words and    36 shell-pairs
 PRISM was handed   268429700 working-precision words and    36 shell-pairs
 PRISM was handed   268429700 working-precision words and    36 shell-pairs
 PRISM was handed   268429700 working-precision words and    36 shell-pairs
 PRISM was handed   268429700 working-precision words and    36 shell-pairs
 IPart= 28 NShTot=           0 NBatch=           0 AvBLen=         0.0
 IPart= 29 NShTot=           0 NBatch=           0 AvBLen=         0.0
 IPart= 26 NShTot=           0 NBatch=           0 AvBLen=         0.0
 IPart=  8 NShTot=           0 NBatch=           0 AvBLen=         0.0
 IPart= 13 NShTot=           0 NBatch=           0 AvBLen=         0.0
 IPart= 25 NShTot=           0 NBatch=           0 AvBLen=         0.0
 IPart= 16 NShTot=           0 NBatch=           0 AvBLen=         0.0
 IPart= 22 NShTot=           0 NBatch=           0 AvBLen=         0.0
 IPart= 23 NShTot=           0 NBatch=           0 AvBLen=         0.0
 IPart= 15 NShTot=           0 NBatch=           0 AvBLen=         0.0
 IPart= 32 NShTot=           0 NBatch=           0 AvBLen=         0.0
 IPart= 24 NShTot=           0 NBatch=           0 AvBLen=         0.0
 IPart=  9 NShTot=           0 NBatch=           0 AvBLen=         0.0
 IPart= 10 NShTot=           0 NBatch=           0 AvBLen=         0.0
 IPart= 34 NShTot=           0 NBatch=           0 AvBLen=         0.0
 IPart= 17 NShTot=           0 NBatch=           0 AvBLen=         0.0
 IPart= 35 NShTot=           0 NBatch=           0 AvBLen=         0.0
 IPart= 27 NShTot=           0 NBatch=           0 AvBLen=         0.0
 IPart= 12 NShTot=           0 NBatch=           0 AvBLen=         0.0
 IPart= 30 NShTot=           0 NBatch=           0 AvBLen=         0.0
 IPart= 33 NShTot=           0 NBatch=           0 AvBLen=         0.0
 IPart= 19 NShTot=           0 NBatch=           0 AvBLen=         0.0
 IPart= 11 NShTot=           0 NBatch=           0 AvBLen=         0.0
 IPart=  6 NShTot=           0 NBatch=           0 AvBLen=         0.0
 IPart=  3 NShTot=           0 NBatch=           0 AvBLen=         0.0
 IPart= 20 NShTot=           0 NBatch=           0 AvBLen=         0.0
 IPart= 14 NShTot=           0 NBatch=           0 AvBLen=         0.0
 IPart= 21 NShTot=           0 NBatch=           0 AvBLen=         0.0
 IPart=  7 NShTot=           0 NBatch=           0 AvBLen=         0.0
 IPart=  4 NShTot=           0 NBatch=           0 AvBLen=         0.0
 IPart=  5 NShTot=           0 NBatch=           0 AvBLen=         0.0
 IPart= 18 NShTot=           0 NBatch=           0 AvBLen=         0.0
 IPart= 31 NShTot=           0 NBatch=           0 AvBLen=         0.0
 IPart=  2 NShTot=           2 NBatch=           1 AvBLen=         2.0
 IPart=  1 NShTot=          14 NBatch=           7 AvBLen=         2.0
 IPart=  0 NShTot=          56 NBatch=          28 AvBLen=         2.0
 PrSmSu:  NxtVal=             37.
 ***** Potential Energy ***** 
                1             2             3             4             5 
      1  0.651772D+01
      2  0.151433D+00  0.476001D+03
      3 -0.288418D+00 -0.525884D+02  0.839558D+02
      4  0.000000D+00  0.000000D+00  0.000000D+00  0.981402D+02
      5  0.000000D+00  0.000000D+00  0.000000D+00  0.000000D+00  0.981402D+02
      6 -0.828191D-01 -0.164472D-02  0.100276D-01  0.000000D+00  0.000000D+00
      7 -0.620310D+00 -0.186039D+01  0.180042D+02  0.000000D+00  0.000000D+00
      8  0.000000D+00  0.000000D+00  0.000000D+00  0.168908D+02  0.000000D+00
      9  0.000000D+00  0.000000D+00  0.000000D+00  0.000000D+00  0.168908D+02
     10 -0.636380D+00 -0.903073D-04  0.586144D-02  0.000000D+00  0.000000D+00
     11 -0.185454D+01  0.174973D+01 -0.222974D+01  0.000000D+00  0.000000D+00
     12  0.000000D+00  0.000000D+00  0.000000D+00 -0.237513D+01  0.000000D+00
     13  0.000000D+00  0.000000D+00  0.000000D+00  0.000000D+00 -0.237513D+01
     14 -0.280222D+01  0.159217D-04 -0.708377D-03  0.000000D+00  0.000000D+00
     15  0.179218D+01  0.180600D+01 -0.333053D+01  0.000000D+00  0.000000D+00
     16  0.000000D+00  0.000000D+00  0.000000D+00  0.246313D+00  0.000000D+00
     17  0.000000D+00  0.000000D+00  0.000000D+00  0.000000D+00  0.246313D+00
     18 -0.209281D+01 -0.118884D-05  0.108047D-03  0.000000D+00  0.000000D+00
     19  0.223741D+00  0.486733D-05 -0.664950D-03  0.000000D+00  0.000000D+00
     20  0.000000D+00  0.000000D+00  0.000000D+00 -0.453281D-02  0.000000D+00
     21  0.000000D+00  0.000000D+00  0.000000D+00  0.000000D+00 -0.453281D-02
     22  0.000000D+00  0.000000D+00  0.000000D+00  0.000000D+00  0.000000D+00
     23  0.000000D+00  0.000000D+00  0.000000D+00  0.000000D+00  0.000000D+00
     24  0.159260D+01  0.000000D+00 -0.648902D-04  0.000000D+00  0.000000D+00
     25  0.000000D+00  0.000000D+00  0.000000D+00 -0.356924D-03  0.000000D+00
     26  0.000000D+00  0.000000D+00  0.000000D+00  0.000000D+00 -0.356924D-03
     27  0.000000D+00  0.000000D+00  0.000000D+00  0.000000D+00  0.000000D+00
     28  0.000000D+00  0.000000D+00  0.000000D+00  0.000000D+00  0.000000D+00
                6             7             8             9            10 
      6  0.981411D+02
      7  0.583927D-02  0.264562D+02
      8  0.000000D+00  0.000000D+00  0.250449D+02
      9  0.000000D+00  0.000000D+00  0.000000D+00  0.250449D+02
     10  0.168916D+02  0.336051D-01  0.000000D+00  0.000000D+00  0.250559D+02
     11 -0.263572D-03  0.254981D+01  0.000000D+00  0.000000D+00  0.194891D-01
     12  0.000000D+00  0.000000D+00  0.228579D+00  0.000000D+00  0.000000D+00
     13  0.000000D+00  0.000000D+00  0.000000D+00  0.228579D+00  0.000000D+00
     14 -0.237522D+01  0.807866D-02  0.000000D+00  0.000000D+00  0.236678D+00
     15 -0.860304D-03 -0.546432D+01  0.000000D+00  0.000000D+00 -0.168586D-01
     16  0.000000D+00  0.000000D+00  0.147625D+01  0.000000D+00  0.000000D+00
     17  0.000000D+00  0.000000D+00  0.000000D+00  0.147625D+01  0.000000D+00
     18  0.246332D+00  0.467906D-02  0.000000D+00  0.000000D+00  0.148014D+01
     19 -0.536171D-02 -0.696154D-02  0.000000D+00  0.000000D+00 -0.322191D-01
     20  0.000000D+00  0.000000D+00 -0.253340D-01  0.000000D+00  0.000000D+00
     21  0.000000D+00  0.000000D+00  0.000000D+00 -0.253340D-01  0.000000D+00
     22  0.000000D+00  0.000000D+00  0.000000D+00  0.000000D+00  0.000000D+00
     23  0.000000D+00  0.000000D+00  0.000000D+00  0.000000D+00  0.000000D+00
     24 -0.429708D-03 -0.718944D-02  0.000000D+00  0.000000D+00 -0.288995D-01
     25  0.000000D+00  0.000000D+00 -0.194822D-01  0.000000D+00  0.000000D+00
     26  0.000000D+00  0.000000D+00  0.000000D+00 -0.194822D-01  0.000000D+00
     27  0.000000D+00  0.000000D+00  0.000000D+00  0.000000D+00  0.000000D+00
     28  0.000000D+00  0.000000D+00  0.000000D+00  0.000000D+00  0.000000D+00
               11            12            13            14            15 
     11  0.804350D+01
     12  0.000000D+00  0.703824D+01
     13  0.000000D+00  0.000000D+00  0.703824D+01
     14  0.961862D-01  0.000000D+00  0.000000D+00  0.712183D+01
     15 -0.631285D+01  0.000000D+00  0.000000D+00 -0.895710D-01  0.649130D+01
     16  0.000000D+00  0.428672D+01  0.000000D+00  0.000000D+00  0.000000D+00
     17  0.000000D+00  0.000000D+00  0.428672D+01  0.000000D+00  0.000000D+00
     18  0.626331D-01  0.000000D+00  0.000000D+00  0.434787D+01 -0.761200D-01
     19 -0.396012D-02  0.000000D+00  0.000000D+00 -0.651100D-02  0.331642D-02
     20  0.000000D+00 -0.432756D-02  0.000000D+00  0.000000D+00  0.000000D+00
     21  0.000000D+00  0.000000D+00 -0.432756D-02  0.000000D+00  0.000000D+00
     22  0.000000D+00  0.000000D+00  0.000000D+00  0.000000D+00  0.000000D+00
     23  0.000000D+00  0.000000D+00  0.000000D+00  0.000000D+00  0.000000D+00
     24 -0.400121D-01  0.000000D+00  0.000000D+00 -0.809576D-01  0.300706D-01
     25  0.000000D+00 -0.410006D-01  0.000000D+00  0.000000D+00  0.000000D+00
     26  0.000000D+00  0.000000D+00 -0.410006D-01  0.000000D+00  0.000000D+00
     27  0.000000D+00  0.000000D+00  0.000000D+00  0.000000D+00  0.000000D+00
     28  0.000000D+00  0.000000D+00  0.000000D+00  0.000000D+00  0.000000D+00
               16            17            18            19            20 
     16  0.434561D+01
     17  0.000000D+00  0.434561D+01
     18  0.000000D+00  0.000000D+00  0.440468D+01
     19  0.000000D+00  0.000000D+00 -0.367166D-02  0.261694D+02
     20 -0.262945D-02  0.000000D+00  0.000000D+00  0.000000D+00  0.261663D+02
     21  0.000000D+00 -0.262945D-02  0.000000D+00  0.000000D+00  0.000000D+00
     22  0.000000D+00  0.000000D+00  0.000000D+00  0.000000D+00  0.000000D+00
     23  0.000000D+00  0.000000D+00  0.000000D+00  0.000000D+00  0.000000D+00
     24  0.000000D+00  0.000000D+00 -0.413926D-01  0.673217D+01  0.000000D+00
     25 -0.198771D-01  0.000000D+00  0.000000D+00  0.000000D+00  0.672894D+01
     26  0.000000D+00 -0.198771D-01  0.000000D+00  0.000000D+00  0.000000D+00
     27  0.000000D+00  0.000000D+00  0.000000D+00  0.000000D+00  0.000000D+00
     28  0.000000D+00  0.000000D+00  0.000000D+00  0.000000D+00  0.000000D+00
               21            22            23            24            25 
     21  0.261663D+02
     22  0.000000D+00  0.261597D+02
     23  0.000000D+00  0.000000D+00  0.261597D+02
     24  0.000000D+00  0.000000D+00  0.000000D+00  0.103054D+02
     25  0.000000D+00  0.000000D+00  0.000000D+00  0.000000D+00  0.102754D+02
     26  0.672894D+01  0.000000D+00  0.000000D+00  0.000000D+00  0.000000D+00
     27  0.000000D+00  0.672364D+01  0.000000D+00  0.000000D+00  0.000000D+00
     28  0.000000D+00  0.000000D+00  0.672364D+01  0.000000D+00  0.000000D+00
               26            27            28 
     26  0.102754D+02
     27  0.000000D+00  0.102482D+02
     28  0.000000D+00  0.000000D+00  0.102482D+02
 ****** Core Hamiltonian ****** 
                1             2             3             4             5 
      1 -0.575769D+01
      2 -0.151741D+00 -0.242133D+03
      3  0.290703D+00  0.654449D+02 -0.723041D+02
      4  0.000000D+00  0.000000D+00  0.000000D+00 -0.584059D+02
      5  0.000000D+00  0.000000D+00  0.000000D+00  0.000000D+00 -0.584059D+02
      6  0.831627D-01  0.164472D-02 -0.100276D-01  0.000000D+00  0.000000D+00
      7  0.632253D+00  0.316576D+01 -0.188907D+02  0.000000D+00  0.000000D+00
      8  0.000000D+00  0.000000D+00  0.000000D+00 -0.154772D+02  0.000000D+00
      9  0.000000D+00  0.000000D+00  0.000000D+00  0.000000D+00 -0.154772D+02
     10  0.643707D+00  0.903073D-04 -0.586144D-02  0.000000D+00  0.000000D+00
     11  0.183548D+01 -0.170280D+01  0.197898D+01  0.000000D+00  0.000000D+00
     12  0.000000D+00  0.000000D+00  0.000000D+00  0.204577D+01  0.000000D+00
     13  0.000000D+00  0.000000D+00  0.000000D+00  0.000000D+00  0.204577D+01
     14  0.272809D+01 -0.159217D-04  0.708377D-03  0.000000D+00  0.000000D+00
     15 -0.177667D+01 -0.180528D+01  0.332518D+01  0.000000D+00  0.000000D+00
     16  0.000000D+00  0.000000D+00  0.000000D+00 -0.245465D+00  0.000000D+00
     17  0.000000D+00  0.000000D+00  0.000000D+00  0.000000D+00 -0.245465D+00
     18  0.205224D+01  0.118884D-05 -0.108047D-03  0.000000D+00  0.000000D+00
     19 -0.226726D+00 -0.486733D-05  0.664950D-03  0.000000D+00  0.000000D+00
     20  0.000000D+00  0.000000D+00  0.000000D+00  0.453281D-02  0.000000D+00
     21  0.000000D+00  0.000000D+00  0.000000D+00  0.000000D+00  0.453281D-02
     22  0.000000D+00  0.000000D+00  0.000000D+00  0.000000D+00  0.000000D+00
     23  0.000000D+00  0.000000D+00  0.000000D+00  0.000000D+00  0.000000D+00
     24 -0.155522D+01  0.000000D+00  0.648902D-04  0.000000D+00  0.000000D+00
     25  0.000000D+00  0.000000D+00  0.000000D+00  0.356924D-03  0.000000D+00
     26  0.000000D+00  0.000000D+00  0.000000D+00  0.000000D+00  0.356924D-03
     27  0.000000D+00  0.000000D+00  0.000000D+00  0.000000D+00  0.000000D+00
     28  0.000000D+00  0.000000D+00  0.000000D+00  0.000000D+00  0.000000D+00
                6             7             8             9            10 
      6 -0.584067D+02
      7 -0.583927D-02 -0.250699D+02
      8  0.000000D+00  0.000000D+00 -0.224015D+02
      9  0.000000D+00  0.000000D+00  0.000000D+00 -0.224015D+02
     10 -0.154780D+02 -0.336051D-01  0.000000D+00  0.000000D+00 -0.224124D+02
     11  0.263572D-03 -0.275197D+01  0.000000D+00  0.000000D+00 -0.194891D-01
     12  0.000000D+00  0.000000D+00 -0.610902D+00  0.000000D+00  0.000000D+00
     13  0.000000D+00  0.000000D+00  0.000000D+00 -0.610902D+00  0.000000D+00
     14  0.204586D+01 -0.807866D-02  0.000000D+00  0.000000D+00 -0.619001D+00
     15  0.860304D-03  0.543930D+01  0.000000D+00  0.000000D+00  0.168586D-01
     16  0.000000D+00  0.000000D+00 -0.146047D+01  0.000000D+00  0.000000D+00
     17  0.000000D+00  0.000000D+00  0.000000D+00 -0.146047D+01  0.000000D+00
     18 -0.245484D+00 -0.467906D-02  0.000000D+00  0.000000D+00 -0.146436D+01
     19  0.536171D-02  0.696154D-02  0.000000D+00  0.000000D+00  0.322191D-01
     20  0.000000D+00  0.000000D+00  0.253340D-01  0.000000D+00  0.000000D+00
     21  0.000000D+00  0.000000D+00  0.000000D+00  0.253340D-01  0.000000D+00
     22  0.000000D+00  0.000000D+00  0.000000D+00  0.000000D+00  0.000000D+00
     23  0.000000D+00  0.000000D+00  0.000000D+00  0.000000D+00  0.000000D+00
     24  0.429708D-03  0.718944D-02  0.000000D+00  0.000000D+00  0.288995D-01
     25  0.000000D+00  0.000000D+00  0.194822D-01  0.000000D+00  0.000000D+00
     26  0.000000D+00  0.000000D+00  0.000000D+00  0.194822D-01  0.000000D+00
     27  0.000000D+00  0.000000D+00  0.000000D+00  0.000000D+00  0.000000D+00
     28  0.000000D+00  0.000000D+00  0.000000D+00  0.000000D+00  0.000000D+00
               11            12            13            14            15 
     11 -0.786402D+01
     12  0.000000D+00 -0.673666D+01
     13  0.000000D+00  0.000000D+00 -0.673666D+01
     14 -0.961862D-01  0.000000D+00  0.000000D+00 -0.682025D+01
     15  0.625504D+01  0.000000D+00  0.000000D+00  0.895710D-01 -0.644325D+01
     16  0.000000D+00 -0.419993D+01  0.000000D+00  0.000000D+00  0.000000D+00
     17  0.000000D+00  0.000000D+00 -0.419993D+01  0.000000D+00  0.000000D+00
     18 -0.626331D-01  0.000000D+00  0.000000D+00 -0.426109D+01  0.761200D-01
     19  0.396012D-02  0.000000D+00  0.000000D+00  0.651100D-02 -0.331642D-02
     20  0.000000D+00  0.432756D-02  0.000000D+00  0.000000D+00  0.000000D+00
     21  0.000000D+00  0.000000D+00  0.432756D-02  0.000000D+00  0.000000D+00
     22  0.000000D+00  0.000000D+00  0.000000D+00  0.000000D+00  0.000000D+00
     23  0.000000D+00  0.000000D+00  0.000000D+00  0.000000D+00  0.000000D+00
     24  0.400121D-01  0.000000D+00  0.000000D+00  0.809576D-01 -0.300706D-01
     25  0.000000D+00  0.410006D-01  0.000000D+00  0.000000D+00  0.000000D+00
     26  0.000000D+00  0.000000D+00  0.410006D-01  0.000000D+00  0.000000D+00
     27  0.000000D+00  0.000000D+00  0.000000D+00  0.000000D+00  0.000000D+00
     28  0.000000D+00  0.000000D+00  0.000000D+00  0.000000D+00  0.000000D+00
               16            17            18            19            20 
     16 -0.426552D+01
     17  0.000000D+00 -0.426552D+01
     18  0.000000D+00  0.000000D+00 -0.432459D+01
     19  0.000000D+00  0.000000D+00  0.367166D-02 -0.198556D+02
     20  0.262945D-02  0.000000D+00  0.000000D+00  0.000000D+00 -0.198525D+02
     21  0.000000D+00  0.262945D-02  0.000000D+00  0.000000D+00  0.000000D+00
     22  0.000000D+00  0.000000D+00  0.000000D+00  0.000000D+00  0.000000D+00
     23  0.000000D+00  0.000000D+00  0.000000D+00  0.000000D+00  0.000000D+00
     24  0.000000D+00  0.000000D+00  0.413926D-01 -0.608385D+01  0.000000D+00
     25  0.198771D-01  0.000000D+00  0.000000D+00  0.000000D+00 -0.608061D+01
     26  0.000000D+00  0.198771D-01  0.000000D+00  0.000000D+00  0.000000D+00
     27  0.000000D+00  0.000000D+00  0.000000D+00  0.000000D+00  0.000000D+00
     28  0.000000D+00  0.000000D+00  0.000000D+00  0.000000D+00  0.000000D+00
               21            22            23            24            25 
     21 -0.198525D+02
     22  0.000000D+00 -0.198459D+02
     23  0.000000D+00  0.000000D+00 -0.198459D+02
     24  0.000000D+00  0.000000D+00  0.000000D+00 -0.930108D+01
     25  0.000000D+00  0.000000D+00  0.000000D+00  0.000000D+00 -0.927103D+01
     26 -0.608061D+01  0.000000D+00  0.000000D+00  0.000000D+00  0.000000D+00
     27  0.000000D+00 -0.607531D+01  0.000000D+00  0.000000D+00  0.000000D+00
     28  0.000000D+00  0.000000D+00 -0.607531D+01  0.000000D+00  0.000000D+00
               26            27            28 
     26 -0.927103D+01
     27  0.000000D+00 -0.924382D+01
     28  0.000000D+00  0.000000D+00 -0.924382D+01
 SVDSVc IOpt=   1 NormSV=T IR=1
 SVDSVc V= 2.25D+00 1.92D+00 1.43D+00 1.40D+00 1.39D+00 1.31D+00 9.48D-01 7.16D-01 6.57D-01 5.96D-01
 SVDSVc V= 5.34D-01 4.75D-01 2.41D-01 1.30D-01
 SVDSVc IOpt=   1 NormSV=T IR=2
 SVDSVc V= 1.40D+00 5.96D-01
 SVDSVc IOpt=   1 NormSV=T IR=3
 SVDSVc V= 1.79D+00 1.40D+00 1.30D+00 6.62D-01 5.96D-01 2.47D-01
 SVDSVc IOpt=   1 NormSV=T IR=4
 SVDSVc V= 1.79D+00 1.40D+00 1.30D+00 6.62D-01 5.96D-01 2.47D-01
 TstOVc:  Largest diagonal error= 2.33D-15 IB=1 I=    5.
 TstOVc:  Largest same sym error= 4.38D-15 IB=1 I=    9 J=    4.
 TstOVc:  Largest diff sym error= 0.00D+00 IB=0 JB=0 I=    0 J=    0.
 Orthogonalized basis functions: 
                 1             2             3             4             5 
      1   0.306023D+00 -0.124234D+00  0.104554D+00  0.000000D+00  0.228723D-01
      2   0.134665D-01  0.314654D-01 -0.148326D+00  0.000000D+00 -0.393903D+00
      3  -0.532465D-01 -0.961532D-01  0.222521D+00  0.000000D+00  0.549634D+00
      4   0.000000D+00  0.000000D+00  0.000000D+00  0.000000D+00  0.000000D+00
      5   0.000000D+00  0.000000D+00  0.000000D+00  0.000000D+00  0.000000D+00
      6  -0.947038D-02  0.242351D-01  0.581533D-01  0.000000D+00  0.163216D-01
      7  -0.146410D+00 -0.199839D+00  0.151251D+00  0.000000D+00  0.308106D+00
      8   0.000000D+00  0.000000D+00  0.000000D+00  0.000000D+00  0.000000D+00
      9   0.000000D+00  0.000000D+00  0.000000D+00  0.000000D+00  0.000000D+00
     10  -0.642779D-01  0.108564D+00  0.874228D-01  0.000000D+00  0.219561D-01
     11  -0.304278D+00 -0.305312D+00 -0.396939D-01  0.000000D+00 -0.192190D+00
     12   0.000000D+00  0.000000D+00  0.000000D+00  0.000000D+00  0.000000D+00
     13   0.000000D+00  0.000000D+00  0.000000D+00  0.000000D+00  0.000000D+00
     14  -0.259249D+00  0.355411D+00  0.936305D-01  0.000000D+00  0.177686D-01
     15   0.311898D+00  0.315422D+00  0.179763D-01  0.000000D+00  0.137618D+00
     16   0.000000D+00  0.000000D+00  0.000000D+00  0.000000D+00  0.000000D+00
     17   0.000000D+00  0.000000D+00  0.000000D+00  0.000000D+00  0.000000D+00
     18  -0.247905D+00  0.348737D+00  0.994048D-01  0.000000D+00  0.191277D-01
     19   0.217252D-01 -0.170217D-01  0.519768D+00  0.000000D+00 -0.234439D+00
     20   0.000000D+00  0.000000D+00  0.000000D+00  0.000000D+00  0.000000D+00
     21   0.000000D+00  0.000000D+00  0.000000D+00  0.000000D+00  0.000000D+00
     22   0.000000D+00  0.000000D+00  0.000000D+00  0.596714D+00  0.000000D+00
     23   0.000000D+00  0.000000D+00  0.000000D+00  0.000000D+00  0.000000D+00
     24   0.554656D-01 -0.340983D-01  0.542761D+00  0.000000D+00 -0.229210D+00
     25   0.000000D+00  0.000000D+00  0.000000D+00  0.000000D+00  0.000000D+00
     26   0.000000D+00  0.000000D+00  0.000000D+00  0.000000D+00  0.000000D+00
     27   0.000000D+00  0.000000D+00  0.000000D+00  0.596714D+00  0.000000D+00
     28   0.000000D+00  0.000000D+00  0.000000D+00  0.000000D+00  0.000000D+00
                 6             7             8             9            10 
      1   0.511446D-01  0.136302D+00  0.675036D+00 -0.182846D+00  0.000000D+00
      2   0.351110D-01  0.790297D+00 -0.154155D+00  0.408398D-01  0.000000D+00
      3  -0.386522D-01  0.121566D+00 -0.157454D+00  0.513289D-01  0.000000D+00
      4   0.000000D+00  0.000000D+00  0.000000D+00  0.000000D+00  0.000000D+00
      5   0.000000D+00  0.000000D+00  0.000000D+00  0.000000D+00  0.000000D+00
      6   0.628636D+00 -0.289278D-01 -0.330696D+00 -0.771669D+00  0.000000D+00
      7  -0.711767D-02  0.593678D+00  0.748976D-02 -0.186194D-01  0.000000D+00
      8   0.000000D+00  0.000000D+00  0.000000D+00  0.000000D+00  0.000000D+00
      9   0.000000D+00  0.000000D+00  0.000000D+00  0.000000D+00  0.000000D+00
     10   0.583739D+00  0.118304D-01  0.314345D+00  0.812143D+00  0.000000D+00
     11   0.304731D-01 -0.140475D+00  0.172304D+00 -0.416115D-01  0.000000D+00
     12   0.000000D+00  0.000000D+00  0.000000D+00  0.000000D+00  0.000000D+00
     13   0.000000D+00  0.000000D+00  0.000000D+00  0.000000D+00  0.000000D+00
     14  -0.961831D-01  0.586551D-01  0.191596D+00 -0.736020D-01  0.000000D+00
     15  -0.264269D-01  0.104107D+00 -0.140954D+00  0.324504D-01  0.000000D+00
     16   0.000000D+00  0.000000D+00  0.000000D+00  0.000000D+00  0.000000D+00
     17   0.000000D+00  0.000000D+00  0.000000D+00  0.000000D+00  0.000000D+00
     18  -0.843225D-01  0.694269D-01  0.233102D+00 -0.264890D+00  0.000000D+00
     19  -0.622164D-01 -0.671654D-01 -0.615030D+00  0.299925D+00  0.000000D+00
     20   0.000000D+00  0.000000D+00  0.000000D+00  0.000000D+00  0.000000D+00
     21   0.000000D+00  0.000000D+00  0.000000D+00  0.000000D+00  0.000000D+00
     22   0.000000D+00  0.000000D+00  0.000000D+00  0.000000D+00  0.916103D+00
     23   0.000000D+00  0.000000D+00  0.000000D+00  0.000000D+00  0.000000D+00
     24  -0.490840D-01  0.339604D-02  0.405605D+00 -0.247732D+00  0.000000D+00
     25   0.000000D+00  0.000000D+00  0.000000D+00  0.000000D+00  0.000000D+00
     26   0.000000D+00  0.000000D+00  0.000000D+00  0.000000D+00  0.000000D+00
     27   0.000000D+00  0.000000D+00  0.000000D+00  0.000000D+00 -0.916103D+00
     28   0.000000D+00  0.000000D+00  0.000000D+00  0.000000D+00  0.000000D+00
                11            12            13            14            15 
      1  -0.251275D+00  0.826339D+00  0.250973D+00 -0.462261D-01  0.000000D+00
      2   0.478112D+00  0.183186D+00  0.414366D-02  0.227231D-01  0.000000D+00
      3   0.842774D+00  0.370552D+00  0.137367D-01  0.173162D+00  0.000000D+00
      4   0.000000D+00  0.000000D+00  0.000000D+00  0.000000D+00  0.000000D+00
      5   0.000000D+00  0.000000D+00  0.000000D+00  0.000000D+00  0.000000D+00
      6  -0.285208D-01  0.486217D-01  0.151960D+00 -0.199679D-02  0.000000D+00
      7  -0.744800D+00 -0.406438D+00 -0.225648D-01  0.593206D-01  0.000000D+00
      8   0.000000D+00  0.000000D+00  0.000000D+00  0.000000D+00  0.000000D+00
      9   0.000000D+00  0.000000D+00  0.000000D+00  0.000000D+00  0.000000D+00
     10   0.351256D-01 -0.646046D-01 -0.139653D+00  0.185539D-02  0.000000D+00
     11   0.465318D-01  0.231114D+00  0.582807D-01  0.194172D+01  0.000000D+00
     12   0.000000D+00  0.000000D+00  0.000000D+00  0.000000D+00  0.000000D+00
     13   0.000000D+00  0.000000D+00  0.000000D+00  0.000000D+00  0.000000D+00
     14  -0.499768D-01  0.124512D+00  0.149498D+01 -0.249043D-01  0.000000D+00
     15  -0.112715D+00 -0.222873D+00 -0.306309D-01  0.197556D+01  0.000000D+00
     16   0.000000D+00  0.000000D+00  0.000000D+00  0.000000D+00  0.000000D+00
     17   0.000000D+00  0.000000D+00  0.000000D+00  0.000000D+00  0.000000D+00
     18  -0.119613D+00  0.396288D+00 -0.133860D+01  0.227418D-02  0.000000D+00
     19  -0.342606D+00  0.531295D+00  0.415232D-01 -0.517609D-02  0.000000D+00
     20   0.000000D+00  0.000000D+00  0.000000D+00  0.000000D+00  0.000000D+00
     21   0.000000D+00  0.000000D+00  0.000000D+00  0.000000D+00  0.000000D+00
     22   0.000000D+00  0.000000D+00  0.000000D+00  0.000000D+00  0.000000D+00
     23   0.000000D+00  0.000000D+00  0.000000D+00  0.000000D+00  0.596714D+00
     24   0.404250D+00 -0.721142D+00 -0.875686D-01  0.129155D-01  0.000000D+00
     25   0.000000D+00  0.000000D+00  0.000000D+00  0.000000D+00  0.000000D+00
     26   0.000000D+00  0.000000D+00  0.000000D+00  0.000000D+00  0.000000D+00
     27   0.000000D+00  0.000000D+00  0.000000D+00  0.000000D+00  0.000000D+00
     28   0.000000D+00  0.000000D+00  0.000000D+00  0.000000D+00  0.596714D+00
                16            17            18            19            20 
      1   0.000000D+00  0.000000D+00  0.000000D+00  0.000000D+00  0.000000D+00
      2   0.000000D+00  0.000000D+00  0.000000D+00  0.000000D+00  0.000000D+00
      3   0.000000D+00  0.000000D+00  0.000000D+00  0.000000D+00  0.000000D+00
      4   0.000000D+00  0.496550D-01  0.000000D+00  0.634889D+00 -0.838847D+00
      5   0.000000D+00  0.000000D+00  0.000000D+00  0.000000D+00  0.000000D+00
      6   0.000000D+00  0.000000D+00  0.000000D+00  0.000000D+00  0.000000D+00
      7   0.000000D+00  0.000000D+00  0.000000D+00  0.000000D+00  0.000000D+00
      8   0.000000D+00  0.179002D+00  0.000000D+00  0.575229D+00  0.875786D+00
      9   0.000000D+00  0.000000D+00  0.000000D+00  0.000000D+00  0.000000D+00
     10   0.000000D+00  0.000000D+00  0.000000D+00  0.000000D+00  0.000000D+00
     11   0.000000D+00  0.000000D+00  0.000000D+00  0.000000D+00  0.000000D+00
     12   0.000000D+00  0.513298D+00  0.000000D+00 -0.135910D+00 -0.267878D-01
     13   0.000000D+00  0.000000D+00  0.000000D+00  0.000000D+00  0.000000D+00
     14   0.000000D+00  0.000000D+00  0.000000D+00  0.000000D+00  0.000000D+00
     15   0.000000D+00  0.000000D+00  0.000000D+00  0.000000D+00  0.000000D+00
     16   0.000000D+00  0.510710D+00  0.000000D+00 -0.126746D+00 -0.198477D+00
     17   0.000000D+00  0.000000D+00  0.000000D+00  0.000000D+00  0.000000D+00
     18   0.000000D+00  0.000000D+00  0.000000D+00  0.000000D+00  0.000000D+00
     19   0.000000D+00  0.000000D+00  0.000000D+00  0.000000D+00  0.000000D+00
     20   0.000000D+00  0.000000D+00  0.596714D+00  0.000000D+00  0.000000D+00
     21   0.000000D+00  0.000000D+00  0.000000D+00  0.000000D+00  0.000000D+00
     22   0.000000D+00  0.000000D+00  0.000000D+00  0.000000D+00  0.000000D+00
     23   0.916103D+00  0.000000D+00  0.000000D+00  0.000000D+00  0.000000D+00
     24   0.000000D+00  0.000000D+00  0.000000D+00  0.000000D+00  0.000000D+00
     25   0.000000D+00  0.000000D+00  0.596714D+00  0.000000D+00  0.000000D+00
     26   0.000000D+00  0.000000D+00  0.000000D+00  0.000000D+00  0.000000D+00
     27   0.000000D+00  0.000000D+00  0.000000D+00  0.000000D+00  0.000000D+00
     28  -0.916103D+00  0.000000D+00  0.000000D+00  0.000000D+00  0.000000D+00
                21            22            23            24            25 
      1   0.000000D+00  0.000000D+00  0.000000D+00  0.000000D+00  0.000000D+00
      2   0.000000D+00  0.000000D+00  0.000000D+00  0.000000D+00  0.000000D+00
      3   0.000000D+00  0.000000D+00  0.000000D+00  0.000000D+00  0.000000D+00
      4   0.000000D+00  0.146699D+00  0.000000D+00  0.000000D+00  0.000000D+00
      5   0.000000D+00  0.000000D+00  0.496550D-01  0.000000D+00  0.634889D+00
      6   0.000000D+00  0.000000D+00  0.000000D+00  0.000000D+00  0.000000D+00
      7   0.000000D+00  0.000000D+00  0.000000D+00  0.000000D+00  0.000000D+00
      8   0.000000D+00 -0.133591D+00  0.000000D+00  0.000000D+00  0.000000D+00
      9   0.000000D+00  0.000000D+00  0.179002D+00  0.000000D+00  0.575229D+00
     10   0.000000D+00  0.000000D+00  0.000000D+00  0.000000D+00  0.000000D+00
     11   0.000000D+00  0.000000D+00  0.000000D+00  0.000000D+00  0.000000D+00
     12   0.000000D+00  0.142747D+01  0.000000D+00  0.000000D+00  0.000000D+00
     13   0.000000D+00  0.000000D+00  0.513298D+00  0.000000D+00 -0.135910D+00
     14   0.000000D+00  0.000000D+00  0.000000D+00  0.000000D+00  0.000000D+00
     15   0.000000D+00  0.000000D+00  0.000000D+00  0.000000D+00  0.000000D+00
     16   0.000000D+00 -0.140214D+01  0.000000D+00  0.000000D+00  0.000000D+00
     17   0.000000D+00  0.000000D+00  0.510710D+00  0.000000D+00 -0.126746D+00
     18   0.000000D+00  0.000000D+00  0.000000D+00  0.000000D+00  0.000000D+00
     19   0.000000D+00  0.000000D+00  0.000000D+00  0.000000D+00  0.000000D+00
     20   0.916103D+00  0.000000D+00  0.000000D+00  0.000000D+00  0.000000D+00
     21   0.000000D+00  0.000000D+00  0.000000D+00  0.596714D+00  0.000000D+00
     22   0.000000D+00  0.000000D+00  0.000000D+00  0.000000D+00  0.000000D+00
     23   0.000000D+00  0.000000D+00  0.000000D+00  0.000000D+00  0.000000D+00
     24   0.000000D+00  0.000000D+00  0.000000D+00  0.000000D+00  0.000000D+00
     25  -0.916103D+00  0.000000D+00  0.000000D+00  0.000000D+00  0.000000D+00
     26   0.000000D+00  0.000000D+00  0.000000D+00  0.596714D+00  0.000000D+00
     27   0.000000D+00  0.000000D+00  0.000000D+00  0.000000D+00  0.000000D+00
     28   0.000000D+00  0.000000D+00  0.000000D+00  0.000000D+00  0.000000D+00
                26            27            28 
      1   0.000000D+00  0.000000D+00  0.000000D+00
      2   0.000000D+00  0.000000D+00  0.000000D+00
      3   0.000000D+00  0.000000D+00  0.000000D+00
      4   0.000000D+00  0.000000D+00  0.000000D+00
      5  -0.838847D+00  0.000000D+00  0.146699D+00
      6   0.000000D+00  0.000000D+00  0.000000D+00
      7   0.000000D+00  0.000000D+00  0.000000D+00
      8   0.000000D+00  0.000000D+00  0.000000D+00
      9   0.875786D+00  0.000000D+00 -0.133591D+00
     10   0.000000D+00  0.000000D+00  0.000000D+00
     11   0.000000D+00  0.000000D+00  0.000000D+00
     12   0.000000D+00  0.000000D+00  0.000000D+00
     13  -0.267878D-01  0.000000D+00  0.142747D+01
     14   0.000000D+00  0.000000D+00  0.000000D+00
     15   0.000000D+00  0.000000D+00  0.000000D+00
     16   0.000000D+00  0.000000D+00  0.000000D+00
     17  -0.198477D+00  0.000000D+00 -0.140214D+01
     18   0.000000D+00  0.000000D+00  0.000000D+00
     19   0.000000D+00  0.000000D+00  0.000000D+00
     20   0.000000D+00  0.000000D+00  0.000000D+00
     21   0.000000D+00  0.916103D+00  0.000000D+00
     22   0.000000D+00  0.000000D+00  0.000000D+00
     23   0.000000D+00  0.000000D+00  0.000000D+00
     24   0.000000D+00  0.000000D+00  0.000000D+00
     25   0.000000D+00  0.000000D+00  0.000000D+00
     26   0.000000D+00 -0.916103D+00  0.000000D+00
     27   0.000000D+00  0.000000D+00  0.000000D+00
     28   0.000000D+00  0.000000D+00  0.000000D+00
 NBasis=    28 RedAO= T EigKep=  1.30D-01  NBF=    14     2     6     6
 NBsUse=    28 1.00D-06 EigRej= -1.00D+00 NBFU=    14     2     6     6
 Leave Link  302 at Mon Mar 28 12:47:52 2022, MaxMem=  9663676416 cpu:               5.3 elap:               0.2
 (Enter /nopt/nrel/apps/gaussian/g16C_1/g16/l303.exe)
 DipDrv will not compute anything.
 Fermi contact integrals: 
                 1             2 
      1   0.628247D+00  0.451440D-02
      2   0.000000D+00  0.554361D+02
      3   0.000000D+00 -0.784630D-01
      4   0.000000D+00  0.000000D+00
      5   0.000000D+00  0.000000D+00
      6   0.000000D+00  0.000000D+00
      7  -0.221521D-03 -0.119954D-01
      8   0.000000D+00  0.000000D+00
      9   0.000000D+00  0.000000D+00
     10  -0.101908D-02  0.000000D+00
     11  -0.302158D-01  0.536701D-01
     12   0.000000D+00  0.000000D+00
     13   0.000000D+00  0.000000D+00
     14  -0.621351D-01  0.000000D+00
     15   0.310217D-01  0.539683D-01
     16   0.000000D+00  0.000000D+00
     17   0.000000D+00  0.000000D+00
     18  -0.461676D-01  0.000000D+00
     19   0.000000D+00  0.000000D+00
     20   0.000000D+00  0.000000D+00
     21   0.000000D+00  0.000000D+00
     22   0.000000D+00  0.000000D+00
     23   0.000000D+00  0.000000D+00
     24   0.224499D-01  0.000000D+00
     25   0.000000D+00  0.000000D+00
     26   0.000000D+00  0.000000D+00
     27   0.000000D+00  0.000000D+00
     28   0.000000D+00  0.000000D+00
 Leave Link  303 at Mon Mar 28 12:47:52 2022, MaxMem=  9663676416 cpu:               0.8 elap:               0.0
 (Enter /nopt/nrel/apps/gaussian/g16C_1/g16/l401.exe)
 ExpMin= 3.20D-02 ExpMax= 4.32D+04 ExpMxC= 6.48D+03 IAcc=3 IRadAn=         5 AccDes= 0.00D+00
 Harris functional with IExCor=  205 and IRadAn=       5 diagonalized for initial guess.
 HarFok:  IExCor=  205 AccDes= 0.00D+00 IRadAn=         5 IDoV= 1 UseB2=F ITyADJ=14
 ICtDFT=  3500011 ScaDFX=  1.000000  1.000000  1.000000  1.000000
 FoFCou: FMM=F IPFlag=           0 FMFlag=      100000 FMFlg1=           0
         NFxFlg=           0 DoJE=T BraDBF=F KetDBF=T FulRan=T
         wScrn=  0.000000 ICntrl=       500 IOpCl=  0 I1Cent=   200000004 NGrid=           0
         NMat0=    1 NMatS0=      1 NMatT0=    0 NMatD0=    1 NMtDS0=    0 NMtDT0=    0
 Petite list used in FoFCou.
 Harris En= -847.997225154200    
 JPrj=0 DoOrth=F DoCkMO=F.
 Initial guess orbital symmetries:
 Alpha Orbitals:
       Occupied  (SG) (SG) (SG) (PI) (PI) (SG) (SG) (PI) (PI) (SG)
                 (SG) (PI) (PI) (DLTA)
       Virtual   (DLTA) (SG) (PI) (PI) (SG) (SG) (PI) (PI) (SG)
                 (PI) (PI) (DLTA) (DLTA) (SG)
 Beta  Orbitals:
       Occupied  (SG) (SG) (SG) (PI) (PI) (SG) (SG) (PI) (PI)
       Virtual   (SG) (SG) (PI) (PI) (DLTA) (DLTA) (SG) (PI) (PI)
                 (SG) (SG) (PI) (PI) (SG) (PI) (PI) (DLTA) (DLTA)
                 (SG)
 Initial guess <Sx>= 0.0000 <Sy>= 0.0000 <Sz>= 2.5000 <S**2>= 8.7500 S= 2.5000
 Leave Link  401 at Mon Mar 28 12:47:53 2022, MaxMem=  9663676416 cpu:               5.2 elap:               0.2
 (Enter /nopt/nrel/apps/gaussian/g16C_1/g16/l502.exe)
 Keep R1 and R2 ints in memory in symmetry-blocked form, NReq=7500254.
 FoFCou: FMM=F IPFlag=           0 FMFlag=           0 FMFlg1=           0
         NFxFlg=           0 DoJE=F BraDBF=F KetDBF=F FulRan=T
         wScrn=  0.000000 ICntrl=       600 IOpCl=  0 I1Cent=           0 NGrid=           0
         NMat0=    1 NMatS0=    406 NMatT0=    0 NMatD0=    1 NMtDS0=    0 NMtDT0=    0
 Petite list used in FoFCou.
 UHF open shell SCF:
 Using DIIS extrapolation, IDIIS=  1040.
[...]
 IDIUse=1 WtCom= 1.00D+00 WtEn= 0.00D+00
 Coeff-Com:  0.375D-06-0.542D-06 0.113D-05-0.846D-05 0.270D-04-0.414D-04
 Coeff-Com: -0.209D-03 0.389D-03 0.476D-03-0.268D-02 0.102D-01-0.402D-01
 Coeff-Com:  0.175D+00-0.683D+00 0.154D+01
 Coeff:      0.375D-06-0.542D-06 0.113D-05-0.846D-05 0.270D-04-0.414D-04
 Coeff:     -0.209D-03 0.389D-03 0.476D-03-0.268D-02 0.102D-01-0.402D-01
 Coeff:      0.175D+00-0.683D+00 0.154D+01
 Gap=     0.203 Goal=   None    Shift=    0.000
 Gap=     1.463 Goal=   None    Shift=    0.000
 RMSDP=1.11D-08 MaxDP=2.71D-07 DE=-7.96D-13 OVMax= 3.48D-09

 Cycle  16  Pass 1  IDiag  1:
 E= -848.738687340780     Delta-E=        0.000000000001 Rises=F Damp=F
 DIIS: error= 1.82D-09 at cycle  16 NSaved=  16.
 NSaved=16 IEnMin=15 EnMin= -848.738687340781     IErMin=16 ErrMin= 1.82D-09
 ErrMax= 1.82D-09  0.00D+00 EMaxC= 1.00D-01 BMatC= 6.08D-17 BMatP= 2.78D-15
 IDIUse=1 WtCom= 1.00D+00 WtEn= 0.00D+00
 Large coefficients: NSaved= 16 BigCof=    0.00 CofMax=   10.00 Det=-1.17D-16
 Inversion failed.  Reducing to 15 matrices.
 Coeff-Com: -0.588D-08 0.366D-07 0.857D-06-0.410D-05 0.101D-04 0.127D-04
 Coeff-Com: -0.417D-04-0.478D-04 0.284D-03-0.115D-02 0.523D-02-0.229D-01
 Coeff-Com:  0.112D+00-0.384D+00 0.129D+01
 Coeff:     -0.588D-08 0.366D-07 0.857D-06-0.410D-05 0.101D-04 0.127D-04
 Coeff:     -0.417D-04-0.478D-04 0.284D-03-0.115D-02 0.523D-02-0.229D-01
 Coeff:      0.112D+00-0.384D+00 0.129D+01
 Gap=     0.203 Goal=   None    Shift=    0.000
 Gap=     1.463 Goal=   None    Shift=    0.000
 RMSDP=7.12D-10 MaxDP=8.42D-09 DE= 9.09D-13 OVMax= 8.50D-10

 SCF Done:  E(UHF) =  -848.738687341     A.U. after   16 cycles
            NFock= 16  Conv=0.71D-09     -V/T= 1.9989
 <Sx>= 0.0000 <Sy>= 0.0000 <Sz>= 2.5000 <S**2>= 8.7502 S= 2.5000
 <L.S>= 0.000000000000E+00
 KE= 8.496863530377D+02 PE=-2.028196731371D+03 EE= 3.244799188838D+02
 Annihilation of the first spin contaminant:
 S**2 before annihilation     8.7502,   after     8.7500
 Leave Link  502 at Mon Mar 28 12:47:53 2022, MaxMem=  9663676416 cpu:               6.8 elap:               0.2
 (Enter /nopt/nrel/apps/gaussian/g16C_1/g16/l801.exe)
 Windowed orbitals will be sorted by symmetry type.
 ExpMin= 3.20D-02 ExpMax= 4.32D+04 ExpMxC= 6.48D+03 IAcc=3 IRadAn=         5 AccDes= 0.00D+00
 HarFok:  IExCor=  205 AccDes= 0.00D+00 IRadAn=         5 IDoV=-2 UseB2=F ITyADJ=14
 ICtDFT= 12500011 ScaDFX=  1.000000  1.000000  1.000000  1.000000
 Largest valence mixing into a core orbital is  1.70D-03
 Largest core mixing into a valence orbital is  6.89D-04
 Range of M.O.s used for correlation:    10    28
 NBasis=    28 NAE=    14 NBE=     9 NFC=     9 NFV=     0
 NROrb=     19 NOA=     5 NOB=     0 NVA=    14 NVB=    19
 Leave Link  801 at Mon Mar 28 12:47:53 2022, MaxMem=  9663676416 cpu:               1.8 elap:               0.1
 (Enter /nopt/nrel/apps/gaussian/g16C_1/g16/l804.exe)
 Open-shell transformation, MDV=  9663676416 ITran=4 ISComp=2.
 Unit  1 TFree=         51647 TCopy=        128016.
 Semi-Direct transformation.
 ModeAB=           2 MOrb=             5 LenV=    9663489710
 LASXX=         3330 LTotXX=        3330 LenRXX=        3330
 LTotAB=        4378 MaxLAS=       44175 LenRXY=       44175
 NonZer=       49305 LenScr=      785920 LnRSAI=           0
 LnScr1=           0 LExtra=      232387 Total=      1065812
 MaxDsk= 34359738368 SrtSym=           F ITran=            4
 DoSDTr:  NPSUse= 36
 JobTyp=1 Pass  1:  I=   1 to   5.
 (rs|ai) integrals will be sorted in core.
 Complete sort for first half transformation.
 First half transformation complete.
 Complete sort for second half transformation.
 Second half transformation complete.
 Spin components of T(2) and E(2):
     alpha-alpha T2 =       0.4571843943D-02 E2=     -0.1084720488D-01
     alpha-beta  T2 =       0.0000000000D+00 E2=      0.0000000000D+00
     beta-beta   T2 =       0.0000000000D+00 E2=      0.0000000000D+00
 ANorm=    0.1002283315D+01
 E2 =    -0.1084720488D-01 EUMP2 =    -0.84874953454566D+03
 Leave Link  804 at Mon Mar 28 12:47:53 2022, MaxMem=  9663676416 cpu:              10.7 elap:               0.3
 (Enter /nopt/nrel/apps/gaussian/g16C_1/g16/l913.exe)
 CIDS:  MDV=  9663676416.
 Frozen-core window:  NFC=   9 NFV=   0.
 IFCWin=0 IBDFC=1 NFBD=     0     0 NFCmp=     0     0 NFFFC=     0     0
 Using original routines for 1st iteration.
 Using DD4UQ or CC4UQ for 2nd and later iterations.
 Keep R2 and R3 ints in memory in symmetry-blocked form, NReq=7502812.
 FoFCou: FMM=F IPFlag=           0 FMFlag=           0 FMFlg1=           0
         NFxFlg=           0 DoJE=F BraDBF=F KetDBF=F FulRan=T
         wScrn=  0.000000 ICntrl=       600 IOpCl=  0 I1Cent=           0 NGrid=           0
         NMat0=    1 NMatS0=    406 NMatT0=    0 NMatD0=    1 NMtDS0=    0 NMtDT0=    0
 Petite list used in FoFCou.
 CIDS: In Core Option IDoMem=           1.
 Coupled Cluster theory with single and double substitutions
 ===========================================================
 Iterations= 300 Convergence= 0.100D-06
 Produce multiple copies of IABC intergrals
 Iteration Nr.   1
 **********************
 DD1Dir will call FoFMem   1 times, MxPair=        10
 NAB=     0 NAA=    10 NBB=     0.
 MP4(R+Q)=  0.37020075D-04
 Maximum subspace dimension=  5
 A-vector RMS=  1.7265988D-03 Max=  7.5083459D-03 conv= 1.00D-05.
 RLE energy=       -0.0143539080
 E3=       -0.26872684D-02        EUMP3=      -0.84875222181D+03
 E4(DQ)=   -0.68578282D-03        UMP4(DQ)=   -0.84875290760D+03
 E4(SDQ)=  -0.71686690D-03        UMP4(SDQ)=  -0.84875293868D+03
 VARIATIONAL ENERGIES WITH THE FIRST-ORDER WAVEFUNCTION:
 DE(Corr)= -0.13497210E-01 E(Corr)=     -848.75218455    
 NORM(A)=   0.10042951D+01
 Iteration Nr.   2
 **********************
 DD1Dir will call FoFMem   1 times, MxPair=        10
 NAB=     0 NAA=    10 NBB=     0.
 A-vector RMS=  1.3652544D-03 Max=  6.2314653D-03 conv= 1.00D-05.
 RLE energy=       -0.0146566578
 DE(Corr)= -0.14447518E-01 E(CORR)=     -848.75313486     Delta=-9.50D-04
 NORM(A)=   0.10055965D+01
 Iteration Nr.   3
 **********************
 DD1Dir will call FoFMem   1 times, MxPair=        10
 NAB=     0 NAA=    10 NBB=     0.
 A-vector RMS=  1.2473208D-03 Max=  6.0373398D-03 conv= 1.00D-05.
 RLE energy=       -0.0150944879
 DE(Corr)= -0.14677554E-01 E(CORR)=     -848.75336490     Delta=-2.30D-04
 NORM(A)=   0.10119178D+01
 Iteration Nr.   4
 **********************
 DD1Dir will call FoFMem   1 times, MxPair=        10
 NAB=     0 NAA=    10 NBB=     0.
 A-vector RMS=  1.2288975D-03 Max=  5.4519918D-03 conv= 1.00D-05.
 RLE energy=       -0.0160256421
 DE(Corr)= -0.15058054E-01 E(CORR)=     -848.75374539     Delta=-3.80D-04
 NORM(A)=   0.10925344D+01
 Iteration Nr.   5
 **********************
 DD1Dir will call FoFMem   1 times, MxPair=        10
 NAB=     0 NAA=    10 NBB=     0.
 A-vector RMS=  1.4167050D-03 Max=  1.6689889D-02 conv= 1.00D-05.
 RLE energy=       -0.0166603026
 DE(Corr)= -0.16084049E-01 E(CORR)=     -848.75477139     Delta=-1.03D-03
 NORM(A)=   0.11634468D+01
 Iteration Nr.   6
 **********************
 DD1Dir will call FoFMem   1 times, MxPair=        10
 NAB=     0 NAA=    10 NBB=     0.
 A-vector RMS=  8.0003476D-04 Max=  7.0800639D-03 conv= 1.00D-05.
 RLE energy=       -0.0162822236
 DE(Corr)= -0.16595381E-01 E(CORR)=     -848.75528272     Delta=-5.11D-04
 NORM(A)=   0.11183387D+01
 Iteration Nr.   7
 **********************
 DD1Dir will call FoFMem   1 times, MxPair=        10
 NAB=     0 NAA=    10 NBB=     0.
 A-vector RMS=  3.8867215D-04 Max=  1.9465676D-03 conv= 1.00D-05.
 RLE energy=       -0.0163574476
 DE(Corr)= -0.16280600E-01 E(CORR)=     -848.75496794     Delta= 3.15D-04
 NORM(A)=   0.11347569D+01
 Iteration Nr.   8
 **********************
 DD1Dir will call FoFMem   1 times, MxPair=        10
 NAB=     0 NAA=    10 NBB=     0.
 A-vector RMS=  2.4113016D-04 Max=  3.0093728D-03 conv= 1.00D-05.
 RLE energy=       -0.0163460680
 DE(Corr)= -0.16368837E-01 E(CORR)=     -848.75505618     Delta=-8.82D-05
 NORM(A)=   0.11283764D+01
 Iteration Nr.   9
 **********************
 DD1Dir will call FoFMem   1 times, MxPair=        10
 NAB=     0 NAA=    10 NBB=     0.
 A-vector RMS=  4.0366608D-04 Max=  5.4145953D-03 conv= 1.00D-05.
 RLE energy=       -0.0163591055
 DE(Corr)= -0.16327976E-01 E(CORR)=     -848.75501532     Delta= 4.09D-05
 NORM(A)=   0.11339270D+01
 Iteration Nr.  10
 **********************
 DD1Dir will call FoFMem   1 times, MxPair=        10
 NAB=     0 NAA=    10 NBB=     0.
 A-vector RMS=  1.1799863D-04 Max=  5.9598299D-04 conv= 1.00D-05.
 RLE energy=       -0.0163821881
 DE(Corr)= -0.16357132E-01 E(CORR)=     -848.75504447     Delta=-2.92D-05
 NORM(A)=   0.11374797D+01
 Iteration Nr.  11
 **********************
 DD1Dir will call FoFMem   1 times, MxPair=        10
 NAB=     0 NAA=    10 NBB=     0.
 A-vector RMS=  6.8590957D-05 Max=  2.7309934D-04 conv= 1.00D-05.
 RLE energy=       -0.0163936551
 DE(Corr)= -0.16379112E-01 E(CORR)=     -848.75506645     Delta=-2.20D-05
 NORM(A)=   0.11401274D+01
 Iteration Nr.  12
 **********************
 DD1Dir will call FoFMem   1 times, MxPair=        10
 NAB=     0 NAA=    10 NBB=     0.
 A-vector RMS=  2.7375781D-05 Max=  8.7423393D-05 conv= 1.00D-05.
 RLE energy=       -0.0163946367
 DE(Corr)= -0.16393991E-01 E(CORR)=     -848.75508133     Delta=-1.49D-05
 NORM(A)=   0.11407090D+01
 Iteration Nr.  13
 **********************
 DD1Dir will call FoFMem   1 times, MxPair=        10
 NAB=     0 NAA=    10 NBB=     0.
 A-vector RMS=  1.5145190D-05 Max=  5.6977593D-05 conv= 1.00D-05.
 RLE energy=       -0.0163932920
 DE(Corr)= -0.16396351E-01 E(CORR)=     -848.75508369     Delta=-2.36D-06
 NORM(A)=   0.11405549D+01
 Iteration Nr.  14
 **********************
 DD1Dir will call FoFMem   1 times, MxPair=        10
 NAB=     0 NAA=    10 NBB=     0.
 A-vector RMS=  1.1618958D-05 Max=  4.9622324D-05 conv= 1.00D-05.
 RLE energy=       -0.0163940770
 DE(Corr)= -0.16395437E-01 E(CORR)=     -848.75508278     Delta= 9.14D-07
 NORM(A)=   0.11399991D+01
 Iteration Nr.  15
 **********************
 DD1Dir will call FoFMem   1 times, MxPair=        10
 NAB=     0 NAA=    10 NBB=     0.
 A-vector RMS=  4.2294640D-06 Max=  2.3469986D-05 conv= 1.00D-05.
 RLE energy=       -0.0163927010
 DE(Corr)= -0.16393903E-01 E(CORR)=     -848.75508124     Delta= 1.53D-06
 NORM(A)=   0.11397447D+01
 Iteration Nr.  16
 **********************
 DD1Dir will call FoFMem   1 times, MxPair=        10
 NAB=     0 NAA=    10 NBB=     0.
 A-vector RMS=  4.8350963D-06 Max=  2.3977743D-05 conv= 1.00D-05.
 RLE energy=       -0.0163919311
 DE(Corr)= -0.16392294E-01 E(CORR)=     -848.75507963     Delta= 1.61D-06
 NORM(A)=   0.11396408D+01
 Iteration Nr.  17
 **********************
 DD1Dir will call FoFMem   1 times, MxPair=        10
 NAB=     0 NAA=    10 NBB=     0.
 A-vector RMS=  4.5231622D-06 Max=  1.5526603D-05 conv= 1.00D-05.
 RLE energy=       -0.0163930251
 DE(Corr)= -0.16391298E-01 E(CORR)=     -848.75507864     Delta= 9.95D-07
 NORM(A)=   0.11399230D+01
 Iteration Nr.  18
 **********************
 DD1Dir will call FoFMem   1 times, MxPair=        10
 NAB=     0 NAA=    10 NBB=     0.
 A-vector RMS=  2.8068601D-06 Max=  1.5271296D-05 conv= 1.00D-05.
 RLE energy=       -0.0163930400
 DE(Corr)= -0.16392523E-01 E(CORR)=     -848.75507986     Delta=-1.22D-06
 NORM(A)=   0.11400362D+01
 Iteration Nr.  19
 **********************
 DD1Dir will call FoFMem   1 times, MxPair=        10
 NAB=     0 NAA=    10 NBB=     0.
 A-vector RMS=  1.8278661D-06 Max=  2.1433020D-05 conv= 1.00D-05.
 RLE energy=       -0.0163933991
 DE(Corr)= -0.16392953E-01 E(CORR)=     -848.75508029     Delta=-4.30D-07
 NORM(A)=   0.11401351D+01
 Iteration Nr.  20
 **********************
 DD1Dir will call FoFMem   1 times, MxPair=        10
 NAB=     0 NAA=    10 NBB=     0.
 A-vector RMS=  1.2929972D-06 Max=  9.2282433D-06 conv= 1.00D-05.
 RLE energy=       -0.0163926399
 DE(Corr)= -0.16393439E-01 E(CORR)=     -848.75508078     Delta=-4.86D-07
 NORM(A)=   0.11400515D+01
 Iteration Nr.  21
 **********************
 DD1Dir will call FoFMem   1 times, MxPair=        10
 NAB=     0 NAA=    10 NBB=     0.
 A-vector RMS=  9.9346642D-07 Max=  8.0684265D-06 conv= 1.00D-05.
 RLE energy=       -0.0163924516
 DE(Corr)= -0.16392825E-01 E(CORR)=     -848.75508017     Delta= 6.14D-07
 NORM(A)=   0.11400176D+01
 Iteration Nr.  22
 **********************
 DD1Dir will call FoFMem   1 times, MxPair=        10
 NAB=     0 NAA=    10 NBB=     0.
 A-vector RMS=  1.0620177D-06 Max=  7.4275317D-06 conv= 1.00D-05.
 RLE energy=       -0.0163924175
 DE(Corr)= -0.16392536E-01 E(CORR)=     -848.75507988     Delta= 2.90D-07
 NORM(A)=   0.11400231D+01
 Iteration Nr.  23
 **********************
 DD1Dir will call FoFMem   1 times, MxPair=        10
 NAB=     0 NAA=    10 NBB=     0.
 A-vector RMS=  7.5052973D-07 Max=  5.3558733D-06 conv= 1.00D-05.
 RLE energy=       -0.0163925590
 DE(Corr)= -0.16392516E-01 E(CORR)=     -848.75507986     Delta= 1.95D-08
 NORM(A)=   0.11400223D+01
 CI/CC converged in   23 iterations to DelEn= 1.95D-08 Conv= 1.00D-07 ErrA1= 7.51D-07 Conv= 1.00D-05
 Wavefunction amplitudes converged. E(Corr)=     -848.75507986    
 Dominant configurations:
 ***********************
 Spin Case        I    J    A    B          Value
    AA           13        15           -0.312280D+00
    AA           13        19           -0.124747D+00
    AA           12        16           -0.312280D+00
    AA           12        20           -0.124747D+00
   AAAA          13   12   15   16      -0.105483D+00
 Largest amplitude= 3.12D-01
 Discarding MO integrals.
 Leave Link  913 at Mon Mar 28 12:47:54 2022, MaxMem=  9663676416 cpu:               7.9 elap:               0.2
 (Enter /nopt/nrel/apps/gaussian/g16C_1/g16/l601.exe)
 Copying SCF densities to generalized density rwf, IOpCl= 1 IROHF=0.

 **********************************************************************

            Population analysis using the SCF Density.

 **********************************************************************

 Orbital symmetries:
 Alpha Orbitals:
       Occupied  (SG) (SG) (SG) (PI) (PI) (SG) (SG) (PI) (PI) (SG)
                 (?A) (PI) (PI) (SG)
       Virtual   (PI) (PI) (SG) (SG) (PI) (PI) (SG) (?A) (SG) (PI)
                 (PI) (?A) (?A) (SG)
 Beta  Orbitals:
       Occupied  (SG) (SG) (PI) (PI) (SG) (SG) (PI) (PI) (SG)
       Virtual   (SG) (PI) (PI) (SG) (SG) (SG) (PI) (PI) (SG) (DLTA)
                 (PI) (PI) (DLTA) (SG) (DLTA) (PI) (PI) (DLTA)
                 (SG)
 Unable to determine electronic state:  an orbital has unidentified symmetry.
 Alpha  occ. eigenvalues -- -182.99162 -21.16679 -17.53773 -17.53745 -17.53745
 Alpha  occ. eigenvalues --   -2.72621  -1.68895  -1.68574  -1.68574  -0.56268
 Alpha  occ. eigenvalues --   -0.23164  -0.22991  -0.22991  -0.16879
 Alpha virt. eigenvalues --    0.03374   0.03374   0.08816   0.17423   0.25581
 Alpha virt. eigenvalues --    0.25581   0.28084   0.32733   0.36855   1.17680
 Alpha virt. eigenvalues --    1.17680   1.17955   1.30262   1.34541
  Beta  occ. eigenvalues -- -182.98974 -21.12476 -17.49701 -17.49701 -17.49668
  Beta  occ. eigenvalues --   -2.55014  -1.47169  -1.47169  -1.47123
  Beta virt. eigenvalues --   -0.00807   0.06563   0.06563   0.06955   0.19413
  Beta virt. eigenvalues --    0.26846   0.31604   0.31604   0.36698   0.39225
  Beta virt. eigenvalues --    0.41584   0.41584   0.41594   0.51432   1.35052
  Beta virt. eigenvalues --    1.37239   1.37239   1.37279   1.40587
          Condensed to atoms (all electrons):
               1          2
     1  H    0.785781   0.076958
     2  Ti   0.076958  22.060303
          Atomic-Atomic Spin Densities.
               1          2
     1  H    0.785780   0.077034
     2  Ti   0.077034   4.060151
 Mulliken charges and spin densities:
               1          2
     1  H    0.137261   0.862815
     2  Ti  -0.137261   4.137185
 Sum of Mulliken charges =  -0.00000   5.00000
 Mulliken charges and spin densities with hydrogens summed into heavy atoms:
               1          2
     2  Ti  -0.000000   5.000000
 N-N= 5.291772109200D+00 E-N=-2.028196731318D+03  KE= 8.496863530377D+02
 Symmetry A1   KE= 6.582080676055D+02
 Symmetry A2   KE= 1.012000010088D-31
 Symmetry B1   KE= 9.573914271610D+01
 Symmetry B2   KE= 9.573914271610D+01
 Symmetry A1   SP= 3.000000000000D+00
 Symmetry A2   SP= 2.999519565324D-32
 Symmetry B1   SP= 1.000000000000D+00
 Symmetry B2   SP= 1.000000000000D+00

 Atomic contributions to Alpha molecular orbitals:
 Alpha occ 1 OE=-182.992 is Ti2-s=1.0000
 Alpha occ 2 OE=-21.167 is Ti2-s=1.0000
 Alpha occ 3 OE=-17.538 is Ti2-p=1.0000
 Alpha occ 4 OE=-17.537 is Ti2-p=1.0000
 Alpha occ 5 OE=-17.537 is Ti2-p=1.0000
 Alpha occ 6 OE=-2.726 is Ti2-s=1.0000
 Alpha occ 7 OE=-1.689 is Ti2-p=0.9995
 Alpha occ 8 OE=-1.686 is Ti2-p=1.0000
 Alpha occ 9 OE=-1.686 is Ti2-p=1.0000
 Alpha occ 10 OE=-0.563 is H1-s=0.8469
 Alpha occ 11 OE=-0.232 is Ti2-d=1.0000
 Alpha occ 12 OE=-0.230 is Ti2-d=0.9914
 Alpha occ 13 OE=-0.230 is Ti2-d=0.9914
 Alpha occ 14 OE=-0.169 is Ti2-s=0.8208 Ti2-p=0.1607
 Alpha vir 15 OE=0.034 is Ti2-p=0.9945
 Alpha vir 16 OE=0.034 is Ti2-p=0.9945
 Alpha vir 17 OE=0.088 is Ti2-p=0.7737 Ti2-s=0.1508
 Alpha vir 18 OE=0.174 is Ti2-s=0.9349
 Alpha vir 19 OE=0.256 is Ti2-p=0.9968
 Alpha vir 20 OE=0.256 is Ti2-p=0.9968
 Alpha vir 21 OE=0.281 is Ti2-p=0.8008 Ti2-d=0.1670
 Alpha vir 22 OE=0.327 is Ti2-d=1.0000
 Alpha vir 23 OE=0.369 is Ti2-d=0.7803 Ti2-p=0.1390
 Alpha vir 24 OE=1.177 is Ti2-d=1.0000
 Alpha vir 25 OE=1.177 is Ti2-d=1.0000
 Alpha vir 26 OE=1.180 is Ti2-d=1.0000
 Alpha vir 27 OE=1.303 is Ti2-d=1.0000
 Alpha vir 28 OE=1.345 is Ti2-d=0.9926

 Atomic contributions to Beta  molecular orbitals:
 Beta  occ 1 OE=-182.990 is Ti2-s=1.0000
 Beta  occ 2 OE=-21.125 is Ti2-s=1.0000
 Beta  occ 3 OE=-17.497 is Ti2-p=1.0000
 Beta  occ 4 OE=-17.497 is Ti2-p=1.0000
 Beta  occ 5 OE=-17.497 is Ti2-p=1.0000
 Beta  occ 6 OE=-2.550 is Ti2-s=0.9998
 Beta  occ 7 OE=-1.472 is Ti2-p=0.9999
 Beta  occ 8 OE=-1.472 is Ti2-p=0.9999
 Beta  occ 9 OE=-1.471 is Ti2-p=0.9997
 Beta  vir 10 OE=-0.008 is Ti2-s=0.5760 Ti2-p=0.2596 H1-s=0.1614
 Beta  vir 11 OE=0.066 is Ti2-p=0.9999
 Beta  vir 12 OE=0.066 is Ti2-p=0.9999
 Beta  vir 13 OE=0.070 is Ti2-p=0.6109 Ti2-s=0.3640
 Beta  vir 14 OE=0.194 is Ti2-s=0.3942 Ti2-p=0.2841 H1-s=0.2699
 Beta  vir 15 OE=0.268 is Ti2-s=0.6423 Ti2-p=0.1851 H1-s=0.1073
 Beta  vir 16 OE=0.316 is Ti2-p=0.9953
 Beta  vir 17 OE=0.316 is Ti2-p=0.9953
 Beta  vir 18 OE=0.367 is Ti2-d=0.5140 Ti2-p=0.4429
 Beta  vir 19 OE=0.392 is Ti2-d=1.0000
 Beta  vir 20 OE=0.416 is Ti2-d=0.9953
 Beta  vir 21 OE=0.416 is Ti2-d=0.9953
 Beta  vir 22 OE=0.416 is Ti2-d=1.0000
 Beta  vir 23 OE=0.514 is H1-s=0.3803 Ti2-d=0.3803 Ti2-p=0.2167
 Beta  vir 24 OE=1.351 is Ti2-d=1.0000
 Beta  vir 25 OE=1.372 is Ti2-d=0.9999
 Beta  vir 26 OE=1.372 is Ti2-d=0.9999
 Beta  vir 27 OE=1.373 is Ti2-d=1.0000
 Beta  vir 28 OE=1.406 is Ti2-d=0.9842
 
 Leave Link  601 at Mon Mar 28 12:47:54 2022, MaxMem=  9663676416 cpu:               0.9 elap:               0.0
 (Enter /nopt/nrel/apps/gaussian/g16C_1/g16/l9999.exe)

 Test job not archived.
 1\1\GINC-R3I7N35\SP\UCCSD-FC\Gen\H1Ti1(6)\USER\28-Mar-2022\0\\#P C
 CSD(MaxCyc=300,SaveAmplitudes,ReadAmplitudes)/GEN sp pop=AllOrbitals i
 op(3/33=1,3/36=-1)\\test\\0,6\H,0,0.,0.,0.\Ti,0,0.,0.,2.2\\Version=ES6
 4L-G16RevC.01\HF=-848.7386873\MP2=-848.7495345\MP3=-848.7522218\MP4D=-
 848.7529446\MP4DQ=-848.7529076\MP4SDQ=-848.7529387\CCSD=-848.7550799\S
 2=8.750226\S2-1=0.\S2A=8.75\RMSD=7.116e-10\PG=C*V [C*(H1Ti1)]\\@


 The theorems and results in mathematical physics are
 not theorems and results about Nature, but about our
 description of it.
                   --Gerard 't Hooft
 Job cpu time:       0 days  0 hours  0 minutes 49.4 seconds.
 Elapsed time:       0 days  0 hours  0 minutes  1.7 seconds.
 File lengths (MBytes):  RWF=     13 Int=      0 D2E=      0 Chk=      1 Scr=      1
 Normal termination of Gaussian 16 at Mon Mar 28 12:47:54 2022.
