 Entering Gaussian System, Link 0=g16
 Initial command:
 /nopt/nrel/apps/gaussian/g16C_1/g16/l1.exe "/lustre/eaglefs/scratch/user/qc/tih-dissc-sto3g/tih-2-ccsd-0.7-sto3g/Gau-252434.inp" -scrdir="/lustre/eaglefs/scratch/user/qc/tih-dissc-sto3g/tih-2-ccsd-0.7-sto3g/"
 Default is to use a total of  36 processors:
                               36 via shared-memory
                                1 via Linda
 Entering Link 1 = /nopt/nrel/apps/gaussian/g16C_1/g16/l1.exe PID=    252435.
  
 Copyright (c) 1988-2019, Gaussian, Inc.  All Rights Reserved.
  
 This is part of the Gaussian(R) 16 program.  It is based on
 the Gaussian(R) 09 system (copyright 2009, Gaussian, Inc.),
 the Gaussian(R) 03 system (copyright 2003, Gaussian, Inc.),
 the Gaussian(R) 98 system (copyright 1998, Gaussian, Inc.),
 the Gaussian(R) 94 system (copyright 1995, Gaussian, Inc.),
 the Gaussian 92(TM) system (copyright 1992, Gaussian, Inc.),
 the Gaussian 90(TM) system (copyright 1990, Gaussian, Inc.),
 the Gaussian 88(TM) system (copyright 1988, Gaussian, Inc.),
 the Gaussian 86(TM) system (copyright 1986, Carnegie Mellon
 University), and the Gaussian 82(TM) system (copyright 1983,
 Carnegie Mellon University). Gaussian is a federally registered
 trademark of Gaussian, Inc.
  
 This software contains proprietary and confidential information,
 including trade secrets, belonging to Gaussian, Inc.
  
 This software is provided under written license and may be
 used, copied, transmitted, or stored only in accord with that
 written license.
  
 The following legend is applicable only to US Government
 contracts under FAR:
  
                    RESTRICTED RIGHTS LEGEND
  
 Use, reproduction and disclosure by the US Government is
 subject to restrictions as set forth in subparagraphs (a)
 and (c) of the Commercial Computer Software - Restricted
 Rights clause in FAR 52.227-19.
  
 Gaussian, Inc.
 340 Quinnipiac St., Bldg. 40, Wallingford CT 06492
  
  
 ---------------------------------------------------------------
 Warning -- This program may not be used in any manner that
 competes with the business of Gaussian, Inc. or will provide
 assistance to any competitor of Gaussian, Inc.  The licensee
 of this program is prohibited from giving any competitor of
 Gaussian, Inc. access to this program.  By using this program,
 the user acknowledges that Gaussian, Inc. is engaged in the
 business of creating and licensing software in the field of
 computational chemistry and represents and warrants to the
 licensee that it is not a competitor of Gaussian, Inc. and that
 it will not use this program in any manner prohibited above.
 ---------------------------------------------------------------
  

 Cite this work as:
 Gaussian 16, Revision C.01,
 M. J. Frisch, G. W. Trucks, H. B. Schlegel, G. E. Scuseria, 
 M. A. Robb, J. R. Cheeseman, G. Scalmani, V. Barone, 
 G. A. Petersson, H. Nakatsuji, X. Li, M. Caricato, A. V. Marenich, 
 J. Bloino, B. G. Janesko, R. Gomperts, B. Mennucci, H. P. Hratchian, 
 J. V. Ortiz, A. F. Izmaylov, J. L. Sonnenberg, D. Williams-Young, 
 F. Ding, F. Lipparini, F. Egidi, J. Goings, B. Peng, A. Petrone, 
 T. Henderson, D. Ranasinghe, V. G. Zakrzewski, J. Gao, N. Rega, 
 G. Zheng, W. Liang, M. Hada, M. Ehara, K. Toyota, R. Fukuda, 
 J. Hasegawa, M. Ishida, T. Nakajima, Y. Honda, O. Kitao, H. Nakai, 
 T. Vreven, K. Throssell, J. A. Montgomery, Jr., J. E. Peralta, 
 F. Ogliaro, M. J. Bearpark, J. J. Heyd, E. N. Brothers, K. N. Kudin, 
 V. N. Staroverov, T. A. Keith, R. Kobayashi, J. Normand, 
 K. Raghavachari, A. P. Rendell, J. C. Burant, S. S. Iyengar, 
 J. Tomasi, M. Cossi, J. M. Millam, M. Klene, C. Adamo, R. Cammi, 
 J. W. Ochterski, R. L. Martin, K. Morokuma, O. Farkas, 
 J. B. Foresman, and D. J. Fox, Gaussian, Inc., Wallingford CT, 2019.
 
 ******************************************
 Gaussian 16:  ES64L-G16RevC.01  3-Jul-2019
                25-Mar-2022 
 ******************************************
 %chk=molecule
 Default route: CacheSize=180224 MaxDisk=256GB
 --------------------------------------------------
 #P CCSD/GEN sp pop=AllOrbitals iop(3/33=1,3/36=-1)
 --------------------------------------------------
 1/4=180224,38=1,172=1/1;
 2/4=180224,12=2,17=6,18=5,40=1/2;
 3/4=180224,5=7,11=9,25=1,30=1,33=1,36=-1/1,2,3;
 4/4=180224/1;
 5/4=180224,5=2,38=5/2;
 8/4=180224,6=4,9=120000,10=1/1,4;
 9/4=180224,5=7/13;
 6/4=180224,7=2,8=2,9=2,10=2,96=-1/1;
 99/4=180224,5=1,9=1/99;
 Leave Link    1 at Fri Mar 25 14:37:28 2022, MaxMem=           0 cpu:               2.3 elap:               0.1
 (Enter /nopt/nrel/apps/gaussian/g16C_1/g16/l101.exe)
 ----
 test
 ----
 Symbolic Z-matrix:
 Charge =  0 Multiplicity = 2
 H                     0.        0.        0. 
 Ti                    0.        0.        0.7 
 
 ITRead=  0  0
 MicOpt= -1 -1
 NAtoms=      2 NQM=        2 NQMF=       0 NMMI=      0 NMMIF=      0
                NMic=       0 NMicF=      0.
                    Isotopes and Nuclear Properties:
 (Nuclear quadrupole moments (NQMom) in fm**2, nuclear magnetic moments (NMagM)
  in nuclear magnetons)

  Atom         1           2
 IAtWgt=           1          48
 AtmWgt=   1.0078250  47.9479467
 NucSpn=           1           0
 AtZEff=  -0.0000000  -0.0000000
 NQMom=    0.0000000   0.0000000
 NMagM=    2.7928460   0.0000000
 AtZNuc=   1.0000000  22.0000000
 Leave Link  101 at Fri Mar 25 14:37:28 2022, MaxMem=  9663676416 cpu:               2.8 elap:               0.1
 (Enter /nopt/nrel/apps/gaussian/g16C_1/g16/l202.exe)
                          Input orientation:                          
 ---------------------------------------------------------------------
 Center     Atomic      Atomic             Coordinates (Angstroms)
 Number     Number       Type             X           Y           Z
 ---------------------------------------------------------------------
      1          1           0        0.000000    0.000000    0.000000
      2         22           0        0.000000    0.000000    0.700000
 ---------------------------------------------------------------------
 Stoichiometry    HTi(2)
 Framework group  C*V[C*(HTi)]
 Deg. of freedom     1
 Full point group                 C*V     NOp   4
 Largest Abelian subgroup         C2V     NOp   4
 Largest concise Abelian subgroup C1      NOp   1
                         Standard orientation:                         
 ---------------------------------------------------------------------
 Center     Atomic      Atomic             Coordinates (Angstroms)
 Number     Number       Type             X           Y           Z
 ---------------------------------------------------------------------
      1          1           0        0.000000    0.000000   -0.669565
      2         22           0        0.000000    0.000000    0.030435
 ---------------------------------------------------------------------
 Rotational constants (GHZ):           0.0000000        1044.8882940        1044.8882940
 Leave Link  202 at Fri Mar 25 14:37:28 2022, MaxMem=  9663676416 cpu:               0.9 elap:               0.0
 (Enter /nopt/nrel/apps/gaussian/g16C_1/g16/l301.exe)
 General basis read from cards:  (5D, 7F)
                         Coordinates in L301:                         
 ---------------------------------------------------------------------
 Center     Atomic      Atomic             Coordinates (Angstroms)
 Number     Number       Type             X           Y           Z
 ---------------------------------------------------------------------
      1          1           0        0.000000    0.000000   -0.669565
      2         22           0        0.000000    0.000000    0.030435
 ---------------------------------------------------------------------
 Centers:       1
 STO-3G
 ****
 Centers:       2
 STO-3G
 ****
 FixB: optimizing general contractions.
 Ernie: Thresh=  0.10000D-02 Tol=  0.10000D-05 Strict=F.
 IA=     1 ShT= 0 ShC= 0 NL=   1 NS=   0.
 IA=     1 L=0 SC=0 ISt=    0 NBk=    0 NP=    0 IndPr=    0.
 IA=     2 ShT= 0 ShC= 0 NL=   1 NS=   0.
 IA=     2 L=0 SC=0 ISt=    0 NBk=    0 NP=    0 IndPr=    0.
 IA=     2 ShT= 1 ShC= 0 NL=   3 NS=   0.
 IA=     2 L=1 SC=0 ISt=    1 NBk=    3 NP=    9 IndPr=    0.
 DoElim1:  L=1 select primitive    1 from    2 using    1 C=-1.00D-01
 DoElim1:  L=1 select primitive    1 from    3 using    1 C=-1.00D-01
 DoElim1:  L=1 select primitive    4 from    3 using    2 C=-2.28D-01
 DoElim2:  L=1 select primitive    9 from    2 using    3 C= 1.13D+00
 DoElim2:  L=1 select primitive    9 from    1 using    3 C= 1.13D+00
 DoElim2:  L=1 select primitive    7 from    1 using    2 C= 9.17D-01
 DoElim1:  L=1 select primitive    1 from    2 using    1 C= 1.56D-01
 DoElim1:  L=1 select primitive    1 from    3 using    1 C= 1.56D-01
 DoElim1:  L=1 select primitive    4 from    3 using    2 C= 4.95D-03
 DoElim2:  L=1 select primitive    8 from    2 using    3 C= 5.72D-01
 DoElim2:  L=1 select primitive    8 from    1 using    3 C= 5.72D-01
 DoElim2:  L=1 select primitive    5 from    1 using    2 C= 5.78D-01
 Delete L=1 primitive    7 from    3 C=  0.00D+00.
 Delete L=1 primitive    5 from    3 C=  0.00D+00.
 Delete L=1 primitive    4 from    3 C=  0.00D+00.
 Delete L=1 primitive    3 from    3 C=  0.00D+00.
 Delete L=1 primitive    2 from    3 C=  0.00D+00.
 Delete L=1 primitive    1 from    3 C=  0.00D+00.
 Delete L=1 primitive    9 from    2 C=  0.00D+00.
 Delete L=1 primitive    8 from    2 C=  0.00D+00.
 Delete L=1 primitive    6 from    2 C=  0.00D+00.
 Delete L=1 primitive    3 from    2 C=  0.00D+00.
 Delete L=1 primitive    2 from    2 C=  0.00D+00.
 Delete L=1 primitive    1 from    2 C=  0.00D+00.
 Delete L=1 primitive    9 from    1 C=  0.00D+00.
 Delete L=1 primitive    8 from    1 C=  0.00D+00.
 Delete L=1 primitive    7 from    1 C=  0.00D+00.
 Delete L=1 primitive    6 from    1 C=  0.00D+00.
 Delete L=1 primitive    5 from    1 C=  0.00D+00.
 Delete L=1 primitive    4 from    1 C=  0.00D+00.
 IA=     2 L=1 SC=0 ISt=    0 NBk=    0 NP=    0 IndPr=    9.
 IA=     2 ShT= 2 ShC= 2 NL=   1 NS=   0.
 IA=     2 L=2 SC=2 ISt=    0 NBk=    0 NP=    0 IndPr=    0.
 LdAtmC:  AtmChg=     1.000000    22.000000
 AtZEff=     -1.0000000    -23.9800000
 NEqShl: 
              1            2            3            4
     1            1            1            1            1
     2            2            2            2            2
     3            3            3            3            3
     4            4            4            4            4
     5            5            5            5            5
     6            6            6            6            6
 NEqBas: 
              1            2            3            4
     1            1            1            1            1
     2            2            2            2            2
     3            3            3            3            3
     4            4           -4           -4            4
     5            5           -5            5           -5
     6            6            6            6            6
     7            7            7            7            7
     8            8           -8           -8            8
     9            9           -9            9           -9
    10           10           10           10           10
    11           11           11           11           11
    12           12          -12          -12           12
    13           13          -13           13          -13
    14           14           14           14           14
    15           15           15           15           15
    16           16           16           16           16
    17           17           17           17           17
    18           18           18          -18          -18
    19           19          -19          -19           19
    20           20          -20           20          -20
 There are    11 symmetry adapted cartesian basis functions of A1  symmetry.
   1         1   1   1   1
   2         2   2   2   2
   3         3   3   3   3
   4         6   6   6   6
   5         7   7   7   7
   6        10  10  10  10
   7        11  11  11  11
   8        14  14  14  14
   9        15  15  15  15
  10        16  16  16  16
  11        17  17  17  17
 There are     1 symmetry adapted cartesian basis functions of A2  symmetry.
  12        18  18  18  18
 There are     4 symmetry adapted cartesian basis functions of B1  symmetry.
  13         4   4   4   4
  14         8   8   8   8
  15        12  12  12  12
  16        19  19  19  19
 There are     4 symmetry adapted cartesian basis functions of B2  symmetry.
  17         5   5   5   5
  18         9   9   9   9
  19        13  13  13  13
  20        20  20  20  20
 Order= 1 2 4 3
 Reordered character table:
              1            2            3            4            5
     1            1            1            1            1            1
     2            2            1            1           -1           -1
     3            4            1           -1           -1            1
     4            3            1           -1            1           -1
 NEqShl: 
              1            2            3            4
     1            1            1            1            1
     2            2            2            2            2
     3            3            3            3            3
     4            4            4            4            4
     5            5            5            5            5
     6            6            6            6            6
 NEqBas: 
              1            2            3            4
     1            1            1            1            1
     2            2            2            2            2
     3            3            3            3            3
     4            4           -4           -4            4
     5            5           -5            5           -5
     6            6            6            6            6
     7            7            7            7            7
     8            8           -8           -8            8
     9            9           -9            9           -9
    10           10           10           10           10
    11           11           11           11           11
    12           12          -12          -12           12
    13           13          -13           13          -13
    14           14           14           14           14
    15           15           15           15           15
    16           16          -16          -16           16
    17           17          -17           17          -17
    18           18           18           18           18
    19           19           19          -19          -19
 There are    10 symmetry adapted basis functions of A1  symmetry.
   1         1   1   1   1
   2         2   2   2   2
   3         3   3   3   3
   4         6   6   6   6
   5         7   7   7   7
   6        10  10  10  10
   7        11  11  11  11
   8        14  14  14  14
   9        15  15  15  15
  10        18  18  18  18
 There are     1 symmetry adapted basis functions of A2  symmetry.
  11        19  19  19  19
 There are     4 symmetry adapted basis functions of B1  symmetry.
  12         4   4   4   4
  13         8   8   8   8
  14        12  12  12  12
  15        16  16  16  16
 There are     4 symmetry adapted basis functions of B2  symmetry.
  16         5   5   5   5
  17         9   9   9   9
  18        13  13  13  13
  19        17  17  17  17
 Order= 1 2 4 3
 Reordered character table:
              1            2            3            4            5
     1            1            1            1            1            1
     2            2            1            1           -1           -1
     3            4            1           -1           -1            1
     4            3            1           -1            1           -1
    19 basis functions,    60 primitive gaussians,    20 cartesian basis functions
    12 alpha electrons       11 beta electrons
       nuclear repulsion energy        16.6312837718 Hartrees.
 IS=     1 IAt=     1 ISR=     1 T=0 IP=      1 IndIP=      1 IndIPD=      0 C=  2.769344D-01  0.000000D+00                             NZ=T
 IS=     1 IAt=     1 ISR=     1 T=0 IP=      2 IndIP=      2 IndIPD=      1 C=  2.678389D-01  0.000000D+00                             NZ=T
 IS=     1 IAt=     1 ISR=     1 T=0 IP=      3 IndIP=      3 IndIPD=      2 C=  8.347367D-02  0.000000D+00                             NZ=T
 IS=     2 IAt=     2 ISR=     1 T=0 IP=      1 IndIP=      4 IndIPD=      0 C=  2.004993D+01  0.000000D+00                             NZ=T
 IS=     2 IAt=     2 ISR=     1 T=0 IP=      2 IndIP=      5 IndIPD=      1 C=  1.939142D+01  0.000000D+00                             NZ=T
 IS=     2 IAt=     2 ISR=     1 T=0 IP=      3 IndIP=      6 IndIPD=      2 C=  6.043458D+00  0.000000D+00                             NZ=T
 IS=     3 IAt=     2 ISR=     2 T=1 IP=      1 IndIP=      7 IndIPD=      0 C= -1.820341D+00  4.925761D+01                             NZ=T
 IS=     3 IAt=     2 ISR=     2 T=1 IP=      2 IndIP=      8 IndIPD=      1 C=  2.434854D+00  3.097451D+01                             NZ=T
 IS=     3 IAt=     2 ISR=     2 T=1 IP=      3 IndIP=      9 IndIPD=      2 C=  1.837620D+00  4.906883D+00                             NZ=T
 IS=     4 IAt=     2 ISR=     3 T=1 IP=      1 IndIP=     10 IndIPD=      0 C= -5.746721D-01  5.803915D-02                             NZ=T
 IS=     4 IAt=     2 ISR=     3 T=1 IP=      2 IndIP=     11 IndIPD=      1 C=  2.252897D-01  1.535208D+00                             NZ=T
 IS=     4 IAt=     2 ISR=     3 T=1 IP=      3 IndIP=     12 IndIPD=      2 C=  4.647390D-01  3.915940D-01                             NZ=T
 IS=     5 IAt=     2 ISR=     4 T=1 IP=      1 IndIP=     13 IndIPD=      0 C= -1.706594D-01 -1.133666D-01                             NZ=T
 IS=     5 IAt=     2 ISR=     4 T=1 IP=      2 IndIP=     14 IndIPD=      1 C=  5.129963D-03  1.533382D-01                             NZ=T
 IS=     5 IAt=     2 ISR=     4 T=1 IP=      3 IndIP=     15 IndIPD=      2 C=  1.603140D-01  5.311239D-02                             NZ=T
 IS=     6 IAt=     2 ISR=     5 T=2 IP=      1 IndIP=     16 IndIPD=      1 C=  0.000000D+00  0.000000D+00  8.652016D-01  0.000000D+00 NZ=T
 IS=     6 IAt=     2 ISR=     5 T=2 IP=      2 IndIP=     17 IndIPD=      2 C=  0.000000D+00  0.000000D+00  3.231180D-01  0.000000D+00 NZ=T
 IS=     6 IAt=     2 ISR=     5 T=2 IP=      3 IndIP=     18 IndIPD=      3 C=  0.000000D+00  0.000000D+00  2.668013D-02  0.000000D+00 NZ=T
 IExCor=    0 DFT=F Ex=HF Corr=None ExCW=0 ScaHFX=  1.000000
 ScaDFX=  1.000000  1.000000  1.000000  1.000000 ScalE2=  1.000000  1.000000
 IRadAn=      5 IRanWt=     -1 IRanGd=            0 ICorTp=0 IEmpDi=  4
 NAtoms=    2 NActive=    2 NUniq=    2 SFac= 1.00D+00 NAtFMM=   60 NAOKFM=F Big=F
 Integral buffers will be    131072 words long.
 Raffenetti 2 integral format.
 Two-electron integral symmetry is turned on.
 Leave Link  301 at Fri Mar 25 14:37:28 2022, MaxMem=  9663676416 cpu:               2.1 elap:               0.1
 (Enter /nopt/nrel/apps/gaussian/g16C_1/g16/l302.exe)
 NPDir=0 NMtPBC=     1 NCelOv=     1 NCel=       1 NClECP=     1 NCelD=      1
         NCelK=      1 NCelE2=     1 NClLst=     1 CellRange=     0.0.
 One-electron integrals computed using PRISM.
 One-electron integral symmetry used in STVInt
 Entering OneElI...
 Calculate overlap and kinetic energy integrals
    NBasis =  19  MinDer = 0  MaxDer = 0
 Requested accuracy = 0.1000D-12
 Symmetry will be used
 PrmmSu-InSpLW:  IPartL=    0 NPrtUS=   36 NPrtUL=    1 DoSpLW=F IThBeg=    0 IThEnd=   35 NThAct=   36.
 PrSmSu:  IncTry=   512 NBBP=             21 NTPThr=   100 NPartT=   36 Incr=           1 LDynOK=F GPUOK=F.
 PrsmSu:  NPrtUS=  36 ThrOK=T IAlg=1 LenDen=           0 ISkipM=0 DoSpLW=F IThBeg=    0 IThEnd=   35.
 Prism:   IPart=     0 DynPar=F LinDyn=F Incr=           1.
 PRISM was handed   268432635 working-precision words and    21 shell-pairs
 PRISM was handed   268432635 working-precision words and    21 shell-pairs
 PRISM was handed   268432635 working-precision words and    21 shell-pairs
 PRISM was handed   268432635 working-precision words and    21 shell-pairs
 PRISM was handed   268432635 working-precision words and    21 shell-pairs
 PRISM was handed   268432635 working-precision words and    21 shell-pairs
 PRISM was handed   268432635 working-precision words and    21 shell-pairs
 PRISM was handed   268432635 working-precision words and    21 shell-pairs
 PRISM was handed   268432635 working-precision words and    21 shell-pairs
 PRISM was handed   268432635 working-precision words and    21 shell-pairs
 IPart= 14 NShTot=           0 NBatch=           0 AvBLen=         0.0
 IPart= 17 NShTot=           0 NBatch=           0 AvBLen=         0.0
 IPart= 22 NShTot=           0 NBatch=           0 AvBLen=         0.0
 IPart= 20 NShTot=           0 NBatch=           0 AvBLen=         0.0
 IPart= 32 NShTot=           0 NBatch=           0 AvBLen=         0.0
 IPart= 12 NShTot=           0 NBatch=           0 AvBLen=         0.0
 IPart= 35 NShTot=           0 NBatch=           0 AvBLen=         0.0
 PRISM was handed   268432635 working-precision words and    21 shell-pairs
 PRISM was handed   268432635 working-precision words and    21 shell-pairs
 PRISM was handed   268432635 working-precision words and    21 shell-pairs
 PRISM was handed   268432635 working-precision words and    21 shell-pairs
 IPart= 26 NShTot=           0 NBatch=           0 AvBLen=         0.0
 IPart= 10 NShTot=           0 NBatch=           0 AvBLen=         0.0
 PRISM was handed   268432635 working-precision words and    21 shell-pairs
 IPart= 25 NShTot=           0 NBatch=           0 AvBLen=         0.0
 IPart= 21 NShTot=           0 NBatch=           0 AvBLen=         0.0
 IPart= 27 NShTot=           0 NBatch=           0 AvBLen=         0.0
 IPart=  6 NShTot=           0 NBatch=           0 AvBLen=         0.0
 PRISM was handed   268432635 working-precision words and    21 shell-pairs
 IPart= 18 NShTot=           0 NBatch=           0 AvBLen=         0.0
 PRISM was handed   268432635 working-precision words and    21 shell-pairs
 PRISM was handed   268432635 working-precision words and    21 shell-pairs
 IPart= 29 NShTot=           0 NBatch=           0 AvBLen=         0.0
 PRISM was handed   268432635 working-precision words and    21 shell-pairs
 PRISM was handed   268432635 working-precision words and    21 shell-pairs
 PRISM was handed   268432635 working-precision words and    21 shell-pairs
 IPart= 23 NShTot=           0 NBatch=           0 AvBLen=         0.0
 PRISM was handed   268432635 working-precision words and    21 shell-pairs
 IPart= 33 NShTot=           0 NBatch=           0 AvBLen=         0.0
 IPart=  7 NShTot=           0 NBatch=           0 AvBLen=         0.0
 PRISM was handed   268432635 working-precision words and    21 shell-pairs
 PRISM was handed   268432635 working-precision words and    21 shell-pairs
 PRISM was handed   268432635 working-precision words and    21 shell-pairs
 PRISM was handed   268432635 working-precision words and    21 shell-pairs
 PRISM was handed   268432635 working-precision words and    21 shell-pairs
 PRISM was handed   268432635 working-precision words and    21 shell-pairs
 PRISM was handed   268432635 working-precision words and    21 shell-pairs
 IPart= 28 NShTot=           0 NBatch=           0 AvBLen=         0.0
 IPart=  1 NShTot=           5 NBatch=           5 AvBLen=         1.0
 IPart=  2 NShTot=           4 NBatch=           4 AvBLen=         1.0
 IPart= 31 NShTot=           0 NBatch=           0 AvBLen=         0.0
 IPart= 34 NShTot=           0 NBatch=           0 AvBLen=         0.0
 IPart= 30 NShTot=           0 NBatch=           0 AvBLen=         0.0
 PRISM was handed   268432635 working-precision words and    21 shell-pairs
 PRISM was handed   268432635 working-precision words and    21 shell-pairs
 PRISM was handed   268432635 working-precision words and    21 shell-pairs
 PRISM was handed   268432635 working-precision words and    21 shell-pairs
 PRISM was handed   268432635 working-precision words and    21 shell-pairs
 PRISM was handed   268432635 working-precision words and    21 shell-pairs
 PRISM was handed   268432635 working-precision words and    21 shell-pairs
 IPart=  8 NShTot=           0 NBatch=           0 AvBLen=         0.0
 IPart= 19 NShTot=           0 NBatch=           0 AvBLen=         0.0
 IPart= 11 NShTot=           0 NBatch=           0 AvBLen=         0.0
 IPart= 13 NShTot=           0 NBatch=           0 AvBLen=         0.0
 IPart=  0 NShTot=           6 NBatch=           6 AvBLen=         1.0
 IPart= 16 NShTot=           0 NBatch=           0 AvBLen=         0.0
 IPart=  9 NShTot=           0 NBatch=           0 AvBLen=         0.0
 IPart= 24 NShTot=           0 NBatch=           0 AvBLen=         0.0
 IPart= 15 NShTot=           0 NBatch=           0 AvBLen=         0.0
 IPart=  4 NShTot=           2 NBatch=           2 AvBLen=         1.0
 IPart=  3 NShTot=           2 NBatch=           2 AvBLen=         1.0
 IPart=  5 NShTot=           2 NBatch=           2 AvBLen=         1.0
 PrSmSu:  NxtVal=             37.
 *** Overlap *** 
                1             2             3             4             5 
      1  0.100000D+01
      2  0.209759D-01  0.100000D+01
      3  0.138012D+00  0.371775D+00  0.100000D+01
      4  0.000000D+00  0.000000D+00  0.000000D+00  0.100000D+01
      5  0.000000D+00  0.000000D+00  0.000000D+00  0.000000D+00  0.100000D+01
      6 -0.430006D-01  0.000000D+00  0.000000D+00  0.000000D+00  0.000000D+00
      7  0.598230D+00  0.223608D-01  0.300384D+00  0.000000D+00  0.000000D+00
      8  0.000000D+00  0.000000D+00  0.000000D+00  0.313309D+00  0.000000D+00
      9  0.000000D+00  0.000000D+00  0.000000D+00  0.000000D+00  0.313309D+00
     10 -0.408797D+00  0.000000D+00  0.000000D+00  0.000000D+00  0.000000D+00
     11  0.616920D+00 -0.412730D-03  0.136941D-01  0.000000D+00  0.000000D+00
     12  0.000000D+00  0.000000D+00  0.000000D+00  0.250808D-01  0.000000D+00
     13  0.000000D+00  0.000000D+00  0.000000D+00  0.000000D+00  0.250808D-01
     14 -0.503801D+00  0.000000D+00  0.000000D+00  0.000000D+00  0.000000D+00
     15  0.302439D+00  0.000000D+00  0.000000D+00  0.000000D+00  0.000000D+00
     16  0.000000D+00  0.000000D+00  0.000000D+00  0.000000D+00  0.000000D+00
     17  0.000000D+00  0.000000D+00  0.000000D+00  0.000000D+00  0.000000D+00
     18  0.000000D+00  0.000000D+00  0.000000D+00  0.000000D+00  0.000000D+00
     19  0.000000D+00  0.000000D+00  0.000000D+00  0.000000D+00  0.000000D+00
                6             7             8             9            10 
      6  0.100000D+01
      7  0.000000D+00  0.100000D+01
      8  0.000000D+00  0.000000D+00  0.100000D+01
      9  0.000000D+00  0.000000D+00  0.000000D+00  0.100000D+01
     10  0.313309D+00  0.000000D+00  0.000000D+00  0.000000D+00  0.100000D+01
     11  0.000000D+00  0.395149D+00  0.000000D+00  0.000000D+00  0.000000D+00
     12  0.000000D+00  0.000000D+00  0.407435D+00  0.000000D+00  0.000000D+00
     13  0.000000D+00  0.000000D+00  0.000000D+00  0.407435D+00  0.000000D+00
     14  0.250808D-01  0.000000D+00  0.000000D+00  0.000000D+00  0.407435D+00
     15  0.000000D+00  0.000000D+00  0.000000D+00  0.000000D+00  0.000000D+00
     16  0.000000D+00  0.000000D+00  0.000000D+00  0.000000D+00  0.000000D+00
     17  0.000000D+00  0.000000D+00  0.000000D+00  0.000000D+00  0.000000D+00
     18  0.000000D+00  0.000000D+00  0.000000D+00  0.000000D+00  0.000000D+00
     19  0.000000D+00  0.000000D+00  0.000000D+00  0.000000D+00  0.000000D+00
               11            12            13            14            15 
     11  0.100000D+01
     12  0.000000D+00  0.100000D+01
     13  0.000000D+00  0.000000D+00  0.100000D+01
     14  0.000000D+00  0.000000D+00  0.000000D+00  0.100000D+01
     15  0.000000D+00  0.000000D+00  0.000000D+00  0.000000D+00  0.100000D+01
     16  0.000000D+00  0.000000D+00  0.000000D+00  0.000000D+00  0.000000D+00
     17  0.000000D+00  0.000000D+00  0.000000D+00  0.000000D+00  0.000000D+00
     18  0.000000D+00  0.000000D+00  0.000000D+00  0.000000D+00  0.000000D+00
     19  0.000000D+00  0.000000D+00  0.000000D+00  0.000000D+00  0.000000D+00
               16            17            18            19 
     16  0.100000D+01
     17  0.000000D+00  0.100000D+01
     18  0.000000D+00  0.000000D+00  0.100000D+01
     19  0.000000D+00  0.000000D+00  0.000000D+00  0.100000D+01
 *** Kinetic Energy *** 
                1             2             3             4             5 
      1  0.760032D+00
      2  0.660838D-02  0.229340D+03
      3  0.394957D-01  0.137973D+01  0.120824D+02
      4  0.000000D+00  0.000000D+00  0.000000D+00  0.378073D+02
      5  0.000000D+00  0.000000D+00  0.000000D+00  0.000000D+00  0.378073D+02
      6 -0.325101D-01  0.000000D+00  0.000000D+00  0.000000D+00  0.000000D+00
      7  0.295572D+00 -0.798994D+00 -0.840664D+00  0.000000D+00  0.000000D+00
      8  0.000000D+00  0.000000D+00  0.000000D+00  0.187471D+01  0.000000D+00
      9  0.000000D+00  0.000000D+00  0.000000D+00  0.000000D+00  0.187471D+01
     10 -0.501669D+00  0.000000D+00  0.000000D+00  0.000000D+00  0.000000D+00
     11  0.904663D-01 -0.407071D-01 -0.207745D+00  0.000000D+00  0.000000D+00
     12  0.000000D+00  0.000000D+00  0.000000D+00 -0.209473D-01  0.000000D+00
     13  0.000000D+00  0.000000D+00  0.000000D+00  0.000000D+00 -0.209473D-01
     14 -0.254165D+00  0.000000D+00  0.000000D+00  0.000000D+00  0.000000D+00
     15  0.501159D+00  0.000000D+00  0.000000D+00  0.000000D+00  0.000000D+00
     16  0.000000D+00  0.000000D+00  0.000000D+00  0.000000D+00  0.000000D+00
     17  0.000000D+00  0.000000D+00  0.000000D+00  0.000000D+00  0.000000D+00
     18  0.000000D+00  0.000000D+00  0.000000D+00  0.000000D+00  0.000000D+00
     19  0.000000D+00  0.000000D+00  0.000000D+00  0.000000D+00  0.000000D+00
                6             7             8             9            10 
      6  0.378073D+02
      7  0.000000D+00  0.116813D+01
      8  0.000000D+00  0.000000D+00  0.275070D+01
      9  0.000000D+00  0.000000D+00  0.000000D+00  0.275070D+01
     10  0.187471D+01  0.000000D+00  0.000000D+00  0.000000D+00  0.275070D+01
     11  0.000000D+00 -0.927537D-01  0.000000D+00  0.000000D+00  0.000000D+00
     12  0.000000D+00  0.000000D+00  0.199329D+00  0.000000D+00  0.000000D+00
     13  0.000000D+00  0.000000D+00  0.000000D+00  0.199329D+00  0.000000D+00
     14 -0.209473D-01  0.000000D+00  0.000000D+00  0.000000D+00  0.199329D+00
     15  0.000000D+00  0.000000D+00  0.000000D+00  0.000000D+00  0.000000D+00
     16  0.000000D+00  0.000000D+00  0.000000D+00  0.000000D+00  0.000000D+00
     17  0.000000D+00  0.000000D+00  0.000000D+00  0.000000D+00  0.000000D+00
     18  0.000000D+00  0.000000D+00  0.000000D+00  0.000000D+00  0.000000D+00
     19  0.000000D+00  0.000000D+00  0.000000D+00  0.000000D+00  0.000000D+00
               11            12            13            14            15 
     11  0.207443D+00
     12  0.000000D+00  0.409500D+00
     13  0.000000D+00  0.000000D+00  0.409500D+00
     14  0.000000D+00  0.000000D+00  0.000000D+00  0.409500D+00
     15  0.000000D+00  0.000000D+00  0.000000D+00  0.000000D+00  0.180044D+01
     16  0.000000D+00  0.000000D+00  0.000000D+00  0.000000D+00  0.000000D+00
     17  0.000000D+00  0.000000D+00  0.000000D+00  0.000000D+00  0.000000D+00
     18  0.000000D+00  0.000000D+00  0.000000D+00  0.000000D+00  0.000000D+00
     19  0.000000D+00  0.000000D+00  0.000000D+00  0.000000D+00  0.000000D+00
               16            17            18            19 
     16  0.180044D+01
     17  0.000000D+00  0.180044D+01
     18  0.000000D+00  0.000000D+00  0.180044D+01
     19  0.000000D+00  0.000000D+00  0.000000D+00  0.180044D+01
 Entering OneElI...
 Calculate potential energy integrals
    NBasis =  19  MinDer = 0  MaxDer = 0
 Requested accuracy = 0.1000D-12
 Symmetry will be used
 PrmmSu-InSpLW:  IPartL=    0 NPrtUS=   36 NPrtUL=    1 DoSpLW=F IThBeg=    0 IThEnd=   35 NThAct=   36.
 PrSmSu:  IncTry=   512 NBBP=             42 NTPThr=   100 NPartT=   36 Incr=           1 LDynOK=F GPUOK=F.
 PrsmSu:  NPrtUS=  36 ThrOK=T IAlg=1 LenDen=           0 ISkipM=0 DoSpLW=F IThBeg=    0 IThEnd=   35.
 Prism:   IPart=     0 DynPar=F LinDyn=F Incr=           1.
 PRISM was handed   268432827 working-precision words and    21 shell-pairs
 PRISM was handed   268432827 working-precision words and    21 shell-pairs
 PRISM was handed   268432827 working-precision words and    21 shell-pairs
 PRISM was handed   268432827 working-precision words and    21 shell-pairs
 PRISM was handed   268432827 working-precision words and    21 shell-pairs
 PRISM was handed   268432827 working-precision words and    21 shell-pairs
 PRISM was handed   268432827 working-precision words and    21 shell-pairs
 PRISM was handed   268432827 working-precision words and    21 shell-pairs
 PRISM was handed   268432827 working-precision words and    21 shell-pairs
 PRISM was handed   268432827 working-precision words and    21 shell-pairs
 PRISM was handed   268432827 working-precision words and    21 shell-pairs
 PRISM was handed   268432827 working-precision words and    21 shell-pairs
 PRISM was handed   268432827 working-precision words and    21 shell-pairs
 PRISM was handed   268432827 working-precision words and    21 shell-pairs
 PRISM was handed   268432827 working-precision words and    21 shell-pairs
 PRISM was handed   268432827 working-precision words and    21 shell-pairs
 PRISM was handed   268432827 working-precision words and    21 shell-pairs
 PRISM was handed   268432827 working-precision words and    21 shell-pairs
 PRISM was handed   268432827 working-precision words and    21 shell-pairs
 PRISM was handed   268432827 working-precision words and    21 shell-pairs
 PRISM was handed   268432827 working-precision words and    21 shell-pairs
 PRISM was handed   268432827 working-precision words and    21 shell-pairs
 PRISM was handed   268432827 working-precision words and    21 shell-pairs
 PRISM was handed   268432827 working-precision words and    21 shell-pairs
 PRISM was handed   268432827 working-precision words and    21 shell-pairs
 PRISM was handed   268432827 working-precision words and    21 shell-pairs
 PRISM was handed   268432827 working-precision words and    21 shell-pairs
 PRISM was handed   268432827 working-precision words and    21 shell-pairs
 PRISM was handed   268432827 working-precision words and    21 shell-pairs
 PRISM was handed   268432827 working-precision words and    21 shell-pairs
 PRISM was handed   268432827 working-precision words and    21 shell-pairs
 PRISM was handed   268432827 working-precision words and    21 shell-pairs
 PRISM was handed   268432827 working-precision words and    21 shell-pairs
 PRISM was handed   268432827 working-precision words and    21 shell-pairs
 PRISM was handed   268432827 working-precision words and    21 shell-pairs
 PRISM was handed   268432827 working-precision words and    21 shell-pairs
 IPart=  4 NShTot=           4 NBatch=           2 AvBLen=         2.0
 IPart=  3 NShTot=           4 NBatch=           2 AvBLen=         2.0
 IPart=  0 NShTot=          12 NBatch=           6 AvBLen=         2.0
 IPart=  5 NShTot=           4 NBatch=           2 AvBLen=         2.0
 IPart=  2 NShTot=           8 NBatch=           4 AvBLen=         2.0
 IPart=  1 NShTot=          10 NBatch=           5 AvBLen=         2.0
 IPart= 12 NShTot=           0 NBatch=           0 AvBLen=         0.0
 IPart= 17 NShTot=           0 NBatch=           0 AvBLen=         0.0
 IPart= 32 NShTot=           0 NBatch=           0 AvBLen=         0.0
 IPart= 13 NShTot=           0 NBatch=           0 AvBLen=         0.0
 IPart= 21 NShTot=           0 NBatch=           0 AvBLen=         0.0
 IPart= 11 NShTot=           0 NBatch=           0 AvBLen=         0.0
 IPart= 29 NShTot=           0 NBatch=           0 AvBLen=         0.0
 IPart= 23 NShTot=           0 NBatch=           0 AvBLen=         0.0
 IPart=  7 NShTot=           0 NBatch=           0 AvBLen=         0.0
 IPart= 10 NShTot=           0 NBatch=           0 AvBLen=         0.0
 IPart= 33 NShTot=           0 NBatch=           0 AvBLen=         0.0
 IPart=  8 NShTot=           0 NBatch=           0 AvBLen=         0.0
 IPart= 25 NShTot=           0 NBatch=           0 AvBLen=         0.0
 IPart= 16 NShTot=           0 NBatch=           0 AvBLen=         0.0
 IPart= 24 NShTot=           0 NBatch=           0 AvBLen=         0.0
 IPart= 14 NShTot=           0 NBatch=           0 AvBLen=         0.0
 IPart= 18 NShTot=           0 NBatch=           0 AvBLen=         0.0
 IPart= 19 NShTot=           0 NBatch=           0 AvBLen=         0.0
 IPart= 34 NShTot=           0 NBatch=           0 AvBLen=         0.0
 IPart= 26 NShTot=           0 NBatch=           0 AvBLen=         0.0
 IPart= 15 NShTot=           0 NBatch=           0 AvBLen=         0.0
 IPart=  9 NShTot=           0 NBatch=           0 AvBLen=         0.0
 IPart= 22 NShTot=           0 NBatch=           0 AvBLen=         0.0
 IPart= 30 NShTot=           0 NBatch=           0 AvBLen=         0.0
 IPart= 35 NShTot=           0 NBatch=           0 AvBLen=         0.0
 IPart=  6 NShTot=           0 NBatch=           0 AvBLen=         0.0
 IPart= 27 NShTot=           0 NBatch=           0 AvBLen=         0.0
 IPart= 28 NShTot=           0 NBatch=           0 AvBLen=         0.0
 IPart= 20 NShTot=           0 NBatch=           0 AvBLen=         0.0
 IPart= 31 NShTot=           0 NBatch=           0 AvBLen=         0.0
 PrSmSu:  NxtVal=             37.
 ***** Potential Energy ***** 
                1             2             3             4             5 
      1  0.162101D+02
      2  0.509679D+01  0.469520D+03
      3  0.922882D+01  0.904270D+02  0.970080D+02
      4  0.000000D+00  0.000000D+00  0.000000D+00  0.962289D+02
      5  0.000000D+00  0.000000D+00  0.000000D+00  0.000000D+00  0.962289D+02
      6 -0.218663D+01 -0.155695D-01 -0.947643D-01  0.000000D+00  0.000000D+00
      7  0.136181D+02  0.473699D+01  0.171887D+02  0.000000D+00  0.000000D+00
      8  0.000000D+00  0.000000D+00  0.000000D+00  0.176157D+02  0.000000D+00
      9  0.000000D+00  0.000000D+00  0.000000D+00  0.000000D+00  0.176157D+02
     10 -0.845772D+01 -0.108137D-02 -0.474103D-01  0.000000D+00  0.000000D+00
     11  0.760714D+01 -0.133980D+00  0.491760D+00  0.000000D+00  0.000000D+00
     12  0.000000D+00  0.000000D+00  0.000000D+00  0.121652D+01  0.000000D+00
     13  0.000000D+00  0.000000D+00  0.000000D+00  0.000000D+00  0.121652D+01
     14 -0.617967D+01 -0.551544D-04 -0.419489D-02  0.000000D+00  0.000000D+00
     15  0.463356D+01  0.133032D-04  0.486576D-02  0.000000D+00  0.000000D+00
     16  0.000000D+00  0.000000D+00  0.000000D+00 -0.100917D-01  0.000000D+00
     17  0.000000D+00  0.000000D+00  0.000000D+00  0.000000D+00 -0.100917D-01
     18  0.000000D+00  0.000000D+00  0.000000D+00  0.000000D+00  0.000000D+00
     19  0.000000D+00  0.000000D+00  0.000000D+00  0.000000D+00  0.000000D+00
                6             7             8             9            10 
      6  0.962547D+02
      7 -0.495128D-01  0.259664D+02
      8  0.000000D+00  0.000000D+00  0.259342D+02
      9  0.000000D+00  0.000000D+00  0.000000D+00  0.259342D+02
     10  0.176377D+02 -0.293079D+00  0.000000D+00  0.000000D+00  0.261611D+02
     11 -0.334057D-02  0.669470D+01  0.000000D+00  0.000000D+00 -0.114488D+00
     12  0.000000D+00  0.000000D+00  0.698572D+01  0.000000D+00  0.000000D+00
     13  0.000000D+00  0.000000D+00  0.000000D+00  0.698572D+01  0.000000D+00
     14  0.121889D+01 -0.113582D+00  0.000000D+00  0.000000D+00  0.708032D+01
     15 -0.153704D-01  0.135573D+00  0.000000D+00  0.000000D+00 -0.279730D+00
     16  0.000000D+00  0.000000D+00 -0.123165D+00  0.000000D+00  0.000000D+00
     17  0.000000D+00  0.000000D+00  0.000000D+00 -0.123165D+00  0.000000D+00
     18  0.000000D+00  0.000000D+00  0.000000D+00  0.000000D+00  0.000000D+00
     19  0.000000D+00  0.000000D+00  0.000000D+00  0.000000D+00  0.000000D+00
               11            12            13            14            15 
     11  0.977427D+01
     12  0.000000D+00  0.974050D+01
     13  0.000000D+00  0.000000D+00  0.974050D+01
     14 -0.145616D+00  0.000000D+00  0.000000D+00  0.983911D+01
     15  0.960062D-01  0.000000D+00  0.000000D+00 -0.204954D+00  0.146217D+02
     16  0.000000D+00 -0.996742D-01  0.000000D+00  0.000000D+00  0.000000D+00
     17  0.000000D+00  0.000000D+00 -0.996742D-01  0.000000D+00  0.000000D+00
     18  0.000000D+00  0.000000D+00  0.000000D+00  0.000000D+00  0.000000D+00
     19  0.000000D+00  0.000000D+00  0.000000D+00  0.000000D+00  0.000000D+00
               16            17            18            19 
     16  0.144723D+02
     17  0.000000D+00  0.144723D+02
     18  0.000000D+00  0.000000D+00  0.143845D+02
     19  0.000000D+00  0.000000D+00  0.000000D+00  0.143845D+02
 ****** Core Hamiltonian ****** 
                1             2             3             4             5 
      1 -0.154501D+02
      2 -0.509019D+01 -0.240180D+03
      3 -0.918932D+01 -0.890472D+02 -0.849256D+02
      4  0.000000D+00  0.000000D+00  0.000000D+00 -0.584216D+02
      5  0.000000D+00  0.000000D+00  0.000000D+00  0.000000D+00 -0.584216D+02
      6  0.215412D+01  0.155695D-01  0.947643D-01  0.000000D+00  0.000000D+00
      7 -0.133225D+02 -0.553599D+01 -0.180294D+02  0.000000D+00  0.000000D+00
      8  0.000000D+00  0.000000D+00  0.000000D+00 -0.157410D+02  0.000000D+00
      9  0.000000D+00  0.000000D+00  0.000000D+00  0.000000D+00 -0.157410D+02
     10  0.795605D+01  0.108137D-02  0.474103D-01  0.000000D+00  0.000000D+00
     11 -0.751667D+01  0.932729D-01 -0.699506D+00  0.000000D+00  0.000000D+00
     12  0.000000D+00  0.000000D+00  0.000000D+00 -0.123747D+01  0.000000D+00
     13  0.000000D+00  0.000000D+00  0.000000D+00  0.000000D+00 -0.123747D+01
     14  0.592551D+01  0.551544D-04  0.419489D-02  0.000000D+00  0.000000D+00
     15 -0.413241D+01 -0.133032D-04 -0.486576D-02  0.000000D+00  0.000000D+00
     16  0.000000D+00  0.000000D+00  0.000000D+00  0.100917D-01  0.000000D+00
     17  0.000000D+00  0.000000D+00  0.000000D+00  0.000000D+00  0.100917D-01
     18  0.000000D+00  0.000000D+00  0.000000D+00  0.000000D+00  0.000000D+00
     19  0.000000D+00  0.000000D+00  0.000000D+00  0.000000D+00  0.000000D+00
                6             7             8             9            10 
      6 -0.584473D+02
      7  0.495128D-01 -0.247983D+02
      8  0.000000D+00  0.000000D+00 -0.231835D+02
      9  0.000000D+00  0.000000D+00  0.000000D+00 -0.231835D+02
     10 -0.157630D+02  0.293079D+00  0.000000D+00  0.000000D+00 -0.234104D+02
     11  0.334057D-02 -0.678746D+01  0.000000D+00  0.000000D+00  0.114488D+00
     12  0.000000D+00  0.000000D+00 -0.678639D+01  0.000000D+00  0.000000D+00
     13  0.000000D+00  0.000000D+00  0.000000D+00 -0.678639D+01  0.000000D+00
     14 -0.123984D+01  0.113582D+00  0.000000D+00  0.000000D+00 -0.688099D+01
     15  0.153704D-01 -0.135573D+00  0.000000D+00  0.000000D+00  0.279730D+00
     16  0.000000D+00  0.000000D+00  0.123165D+00  0.000000D+00  0.000000D+00
     17  0.000000D+00  0.000000D+00  0.000000D+00  0.123165D+00  0.000000D+00
     18  0.000000D+00  0.000000D+00  0.000000D+00  0.000000D+00  0.000000D+00
     19  0.000000D+00  0.000000D+00  0.000000D+00  0.000000D+00  0.000000D+00
               11            12            13            14            15 
     11 -0.956682D+01
     12  0.000000D+00 -0.933100D+01
     13  0.000000D+00  0.000000D+00 -0.933100D+01
     14  0.145616D+00  0.000000D+00  0.000000D+00 -0.942961D+01
     15 -0.960062D-01  0.000000D+00  0.000000D+00  0.204954D+00 -0.128213D+02
     16  0.000000D+00  0.996742D-01  0.000000D+00  0.000000D+00  0.000000D+00
     17  0.000000D+00  0.000000D+00  0.996742D-01  0.000000D+00  0.000000D+00
     18  0.000000D+00  0.000000D+00  0.000000D+00  0.000000D+00  0.000000D+00
     19  0.000000D+00  0.000000D+00  0.000000D+00  0.000000D+00  0.000000D+00
               16            17            18            19 
     16 -0.126719D+02
     17  0.000000D+00 -0.126719D+02
     18  0.000000D+00  0.000000D+00 -0.125841D+02
     19  0.000000D+00  0.000000D+00  0.000000D+00 -0.125841D+02
 SVDSVc IOpt=   1 NormSV=T IR=1
 SVDSVc V= 2.38D+00 1.55D+00 1.32D+00 1.05D+00 1.00D+00 9.85D-01 7.25D-01 4.98D-01 4.55D-01 4.25D-02
 SVDSVc IOpt=   1 NormSV=T IR=2
 SVDSVc V= 1.00D+00
 SVDSVc IOpt=   1 NormSV=T IR=3
 SVDSVc V= 1.53D+00 1.00D+00 9.76D-01 4.98D-01
 SVDSVc IOpt=   1 NormSV=T IR=4
 SVDSVc V= 1.53D+00 1.00D+00 9.76D-01 4.98D-01
 TstOVc:  Largest diagonal error= 2.22D-15 IB=1 I=    4.
 TstOVc:  Largest same sym error= 1.29D-15 IB=1 I=    9 J=    8.
 TstOVc:  Largest diff sym error= 0.00D+00 IB=0 JB=0 I=    0 J=    0.
 Orthogonalized basis functions: 
                 1             2             3             4             5 
      1   0.406836D+00 -0.229310D-01 -0.110008D+00  0.119916D+00  0.000000D+00
      2   0.417738D-01  0.225337D+00  0.542264D+00  0.141763D+00  0.000000D+00
      3   0.115338D+00  0.315983D+00  0.480550D+00  0.241118D-01  0.000000D+00
      4   0.000000D+00  0.000000D+00  0.000000D+00  0.000000D+00  0.000000D+00
      5   0.000000D+00  0.000000D+00  0.000000D+00  0.000000D+00  0.000000D+00
      6  -0.611425D-01  0.258865D+00 -0.209571D+00  0.432500D+00  0.000000D+00
      7   0.278112D+00  0.299684D+00 -0.921616D-01 -0.216069D+00  0.000000D+00
      8   0.000000D+00  0.000000D+00  0.000000D+00  0.000000D+00  0.000000D+00
      9   0.000000D+00  0.000000D+00  0.000000D+00  0.000000D+00  0.000000D+00
     10  -0.196239D+00  0.422353D+00 -0.220380D+00  0.982080D-01  0.000000D+00
     11   0.263207D+00  0.197800D+00 -0.304462D+00 -0.233912D+00  0.000000D+00
     12   0.000000D+00  0.000000D+00  0.000000D+00  0.000000D+00  0.000000D+00
     13   0.000000D+00  0.000000D+00  0.000000D+00  0.000000D+00  0.000000D+00
     14  -0.208022D+00  0.346586D+00 -0.123195D+00 -0.200798D+00  0.000000D+00
     15   0.893544D-01 -0.126424D-01 -0.103441D+00  0.762302D+00  0.000000D+00
     16   0.000000D+00  0.000000D+00  0.000000D+00  0.000000D+00  0.000000D+00
     17   0.000000D+00  0.000000D+00  0.000000D+00  0.000000D+00  0.000000D+00
     18   0.000000D+00  0.000000D+00  0.000000D+00  0.000000D+00  0.100000D+01
     19   0.000000D+00  0.000000D+00  0.000000D+00  0.000000D+00  0.000000D+00
                 6             7             8             9            10 
      1   0.275474D-01  0.449469D-01  0.108133D-01  0.498842D-01  0.366696D+01
      2   0.247482D-01  0.720612D+00  0.225454D-02  0.535530D+00 -0.492814D-01
      3  -0.117656D-03 -0.506994D+00 -0.359624D-02 -0.840658D+00  0.137613D-01
      4   0.000000D+00  0.000000D+00  0.000000D+00  0.000000D+00  0.000000D+00
      5   0.000000D+00  0.000000D+00  0.000000D+00  0.000000D+00  0.000000D+00
      6   0.679542D+00 -0.254755D-01 -0.595162D+00 -0.533282D-02 -0.197446D+00
      7  -0.413919D-01 -0.475482D+00 -0.119021D-02  0.869385D+00 -0.158986D+01
      8   0.000000D+00  0.000000D+00  0.000000D+00  0.000000D+00  0.000000D+00
      9   0.000000D+00  0.000000D+00  0.000000D+00  0.000000D+00  0.000000D+00
     10   0.106214D-01  0.247177D-01  0.101793D+01  0.131979D-01  0.985401D+00
     11  -0.414314D-01  0.607922D+00 -0.122524D-01 -0.665486D+00 -0.170671D+01
     12   0.000000D+00  0.000000D+00  0.000000D+00  0.000000D+00  0.000000D+00
     13   0.000000D+00  0.000000D+00  0.000000D+00  0.000000D+00  0.000000D+00
     14  -0.495308D+00  0.479821D-01 -0.785626D+00  0.365033D-01  0.151526D+01
     15  -0.550761D+00 -0.493670D-01 -0.651493D-02 -0.276910D-01 -0.115824D+01
     16   0.000000D+00  0.000000D+00  0.000000D+00  0.000000D+00  0.000000D+00
     17   0.000000D+00  0.000000D+00  0.000000D+00  0.000000D+00  0.000000D+00
     18   0.000000D+00  0.000000D+00  0.000000D+00  0.000000D+00  0.000000D+00
     19   0.000000D+00  0.000000D+00  0.000000D+00  0.000000D+00  0.000000D+00
                11            12            13            14            15 
      1   0.000000D+00  0.000000D+00  0.000000D+00  0.000000D+00  0.000000D+00
      2   0.000000D+00  0.000000D+00  0.000000D+00  0.000000D+00  0.000000D+00
      3   0.000000D+00  0.000000D+00  0.000000D+00  0.000000D+00  0.000000D+00
      4   0.000000D+00  0.358362D+00  0.000000D+00  0.802807D+00 -0.593005D+00
      5   0.000000D+00  0.000000D+00  0.000000D+00  0.000000D+00  0.000000D+00
      6   0.000000D+00  0.000000D+00  0.000000D+00  0.000000D+00  0.000000D+00
      7   0.000000D+00  0.000000D+00  0.000000D+00  0.000000D+00  0.000000D+00
      8   0.000000D+00  0.565532D+00  0.000000D+00 -0.127423D-01  0.101370D+01
      9   0.000000D+00  0.000000D+00  0.000000D+00  0.000000D+00  0.000000D+00
     10   0.000000D+00  0.000000D+00  0.000000D+00  0.000000D+00  0.000000D+00
     11   0.000000D+00  0.000000D+00  0.000000D+00  0.000000D+00  0.000000D+00
     12   0.000000D+00  0.454909D+00  0.000000D+00 -0.616584D+00 -0.793056D+00
     13   0.000000D+00  0.000000D+00  0.000000D+00  0.000000D+00  0.000000D+00
     14   0.000000D+00  0.000000D+00  0.000000D+00  0.000000D+00  0.000000D+00
     15   0.000000D+00  0.000000D+00  0.000000D+00  0.000000D+00  0.000000D+00
     16   0.000000D+00  0.000000D+00  0.100000D+01  0.000000D+00  0.000000D+00
     17   0.000000D+00  0.000000D+00  0.000000D+00  0.000000D+00  0.000000D+00
     18   0.000000D+00  0.000000D+00  0.000000D+00  0.000000D+00  0.000000D+00
     19   0.100000D+01  0.000000D+00  0.000000D+00  0.000000D+00  0.000000D+00
                16            17            18            19 
      1   0.000000D+00  0.000000D+00  0.000000D+00  0.000000D+00
      2   0.000000D+00  0.000000D+00  0.000000D+00  0.000000D+00
      3   0.000000D+00  0.000000D+00  0.000000D+00  0.000000D+00
      4   0.000000D+00  0.000000D+00  0.000000D+00  0.000000D+00
      5   0.358362D+00  0.000000D+00  0.802807D+00 -0.593005D+00
      6   0.000000D+00  0.000000D+00  0.000000D+00  0.000000D+00
      7   0.000000D+00  0.000000D+00  0.000000D+00  0.000000D+00
      8   0.000000D+00  0.000000D+00  0.000000D+00  0.000000D+00
      9   0.565532D+00  0.000000D+00 -0.127423D-01  0.101370D+01
     10   0.000000D+00  0.000000D+00  0.000000D+00  0.000000D+00
     11   0.000000D+00  0.000000D+00  0.000000D+00  0.000000D+00
     12   0.000000D+00  0.000000D+00  0.000000D+00  0.000000D+00
     13   0.454909D+00  0.000000D+00 -0.616584D+00 -0.793056D+00
     14   0.000000D+00  0.000000D+00  0.000000D+00  0.000000D+00
     15   0.000000D+00  0.000000D+00  0.000000D+00  0.000000D+00
     16   0.000000D+00  0.000000D+00  0.000000D+00  0.000000D+00
     17   0.000000D+00  0.100000D+01  0.000000D+00  0.000000D+00
     18   0.000000D+00  0.000000D+00  0.000000D+00  0.000000D+00
     19   0.000000D+00  0.000000D+00  0.000000D+00  0.000000D+00
 NBasis=    19 RedAO= T EigKep=  4.25D-02  NBF=    10     1     4     4
 NBsUse=    19 1.00D-06 EigRej= -1.00D+00 NBFU=    10     1     4     4
 Leave Link  302 at Fri Mar 25 14:37:28 2022, MaxMem=  9663676416 cpu:               4.4 elap:               0.2
 (Enter /nopt/nrel/apps/gaussian/g16C_1/g16/l303.exe)
 DipDrv will not compute anything.
 Fermi contact integrals: 
                 1             2 
      1   0.628247D+00  0.152706D+00
      2   0.000000D+00  0.454848D+02
      3   0.875605D-04  0.245213D+01
      4   0.000000D+00  0.000000D+00
      5   0.000000D+00  0.000000D+00
      6  -0.309282D-03  0.000000D+00
      7   0.165586D+00  0.115357D+00
      8   0.000000D+00  0.000000D+00
      9   0.000000D+00  0.000000D+00
     10  -0.284535D+00  0.000000D+00
     11   0.850081D-01 -0.521539D-02
     12   0.000000D+00  0.000000D+00
     13   0.000000D+00  0.000000D+00
     14  -0.142270D+00  0.000000D+00
     15   0.353093D+00  0.000000D+00
     16   0.000000D+00  0.000000D+00
     17   0.000000D+00  0.000000D+00
     18   0.000000D+00  0.000000D+00
     19   0.000000D+00  0.000000D+00
 Leave Link  303 at Fri Mar 25 14:37:28 2022, MaxMem=  9663676416 cpu:               1.1 elap:               0.1
 (Enter /nopt/nrel/apps/gaussian/g16C_1/g16/l401.exe)
 ExpMin= 1.16D-01 ExpMax= 1.03D+03 ExpMxC= 1.03D+03 IAcc=3 IRadAn=         5 AccDes= 0.00D+00
 Harris functional with IExCor=  205 and IRadAn=       5 diagonalized for initial guess.
 HarFok:  IExCor=  205 AccDes= 0.00D+00 IRadAn=         5 IDoV= 1 UseB2=F ITyADJ=14
 ICtDFT=  3500011 ScaDFX=  1.000000  1.000000  1.000000  1.000000
 FoFCou: FMM=F IPFlag=           0 FMFlag=      100000 FMFlg1=           0
         NFxFlg=           0 DoJE=T BraDBF=F KetDBF=T FulRan=T
         wScrn=  0.000000 ICntrl=       500 IOpCl=  0 I1Cent=   200000004 NGrid=           0
         NMat0=    1 NMatS0=      1 NMatT0=    0 NMatD0=    1 NMtDS0=    0 NMtDT0=    0
 Petite list used in FoFCou.
 Harris En= -838.232998321620    
 JPrj=0 DoOrth=F DoCkMO=F.
 Initial guess orbital symmetries:
 Alpha Orbitals:
       Occupied  (SG) (SG) (SG) (PI) (PI) (SG) (SG) (PI) (PI) (SG)
                 (SG) (PI)
       Virtual   (PI) (DLTA) (DLTA) (SG) (PI) (PI) (SG)
 Beta  Orbitals:
       Occupied  (SG) (SG) (SG) (PI) (PI) (SG) (SG) (PI) (PI) (SG)
                 (SG)
       Virtual   (PI) (PI) (DLTA) (DLTA) (SG) (PI) (PI) (SG)
 Initial guess <Sx>= 0.0000 <Sy>= 0.0000 <Sz>= 0.5000 <S**2>= 0.7500 S= 0.5000
 Leave Link  401 at Fri Mar 25 14:37:29 2022, MaxMem=  9663676416 cpu:               4.4 elap:               0.2
 (Enter /nopt/nrel/apps/gaussian/g16C_1/g16/l502.exe)
 Keep R1 and R2 ints in memory in symmetry-blocked form, NReq=7413390.
 FoFCou: FMM=F IPFlag=           0 FMFlag=           0 FMFlg1=           0
         NFxFlg=           0 DoJE=F BraDBF=F KetDBF=F FulRan=T
         wScrn=  0.000000 ICntrl=       600 IOpCl=  0 I1Cent=           0 NGrid=           0
         NMat0=    1 NMatS0=    190 NMatT0=    0 NMatD0=    1 NMtDS0=    0 NMtDT0=    0
 Petite list used in FoFCou.
 UHF open shell SCF:
 Using DIIS extrapolation, IDIIS=  1040.
 NGot=  9663676416 LenX=  9663662661 LenY=  9663661779
 Requested convergence on RMS density matrix=1.00D-08 within 128 cycles.
 Requested convergence on MAX density matrix=1.00D-06.
 Requested convergence on             energy=1.00D-06.
 No special actions if energy rises.

 Cycle   1  Pass 1  IDiag  1:
 E= -838.776543688973    
 DIIS: error= 6.00D-02 at cycle   1 NSaved=   1.
 NSaved= 1 IEnMin= 1 EnMin= -838.776543688973     IErMin= 1 ErrMin= 6.00D-02
 ErrMax= 6.00D-02  0.00D+00 EMaxC= 1.00D-01 BMatC= 3.44D-01 BMatP= 3.44D-01
 IDIUse=3 WtCom= 4.00D-01 WtEn= 6.00D-01
 Coeff-Com:  0.100D+01
 Coeff-En:   0.100D+01
 Coeff:      0.100D+01
 Gap=     0.444 Goal=   None    Shift=    0.000
 Gap=     0.496 Goal=   None    Shift=    0.000
 GapD=    0.444 DampG=2.000 DampE=0.250 DampFc=0.5000 IDamp=-1.
 Damping current iteration by 5.00D-01
 RMSDP=1.93D-02 MaxDP=1.51D-01              OVMax= 0.00D+00

 Cycle   2  Pass 1  IDiag  1:
 E= -838.795355919839     Delta-E=       -0.018812230865 Rises=F Damp=T
 DIIS: error= 3.06D-02 at cycle   2 NSaved=   2.
 NSaved= 2 IEnMin= 2 EnMin= -838.795355919839     IErMin= 2 ErrMin= 3.06D-02
 ErrMax= 3.06D-02  0.00D+00 EMaxC= 1.00D-01 BMatC= 8.42D-02 BMatP= 3.44D-01
 IDIUse=3 WtCom= 6.94D-01 WtEn= 3.06D-01
 Coeff-Com: -0.960D+00 0.196D+01
 Coeff-En:   0.000D+00 0.100D+01
 Coeff:     -0.667D+00 0.167D+01
 Gap=     0.422 Goal=   None    Shift=    0.000
 Gap=     0.452 Goal=   None    Shift=    0.000
 RMSDP=8.87D-03 MaxDP=6.18D-02 DE=-1.88D-02 OVMax= 0.00D+00

 Cycle   3  Pass 1  IDiag  1:
 E= -838.815249294422     Delta-E=       -0.019893374583 Rises=F Damp=F
 DIIS: error= 2.45D-03 at cycle   3 NSaved=   3.
 NSaved= 3 IEnMin= 3 EnMin= -838.815249294422     IErMin= 3 ErrMin= 2.45D-03
 ErrMax= 2.45D-03  0.00D+00 EMaxC= 1.00D-01 BMatC= 3.66D-04 BMatP= 8.42D-02
 IDIUse=3 WtCom= 9.76D-01 WtEn= 2.45D-02
 Coeff-Com:  0.166D+00-0.342D+00 0.118D+01
 Coeff-En:   0.000D+00 0.000D+00 0.100D+01
 Coeff:      0.162D+00-0.334D+00 0.117D+01
 Gap=     0.421 Goal=   None    Shift=    0.000
 Gap=     0.447 Goal=   None    Shift=    0.000
 RMSDP=1.77D-03 MaxDP=1.74D-02 DE=-1.99D-02 OVMax= 0.00D+00

 Cycle   4  Pass 1  IDiag  1:
 E= -838.815814672881     Delta-E=       -0.000565378459 Rises=F Damp=F
 DIIS: error= 1.51D-03 at cycle   4 NSaved=   4.
 NSaved= 4 IEnMin= 4 EnMin= -838.815814672881     IErMin= 4 ErrMin= 1.51D-03
 ErrMax= 1.51D-03  0.00D+00 EMaxC= 1.00D-01 BMatC= 1.38D-04 BMatP= 3.66D-04
 IDIUse=3 WtCom= 9.85D-01 WtEn= 1.51D-02
 Coeff-Com:  0.654D-01-0.125D+00-0.888D+00 0.195D+01
 Coeff-En:   0.000D+00 0.000D+00 0.000D+00 0.100D+01
 Coeff:      0.644D-01-0.123D+00-0.875D+00 0.193D+01
 Gap=     0.423 Goal=   None    Shift=    0.000
 Gap=     0.447 Goal=   None    Shift=    0.000
 RMSDP=2.11D-03 MaxDP=2.10D-02 DE=-5.65D-04 OVMax= 0.00D+00

 Cycle   5  Pass 1  IDiag  1:
 E= -838.816155691594     Delta-E=       -0.000341018713 Rises=F Damp=F
 DIIS: error= 5.50D-04 at cycle   5 NSaved=   5.
 NSaved= 5 IEnMin= 5 EnMin= -838.816155691594     IErMin= 5 ErrMin= 5.50D-04
 ErrMax= 5.50D-04  0.00D+00 EMaxC= 1.00D-01 BMatC= 1.82D-05 BMatP= 1.38D-04
 IDIUse=3 WtCom= 9.95D-01 WtEn= 5.50D-03
 Coeff-Com: -0.189D-01 0.368D-01 0.258D+00-0.855D+00 0.158D+01
 Coeff-En:   0.000D+00 0.000D+00 0.000D+00 0.000D+00 0.100D+01
 Coeff:     -0.188D-01 0.366D-01 0.256D+00-0.850D+00 0.158D+01
 Gap=     0.424 Goal=   None    Shift=    0.000
 Gap=     0.447 Goal=   None    Shift=    0.000
 RMSDP=8.71D-04 MaxDP=8.09D-03 DE=-3.41D-04 OVMax= 0.00D+00

 Cycle   6  Pass 1  IDiag  1:
 E= -838.816209400574     Delta-E=       -0.000053708980 Rises=F Damp=F
 DIIS: error= 3.90D-04 at cycle   6 NSaved=   6.
 NSaved= 6 IEnMin= 6 EnMin= -838.816209400574     IErMin= 6 ErrMin= 3.90D-04
 ErrMax= 3.90D-04  0.00D+00 EMaxC= 1.00D-01 BMatC= 6.44D-06 BMatP= 1.82D-05
 IDIUse=3 WtCom= 9.96D-01 WtEn= 3.90D-03
 Coeff-Com:  0.371D-01-0.732D-01-0.343D+00 0.126D+01-0.262D+01 0.274D+01
 Coeff-En:   0.000D+00 0.000D+00 0.000D+00 0.000D+00 0.000D+00 0.100D+01
 Coeff:      0.370D-01-0.729D-01-0.341D+00 0.125D+01-0.261D+01 0.274D+01
 Gap=     0.424 Goal=   None    Shift=    0.000
 Gap=     0.447 Goal=   None    Shift=    0.000
 RMSDP=6.84D-04 MaxDP=7.08D-03 DE=-5.37D-05 OVMax= 0.00D+00

 Cycle   7  Pass 1  IDiag  1:
 E= -838.816239710085     Delta-E=       -0.000030309511 Rises=F Damp=F
 DIIS: error= 2.91D-04 at cycle   7 NSaved=   7.
 NSaved= 7 IEnMin= 7 EnMin= -838.816239710085     IErMin= 7 ErrMin= 2.91D-04
 ErrMax= 2.91D-04  0.00D+00 EMaxC= 1.00D-01 BMatC= 2.99D-06 BMatP= 6.44D-06
 IDIUse=3 WtCom= 9.97D-01 WtEn= 2.91D-03
 Coeff-Com: -0.228D-01 0.451D-01 0.191D+00-0.738D+00 0.165D+01-0.273D+01
 Coeff-Com:  0.261D+01
 Coeff-En:   0.000D+00 0.000D+00 0.000D+00 0.000D+00 0.000D+00 0.000D+00
 Coeff-En:   0.100D+01
 Coeff:     -0.227D-01 0.450D-01 0.191D+00-0.736D+00 0.164D+01-0.272D+01
 Coeff:      0.260D+01
 Gap=     0.424 Goal=   None    Shift=    0.000
 Gap=     0.447 Goal=   None    Shift=    0.000
 RMSDP=8.12D-04 MaxDP=8.18D-03 DE=-3.03D-05 OVMax= 0.00D+00

 Cycle   8  Pass 1  IDiag  1:
 E= -838.816260778636     Delta-E=       -0.000021068551 Rises=F Damp=F
 DIIS: error= 1.38D-04 at cycle   8 NSaved=   8.
 NSaved= 8 IEnMin= 8 EnMin= -838.816260778636     IErMin= 8 ErrMin= 1.38D-04
 ErrMax= 1.38D-04  0.00D+00 EMaxC= 1.00D-01 BMatC= 1.01D-06 BMatP= 2.99D-06
 IDIUse=3 WtCom= 9.99D-01 WtEn= 1.38D-03
 Coeff-Com:  0.222D-01-0.440D-01-0.158D+00 0.653D+00-0.155D+01 0.341D+01
 Coeff-Com: -0.452D+01 0.318D+01
 Coeff-En:   0.000D+00 0.000D+00 0.000D+00 0.000D+00 0.000D+00 0.000D+00
 Coeff-En:   0.000D+00 0.100D+01
 Coeff:      0.222D-01-0.440D-01-0.158D+00 0.652D+00-0.155D+01 0.341D+01
 Coeff:     -0.451D+01 0.318D+01
 Gap=     0.423 Goal=   None    Shift=    0.000
 Gap=     0.447 Goal=   None    Shift=    0.000
 RMSDP=6.00D-04 MaxDP=5.40D-03 DE=-2.11D-05 OVMax= 0.00D+00

 Cycle   9  Pass 1  IDiag  1:
 E= -838.816268182166     Delta-E=       -0.000007403530 Rises=F Damp=F
 DIIS: error= 4.02D-05 at cycle   9 NSaved=   9.
 NSaved= 9 IEnMin= 9 EnMin= -838.816268182166     IErMin= 9 ErrMin= 4.02D-05
 ErrMax= 4.02D-05  0.00D+00 EMaxC= 1.00D-01 BMatC= 1.87D-07 BMatP= 1.01D-06
 IDIUse=1 WtCom= 1.00D+00 WtEn= 0.00D+00
 Coeff-Com: -0.704D-02 0.139D-01 0.774D-01-0.296D+00 0.696D+00-0.164D+01
 Coeff-Com:  0.233D+01-0.197D+01 0.179D+01
 Coeff:     -0.704D-02 0.139D-01 0.774D-01-0.296D+00 0.696D+00-0.164D+01
 Coeff:      0.233D+01-0.197D+01 0.179D+01
 Gap=     0.423 Goal=   None    Shift=    0.000
 Gap=     0.447 Goal=   None    Shift=    0.000
 RMSDP=1.60D-04 MaxDP=1.31D-03 DE=-7.40D-06 OVMax= 0.00D+00

 Cycle  10  Pass 1  IDiag  1:
 E= -838.816269080776     Delta-E=       -0.000000898610 Rises=F Damp=F
 DIIS: error= 3.16D-05 at cycle  10 NSaved=  10.
 NSaved=10 IEnMin=10 EnMin= -838.816269080776     IErMin=10 ErrMin= 3.16D-05
 ErrMax= 3.16D-05  0.00D+00 EMaxC= 1.00D-01 BMatC= 9.28D-08 BMatP= 1.87D-07
 IDIUse=1 WtCom= 1.00D+00 WtEn= 0.00D+00
 Coeff-Com:  0.595D-02-0.117D-01-0.695D-01 0.269D+00-0.644D+00 0.163D+01
 Coeff-Com: -0.250D+01 0.244D+01-0.341D+01 0.329D+01
 Coeff:      0.595D-02-0.117D-01-0.695D-01 0.269D+00-0.644D+00 0.163D+01
 Coeff:     -0.250D+01 0.244D+01-0.341D+01 0.329D+01
 Gap=     0.423 Goal=   None    Shift=    0.000
 Gap=     0.447 Goal=   None    Shift=    0.000
 RMSDP=1.41D-04 MaxDP=1.14D-03 DE=-8.99D-07 OVMax= 0.00D+00

 Cycle  11  Pass 1  IDiag  1:
 E= -838.816269687266     Delta-E=       -0.000000606490 Rises=F Damp=F
 DIIS: error= 2.93D-05 at cycle  11 NSaved=  11.
 NSaved=11 IEnMin=11 EnMin= -838.816269687266     IErMin=11 ErrMin= 2.93D-05
 ErrMax= 2.93D-05  0.00D+00 EMaxC= 1.00D-01 BMatC= 3.46D-08 BMatP= 9.28D-08
 IDIUse=1 WtCom= 1.00D+00 WtEn= 0.00D+00
 Coeff-Com: -0.443D-02 0.873D-02 0.371D-01-0.152D+00 0.369D+00-0.978D+00
 Coeff-Com:  0.156D+01-0.163D+01 0.260D+01-0.320D+01 0.238D+01
 Coeff:     -0.443D-02 0.873D-02 0.371D-01-0.152D+00 0.369D+00-0.978D+00
 Coeff:      0.156D+01-0.163D+01 0.260D+01-0.320D+01 0.238D+01
 Gap=     0.423 Goal=   None    Shift=    0.000
 Gap=     0.447 Goal=   None    Shift=    0.000
 RMSDP=9.40D-05 MaxDP=8.85D-04 DE=-6.06D-07 OVMax= 0.00D+00

 Cycle  12  Pass 1  IDiag  1:
 E= -838.816269942751     Delta-E=       -0.000000255484 Rises=F Damp=F
 DIIS: error= 2.40D-05 at cycle  12 NSaved=  12.
 NSaved=12 IEnMin=12 EnMin= -838.816269942751     IErMin=12 ErrMin= 2.40D-05
 ErrMax= 2.40D-05  0.00D+00 EMaxC= 1.00D-01 BMatC= 1.46D-08 BMatP= 3.46D-08
 IDIUse=1 WtCom= 1.00D+00 WtEn= 0.00D+00
 Coeff-Com:  0.423D-02-0.838D-02-0.205D-01 0.982D-01-0.249D+00 0.697D+00
 Coeff-Com: -0.118D+01 0.131D+01-0.238D+01 0.336D+01-0.372D+01 0.307D+01
 Coeff:      0.423D-02-0.838D-02-0.205D-01 0.982D-01-0.249D+00 0.697D+00
 Coeff:     -0.118D+01 0.131D+01-0.238D+01 0.336D+01-0.372D+01 0.307D+01
 Gap=     0.423 Goal=   None    Shift=    0.000
 Gap=     0.447 Goal=   None    Shift=    0.000
 RMSDP=8.54D-05 MaxDP=1.02D-03 DE=-2.55D-07 OVMax= 0.00D+00

 Cycle  13  Pass 1  IDiag  1:
 E= -838.816270078130     Delta-E=       -0.000000135379 Rises=F Damp=F
 DIIS: error= 1.24D-05 at cycle  13 NSaved=  13.
 NSaved=13 IEnMin=13 EnMin= -838.816270078130     IErMin=13 ErrMin= 1.24D-05
 ErrMax= 1.24D-05  0.00D+00 EMaxC= 1.00D-01 BMatC= 4.01D-09 BMatP= 1.46D-08
 IDIUse=1 WtCom= 1.00D+00 WtEn= 0.00D+00
 Coeff-Com: -0.154D-02 0.302D-02 0.124D-01-0.512D-01 0.125D+00-0.349D+00
 Coeff-Com:  0.593D+00-0.662D+00 0.119D+01-0.168D+01 0.203D+01-0.233D+01
 Coeff-Com:  0.211D+01
 Coeff:     -0.154D-02 0.302D-02 0.124D-01-0.512D-01 0.125D+00-0.349D+00
 Coeff:      0.593D+00-0.662D+00 0.119D+01-0.168D+01 0.203D+01-0.233D+01
 Coeff:      0.211D+01
 Gap=     0.423 Goal=   None    Shift=    0.000
 Gap=     0.447 Goal=   None    Shift=    0.000
 RMSDP=3.93D-05 MaxDP=5.16D-04 DE=-1.35D-07 OVMax= 0.00D+00

 Cycle  14  Pass 1  IDiag  1:
 E= -838.816270108049     Delta-E=       -0.000000029919 Rises=F Damp=F
 DIIS: error= 4.90D-06 at cycle  14 NSaved=  14.
 NSaved=14 IEnMin=14 EnMin= -838.816270108049     IErMin=14 ErrMin= 4.90D-06
 ErrMax= 4.90D-06  0.00D+00 EMaxC= 1.00D-01 BMatC= 1.13D-09 BMatP= 4.01D-09
 IDIUse=1 WtCom= 1.00D+00 WtEn= 0.00D+00
 Coeff-Com:  0.938D-04-0.179D-03 0.171D-02-0.454D-02 0.881D-02 0.233D-02
 Coeff-Com: -0.497D-01 0.116D+00-0.387D+00 0.730D+00-0.134D+01 0.206D+01
 Coeff-Com: -0.267D+01 0.253D+01
 Coeff:      0.938D-04-0.179D-03 0.171D-02-0.454D-02 0.881D-02 0.233D-02
 Coeff:     -0.497D-01 0.116D+00-0.387D+00 0.730D+00-0.134D+01 0.206D+01
 Coeff:     -0.267D+01 0.253D+01
 Gap=     0.423 Goal=   None    Shift=    0.000
 Gap=     0.447 Goal=   None    Shift=    0.000
 RMSDP=1.78D-05 MaxDP=2.32D-04 DE=-2.99D-08 OVMax= 0.00D+00

 Cycle  15  Pass 1  IDiag  1:
 E= -838.816270114759     Delta-E=       -0.000000006710 Rises=F Damp=F
 DIIS: error= 1.80D-06 at cycle  15 NSaved=  15.
 NSaved=15 IEnMin=15 EnMin= -838.816270114759     IErMin=15 ErrMin= 1.80D-06
 ErrMax= 1.80D-06  0.00D+00 EMaxC= 1.00D-01 BMatC= 1.98D-10 BMatP= 1.13D-09
 IDIUse=1 WtCom= 1.00D+00 WtEn= 0.00D+00
 Coeff-Com: -0.176D-03 0.347D-03-0.661D-03 0.958D-03-0.124D-02-0.578D-02
 Coeff-Com:  0.261D-01-0.488D-01 0.147D+00-0.268D+00 0.513D+00-0.895D+00
 Coeff-Com:  0.136D+01-0.194D+01 0.211D+01
 Coeff:     -0.176D-03 0.347D-03-0.661D-03 0.958D-03-0.124D-02-0.578D-02
 Coeff:      0.261D-01-0.488D-01 0.147D+00-0.268D+00 0.513D+00-0.895D+00
 Coeff:      0.136D+01-0.194D+01 0.211D+01
 Gap=     0.423 Goal=   None    Shift=    0.000
 Gap=     0.447 Goal=   None    Shift=    0.000
 RMSDP=9.52D-06 MaxDP=1.15D-04 DE=-6.71D-09 OVMax= 0.00D+00

 Cycle  16  Pass 1  IDiag  1:
 E= -838.816270115856     Delta-E=       -0.000000001097 Rises=F Damp=F
 DIIS: error= 1.89D-07 at cycle  16 NSaved=  16.
 NSaved=16 IEnMin=16 EnMin= -838.816270115856     IErMin=16 ErrMin= 1.89D-07
 ErrMax= 1.89D-07  0.00D+00 EMaxC= 1.00D-01 BMatC= 2.74D-12 BMatP= 1.98D-10
 IDIUse=1 WtCom= 1.00D+00 WtEn= 0.00D+00
 Coeff-Com:  0.328D-04-0.641D-04 0.128D-03-0.192D-03 0.290D-03 0.170D-02
 Coeff-Com: -0.718D-02 0.127D-01-0.366D-01 0.652D-01-0.126D+00 0.225D+00
 Coeff-Com: -0.351D+00 0.528D+00-0.637D+00 0.133D+01
 Coeff:      0.328D-04-0.641D-04 0.128D-03-0.192D-03 0.290D-03 0.170D-02
 Coeff:     -0.718D-02 0.127D-01-0.366D-01 0.652D-01-0.126D+00 0.225D+00
 Coeff:     -0.351D+00 0.528D+00-0.637D+00 0.133D+01
 Gap=     0.423 Goal=   None    Shift=    0.000
 Gap=     0.447 Goal=   None    Shift=    0.000
 RMSDP=4.91D-07 MaxDP=4.73D-06 DE=-1.10D-09 OVMax= 0.00D+00

 Cycle  17  Pass 1  IDiag  1:
 E= -838.816270115861     Delta-E=       -0.000000000006 Rises=F Damp=F
 DIIS: error= 1.18D-07 at cycle  17 NSaved=  17.
 NSaved=17 IEnMin=17 EnMin= -838.816270115861     IErMin=17 ErrMin= 1.18D-07
 ErrMax= 1.18D-07  0.00D+00 EMaxC= 1.00D-01 BMatC= 6.53D-13 BMatP= 2.74D-12
 IDIUse=1 WtCom= 1.00D+00 WtEn= 0.00D+00
 Coeff-Com:  0.308D-05-0.676D-05-0.200D-03 0.666D-03-0.155D-02 0.255D-02
 Coeff-Com: -0.140D-02-0.163D-02 0.116D-01-0.242D-01 0.578D-01-0.114D+00
 Coeff-Com:  0.189D+00-0.299D+00 0.384D+00-0.133D+01 0.213D+01
 Coeff:      0.308D-05-0.676D-05-0.200D-03 0.666D-03-0.155D-02 0.255D-02
 Coeff:     -0.140D-02-0.163D-02 0.116D-01-0.242D-01 0.578D-01-0.114D+00
 Coeff:      0.189D+00-0.299D+00 0.384D+00-0.133D+01 0.213D+01
 Gap=     0.423 Goal=   None    Shift=    0.000
 Gap=     0.447 Goal=   None    Shift=    0.000
 RMSDP=2.06D-07 MaxDP=2.36D-06 DE=-5.68D-12 OVMax= 0.00D+00

 Cycle  18  Pass 1  IDiag  1:
 E= -838.816270115863     Delta-E=       -0.000000000002 Rises=F Damp=F
 DIIS: error= 2.58D-08 at cycle  18 NSaved=  18.
 NSaved=18 IEnMin=18 EnMin= -838.816270115863     IErMin=18 ErrMin= 2.58D-08
 ErrMax= 2.58D-08  0.00D+00 EMaxC= 1.00D-01 BMatC= 4.42D-14 BMatP= 6.53D-13
 IDIUse=1 WtCom= 1.00D+00 WtEn= 0.00D+00
 Coeff-Com: -0.152D-05 0.321D-05 0.515D-04-0.176D-03 0.410D-03-0.695D-03
 Coeff-Com:  0.515D-03 0.732D-04-0.184D-02 0.397D-02-0.107D-01 0.221D-01
 Coeff-Com: -0.373D-01 0.619D-01-0.829D-01 0.427D+00-0.963D+00 0.158D+01
 Coeff:     -0.152D-05 0.321D-05 0.515D-04-0.176D-03 0.410D-03-0.695D-03
 Coeff:      0.515D-03 0.732D-04-0.184D-02 0.397D-02-0.107D-01 0.221D-01
 Coeff:     -0.373D-01 0.619D-01-0.829D-01 0.427D+00-0.963D+00 0.158D+01
 Gap=     0.423 Goal=   None    Shift=    0.000
 Gap=     0.447 Goal=   None    Shift=    0.000
 RMSDP=5.37D-08 MaxDP=5.80D-07 DE=-1.71D-12 OVMax= 0.00D+00

 Cycle  19  Pass 1  IDiag  1:
 E= -838.816270115863     Delta-E=       -0.000000000000 Rises=F Damp=F
 DIIS: error= 5.19D-09 at cycle  19 NSaved=  19.
 NSaved=19 IEnMin=19 EnMin= -838.816270115863     IErMin=19 ErrMin= 5.19D-09
 ErrMax= 5.19D-09  0.00D+00 EMaxC= 1.00D-01 BMatC= 2.19D-15 BMatP= 4.42D-14
 IDIUse=1 WtCom= 1.00D+00 WtEn= 0.00D+00
 Large coefficients: NSaved= 19 BigCof=    0.00 CofMax=   10.00 Det=-9.32D-16
 Inversion failed.  Reducing to 18 matrices.
 Large coefficients: NSaved= 18 BigCof=    0.00 CofMax=   10.00 Det=-9.57D-16
 Inversion failed.  Reducing to 17 matrices.
 Large coefficients: NSaved= 17 BigCof=    0.00 CofMax=   10.00 Det=-1.91D-15
 Inversion failed.  Reducing to 16 matrices.
 Large coefficients: NSaved= 16 BigCof=    0.00 CofMax=   10.00 Det=-2.23D-15
 Inversion failed.  Reducing to 15 matrices.
 Coeff-Com: -0.959D-06-0.373D-04 0.103D-03-0.129D-03 0.281D-03-0.414D-03
 Coeff-Com:  0.827D-03-0.161D-02 0.273D-02-0.498D-02 0.692D-02-0.596D-01
 Coeff-Com:  0.182D+00-0.438D+00 0.131D+01
 Coeff:     -0.959D-06-0.373D-04 0.103D-03-0.129D-03 0.281D-03-0.414D-03
 Coeff:      0.827D-03-0.161D-02 0.273D-02-0.498D-02 0.692D-02-0.596D-01
 Coeff:      0.182D+00-0.438D+00 0.131D+01
 Gap=     0.423 Goal=   None    Shift=    0.000
 Gap=     0.447 Goal=   None    Shift=    0.000
 RMSDP=8.24D-09 MaxDP=9.44D-08 DE=-3.41D-13 OVMax= 0.00D+00

 SCF Done:  E(UHF) =  -838.816270116     A.U. after   19 cycles
            NFock= 19  Conv=0.82D-08     -V/T= 2.0019
 <Sx>= 0.0000 <Sy>= 0.0000 <Sz>= 0.5000 <S**2>= 0.7657 S= 0.5078
 <L.S>= 0.000000000000E+00
 KE= 8.372277725028D+02 PE=-2.014618084043D+03 EE= 3.219427576521D+02
 Annihilation of the first spin contaminant:
 S**2 before annihilation     0.7657,   after     0.7500
 Leave Link  502 at Fri Mar 25 14:37:29 2022, MaxMem=  9663676416 cpu:               6.1 elap:               0.2
 (Enter /nopt/nrel/apps/gaussian/g16C_1/g16/l801.exe)
 Windowed orbitals will be sorted by symmetry type.
 ExpMin= 1.16D-01 ExpMax= 1.03D+03 ExpMxC= 1.03D+03 IAcc=3 IRadAn=         5 AccDes= 0.00D+00
 HarFok:  IExCor=  205 AccDes= 0.00D+00 IRadAn=         5 IDoV=-2 UseB2=F ITyADJ=14
 ICtDFT= 12500011 ScaDFX=  1.000000  1.000000  1.000000  1.000000
 Largest valence mixing into a core orbital is  1.49D-02
 Largest core mixing into a valence orbital is  1.21D-02
 Largest valence mixing into a core orbital is  1.69D-02
 Largest core mixing into a valence orbital is  1.32D-02
 Range of M.O.s used for correlation:    10    19
 NBasis=    19 NAE=    12 NBE=    11 NFC=     9 NFV=     0
 NROrb=     10 NOA=     3 NOB=     2 NVA=     7 NVB=     8
 Leave Link  801 at Fri Mar 25 14:37:29 2022, MaxMem=  9663676416 cpu:               4.3 elap:               0.2
 (Enter /nopt/nrel/apps/gaussian/g16C_1/g16/l804.exe)
 Open-shell transformation, MDV=  9663676416 ITran=4 ISComp=2.
 Unit  1 TFree=         25012 TCopy=        222819.
 Semi-Direct transformation.
 ModeAB=           2 MOrb=             3 LenV=    9663501552
 LASXX=          258 LTotXX=         258 LenRXX=         258
 LTotAB=         422 MaxLAS=        6300 LenRXY=        6300
 NonZer=        7290 LenScr=      785920 LnRSAI=           0
 LnScr1=           0 LExtra=      224198 Total=      1016676
 MaxDsk= 34359738368 SrtSym=           F ITran=            4
 DoSDTr:  NPSUse= 36
 JobTyp=1 Pass  1:  I=   1 to   3.
 (rs|ai) integrals will be sorted in core.
 Complete sort for first half transformation.
 First half transformation complete.
 Complete sort for second half transformation.
 Second half transformation complete.
 ModeAB=           2 MOrb=             2 LenV=    9663501552
 LASXX=          192 LTotXX=         192 LenRXX=        4200
 LTotAB=         157 MaxLAS=        4200 LenRXY=         157
 NonZer=        4860 LenScr=      785920 LnRSAI=           0
 LnScr1=           0 LExtra=      230756 Total=      1021033
 MaxDsk= 34359738368 SrtSym=           F ITran=            4
 DoSDTr:  NPSUse= 36
 JobTyp=2 Pass  1:  I=   1 to   2.
 (rs|ai) integrals will be sorted in core.
 Complete sort for first half transformation.
 First half transformation complete.
 Complete sort for second half transformation.
 Second half transformation complete.
 Spin components of T(2) and E(2):
     alpha-alpha T2 =       0.1192535588D-02 E2=     -0.1764301719D-02
     alpha-beta  T2 =       0.3239516281D-01 E2=     -0.3628576541D-01
     beta-beta   T2 =       0.2940024056D-03 E2=     -0.7480574334D-03
 ANorm=    0.1016799735D+01
 E2 =    -0.3879812456D-01 EUMP2 =    -0.83885506824043D+03
 (S**2,0)=  0.76571D+00           (S**2,1)=  0.76246D+00
 E(PUHF)=      -0.83881682879D+03        E(PMP2)=      -0.83885556928D+03
 Leave Link  804 at Fri Mar 25 14:37:29 2022, MaxMem=  9663676416 cpu:              13.8 elap:               0.4
 (Enter /nopt/nrel/apps/gaussian/g16C_1/g16/l913.exe)
 CIDS:  MDV=  9663676416.
 Frozen-core window:  NFC=   9 NFV=   0.
 IFCWin=0 IBDFC=1 NFBD=     0     0 NFCmp=     0     0 NFFFC=     0     0
 Using original routines for 1st iteration.
 Using DD4UQ or CC4UQ for 2nd and later iterations.
 Keep R2 and R3 ints in memory in symmetry-blocked form, NReq=7415856.
 FoFCou: FMM=F IPFlag=           0 FMFlag=           0 FMFlg1=           0
         NFxFlg=           0 DoJE=F BraDBF=F KetDBF=F FulRan=T
         wScrn=  0.000000 ICntrl=       600 IOpCl=  0 I1Cent=           0 NGrid=           0
         NMat0=    1 NMatS0=    190 NMatT0=    0 NMatD0=    1 NMtDS0=    0 NMtDT0=    0
 Petite list used in FoFCou.
 CIDS: In Core Option IDoMem=           1.
 Coupled Cluster theory with single and double substitutions
 ===========================================================
 Iterations=  50 Convergence= 0.100D-06
 Produce multiple copies of IABC intergrals
 Iteration Nr.   1
 **********************
 DD1Dir will call FoFMem   1 times, MxPair=        16
 NAB=     6 NAA=     3 NBB=     1.
 E(PMP3)=      -0.83887032396D+03
 MP4(R+Q)=  0.89973826D-03
 Maximum subspace dimension=  5
 A-vector RMS=  1.6070843D-02 Max=  4.0809721D-02 conv= 1.00D-05.
 RLE energy=       -0.0604866965
 E3=       -0.14840452D-01        EUMP3=      -0.83886990869D+03
 E4(DQ)=   -0.58989184D-02        UMP4(DQ)=   -0.83887580761D+03
 E4(SDQ)=  -0.63454587D-02        UMP4(SDQ)=  -0.83887625415D+03
 VARIATIONAL ENERGIES WITH THE FIRST-ORDER WAVEFUNCTION:
 DE(Corr)= -0.52709910E-01 E(Corr)=     -838.86898003    
 NORM(A)=   0.10455116D+01
 Iteration Nr.   2
 **********************
 DD1Dir will call FoFMem   1 times, MxPair=        16
 NAB=     6 NAA=     3 NBB=     1.
 A-vector RMS=  6.3763486D-03 Max=  7.0756201D-03 conv= 1.00D-05.
 RLE energy=       -0.0638449138
 DE(Corr)= -0.61910423E-01 E(CORR)=     -838.87818054     Delta=-9.20D-03
 NORM(A)=   0.10539311D+01
 Iteration Nr.   3
 **********************
 DD1Dir will call FoFMem   1 times, MxPair=        16
 NAB=     6 NAA=     3 NBB=     1.
 A-vector RMS=  2.9268019D-03 Max=  3.7873719D-03 conv= 1.00D-05.
 RLE energy=       -0.0651565907
 DE(Corr)= -0.64074542E-01 E(CORR)=     -838.88034466     Delta=-2.16D-03
 NORM(A)=   0.10579627D+01
 Iteration Nr.   4
 **********************
 DD1Dir will call FoFMem   1 times, MxPair=        16
 NAB=     6 NAA=     3 NBB=     1.
 A-vector RMS=  9.3111417D-04 Max=  1.3822170D-03 conv= 1.00D-05.
 RLE energy=       -0.0646509371
 DE(Corr)= -0.64974553E-01 E(CORR)=     -838.88124467     Delta=-9.00D-04
 NORM(A)=   0.10575113D+01
 Iteration Nr.   5
 **********************
 DD1Dir will call FoFMem   1 times, MxPair=        16
 NAB=     6 NAA=     3 NBB=     1.
 A-vector RMS=  4.5157762D-04 Max=  7.8004160D-04 conv= 1.00D-05.
 RLE energy=       -0.0652600630
 DE(Corr)= -0.64852047E-01 E(CORR)=     -838.88112216     Delta= 1.23D-04
 NORM(A)=   0.10587576D+01
 Iteration Nr.   6
 **********************
 DD1Dir will call FoFMem   1 times, MxPair=        16
 NAB=     6 NAA=     3 NBB=     1.
 A-vector RMS=  2.1438210D-04 Max=  4.2928528D-04 conv= 1.00D-05.
 RLE energy=       -0.0649380311
 DE(Corr)= -0.65092041E-01 E(CORR)=     -838.88136216     Delta=-2.40D-04
 NORM(A)=   0.10581812D+01
 Iteration Nr.   7
 **********************
 DD1Dir will call FoFMem   1 times, MxPair=        16
 NAB=     6 NAA=     3 NBB=     1.
 A-vector RMS=  1.3015269D-04 Max=  2.7567055D-04 conv= 1.00D-05.
 RLE energy=       -0.0650147712
 DE(Corr)= -0.64968810E-01 E(CORR)=     -838.88123893     Delta= 1.23D-04
 NORM(A)=   0.10583698D+01
 Iteration Nr.   8
 **********************
 DD1Dir will call FoFMem   1 times, MxPair=        16
 NAB=     6 NAA=     3 NBB=     1.
 A-vector RMS=  7.6215481D-05 Max=  1.5873292D-04 conv= 1.00D-05.
 RLE energy=       -0.0649962685
 DE(Corr)= -0.65004455E-01 E(CORR)=     -838.88127457     Delta=-3.56D-05
 NORM(A)=   0.10583552D+01
 Iteration Nr.   9
 **********************
 DD1Dir will call FoFMem   1 times, MxPair=        16
 NAB=     6 NAA=     3 NBB=     1.
 A-vector RMS=  4.1188485D-05 Max=  9.0874457D-05 conv= 1.00D-05.
 RLE energy=       -0.0650086497
 DE(Corr)= -0.65000250E-01 E(CORR)=     -838.88127037     Delta= 4.21D-06
 NORM(A)=   0.10583789D+01
 Iteration Nr.  10
 **********************
 DD1Dir will call FoFMem   1 times, MxPair=        16
 NAB=     6 NAA=     3 NBB=     1.
 A-vector RMS=  1.9224916D-05 Max=  2.9651698D-05 conv= 1.00D-05.
 RLE energy=       -0.0649979151
 DE(Corr)= -0.65004005E-01 E(CORR)=     -838.88127412     Delta=-3.76D-06
 NORM(A)=   0.10583564D+01
 Iteration Nr.  11
 **********************
 DD1Dir will call FoFMem   1 times, MxPair=        16
 NAB=     6 NAA=     3 NBB=     1.
 A-vector RMS=  1.0385661D-05 Max=  1.6987878D-05 conv= 1.00D-05.
 RLE energy=       -0.0650025584
 DE(Corr)= -0.64999282E-01 E(CORR)=     -838.88126940     Delta= 4.72D-06
 NORM(A)=   0.10583646D+01
 Iteration Nr.  12
 **********************
 DD1Dir will call FoFMem   1 times, MxPair=        16
 NAB=     6 NAA=     3 NBB=     1.
 A-vector RMS=  5.1355892D-06 Max=  8.3778570D-06 conv= 1.00D-05.
 RLE energy=       -0.0649995513
 DE(Corr)= -0.65001164E-01 E(CORR)=     -838.88127128     Delta=-1.88D-06
 NORM(A)=   0.10583582D+01
 Iteration Nr.  13
 **********************
 DD1Dir will call FoFMem   1 times, MxPair=        16
 NAB=     6 NAA=     3 NBB=     1.
 A-vector RMS=  3.1751550D-06 Max=  4.7665065D-06 conv= 1.00D-05.
 RLE energy=       -0.0650001325
 DE(Corr)= -0.64999900E-01 E(CORR)=     -838.88127002     Delta= 1.26D-06
 NORM(A)=   0.10583587D+01
 Iteration Nr.  14
 **********************
 DD1Dir will call FoFMem   1 times, MxPair=        16
 NAB=     6 NAA=     3 NBB=     1.
 A-vector RMS=  1.8145041D-06 Max=  3.1119316D-06 conv= 1.00D-05.
 RLE energy=       -0.0649993277
 DE(Corr)= -0.64999987E-01 E(CORR)=     -838.88127010     Delta=-8.70D-08
 NORM(A)=   0.10583576D+01
 CI/CC converged in   14 iterations to DelEn=-8.70D-08 Conv= 1.00D-07 ErrA1= 1.81D-06 Conv= 1.00D-05
 Wavefunction amplitudes converged. E(Corr)=     -838.88127010    
 Dominant configurations:
 ***********************
 Spin Case        I    J    A    B          Value
   ABAB          11   11   15   12      -0.164088D+00
   ABAB          11   11   14   14      -0.133441D+00
 Largest amplitude= 1.64D-01

 S**2, projected HF & approx projected MPn energies after annihilation of
 unwanted spin states (see manual for definitions):

 spins       (S**2,0) (S**2,1)    PUHF        PMP2        PMP3        PMP4
 annihilated
 s+1         0.74999  0.74999 -838.816829 -838.855569 -838.870324
 s+1,s+2     0.75000  0.75000 -838.816829 -838.855569 -838.870324

 Discarding MO integrals.
 Leave Link  913 at Fri Mar 25 14:37:30 2022, MaxMem=  9663676416 cpu:               7.9 elap:               0.3
 (Enter /nopt/nrel/apps/gaussian/g16C_1/g16/l601.exe)
 Copying SCF densities to generalized density rwf, IOpCl= 1 IROHF=0.

 **********************************************************************

            Population analysis using the SCF Density.

 **********************************************************************

 Orbital symmetries:
 Alpha Orbitals:
       Occupied  (SG) (SG) (SG) (PI) (PI) (SG) (SG) (PI) (PI) (?A)
                 (SG) (PI)
       Virtual   (?A) (PI) (PI) (PI) (?A) (?A) (SG)
 Beta  Orbitals:
       Occupied  (SG) (SG) (SG) (PI) (PI) (SG) (SG) (PI) (PI) (?A)
                 (?A)
       Virtual   (PI) (SG) (PI) (PI) (?A) (?A) (PI) (SG)
 Unable to determine electronic state:  an orbital has unidentified symmetry.
 Alpha  occ. eigenvalues -- -181.68510 -21.44567 -18.02951 -18.02349 -18.01941
 Alpha  occ. eigenvalues --   -3.10860  -2.12807  -1.94904  -1.92477  -0.29395
 Alpha  occ. eigenvalues --   -0.17981  -0.15832
 Alpha virt. eigenvalues --    0.26471   0.27463   0.28661   0.30983   0.32432
 Alpha virt. eigenvalues --    0.32531   1.80140
  Beta  occ. eigenvalues -- -181.68546 -21.44451 -18.02814 -18.02330 -18.01824
  Beta  occ. eigenvalues --   -3.06880  -2.05935  -1.91710  -1.87768  -0.27192
  Beta  occ. eigenvalues --   -0.16456
  Beta virt. eigenvalues --    0.28285   0.29687   0.31604   0.33016   0.34884
  Beta virt. eigenvalues --    0.34960   0.37202   1.81236
          Condensed to atoms (all electrons):
               1          2
     1  H    0.649434  -0.082284
     2  Ti  -0.082284  22.515133
          Atomic-Atomic Spin Densities.
               1          2
     1  H   -0.008114  -0.004738
     2  Ti  -0.004738   1.017590
 Mulliken charges and spin densities:
               1          2
     1  H    0.432849  -0.012852
     2  Ti  -0.432849   1.012852
 Sum of Mulliken charges =  -0.00000   1.00000
 Mulliken charges and spin densities with hydrogens summed into heavy atoms:
               1          2
     2  Ti  -0.000000   1.000000
 N-N= 1.663128377177D+01 E-N=-2.014618084060D+03  KE= 8.372277725028D+02
 Symmetry A1   KE= 6.620075858752D+02
 Symmetry A2   KE= 9.427607596262D-34
 Symmetry B1   KE= 8.671638183928D+01
 Symmetry B2   KE= 8.850380478831D+01
 Symmetry A1   SP=-3.557953085799D-14
 Symmetry A2   SP=-2.810780262312D-34
 Symmetry B1   SP=-2.821554122837D-15
 Symmetry B2   SP= 1.000000000000D+00

 Atomic contributions to Alpha molecular orbitals:
 Alpha occ 1 OE=-181.685 is Ti2-s=0.9999
 Alpha occ 2 OE=-21.446 is Ti2-s=1.0074
 Alpha occ 3 OE=-18.030 is Ti2-p=1.0009
 Alpha occ 4 OE=-18.023 is Ti2-p=1.0000
 Alpha occ 5 OE=-18.019 is Ti2-p=1.0000
 Alpha occ 6 OE=-3.109 is Ti2-s=0.9376
 Alpha occ 7 OE=-2.128 is Ti2-p=0.8400
 Alpha occ 8 OE=-1.949 is Ti2-p=0.9990
 Alpha occ 9 OE=-1.925 is Ti2-p=0.9988
 Alpha occ 10 OE=-0.294 is Ti2-d=0.6923 H1-s=0.2207
 Alpha occ 11 OE=-0.180 is Ti2-s=0.9004 Ti2-d=0.1145
 Alpha occ 12 OE=-0.158 is Ti2-d=0.9987
 Alpha vir 13 OE=0.265 is Ti2-p=1.0005
 Alpha vir 14 OE=0.275 is Ti2-p=0.9997
 Alpha vir 15 OE=0.287 is Ti2-p=1.0000
 Alpha vir 16 OE=0.310 is Ti2-d=0.9987
 Alpha vir 17 OE=0.324 is Ti2-d=1.0000
 Alpha vir 18 OE=0.325 is Ti2-d=0.9974
 Alpha vir 19 OE=1.801 is H1-s=0.7536 Ti2-d=0.1835

 Atomic contributions to Beta  molecular orbitals:
 Beta  occ 1 OE=-181.685 is Ti2-s=0.9999
 Beta  occ 2 OE=-21.445 is Ti2-s=1.0073
 Beta  occ 3 OE=-18.028 is Ti2-p=1.0009
 Beta  occ 4 OE=-18.023 is Ti2-p=1.0000
 Beta  occ 5 OE=-18.018 is Ti2-p=1.0000
 Beta  occ 6 OE=-3.069 is Ti2-s=0.9388
 Beta  occ 7 OE=-2.059 is Ti2-p=0.8343
 Beta  occ 8 OE=-1.917 is Ti2-p=0.9987
 Beta  occ 9 OE=-1.878 is Ti2-p=0.9987
 Beta  occ 10 OE=-0.272 is Ti2-d=0.7270 H1-s=0.2147
 Beta  occ 11 OE=-0.165 is Ti2-s=0.9228
 Beta  vir 12 OE=0.283 is Ti2-p=1.0000
 Beta  vir 13 OE=0.297 is Ti2-p=1.0015
 Beta  vir 14 OE=0.316 is Ti2-p=0.9999
 Beta  vir 15 OE=0.330 is Ti2-d=0.9987
 Beta  vir 16 OE=0.349 is Ti2-d=1.0000
 Beta  vir 17 OE=0.350 is Ti2-d=0.9894
 Beta  vir 18 OE=0.372 is Ti2-d=0.9986
 Beta  vir 19 OE=1.812 is H1-s=0.7436 Ti2-d=0.1858
 
 Leave Link  601 at Fri Mar 25 14:37:30 2022, MaxMem=  9663676416 cpu:               2.7 elap:               0.1
 (Enter /nopt/nrel/apps/gaussian/g16C_1/g16/l9999.exe)

 Test job not archived.
 1\1\GINC-R3I7N35\SP\UCCSD-FC\Gen\H1Ti1(2)\USER\25-Mar-2022\0\\#P C
 CSD/GEN sp pop=AllOrbitals iop(3/33=1,3/36=-1)\\test\\0,2\H,0,0.,0.,0.
 \Ti,0,0.,0.,0.7\\Version=ES64L-G16RevC.01\HF=-838.8162701\MP2=-838.855
 0682\MP3=-838.8699087\MP4D=-838.8767073\MP4DQ=-838.8758076\PUHF=-838.8
 168288\PMP2-0=-838.8555693\PMP3-0=-838.870324\MP4SDQ=-838.8762542\CCSD
 =-838.8812701\S2=0.765707\S2-1=0.762463\S2A=0.750025\RMSD=8.245e-09\PG
 =C*V [C*(H1Ti1)]\\@


 ...THE PHYSICISTS HAVE MADE THEIR UNIVERSE, AND IF YOU DO NOT LIKE
 IT, YOU MUST MAKE YOUR OWN.
                               -- E. R. HARRISON IN "COSMOLOGY" (1980)
 Job cpu time:       0 days  0 hours  0 minutes 54.3 seconds.
 Elapsed time:       0 days  0 hours  0 minutes  1.9 seconds.
 File lengths (MBytes):  RWF=     13 Int=      0 D2E=      0 Chk=      1 Scr=      1
 Normal termination of Gaussian 16 at Fri Mar 25 14:37:30 2022.
