 Entering Gaussian System, Link 0=g16
 Initial command:
 /nopt/nrel/apps/gaussian/g16C_1/g16/l1.exe "/lustre/eaglefs/scratch/user/qc/tih-dissc-sto3g/tih-4-ccsd-1.8-ccd/Gau-237723.inp" -scrdir="/lustre/eaglefs/scratch/user/qc/tih-dissc-sto3g/tih-4-ccsd-1.8-ccd/"
 Default is to use a total of  36 processors:
                               36 via shared-memory
                                1 via Linda
 Entering Link 1 = /nopt/nrel/apps/gaussian/g16C_1/g16/l1.exe PID=    237724.
  
 Copyright (c) 1988-2019, Gaussian, Inc.  All Rights Reserved.
  
 This is part of the Gaussian(R) 16 program.  It is based on
 the Gaussian(R) 09 system (copyright 2009, Gaussian, Inc.),
 the Gaussian(R) 03 system (copyright 2003, Gaussian, Inc.),
 the Gaussian(R) 98 system (copyright 1998, Gaussian, Inc.),
 the Gaussian(R) 94 system (copyright 1995, Gaussian, Inc.),
 the Gaussian 92(TM) system (copyright 1992, Gaussian, Inc.),
 the Gaussian 90(TM) system (copyright 1990, Gaussian, Inc.),
 the Gaussian 88(TM) system (copyright 1988, Gaussian, Inc.),
 the Gaussian 86(TM) system (copyright 1986, Carnegie Mellon
 University), and the Gaussian 82(TM) system (copyright 1983,
 Carnegie Mellon University). Gaussian is a federally registered
 trademark of Gaussian, Inc.
  
 This software contains proprietary and confidential information,
 including trade secrets, belonging to Gaussian, Inc.
  
 This software is provided under written license and may be
 used, copied, transmitted, or stored only in accord with that
 written license.
  
 The following legend is applicable only to US Government
 contracts under FAR:
  
                    RESTRICTED RIGHTS LEGEND
  
 Use, reproduction and disclosure by the US Government is
 subject to restrictions as set forth in subparagraphs (a)
 and (c) of the Commercial Computer Software - Restricted
 Rights clause in FAR 52.227-19.
  
 Gaussian, Inc.
 340 Quinnipiac St., Bldg. 40, Wallingford CT 06492
  
  
 ---------------------------------------------------------------
 Warning -- This program may not be used in any manner that
 competes with the business of Gaussian, Inc. or will provide
 assistance to any competitor of Gaussian, Inc.  The licensee
 of this program is prohibited from giving any competitor of
 Gaussian, Inc. access to this program.  By using this program,
 the user acknowledges that Gaussian, Inc. is engaged in the
 business of creating and licensing software in the field of
 computational chemistry and represents and warrants to the
 licensee that it is not a competitor of Gaussian, Inc. and that
 it will not use this program in any manner prohibited above.
 ---------------------------------------------------------------
  

 Cite this work as:
 Gaussian 16, Revision C.01,
 M. J. Frisch, G. W. Trucks, H. B. Schlegel, G. E. Scuseria, 
 M. A. Robb, J. R. Cheeseman, G. Scalmani, V. Barone, 
 G. A. Petersson, H. Nakatsuji, X. Li, M. Caricato, A. V. Marenich, 
 J. Bloino, B. G. Janesko, R. Gomperts, B. Mennucci, H. P. Hratchian, 
 J. V. Ortiz, A. F. Izmaylov, J. L. Sonnenberg, D. Williams-Young, 
 F. Ding, F. Lipparini, F. Egidi, J. Goings, B. Peng, A. Petrone, 
 T. Henderson, D. Ranasinghe, V. G. Zakrzewski, J. Gao, N. Rega, 
 G. Zheng, W. Liang, M. Hada, M. Ehara, K. Toyota, R. Fukuda, 
 J. Hasegawa, M. Ishida, T. Nakajima, Y. Honda, O. Kitao, H. Nakai, 
 T. Vreven, K. Throssell, J. A. Montgomery, Jr., J. E. Peralta, 
 F. Ogliaro, M. J. Bearpark, J. J. Heyd, E. N. Brothers, K. N. Kudin, 
 V. N. Staroverov, T. A. Keith, R. Kobayashi, J. Normand, 
 K. Raghavachari, A. P. Rendell, J. C. Burant, S. S. Iyengar, 
 J. Tomasi, M. Cossi, J. M. Millam, M. Klene, C. Adamo, R. Cammi, 
 J. W. Ochterski, R. L. Martin, K. Morokuma, O. Farkas, 
 J. B. Foresman, and D. J. Fox, Gaussian, Inc., Wallingford CT, 2019.
 
 ******************************************
 Gaussian 16:  ES64L-G16RevC.01  3-Jul-2019
                28-Mar-2022 
 ******************************************
 %chk=molecule
 Default route: CacheSize=180224 MaxDisk=256GB
 --------------------------------------------------------------
 #P CCSD(MaxCyc=200)/GEN sp pop=AllOrbitals iop(3/33=1,3/36=-1)
 --------------------------------------------------------------
 1/4=180224,38=1,172=1/1;
 2/4=180224,12=2,17=6,18=5,40=1/2;
 3/4=180224,5=7,11=9,25=1,30=1,33=1,36=-1/1,2,3;
 4/4=180224/1;
 5/4=180224,5=2,38=5/2;
 8/4=180224,6=4,9=120000,10=1/1,4;
 9/4=180224,5=7,6=200/13;
 6/4=180224,7=2,8=2,9=2,10=2,96=-1/1;
 99/4=180224,5=1,9=1/99;
 Leave Link    1 at Mon Mar 28 10:02:21 2022, MaxMem=           0 cpu:               4.4 elap:               0.2
 (Enter /nopt/nrel/apps/gaussian/g16C_1/g16/l101.exe)
 ----
 test
 ----
 Symbolic Z-matrix:
 Charge =  0 Multiplicity = 4
 H                     0.        0.        0. 
 Ti                    0.        0.        1.8 
 
 ITRead=  0  0
 MicOpt= -1 -1
 NAtoms=      2 NQM=        2 NQMF=       0 NMMI=      0 NMMIF=      0
                NMic=       0 NMicF=      0.
                    Isotopes and Nuclear Properties:
 (Nuclear quadrupole moments (NQMom) in fm**2, nuclear magnetic moments (NMagM)
  in nuclear magnetons)

  Atom         1           2
 IAtWgt=           1          48
 AtmWgt=   1.0078250  47.9479467
 NucSpn=           1           0
 AtZEff=  -0.0000000  -0.0000000
 NQMom=    0.0000000   0.0000000
 NMagM=    2.7928460   0.0000000
 AtZNuc=   1.0000000  22.0000000
 Leave Link  101 at Mon Mar 28 10:02:21 2022, MaxMem=  9663676416 cpu:               3.6 elap:               0.1
 (Enter /nopt/nrel/apps/gaussian/g16C_1/g16/l202.exe)
                          Input orientation:                          
 ---------------------------------------------------------------------
 Center     Atomic      Atomic             Coordinates (Angstroms)
 Number     Number       Type             X           Y           Z
 ---------------------------------------------------------------------
      1          1           0        0.000000    0.000000    0.000000
      2         22           0        0.000000    0.000000    1.800000
 ---------------------------------------------------------------------
 Stoichiometry    HTi(4)
 Framework group  C*V[C*(HTi)]
 Deg. of freedom     1
 Full point group                 C*V     NOp   4
 Largest Abelian subgroup         C2V     NOp   4
 Largest concise Abelian subgroup C1      NOp   1
                         Standard orientation:                         
 ---------------------------------------------------------------------
 Center     Atomic      Atomic             Coordinates (Angstroms)
 Number     Number       Type             X           Y           Z
 ---------------------------------------------------------------------
      1          1           0        0.000000    0.000000   -1.721739
      2         22           0        0.000000    0.000000    0.078261
 ---------------------------------------------------------------------
 Rotational constants (GHZ):           0.0000000         158.0232296         158.0232296
 Leave Link  202 at Mon Mar 28 10:02:21 2022, MaxMem=  9663676416 cpu:               1.2 elap:               0.1
 (Enter /nopt/nrel/apps/gaussian/g16C_1/g16/l301.exe)
 General basis read from cards:  (5D, 7F)
                         Coordinates in L301:                         
 ---------------------------------------------------------------------
 Center     Atomic      Atomic             Coordinates (Angstroms)
 Number     Number       Type             X           Y           Z
 ---------------------------------------------------------------------
      1          1           0        0.000000    0.000000   -1.721739
      2         22           0        0.000000    0.000000    0.078261
 ---------------------------------------------------------------------
 Centers:       1
 STO-3G
 ****
 Centers:       2
 cc-pVDZ
 ****
 FixB: optimizing general contractions.
 Ernie: Thresh=  0.10000D-02 Tol=  0.10000D-05 Strict=F.
 IA=     1 ShT= 0 ShC= 0 NL=   1 NS=   0.
 IA=     1 L=0 SC=0 ISt=    0 NBk=    0 NP=    0 IndPr=    0.
 IA=     2 ShT= 0 ShC= 0 NL=   6 NS=   1.
 IA=     2 L=0 SC=0 ISt=    1 NBk=    5 NP=   20 IndPr=    0.
 DoElim1:  L=0 select primitive    4 from    2 using    1 C= 1.39D-03
 DoElim1:  L=0 select primitive    4 from    3 using    1 C= 1.39D-03
 DoElim1:  L=0 select primitive    4 from    4 using    1 C= 1.39D-03
 DoElim1:  L=0 select primitive    4 from    5 using    1 C= 1.39D-03
 DoElim1:  L=0 select primitive    8 from    3 using    2 C=-3.89D-03
 DoElim1:  L=0 select primitive    8 from    4 using    2 C=-3.89D-03
 DoElim1:  L=0 select primitive    8 from    5 using    2 C=-3.89D-03
 DoElim1:  L=0 select primitive   11 from    3 using    5 C= 1.17D-02
 DoElim1:  L=0 select primitive   11 from    4 using    5 C= 1.17D-02
 DoElim1:  L=0 select primitive   13 from    4 using    3 C=-8.51D-02
 DoElim2:  L=0 select primitive   19 from    3 using    4 C= 5.74D-01
 DoElim2:  L=0 select primitive   19 from    5 using    4 C= 5.74D-01
 DoElim2:  L=0 select primitive   19 from    2 using    4 C= 5.74D-01
 DoElim2:  L=0 select primitive   19 from    1 using    4 C= 5.74D-01
 DoElim2:  L=0 select primitive   16 from    5 using    3 C= 9.20D-01
 DoElim2:  L=0 select primitive   16 from    2 using    3 C= 9.20D-01
 DoElim2:  L=0 select primitive   16 from    1 using    3 C= 9.20D-01
 DoElim2:  L=0 select primitive   18 from    2 using    5 C= 2.21D+00
 DoElim2:  L=0 select primitive   18 from    1 using    5 C= 2.21D+00
 DoElim2:  L=0 select primitive   14 from    1 using    2 C= 5.61D-01
 DoElim:  L=0 eliminating redundant primitive   20        0.025465 from    1
 DoElim:  L=0 eliminating redundant primitive   20        0.025465 from    2
 DoElim:  L=0 eliminating redundant primitive   20        0.025465 from    3
 DoElim:  L=0 eliminating redundant primitive   20        0.025465 from    4
 DoElim:  L=0 eliminating redundant primitive   20        0.025465 from    5
 Delete L=0 primitive   20 from    5 C=  0.00D+00.
 Delete L=0 primitive   19 from    5 C=  1.06D-16.
 Delete L=0 primitive   16 from    5 C=  8.35D-17.
 Delete L=0 primitive    8 from    5 C=  4.74D-20.
 Delete L=0 primitive    4 from    5 C=  4.08D-21.
 Delete L=0 primitive    3 from    5 C=  5.15D-07.
 Delete L=0 primitive    2 from    5 C=  2.27D-08.
 Delete L=0 primitive    1 from    5 C=  9.55D-09.
 Delete L=0 primitive   20 from    4 C=  0.00D+00.
 Delete L=0 primitive   13 from    4 C=  1.29D-19.
 Delete L=0 primitive   11 from    4 C=  2.99D-20.
 Delete L=0 primitive    8 from    4 C=  1.24D-20.
 Delete L=0 primitive    7 from    4 C=  4.43D-07.
 Delete L=0 primitive    6 from    4 C=  1.27D-08.
 Delete L=0 primitive    5 from    4 C=  3.14D-08.
 Delete L=0 primitive    4 from    4 C=  2.49D-21.
 Delete L=0 primitive    3 from    4 C=  1.55D-09.
 Delete L=0 primitive    2 from    4 C=  6.75D-11.
 Delete L=0 primitive    1 from    4 C=  2.88D-11.
 Delete L=0 primitive   20 from    3 C=  0.00D+00.
 Delete L=0 primitive   19 from    3 C=  1.53D-17.
 Delete L=0 primitive   11 from    3 C=  7.09D-20.
 Delete L=0 primitive    8 from    3 C=  2.65D-20.
 Delete L=0 primitive    4 from    3 C=  2.52D-20.
 Delete L=0 primitive    3 from    3 C=  1.58D-07.
 Delete L=0 primitive    2 from    3 C=  6.88D-09.
 Delete L=0 primitive    1 from    3 C=  2.93D-09.
 Delete L=0 primitive   20 from    2 C=  0.00D+00.
 Delete L=0 primitive   19 from    2 C=  2.91D-19.
 Delete L=0 primitive   18 from    2 C=  6.20D-20.
 Delete L=0 primitive   16 from    2 C=  4.25D-19.
 Delete L=0 primitive    4 from    2 C=  7.32D-20.
 Delete L=0 primitive    3 from    2 C=  1.41D-07.
 Delete L=0 primitive    2 from    2 C=  3.76D-08.
 Delete L=0 primitive    1 from    2 C=  4.97D-09.
 Delete L=0 primitive   20 from    1 C=  0.00D+00.
 Delete L=0 primitive   19 from    1 C=  3.58D-20.
 Delete L=0 primitive   18 from    1 C=  2.69D-21.
 Delete L=0 primitive   16 from    1 C=  3.10D-20.
 Delete L=0 primitive   14 from    1 C=  5.49D-19.
 IA=     2 L=0 SC=0 ISt=    0 NBk=    0 NP=    0 IndPr=   60.
 IA=     2 ShT= 1 ShC= 1 NL=   5 NS=   1.
 IA=     2 L=1 SC=1 ISt=    1 NBk=    4 NP=   16 IndPr=    0.
 DoElim1:  L=1 select primitive    3 from    2 using    1 C= 2.25D-03
 DoElim1:  L=1 select primitive    3 from    3 using    1 C= 2.25D-03
 DoElim1:  L=1 select primitive    3 from    4 using    1 C= 2.25D-03
 DoElim1:  L=1 select primitive    6 from    3 using    2 C=-1.46D-03
 DoElim1:  L=1 select primitive    6 from    4 using    2 C=-1.46D-03
 DoElim1:  L=1 select primitive    9 from    3 using    4 C=-2.24D-03
 DoElim2:  L=1 select primitive   15 from    4 using    3 C= 9.82D-01
 DoElim2:  L=1 select primitive   15 from    2 using    3 C= 9.82D-01
 DoElim2:  L=1 select primitive   15 from    1 using    3 C= 9.82D-01
 DoElim2:  L=1 select primitive   16 from    2 using    4 C=-1.67D-01
 DoElim2:  L=1 select primitive   16 from    1 using    4 C=-1.67D-01
 DoElim2:  L=1 select primitive   12 from    1 using    2 C= 4.62D-01
 DoElim:  L=1 eliminating redundant primitive   16        0.029401 from    1
 DoElim:  L=1 eliminating redundant primitive   16        0.029401 from    2
 DoElim:  L=1 eliminating redundant primitive   16        0.029401 from    3
 DoElim:  L=1 eliminating redundant primitive   16        0.029401 from    4
 Delete L=1 primitive   16 from    4 C=  0.00D+00.
 Delete L=1 primitive   15 from    4 C=  5.44D-18.
 Delete L=1 primitive    6 from    4 C=  1.08D-20.
 Delete L=1 primitive    3 from    4 C=  1.02D-21.
 Delete L=1 primitive    2 from    4 C=  6.07D-07.
 Delete L=1 primitive    1 from    4 C=  5.39D-07.
 Delete L=1 primitive   16 from    3 C=  0.00D+00.
 Delete L=1 primitive    9 from    3 C=  2.49D-20.
 Delete L=1 primitive    6 from    3 C=  1.35D-20.
 Delete L=1 primitive    4 from    3 C=  8.39D-07.
 Delete L=1 primitive    3 from    3 C=  1.18D-21.
 Delete L=1 primitive    2 from    3 C=  3.85D-07.
 Delete L=1 primitive    1 from    3 C=  1.23D-07.
 Delete L=1 primitive   16 from    2 C=  0.00D+00.
 Delete L=1 primitive   15 from    2 C=  4.51D-20.
 Delete L=1 primitive    3 from    2 C=  4.45D-21.
 Delete L=1 primitive    2 from    2 C=  3.29D-07.
 Delete L=1 primitive    1 from    2 C=  2.32D-07.
 Delete L=1 primitive   16 from    1 C=  0.00D+00.
 Delete L=1 primitive   15 from    1 C=  1.95D-23.
 Delete L=1 primitive   12 from    1 C=  4.81D-20.
 IA=     2 L=1 SC=1 ISt=    0 NBk=    0 NP=    0 IndPr=   43.
 IA=     2 ShT= 2 ShC= 2 NL=   3 NS=   1.
 IA=     2 L=2 SC=2 ISt=    1 NBk=    2 NP=    8 IndPr=    0.
 DoElim1:  L=2 select primitive    1 from    1 using    2 C=-3.97D-03
 DoElim2:  L=2 select primitive    7 from    2 using    1 C= 8.24D-01
 DoElim:  L=2 eliminating redundant primitive    8        0.051884 from    1
 DoElim:  L=2 eliminating redundant primitive    8        0.051884 from    2
 Delete L=2 primitive    8 from    2 C=  0.00D+00.
 Delete L=2 primitive    7 from    2 C=  3.53D-17.
 Delete L=2 primitive    8 from    1 C=  0.00D+00.
 Delete L=2 primitive    1 from    1 C=  6.00D-20.
 IA=     2 L=2 SC=2 ISt=    0 NBk=    0 NP=    0 IndPr=   12.
 IA=     2 ShT= 3 ShC= 3 NL=   1 NS=   0.
 IA=     2 L=3 SC=3 ISt=    0 NBk=    0 NP=    0 IndPr=    0.
 Ernie:  65 primitive shells out of 188 were deleted.
 LdAtmC:  AtmChg=     1.000000    22.000000
 AtZEff=     -1.0000000    -23.9800000
 NEqShl: 
              1            2            3            4
     1            1            1            1            1
     2            2            2            2            2
     3            3            3            3            3
     4            4            4            4            4
     5            5            5            5            5
     6            6            6            6            6
     7            7            7            7            7
     8            8            8            8            8
     9            9            9            9            9
    10           10           10           10           10
    11           11           11           11           11
    12           12           12           12           12
    13           13           13           13           13
    14           14           14           14           14
    15           15           15           15           15
    16           16           16           16           16
 NEqBas: 
              1            2            3            4
     1            1            1            1            1
     2            2            2            2            2
     3            3            3            3            3
     4            4            4            4            4
     5            5            5            5            5
     6            6            6            6            6
     7            7            7            7            7
     8            8           -8           -8            8
     9            9           -9            9           -9
    10           10           10           10           10
    11           11          -11          -11           11
    12           12          -12           12          -12
    13           13           13           13           13
    14           14          -14          -14           14
    15           15          -15           15          -15
    16           16           16           16           16
    17           17          -17          -17           17
    18           18          -18           18          -18
    19           19           19           19           19
    20           20          -20          -20           20
    21           21          -21           21          -21
    22           22           22           22           22
    23           23           23           23           23
    24           24           24           24           24
    25           25           25           25           25
    26           26           26          -26          -26
    27           27          -27          -27           27
    28           28          -28           28          -28
    29           29           29           29           29
    30           30           30           30           30
    31           31           31           31           31
    32           32           32          -32          -32
    33           33          -33          -33           33
    34           34          -34           34          -34
    35           35           35           35           35
    36           36           36           36           36
    37           37           37           37           37
    38           38           38          -38          -38
    39           39          -39          -39           39
    40           40          -40           40          -40
    41           41          -41          -41           41
    42           42          -42           42          -42
    43           43           43           43           43
    44           44          -44          -44           44
    45           45          -45           45          -45
    46           46           46           46           46
    47           47          -47          -47           47
    48           48          -48           48          -48
    49           49           49           49           49
    50           50           50          -50          -50
 There are    24 symmetry adapted cartesian basis functions of A1  symmetry.
   1         1   1   1   1
   2         2   2   2   2
   3         3   3   3   3
   4         4   4   4   4
   5         5   5   5   5
   6         6   6   6   6
   7         7   7   7   7
   8        10  10  10  10
   9        13  13  13  13
  10        16  16  16  16
  11        19  19  19  19
  12        22  22  22  22
  13        23  23  23  23
  14        24  24  24  24
  15        25  25  25  25
  16        29  29  29  29
  17        30  30  30  30
  18        31  31  31  31
  19        35  35  35  35
  20        36  36  36  36
  21        37  37  37  37
  22        43  43  43  43
  23        46  46  46  46
  24        49  49  49  49
 There are     4 symmetry adapted cartesian basis functions of A2  symmetry.
  25        26  26  26  26
  26        32  32  32  32
  27        38  38  38  38
  28        50  50  50  50
 There are    11 symmetry adapted cartesian basis functions of B1  symmetry.
  29         8   8   8   8
  30        11  11  11  11
  31        14  14  14  14
  32        17  17  17  17
  33        20  20  20  20
  34        27  27  27  27
  35        33  33  33  33
  36        39  39  39  39
  37        41  41  41  41
  38        44  44  44  44
  39        47  47  47  47
 There are    11 symmetry adapted cartesian basis functions of B2  symmetry.
  40         9   9   9   9
  41        12  12  12  12
  42        15  15  15  15
  43        18  18  18  18
  44        21  21  21  21
  45        28  28  28  28
  46        34  34  34  34
  47        40  40  40  40
  48        42  42  42  42
  49        45  45  45  45
  50        48  48  48  48
 Order= 1 2 4 3
 Reordered character table:
              1            2            3            4            5
     1            1            1            1            1            1
     2            2            1            1           -1           -1
     3            4            1           -1           -1            1
     4            3            1           -1            1           -1
 NEqShl: 
              1            2            3            4
     1            1            1            1            1
     2            2            2            2            2
     3            3            3            3            3
     4            4            4            4            4
     5            5            5            5            5
     6            6            6            6            6
     7            7            7            7            7
     8            8            8            8            8
     9            9            9            9            9
    10           10           10           10           10
    11           11           11           11           11
    12           12           12           12           12
    13           13           13           13           13
    14           14           14           14           14
    15           15           15           15           15
    16           16           16           16           16
 NEqBas: 
              1            2            3            4
     1            1            1            1            1
     2            2            2            2            2
     3            3            3            3            3
     4            4            4            4            4
     5            5            5            5            5
     6            6            6            6            6
     7            7            7            7            7
     8            8           -8           -8            8
     9            9           -9            9           -9
    10           10           10           10           10
    11           11          -11          -11           11
    12           12          -12           12          -12
    13           13           13           13           13
    14           14          -14          -14           14
    15           15          -15           15          -15
    16           16           16           16           16
    17           17          -17          -17           17
    18           18          -18           18          -18
    19           19           19           19           19
    20           20          -20          -20           20
    21           21          -21           21          -21
    22           22           22           22           22
    23           23           23           23           23
    24           24          -24          -24           24
    25           25          -25           25          -25
    26           26           26           26           26
    27           27           27          -27          -27
    28           28           28           28           28
    29           29          -29          -29           29
    30           30          -30           30          -30
    31           31           31           31           31
    32           32           32          -32          -32
    33           33           33           33           33
    34           34          -34          -34           34
    35           35          -35           35          -35
    36           36           36           36           36
    37           37           37          -37          -37
    38           38           38           38           38
    39           39          -39          -39           39
    40           40          -40           40          -40
    41           41           41           41           41
    42           42           42          -42          -42
    43           43          -43          -43           43
    44           44          -44           44          -44
 There are    20 symmetry adapted basis functions of A1  symmetry.
   1         1   1   1   1
   2         2   2   2   2
   3         3   3   3   3
   4         4   4   4   4
   5         5   5   5   5
   6         6   6   6   6
   7         7   7   7   7
   8        10  10  10  10
   9        13  13  13  13
  10        16  16  16  16
  11        19  19  19  19
  12        22  22  22  22
  13        23  23  23  23
  14        26  26  26  26
  15        28  28  28  28
  16        31  31  31  31
  17        33  33  33  33
  18        36  36  36  36
  19        38  38  38  38
  20        41  41  41  41
 There are     4 symmetry adapted basis functions of A2  symmetry.
  21        27  27  27  27
  22        32  32  32  32
  23        37  37  37  37
  24        42  42  42  42
 There are    10 symmetry adapted basis functions of B1  symmetry.
  25         8   8   8   8
  26        11  11  11  11
  27        14  14  14  14
  28        17  17  17  17
  29        20  20  20  20
  30        24  24  24  24
  31        29  29  29  29
  32        34  34  34  34
  33        39  39  39  39
  34        43  43  43  43
 There are    10 symmetry adapted basis functions of B2  symmetry.
  35         9   9   9   9
  36        12  12  12  12
  37        15  15  15  15
  38        18  18  18  18
  39        21  21  21  21
  40        25  25  25  25
  41        30  30  30  30
  42        35  35  35  35
  43        40  40  40  40
  44        44  44  44  44
 Order= 1 2 4 3
 Reordered character table:
              1            2            3            4            5
     1            1            1            1            1            1
     2            2            1            1           -1           -1
     3            4            1           -1           -1            1
     4            3            1           -1            1           -1
    44 basis functions,   294 primitive gaussians,    50 cartesian basis functions
    13 alpha electrons       10 beta electrons
       nuclear repulsion energy         6.4677214668 Hartrees.
 IS=     1 IAt=     1 ISR=     1 T=0 IP=      1 IndIP=      1 IndIPD=      0 C=  2.769344D-01  0.000000D+00                             NZ=T
 IS=     1 IAt=     1 ISR=     1 T=0 IP=      2 IndIP=      2 IndIPD=      1 C=  2.678389D-01  0.000000D+00                             NZ=T
 IS=     1 IAt=     1 ISR=     1 T=0 IP=      3 IndIP=      3 IndIPD=      2 C=  8.347367D-02  0.000000D+00                             NZ=T
 IS=     2 IAt=     2 ISR=     1 T=0 IP=      1 IndIP=      4 IndIPD=      0 C=  4.601961D-01  0.000000D+00                             NZ=T
 IS=     2 IAt=     2 ISR=     1 T=0 IP=      2 IndIP=      5 IndIPD=      1 C=  8.613523D-01  0.000000D+00                             NZ=T
 IS=     2 IAt=     2 ISR=     1 T=0 IP=      3 IndIP=      6 IndIPD=      2 C=  1.492098D+00  0.000000D+00                             NZ=T
 IS=     2 IAt=     2 ISR=     1 T=0 IP=      4 IndIP=      7 IndIPD=      3 C=  2.442647D+00  0.000000D+00                             NZ=T
 IS=     2 IAt=     2 ISR=     1 T=0 IP=      5 IndIP=      8 IndIPD=      4 C=  3.817597D+00  0.000000D+00                             NZ=T
 IS=     2 IAt=     2 ISR=     1 T=0 IP=      6 IndIP=      9 IndIPD=      5 C=  5.697836D+00  0.000000D+00                             NZ=T
 IS=     2 IAt=     2 ISR=     1 T=0 IP=      7 IndIP=     10 IndIPD=      6 C=  8.012644D+00  0.000000D+00                             NZ=T
 IS=     2 IAt=     2 ISR=     1 T=0 IP=      8 IndIP=     11 IndIPD=      7 C=  1.023886D+01  0.000000D+00                             NZ=T
 IS=     2 IAt=     2 ISR=     1 T=0 IP=      9 IndIP=     12 IndIPD=      8 C=  1.103553D+01  0.000000D+00                             NZ=T
 IS=     2 IAt=     2 ISR=     1 T=0 IP=     10 IndIP=     13 IndIPD=      9 C=  8.646511D+00  0.000000D+00                             NZ=T
 IS=     2 IAt=     2 ISR=     1 T=0 IP=     11 IndIP=     14 IndIPD=     10 C=  3.676375D+00  0.000000D+00                             NZ=T
 IS=     2 IAt=     2 ISR=     1 T=0 IP=     12 IndIP=     15 IndIPD=     11 C=  4.678885D-01  0.000000D+00                             NZ=T
 IS=     2 IAt=     2 ISR=     1 T=0 IP=     13 IndIP=     16 IndIPD=     12 C= -1.409058D-02  0.000000D+00                             NZ=T
 IS=     2 IAt=     2 ISR=     1 T=0 IP=     14 IndIP=     17 IndIPD=     13 C= -1.843009D-03  0.000000D+00                             NZ=T
 IS=     2 IAt=     2 ISR=     1 T=0 IP=     15 IndIP=     18 IndIPD=     14 C= -1.927139D-04  0.000000D+00                             NZ=T
 IS=     3 IAt=     2 ISR=     2 T=0 IP=      1 IndIP=     19 IndIPD=      0 C= -4.156296D-03  0.000000D+00                             NZ=T
 IS=     3 IAt=     2 ISR=     2 T=0 IP=      2 IndIP=     20 IndIPD=      1 C= -2.174157D-02  0.000000D+00                             NZ=T
 IS=     3 IAt=     2 ISR=     2 T=0 IP=      3 IndIP=     21 IndIPD=      2 C= -8.573226D-02  0.000000D+00                             NZ=T
 IS=     3 IAt=     2 ISR=     2 T=0 IP=      4 IndIP=     22 IndIPD=      3 C= -2.732897D-01  0.000000D+00                             NZ=T
 IS=     3 IAt=     2 ISR=     2 T=0 IP=      5 IndIP=     23 IndIPD=      4 C= -7.085232D-01  0.000000D+00                             NZ=T
 IS=     3 IAt=     2 ISR=     2 T=0 IP=      6 IndIP=     24 IndIPD=      5 C= -1.357083D+00  0.000000D+00                             NZ=T
 IS=     3 IAt=     2 ISR=     2 T=0 IP=      7 IndIP=     25 IndIPD=      6 C= -1.326175D+00  0.000000D+00                             NZ=T
 IS=     3 IAt=     2 ISR=     2 T=0 IP=      8 IndIP=     26 IndIPD=      7 C=  4.708339D-01  0.000000D+00                             NZ=T
 IS=     3 IAt=     2 ISR=     2 T=0 IP=      9 IndIP=     27 IndIPD=      8 C=  2.041210D+00  0.000000D+00                             NZ=T
 IS=     3 IAt=     2 ISR=     2 T=0 IP=     10 IndIP=     28 IndIPD=      9 C=  1.171232D+00  0.000000D+00                             NZ=T
 IS=     3 IAt=     2 ISR=     2 T=0 IP=     11 IndIP=     29 IndIPD=     10 C=  1.186302D-01  0.000000D+00                             NZ=T
 IS=     3 IAt=     2 ISR=     2 T=0 IP=     12 IndIP=     30 IndIPD=     11 C=  1.645608D-03  0.000000D+00                             NZ=T
 IS=     4 IAt=     2 ISR=     3 T=0 IP=      1 IndIP=     31 IndIPD=      0 C= -2.009719D-03  0.000000D+00                             NZ=T
 IS=     4 IAt=     2 ISR=     3 T=0 IP=      2 IndIP=     32 IndIPD=      1 C=  3.685234D-04  0.000000D+00                             NZ=T
 IS=     4 IAt=     2 ISR=     3 T=0 IP=      3 IndIP=     33 IndIPD=      2 C= -6.543288D-03  0.000000D+00                             NZ=T
 IS=     4 IAt=     2 ISR=     3 T=0 IP=      4 IndIP=     34 IndIPD=      3 C= -1.867953D-02  0.000000D+00                             NZ=T
 IS=     4 IAt=     2 ISR=     3 T=0 IP=      5 IndIP=     35 IndIPD=      4 C=  1.006848D-02  0.000000D+00                             NZ=T
 IS=     4 IAt=     2 ISR=     3 T=0 IP=      6 IndIP=     36 IndIPD=      5 C=  2.898501D-02  0.000000D+00                             NZ=T
 IS=     4 IAt=     2 ISR=     3 T=0 IP=      7 IndIP=     37 IndIPD=      6 C= -3.297137D-01  0.000000D+00                             NZ=T
 IS=     4 IAt=     2 ISR=     3 T=0 IP=      8 IndIP=     38 IndIPD=      7 C= -5.569360D-01  0.000000D+00                             NZ=T
 IS=     4 IAt=     2 ISR=     3 T=0 IP=      9 IndIP=     39 IndIPD=      8 C=  1.218651D-01  0.000000D+00                             NZ=T
 IS=     4 IAt=     2 ISR=     3 T=0 IP=     10 IndIP=     40 IndIPD=      9 C=  6.285222D-01  0.000000D+00                             NZ=T
 IS=     4 IAt=     2 ISR=     3 T=0 IP=     11 IndIP=     41 IndIPD=     10 C=  1.786727D-01  0.000000D+00                             NZ=T
 IS=     4 IAt=     2 ISR=     3 T=0 IP=     12 IndIP=     42 IndIPD=     11 C= -6.692340D-02  0.000000D+00                             NZ=T
 IS=     5 IAt=     2 ISR=     4 T=0 IP=      1 IndIP=     43 IndIPD=      0 C= -2.538325D-04  0.000000D+00                             NZ=T
 IS=     5 IAt=     2 ISR=     4 T=0 IP=      2 IndIP=     44 IndIPD=      1 C=  1.195747D-04  0.000000D+00                             NZ=T
 IS=     5 IAt=     2 ISR=     4 T=0 IP=      3 IndIP=     45 IndIPD=      2 C=  4.327939D-05  0.000000D+00                             NZ=T
 IS=     5 IAt=     2 ISR=     4 T=0 IP=      4 IndIP=     46 IndIPD=      3 C=  5.652494D-03  0.000000D+00                             NZ=T
 IS=     5 IAt=     2 ISR=     4 T=0 IP=      5 IndIP=     47 IndIPD=      4 C= -9.239048D-03  0.000000D+00                             NZ=T
 IS=     5 IAt=     2 ISR=     4 T=0 IP=      6 IndIP=     48 IndIPD=      5 C= -3.834623D-02  0.000000D+00                             NZ=T
 IS=     5 IAt=     2 ISR=     4 T=0 IP=      7 IndIP=     49 IndIPD=      6 C= -8.755720D-02  0.000000D+00                             NZ=T
 IS=     5 IAt=     2 ISR=     4 T=0 IP=      8 IndIP=     50 IndIPD=      7 C=  5.141708D-02  0.000000D+00                             NZ=T
 IS=     5 IAt=     2 ISR=     4 T=0 IP=      9 IndIP=     51 IndIPD=      8 C=  6.056180D-02  0.000000D+00                             NZ=T
 IS=     6 IAt=     2 ISR=     5 T=0 IP=      1 IndIP=     52 IndIPD=      0 C=  2.864993D-03  0.000000D+00                             NZ=T
 IS=     6 IAt=     2 ISR=     5 T=0 IP=      2 IndIP=     53 IndIPD=      1 C= -6.088676D-04  0.000000D+00                             NZ=T
 IS=     6 IAt=     2 ISR=     5 T=0 IP=      3 IndIP=     54 IndIPD=      2 C=  9.145188D-03  0.000000D+00                             NZ=T
 IS=     6 IAt=     2 ISR=     5 T=0 IP=      4 IndIP=     55 IndIPD=      3 C=  3.068466D-02  0.000000D+00                             NZ=T
 IS=     6 IAt=     2 ISR=     5 T=0 IP=      5 IndIP=     56 IndIPD=      4 C=  1.270586D-02  0.000000D+00                             NZ=T
 IS=     6 IAt=     2 ISR=     5 T=0 IP=      6 IndIP=     57 IndIPD=      5 C=  6.411399D-02  0.000000D+00                             NZ=T
 IS=     6 IAt=     2 ISR=     5 T=0 IP=      7 IndIP=     58 IndIPD=      6 C= -4.813885D-02  0.000000D+00                             NZ=T
 IS=     6 IAt=     2 ISR=     5 T=0 IP=      8 IndIP=     59 IndIPD=      7 C= -7.768119D-02  0.000000D+00                             NZ=T
 IS=     6 IAt=     2 ISR=     5 T=0 IP=      9 IndIP=     60 IndIPD=      8 C= -2.457033D-01  0.000000D+00                             NZ=T
 IS=     6 IAt=     2 ISR=     5 T=0 IP=     10 IndIP=     61 IndIPD=      9 C=  9.551324D-02  0.000000D+00                             NZ=T
 IS=     6 IAt=     2 ISR=     5 T=0 IP=     11 IndIP=     62 IndIPD=     10 C=  5.526306D-02  0.000000D+00                             NZ=T
 IS=     6 IAt=     2 ISR=     5 T=0 IP=     12 IndIP=     63 IndIPD=     11 C=  1.188443D-01  0.000000D+00                             NZ=T
 IS=     7 IAt=     2 ISR=     6 T=0 IP=      1 IndIP=     64 IndIPD=      0 C=  4.543263D-02  0.000000D+00                             NZ=T
 IS=     8 IAt=     2 ISR=     7 T=1 IP=      1 IndIP=     65 IndIPD=      0 C=  0.000000D+00  7.795981D+00                             NZ=T
 IS=     8 IAt=     2 ISR=     7 T=1 IP=      2 IndIP=     66 IndIPD=      1 C=  0.000000D+00  1.143990D+01                             NZ=T
 IS=     8 IAt=     2 ISR=     7 T=1 IP=      3 IndIP=     67 IndIPD=      2 C=  0.000000D+00  1.612790D+01                             NZ=T
 IS=     8 IAt=     2 ISR=     7 T=1 IP=      4 IndIP=     68 IndIPD=      3 C=  0.000000D+00  2.120141D+01                             NZ=T
 IS=     8 IAt=     2 ISR=     7 T=1 IP=      5 IndIP=     69 IndIPD=      4 C=  0.000000D+00  2.533977D+01                             NZ=T
 IS=     8 IAt=     2 ISR=     7 T=1 IP=      6 IndIP=     70 IndIPD=      5 C=  0.000000D+00  2.664657D+01                             NZ=T
 IS=     8 IAt=     2 ISR=     7 T=1 IP=      7 IndIP=     71 IndIPD=      6 C=  0.000000D+00  2.296005D+01                             NZ=T
 IS=     8 IAt=     2 ISR=     7 T=1 IP=      8 IndIP=     72 IndIPD=      7 C=  0.000000D+00  1.495671D+01                             NZ=T
 IS=     8 IAt=     2 ISR=     7 T=1 IP=      9 IndIP=     73 IndIPD=      8 C=  0.000000D+00  6.394973D+00                             NZ=T
 IS=     8 IAt=     2 ISR=     7 T=1 IP=     10 IndIP=     74 IndIPD=      9 C=  0.000000D+00  1.316040D+00                             NZ=T
 IS=     8 IAt=     2 ISR=     7 T=1 IP=     11 IndIP=     75 IndIPD=     10 C=  0.000000D+00  8.037045D-02                             NZ=T
 IS=     8 IAt=     2 ISR=     7 T=1 IP=     12 IndIP=     76 IndIPD=     11 C=  0.000000D+00 -1.639389D-04                             NZ=T
 IS=     8 IAt=     2 ISR=     7 T=1 IP=     13 IndIP=     77 IndIPD=     12 C=  0.000000D+00 -1.884516D-05                             NZ=T
 IS=     9 IAt=     2 ISR=     8 T=1 IP=      1 IndIP=     78 IndIPD=      0 C=  0.000000D+00 -4.027304D-02                             NZ=T
 IS=     9 IAt=     2 ISR=     8 T=1 IP=      2 IndIP=     79 IndIPD=      1 C=  0.000000D+00 -1.519980D-01                             NZ=T
 IS=     9 IAt=     2 ISR=     8 T=1 IP=      3 IndIP=     80 IndIPD=      2 C=  0.000000D+00 -3.797862D-01                             NZ=T
 IS=     9 IAt=     2 ISR=     8 T=1 IP=      4 IndIP=     81 IndIPD=      3 C=  0.000000D+00 -6.057571D-01                             NZ=T
 IS=     9 IAt=     2 ISR=     8 T=1 IP=      5 IndIP=     82 IndIPD=      4 C=  0.000000D+00 -6.349846D-01                             NZ=T
 IS=     9 IAt=     2 ISR=     8 T=1 IP=      6 IndIP=     83 IndIPD=      5 C=  0.000000D+00 -3.948474D-01                             NZ=T
 IS=     9 IAt=     2 ISR=     8 T=1 IP=      7 IndIP=     84 IndIPD=      6 C=  0.000000D+00  5.551180D-01                             NZ=T
 IS=     9 IAt=     2 ISR=     8 T=1 IP=      8 IndIP=     85 IndIPD=      7 C=  0.000000D+00  1.049291D+00                             NZ=T
 IS=     9 IAt=     2 ISR=     8 T=1 IP=      9 IndIP=     86 IndIPD=      8 C=  0.000000D+00  6.036670D-01                             NZ=T
 IS=     9 IAt=     2 ISR=     8 T=1 IP=     10 IndIP=     87 IndIPD=      9 C=  0.000000D+00  1.523990D-01                             NZ=T
 IS=     9 IAt=     2 ISR=     8 T=1 IP=     11 IndIP=     88 IndIPD=     10 C=  0.000000D+00  8.253888D-03                             NZ=T
 IS=    10 IAt=     2 ISR=     9 T=1 IP=      1 IndIP=     89 IndIPD=      0 C=  0.000000D+00 -3.269879D-03                             NZ=T
 IS=    10 IAt=     2 ISR=     9 T=1 IP=      2 IndIP=     90 IndIPD=      1 C=  0.000000D+00 -8.378074D-03                             NZ=T
 IS=    10 IAt=     2 ISR=     9 T=1 IP=      3 IndIP=     91 IndIPD=      2 C=  0.000000D+00  2.529722D-03                             NZ=T
 IS=    10 IAt=     2 ISR=     9 T=1 IP=      4 IndIP=     92 IndIPD=      3 C=  0.000000D+00 -8.607827D-03                             NZ=T
 IS=    10 IAt=     2 ISR=     9 T=1 IP=      5 IndIP=     93 IndIPD=      4 C=  0.000000D+00 -2.397739D-02                             NZ=T
 IS=    10 IAt=     2 ISR=     9 T=1 IP=      6 IndIP=     94 IndIPD=      5 C=  0.000000D+00 -3.614299D-02                             NZ=T
 IS=    10 IAt=     2 ISR=     9 T=1 IP=      7 IndIP=     95 IndIPD=      6 C=  0.000000D+00 -2.100047D-02                             NZ=T
 IS=    10 IAt=     2 ISR=     9 T=1 IP=      8 IndIP=     96 IndIPD=      7 C=  0.000000D+00  5.981245D-02                             NZ=T
 IS=    10 IAt=     2 ISR=     9 T=1 IP=      9 IndIP=     97 IndIPD=      8 C=  0.000000D+00  3.898314D-02                             NZ=T
 IS=    11 IAt=     2 ISR=    10 T=1 IP=      1 IndIP=     98 IndIPD=      0 C=  0.000000D+00  1.995377D-01                             NZ=T
 IS=    11 IAt=     2 ISR=    10 T=1 IP=      2 IndIP=     99 IndIPD=      1 C=  0.000000D+00 -9.916829D-02                             NZ=T
 IS=    11 IAt=     2 ISR=    10 T=1 IP=      3 IndIP=    100 IndIPD=      2 C=  0.000000D+00 -5.154941D-01                             NZ=T
 IS=    11 IAt=     2 ISR=    10 T=1 IP=      4 IndIP=    101 IndIPD=      3 C=  0.000000D+00 -2.299023D-01                             NZ=T
 IS=    11 IAt=     2 ISR=    10 T=1 IP=      5 IndIP=    102 IndIPD=      4 C=  0.000000D+00 -4.427241D-01                             NZ=T
 IS=    11 IAt=     2 ISR=    10 T=1 IP=      6 IndIP=    103 IndIPD=      5 C=  0.000000D+00  6.312007D-01                             NZ=T
 IS=    11 IAt=     2 ISR=    10 T=1 IP=      7 IndIP=    104 IndIPD=      6 C=  0.000000D+00  7.247077D-01                             NZ=T
 IS=    11 IAt=     2 ISR=    10 T=1 IP=      8 IndIP=    105 IndIPD=      7 C=  0.000000D+00  5.879952D-01                             NZ=T
 IS=    11 IAt=     2 ISR=    10 T=1 IP=      9 IndIP=    106 IndIPD=      8 C=  0.000000D+00 -4.923816D-02                             NZ=T
 IS=    11 IAt=     2 ISR=    10 T=1 IP=     10 IndIP=    107 IndIPD=      9 C=  0.000000D+00  1.070378D-01                             NZ=T
 IS=    12 IAt=     2 ISR=    11 T=1 IP=      1 IndIP=    108 IndIPD=      0 C=  0.000000D+00  1.735373D-02                             NZ=T
 IS=    13 IAt=     2 ISR=    12 T=2 IP=      1 IndIP=    109 IndIPD=      1 C=  0.000000D+00  0.000000D+00  2.253599D-02  0.000000D+00 NZ=T
 IS=    13 IAt=     2 ISR=    12 T=2 IP=      2 IndIP=    110 IndIPD=      2 C=  0.000000D+00  0.000000D+00 -1.113976D-01  0.000000D+00 NZ=T
 IS=    13 IAt=     2 ISR=    12 T=2 IP=      3 IndIP=    111 IndIPD=      3 C=  0.000000D+00  0.000000D+00  7.556885D-04  0.000000D+00 NZ=T
 IS=    13 IAt=     2 ISR=    12 T=2 IP=      4 IndIP=    112 IndIPD=      4 C=  0.000000D+00  0.000000D+00  8.195510D-02  0.000000D+00 NZ=T
 IS=    13 IAt=     2 ISR=    12 T=2 IP=      5 IndIP=    113 IndIPD=      5 C=  0.000000D+00  0.000000D+00  1.108254D-01  0.000000D+00 NZ=T
 IS=    13 IAt=     2 ISR=    12 T=2 IP=      6 IndIP=    114 IndIPD=      6 C=  0.000000D+00  0.000000D+00  4.815533D-02  0.000000D+00 NZ=T
 IS=    14 IAt=     2 ISR=    13 T=2 IP=      1 IndIP=    115 IndIPD=      7 C=  0.000000D+00  0.000000D+00 -1.207446D+01  0.000000D+00 NZ=T
 IS=    14 IAt=     2 ISR=    13 T=2 IP=      2 IndIP=    116 IndIPD=      8 C=  0.000000D+00  0.000000D+00 -9.614714D+00  0.000000D+00 NZ=T
 IS=    14 IAt=     2 ISR=    13 T=2 IP=      3 IndIP=    117 IndIPD=      9 C=  0.000000D+00  0.000000D+00 -5.925403D+00  0.000000D+00 NZ=T
 IS=    14 IAt=     2 ISR=    13 T=2 IP=      4 IndIP=    118 IndIPD=     10 C=  0.000000D+00  0.000000D+00 -2.773498D+00  0.000000D+00 NZ=T
 IS=    14 IAt=     2 ISR=    13 T=2 IP=      5 IndIP=    119 IndIPD=     11 C=  0.000000D+00  0.000000D+00 -8.295859D-01  0.000000D+00 NZ=T
 IS=    14 IAt=     2 ISR=    13 T=2 IP=      6 IndIP=    120 IndIPD=     12 C=  0.000000D+00  0.000000D+00 -1.298928D-01  0.000000D+00 NZ=T
 IS=    15 IAt=     2 ISR=    14 T=2 IP=      1 IndIP=    121 IndIPD=     13 C=  0.000000D+00  0.000000D+00  9.283634D-03  0.000000D+00 NZ=T
 IS=    16 IAt=     2 ISR=    15 T=3 IP=      1 IndIP=    122 IndIPD=     14 C=  0.000000D+00  0.000000D+00  0.000000D+00  8.360800D-01 NZ=T
 IS=    16 IAt=     2 ISR=    15 T=3 IP=      2 IndIP=    123 IndIPD=     15 C=  0.000000D+00  0.000000D+00  0.000000D+00  6.866491D-02 NZ=T
 IExCor=    0 DFT=F Ex=HF Corr=None ExCW=0 ScaHFX=  1.000000
 ScaDFX=  1.000000  1.000000  1.000000  1.000000 ScalE2=  1.000000  1.000000
 IRadAn=      5 IRanWt=     -1 IRanGd=            0 ICorTp=0 IEmpDi=  4
 NAtoms=    2 NActive=    2 NUniq=    2 SFac= 1.00D+00 NAtFMM=   60 NAOKFM=F Big=F
 Integral buffers will be    131072 words long.
 Raffenetti 2 integral format.
 Two-electron integral symmetry is turned on.
 Leave Link  301 at Mon Mar 28 10:02:22 2022, MaxMem=  9663676416 cpu:               2.9 elap:               0.1
 (Enter /nopt/nrel/apps/gaussian/g16C_1/g16/l302.exe)
 NPDir=0 NMtPBC=     1 NCelOv=     1 NCel=       1 NClECP=     1 NCelD=      1
         NCelK=      1 NCelE2=     1 NClLst=     1 CellRange=     0.0.
 One-electron integrals computed using PRISM.
 One-electron integral symmetry used in STVInt
 Entering OneElI...
 Calculate overlap and kinetic energy integrals
    NBasis =  44  MinDer = 0  MaxDer = 0
 Requested accuracy = 0.1000D-12
 Symmetry will be used
 PrmmSu-InSpLW:  IPartL=    0 NPrtUS=   36 NPrtUL=    1 DoSpLW=F IThBeg=    0 IThEnd=   35 NThAct=   36.
 PrSmSu:  IncTry=   512 NBBP=            136 NTPThr=   100 NPartT=   36 Incr=           1 LDynOK=F GPUOK=F.
 PrsmSu:  NPrtUS=  36 ThrOK=T IAlg=1 LenDen=           0 ISkipM=0 DoSpLW=F IThBeg=    0 IThEnd=   35.
 Prism:   IPart=     0 DynPar=F LinDyn=F Incr=           1.
 PRISM was handed   268364371 working-precision words and   136 shell-pairs
 PRISM was handed   268364371 working-precision words and   136 shell-pairs
 PRISM was handed   268364371 working-precision words and   136 shell-pairs
 PRISM was handed   268364371 working-precision words and   136 shell-pairs
 PRISM was handed   268364371 working-precision words and   136 shell-pairs
 PRISM was handed   268364371 working-precision words and   136 shell-pairs
 PRISM was handed   268364371 working-precision words and   136 shell-pairs
 PRISM was handed   268364371 working-precision words and   136 shell-pairs
 PRISM was handed   268364371 working-precision words and   136 shell-pairs
 PRISM was handed   268364371 working-precision words and   136 shell-pairs
 PRISM was handed   268364371 working-precision words and   136 shell-pairs
 PRISM was handed   268364371 working-precision words and   136 shell-pairs
 IPart= 31 NShTot=           0 NBatch=           0 AvBLen=         0.0
 IPart=  9 NShTot=           0 NBatch=           0 AvBLen=         0.0
 IPart= 23 NShTot=           0 NBatch=           0 AvBLen=         0.0
 IPart= 30 NShTot=           0 NBatch=           0 AvBLen=         0.0
 IPart=  7 NShTot=           0 NBatch=           0 AvBLen=         0.0
 IPart= 32 NShTot=           0 NBatch=           0 AvBLen=         0.0
 IPart= 26 NShTot=           0 NBatch=           0 AvBLen=         0.0
 IPart= 33 NShTot=           0 NBatch=           0 AvBLen=         0.0
 IPart= 29 NShTot=           0 NBatch=           0 AvBLen=         0.0
 PRISM was handed   268364371 working-precision words and   136 shell-pairs
 PRISM was handed   268364371 working-precision words and   136 shell-pairs
 IPart= 35 NShTot=           0 NBatch=           0 AvBLen=         0.0
 PRISM was handed   268364371 working-precision words and   136 shell-pairs
 PRISM was handed   268364371 working-precision words and   136 shell-pairs
 PRISM was handed   268364371 working-precision words and   136 shell-pairs
 PRISM was handed   268364371 working-precision words and   136 shell-pairs
 PRISM was handed   268364371 working-precision words and   136 shell-pairs
 PRISM was handed   268364371 working-precision words and   136 shell-pairs
 PRISM was handed   268364371 working-precision words and   136 shell-pairs
 PRISM was handed   268364371 working-precision words and   136 shell-pairs
 PRISM was handed   268364371 working-precision words and   136 shell-pairs
 PRISM was handed   268364371 working-precision words and   136 shell-pairs
 IPart=  2 NShTot=          14 NBatch=          14 AvBLen=         1.0
 IPart= 13 NShTot=           0 NBatch=           0 AvBLen=         0.0
 PRISM was handed   268364371 working-precision words and   136 shell-pairs
 PRISM was handed   268364371 working-precision words and   136 shell-pairs
 PRISM was handed   268364371 working-precision words and   136 shell-pairs
 PRISM was handed   268364371 working-precision words and   136 shell-pairs
 PRISM was handed   268364371 working-precision words and   136 shell-pairs
 PRISM was handed   268364371 working-precision words and   136 shell-pairs
 PRISM was handed   268364371 working-precision words and   136 shell-pairs
 PRISM was handed   268364371 working-precision words and   136 shell-pairs
 IPart= 28 NShTot=           0 NBatch=           0 AvBLen=         0.0
 PRISM was handed   268364371 working-precision words and   136 shell-pairs
 IPart= 18 NShTot=           0 NBatch=           0 AvBLen=         0.0
 IPart= 19 NShTot=           0 NBatch=           0 AvBLen=         0.0
 IPart= 34 NShTot=           0 NBatch=           0 AvBLen=         0.0
 IPart= 15 NShTot=           0 NBatch=           0 AvBLen=         0.0
 IPart= 24 NShTot=           0 NBatch=           0 AvBLen=         0.0
 IPart= 20 NShTot=           0 NBatch=           0 AvBLen=         0.0
 IPart= 11 NShTot=           0 NBatch=           0 AvBLen=         0.0
 IPart= 27 NShTot=           0 NBatch=           0 AvBLen=         0.0
 IPart=  0 NShTot=          89 NBatch=          89 AvBLen=         1.0
 IPart=  5 NShTot=           2 NBatch=           2 AvBLen=         1.0
 PRISM was handed   268364371 working-precision words and   136 shell-pairs
 PRISM was handed   268364371 working-precision words and   136 shell-pairs
 PRISM was handed   268364371 working-precision words and   136 shell-pairs
 IPart=  4 NShTot=           2 NBatch=           2 AvBLen=         1.0
 IPart= 21 NShTot=           0 NBatch=           0 AvBLen=         0.0
 IPart=  3 NShTot=           2 NBatch=           2 AvBLen=         1.0
 IPart= 17 NShTot=           0 NBatch=           0 AvBLen=         0.0
 IPart= 16 NShTot=           0 NBatch=           0 AvBLen=         0.0
 IPart= 10 NShTot=           0 NBatch=           0 AvBLen=         0.0
 IPart= 14 NShTot=           0 NBatch=           0 AvBLen=         0.0
 IPart= 12 NShTot=           0 NBatch=           0 AvBLen=         0.0
 IPart=  8 NShTot=           0 NBatch=           0 AvBLen=         0.0
 IPart= 22 NShTot=           0 NBatch=           0 AvBLen=         0.0
 IPart= 25 NShTot=           0 NBatch=           0 AvBLen=         0.0
 IPart=  6 NShTot=           0 NBatch=           0 AvBLen=         0.0
 IPart=  1 NShTot=          27 NBatch=          27 AvBLen=         1.0
 PrSmSu:  NxtVal=             37.
 *** Overlap *** 
                1             2             3             4             5 
      1  0.100000D+01
      2  0.164211D-02  0.100000D+01
      3  0.138869D-01  0.279117D+00  0.100000D+01
      4 -0.696070D-01  0.133214D-01  0.392900D+00  0.100000D+01
      5  0.358689D+00 -0.249446D-02  0.242605D-02 -0.181656D+00  0.100000D+01
      6  0.303811D+00 -0.202905D-02  0.120603D+00  0.248298D+00  0.863186D+00
      7  0.296562D+00  0.625628D-02  0.500412D-01 -0.893107D-01  0.867545D+00
      8  0.000000D+00  0.000000D+00  0.000000D+00  0.000000D+00  0.000000D+00
      9  0.000000D+00  0.000000D+00  0.000000D+00  0.000000D+00  0.000000D+00
     10 -0.428574D-02  0.000000D+00  0.000000D+00  0.000000D+00  0.000000D+00
     11  0.000000D+00  0.000000D+00  0.000000D+00  0.000000D+00  0.000000D+00
     12  0.000000D+00  0.000000D+00  0.000000D+00  0.000000D+00  0.000000D+00
     13 -0.109238D+00  0.000000D+00  0.000000D+00  0.000000D+00  0.000000D+00
     14  0.000000D+00  0.000000D+00  0.000000D+00  0.000000D+00  0.000000D+00
     15  0.000000D+00  0.000000D+00  0.000000D+00  0.000000D+00  0.000000D+00
     16 -0.501704D+00  0.000000D+00  0.000000D+00  0.000000D+00  0.000000D+00
     17  0.000000D+00  0.000000D+00  0.000000D+00  0.000000D+00  0.000000D+00
     18  0.000000D+00  0.000000D+00  0.000000D+00  0.000000D+00  0.000000D+00
     19 -0.297755D+00  0.000000D+00  0.000000D+00  0.000000D+00  0.000000D+00
     20  0.000000D+00  0.000000D+00  0.000000D+00  0.000000D+00  0.000000D+00
     21  0.000000D+00  0.000000D+00  0.000000D+00  0.000000D+00  0.000000D+00
     22 -0.323216D+00  0.000000D+00  0.000000D+00  0.000000D+00  0.000000D+00
     23  0.415940D+00  0.000000D+00  0.000000D+00  0.000000D+00  0.000000D+00
     24  0.000000D+00  0.000000D+00  0.000000D+00  0.000000D+00  0.000000D+00
     25  0.000000D+00  0.000000D+00  0.000000D+00  0.000000D+00  0.000000D+00
     26  0.000000D+00  0.000000D+00  0.000000D+00  0.000000D+00  0.000000D+00
     27  0.000000D+00  0.000000D+00  0.000000D+00  0.000000D+00  0.000000D+00
     28 -0.967760D-01  0.000000D+00  0.000000D+00  0.000000D+00  0.000000D+00
     29  0.000000D+00  0.000000D+00  0.000000D+00  0.000000D+00  0.000000D+00
     30  0.000000D+00  0.000000D+00  0.000000D+00  0.000000D+00  0.000000D+00
     31  0.000000D+00  0.000000D+00  0.000000D+00  0.000000D+00  0.000000D+00
     32  0.000000D+00  0.000000D+00  0.000000D+00  0.000000D+00  0.000000D+00
     33  0.332902D+00  0.000000D+00  0.000000D+00  0.000000D+00  0.000000D+00
     34  0.000000D+00  0.000000D+00  0.000000D+00  0.000000D+00  0.000000D+00
     35  0.000000D+00  0.000000D+00  0.000000D+00  0.000000D+00  0.000000D+00
     36  0.000000D+00  0.000000D+00  0.000000D+00  0.000000D+00  0.000000D+00
     37  0.000000D+00  0.000000D+00  0.000000D+00  0.000000D+00  0.000000D+00
     38 -0.266207D+00  0.000000D+00  0.000000D+00  0.000000D+00  0.000000D+00
     39  0.000000D+00  0.000000D+00  0.000000D+00  0.000000D+00  0.000000D+00
     40  0.000000D+00  0.000000D+00  0.000000D+00  0.000000D+00  0.000000D+00
     41  0.000000D+00  0.000000D+00  0.000000D+00  0.000000D+00  0.000000D+00
     42  0.000000D+00  0.000000D+00  0.000000D+00  0.000000D+00  0.000000D+00
     43  0.000000D+00  0.000000D+00  0.000000D+00  0.000000D+00  0.000000D+00
     44  0.000000D+00  0.000000D+00  0.000000D+00  0.000000D+00  0.000000D+00
                6             7             8             9            10 
      6  0.100000D+01
      7  0.671026D+00  0.100000D+01
      8  0.000000D+00  0.000000D+00  0.100000D+01
      9  0.000000D+00  0.000000D+00  0.000000D+00  0.100000D+01
     10  0.000000D+00  0.000000D+00  0.000000D+00  0.000000D+00  0.100000D+01
     11  0.000000D+00  0.000000D+00  0.321080D+00  0.000000D+00  0.000000D+00
     12  0.000000D+00  0.000000D+00  0.000000D+00  0.321080D+00  0.000000D+00
     13  0.000000D+00  0.000000D+00  0.000000D+00  0.000000D+00  0.321080D+00
     14  0.000000D+00  0.000000D+00  0.108247D-01  0.000000D+00  0.000000D+00
     15  0.000000D+00  0.000000D+00  0.000000D+00  0.108247D-01  0.000000D+00
     16  0.000000D+00  0.000000D+00  0.000000D+00  0.000000D+00  0.108247D-01
     17  0.000000D+00  0.000000D+00  0.264262D+00  0.000000D+00  0.000000D+00
     18  0.000000D+00  0.000000D+00  0.000000D+00  0.264262D+00  0.000000D+00
     19  0.000000D+00  0.000000D+00  0.000000D+00  0.000000D+00  0.264262D+00
     20  0.000000D+00  0.000000D+00  0.499923D-02  0.000000D+00  0.000000D+00
     21  0.000000D+00  0.000000D+00  0.000000D+00  0.499923D-02  0.000000D+00
     22  0.000000D+00  0.000000D+00  0.000000D+00  0.000000D+00  0.499923D-02
     23  0.000000D+00  0.000000D+00  0.000000D+00  0.000000D+00  0.000000D+00
     24  0.000000D+00  0.000000D+00  0.000000D+00  0.000000D+00  0.000000D+00
     25  0.000000D+00  0.000000D+00  0.000000D+00  0.000000D+00  0.000000D+00
     26  0.000000D+00  0.000000D+00  0.000000D+00  0.000000D+00  0.000000D+00
     27  0.000000D+00  0.000000D+00  0.000000D+00  0.000000D+00  0.000000D+00
     28  0.000000D+00  0.000000D+00  0.000000D+00  0.000000D+00  0.000000D+00
     29  0.000000D+00  0.000000D+00  0.000000D+00  0.000000D+00  0.000000D+00
     30  0.000000D+00  0.000000D+00  0.000000D+00  0.000000D+00  0.000000D+00
     31  0.000000D+00  0.000000D+00  0.000000D+00  0.000000D+00  0.000000D+00
     32  0.000000D+00  0.000000D+00  0.000000D+00  0.000000D+00  0.000000D+00
     33  0.000000D+00  0.000000D+00  0.000000D+00  0.000000D+00  0.000000D+00
     34  0.000000D+00  0.000000D+00  0.000000D+00  0.000000D+00  0.000000D+00
     35  0.000000D+00  0.000000D+00  0.000000D+00  0.000000D+00  0.000000D+00
     36  0.000000D+00  0.000000D+00  0.000000D+00  0.000000D+00  0.000000D+00
     37  0.000000D+00  0.000000D+00  0.000000D+00  0.000000D+00  0.000000D+00
     38  0.000000D+00  0.000000D+00  0.000000D+00  0.000000D+00  0.000000D+00
     39  0.000000D+00  0.000000D+00  0.000000D+00  0.000000D+00  0.000000D+00
     40  0.000000D+00  0.000000D+00  0.000000D+00  0.000000D+00  0.000000D+00
     41  0.000000D+00  0.000000D+00  0.000000D+00  0.000000D+00  0.000000D+00
     42  0.000000D+00  0.000000D+00  0.000000D+00  0.000000D+00  0.000000D+00
     43  0.000000D+00  0.000000D+00  0.000000D+00  0.000000D+00  0.000000D+00
     44  0.000000D+00  0.000000D+00  0.000000D+00  0.000000D+00  0.000000D+00
               11            12            13            14            15 
     11  0.100000D+01
     12  0.000000D+00  0.100000D+01
     13  0.000000D+00  0.000000D+00  0.100000D+01
     14  0.312924D+00  0.000000D+00  0.000000D+00  0.100000D+01
     15  0.000000D+00  0.312924D+00  0.000000D+00  0.000000D+00  0.100000D+01
     16  0.000000D+00  0.000000D+00  0.312924D+00  0.000000D+00  0.000000D+00
     17  0.908738D+00  0.000000D+00  0.000000D+00  0.652514D+00  0.000000D+00
     18  0.000000D+00  0.908738D+00  0.000000D+00  0.000000D+00  0.652514D+00
     19  0.000000D+00  0.000000D+00  0.908738D+00  0.000000D+00  0.000000D+00
     20  0.102417D+00  0.000000D+00  0.000000D+00  0.695333D+00  0.000000D+00
     21  0.000000D+00  0.102417D+00  0.000000D+00  0.000000D+00  0.695333D+00
     22  0.000000D+00  0.000000D+00  0.102417D+00  0.000000D+00  0.000000D+00
     23  0.000000D+00  0.000000D+00  0.000000D+00  0.000000D+00  0.000000D+00
     24  0.000000D+00  0.000000D+00  0.000000D+00  0.000000D+00  0.000000D+00
     25  0.000000D+00  0.000000D+00  0.000000D+00  0.000000D+00  0.000000D+00
     26  0.000000D+00  0.000000D+00  0.000000D+00  0.000000D+00  0.000000D+00
     27  0.000000D+00  0.000000D+00  0.000000D+00  0.000000D+00  0.000000D+00
     28  0.000000D+00  0.000000D+00  0.000000D+00  0.000000D+00  0.000000D+00
     29  0.000000D+00  0.000000D+00  0.000000D+00  0.000000D+00  0.000000D+00
     30  0.000000D+00  0.000000D+00  0.000000D+00  0.000000D+00  0.000000D+00
     31  0.000000D+00  0.000000D+00  0.000000D+00  0.000000D+00  0.000000D+00
     32  0.000000D+00  0.000000D+00  0.000000D+00  0.000000D+00  0.000000D+00
     33  0.000000D+00  0.000000D+00  0.000000D+00  0.000000D+00  0.000000D+00
     34  0.000000D+00  0.000000D+00  0.000000D+00  0.000000D+00  0.000000D+00
     35  0.000000D+00  0.000000D+00  0.000000D+00  0.000000D+00  0.000000D+00
     36  0.000000D+00  0.000000D+00  0.000000D+00  0.000000D+00  0.000000D+00
     37  0.000000D+00  0.000000D+00  0.000000D+00  0.000000D+00  0.000000D+00
     38  0.000000D+00  0.000000D+00  0.000000D+00  0.000000D+00  0.000000D+00
     39  0.000000D+00  0.000000D+00  0.000000D+00  0.000000D+00  0.000000D+00
     40  0.000000D+00  0.000000D+00  0.000000D+00  0.000000D+00  0.000000D+00
     41  0.000000D+00  0.000000D+00  0.000000D+00  0.000000D+00  0.000000D+00
     42  0.000000D+00  0.000000D+00  0.000000D+00  0.000000D+00  0.000000D+00
     43  0.000000D+00  0.000000D+00  0.000000D+00  0.000000D+00  0.000000D+00
     44  0.000000D+00  0.000000D+00  0.000000D+00  0.000000D+00  0.000000D+00
               16            17            18            19            20 
     16  0.100000D+01
     17  0.000000D+00  0.100000D+01
     18  0.000000D+00  0.000000D+00  0.100000D+01
     19  0.652514D+00  0.000000D+00  0.000000D+00  0.100000D+01
     20  0.000000D+00  0.287068D+00  0.000000D+00  0.000000D+00  0.100000D+01
     21  0.000000D+00  0.000000D+00  0.287068D+00  0.000000D+00  0.000000D+00
     22  0.695333D+00  0.000000D+00  0.000000D+00  0.287068D+00  0.000000D+00
     23  0.000000D+00  0.000000D+00  0.000000D+00  0.000000D+00  0.000000D+00
     24  0.000000D+00  0.000000D+00  0.000000D+00  0.000000D+00  0.000000D+00
     25  0.000000D+00  0.000000D+00  0.000000D+00  0.000000D+00  0.000000D+00
     26  0.000000D+00  0.000000D+00  0.000000D+00  0.000000D+00  0.000000D+00
     27  0.000000D+00  0.000000D+00  0.000000D+00  0.000000D+00  0.000000D+00
     28  0.000000D+00  0.000000D+00  0.000000D+00  0.000000D+00  0.000000D+00
     29  0.000000D+00  0.000000D+00  0.000000D+00  0.000000D+00  0.000000D+00
     30  0.000000D+00  0.000000D+00  0.000000D+00  0.000000D+00  0.000000D+00
     31  0.000000D+00  0.000000D+00  0.000000D+00  0.000000D+00  0.000000D+00
     32  0.000000D+00  0.000000D+00  0.000000D+00  0.000000D+00  0.000000D+00
     33  0.000000D+00  0.000000D+00  0.000000D+00  0.000000D+00  0.000000D+00
     34  0.000000D+00  0.000000D+00  0.000000D+00  0.000000D+00  0.000000D+00
     35  0.000000D+00  0.000000D+00  0.000000D+00  0.000000D+00  0.000000D+00
     36  0.000000D+00  0.000000D+00  0.000000D+00  0.000000D+00  0.000000D+00
     37  0.000000D+00  0.000000D+00  0.000000D+00  0.000000D+00  0.000000D+00
     38  0.000000D+00  0.000000D+00  0.000000D+00  0.000000D+00  0.000000D+00
     39  0.000000D+00  0.000000D+00  0.000000D+00  0.000000D+00  0.000000D+00
     40  0.000000D+00  0.000000D+00  0.000000D+00  0.000000D+00  0.000000D+00
     41  0.000000D+00  0.000000D+00  0.000000D+00  0.000000D+00  0.000000D+00
     42  0.000000D+00  0.000000D+00  0.000000D+00  0.000000D+00  0.000000D+00
     43  0.000000D+00  0.000000D+00  0.000000D+00  0.000000D+00  0.000000D+00
     44  0.000000D+00  0.000000D+00  0.000000D+00  0.000000D+00  0.000000D+00
               21            22            23            24            25 
     21  0.100000D+01
     22  0.000000D+00  0.100000D+01
     23  0.000000D+00  0.000000D+00  0.100000D+01
     24  0.000000D+00  0.000000D+00  0.000000D+00  0.100000D+01
     25  0.000000D+00  0.000000D+00  0.000000D+00  0.000000D+00  0.100000D+01
     26  0.000000D+00  0.000000D+00  0.000000D+00  0.000000D+00  0.000000D+00
     27  0.000000D+00  0.000000D+00  0.000000D+00  0.000000D+00  0.000000D+00
     28  0.000000D+00  0.000000D+00 -0.540500D+00  0.000000D+00  0.000000D+00
     29  0.000000D+00  0.000000D+00  0.000000D+00 -0.540500D+00  0.000000D+00
     30  0.000000D+00  0.000000D+00  0.000000D+00  0.000000D+00 -0.540500D+00
     31  0.000000D+00  0.000000D+00  0.000000D+00  0.000000D+00  0.000000D+00
     32  0.000000D+00  0.000000D+00  0.000000D+00  0.000000D+00  0.000000D+00
     33  0.000000D+00  0.000000D+00  0.516004D+00  0.000000D+00  0.000000D+00
     34  0.000000D+00  0.000000D+00  0.000000D+00  0.516004D+00  0.000000D+00
     35  0.000000D+00  0.000000D+00  0.000000D+00  0.000000D+00  0.516004D+00
     36  0.000000D+00  0.000000D+00  0.000000D+00  0.000000D+00  0.000000D+00
     37  0.000000D+00  0.000000D+00  0.000000D+00  0.000000D+00  0.000000D+00
     38  0.000000D+00  0.000000D+00  0.000000D+00  0.000000D+00  0.000000D+00
     39  0.000000D+00  0.000000D+00  0.000000D+00  0.000000D+00  0.000000D+00
     40  0.000000D+00  0.000000D+00  0.000000D+00  0.000000D+00  0.000000D+00
     41  0.000000D+00  0.000000D+00  0.000000D+00  0.000000D+00  0.000000D+00
     42  0.000000D+00  0.000000D+00  0.000000D+00  0.000000D+00  0.000000D+00
     43  0.000000D+00  0.000000D+00  0.000000D+00  0.000000D+00  0.000000D+00
     44  0.000000D+00  0.000000D+00  0.000000D+00  0.000000D+00  0.000000D+00
               26            27            28            29            30 
     26  0.100000D+01
     27  0.000000D+00  0.100000D+01
     28  0.000000D+00  0.000000D+00  0.100000D+01
     29  0.000000D+00  0.000000D+00  0.000000D+00  0.100000D+01
     30  0.000000D+00  0.000000D+00  0.000000D+00  0.000000D+00  0.100000D+01
     31 -0.540500D+00  0.000000D+00  0.000000D+00  0.000000D+00  0.000000D+00
     32  0.000000D+00 -0.540500D+00  0.000000D+00  0.000000D+00  0.000000D+00
     33  0.000000D+00  0.000000D+00 -0.926197D-01  0.000000D+00  0.000000D+00
     34  0.000000D+00  0.000000D+00  0.000000D+00 -0.926197D-01  0.000000D+00
     35  0.000000D+00  0.000000D+00  0.000000D+00  0.000000D+00 -0.926197D-01
     36  0.516004D+00  0.000000D+00  0.000000D+00  0.000000D+00  0.000000D+00
     37  0.000000D+00  0.516004D+00  0.000000D+00  0.000000D+00  0.000000D+00
     38  0.000000D+00  0.000000D+00  0.000000D+00  0.000000D+00  0.000000D+00
     39  0.000000D+00  0.000000D+00  0.000000D+00  0.000000D+00  0.000000D+00
     40  0.000000D+00  0.000000D+00  0.000000D+00  0.000000D+00  0.000000D+00
     41  0.000000D+00  0.000000D+00  0.000000D+00  0.000000D+00  0.000000D+00
     42  0.000000D+00  0.000000D+00  0.000000D+00  0.000000D+00  0.000000D+00
     43  0.000000D+00  0.000000D+00  0.000000D+00  0.000000D+00  0.000000D+00
     44  0.000000D+00  0.000000D+00  0.000000D+00  0.000000D+00  0.000000D+00
               31            32            33            34            35 
     31  0.100000D+01
     32  0.000000D+00  0.100000D+01
     33  0.000000D+00  0.000000D+00  0.100000D+01
     34  0.000000D+00  0.000000D+00  0.000000D+00  0.100000D+01
     35  0.000000D+00  0.000000D+00  0.000000D+00  0.000000D+00  0.100000D+01
     36 -0.926197D-01  0.000000D+00  0.000000D+00  0.000000D+00  0.000000D+00
     37  0.000000D+00 -0.926197D-01  0.000000D+00  0.000000D+00  0.000000D+00
     38  0.000000D+00  0.000000D+00  0.000000D+00  0.000000D+00  0.000000D+00
     39  0.000000D+00  0.000000D+00  0.000000D+00  0.000000D+00  0.000000D+00
     40  0.000000D+00  0.000000D+00  0.000000D+00  0.000000D+00  0.000000D+00
     41  0.000000D+00  0.000000D+00  0.000000D+00  0.000000D+00  0.000000D+00
     42  0.000000D+00  0.000000D+00  0.000000D+00  0.000000D+00  0.000000D+00
     43  0.000000D+00  0.000000D+00  0.000000D+00  0.000000D+00  0.000000D+00
     44  0.000000D+00  0.000000D+00  0.000000D+00  0.000000D+00  0.000000D+00
               36            37            38            39            40 
     36  0.100000D+01
     37  0.000000D+00  0.100000D+01
     38  0.000000D+00  0.000000D+00  0.100000D+01
     39  0.000000D+00  0.000000D+00  0.000000D+00  0.100000D+01
     40  0.000000D+00  0.000000D+00  0.000000D+00  0.000000D+00  0.100000D+01
     41  0.000000D+00  0.000000D+00  0.000000D+00  0.000000D+00  0.000000D+00
     42  0.000000D+00  0.000000D+00  0.000000D+00  0.000000D+00  0.000000D+00
     43  0.000000D+00  0.000000D+00  0.000000D+00  0.000000D+00  0.000000D+00
     44  0.000000D+00  0.000000D+00  0.000000D+00  0.000000D+00  0.000000D+00
               41            42            43            44 
     41  0.100000D+01
     42  0.000000D+00  0.100000D+01
     43  0.000000D+00  0.000000D+00  0.100000D+01
     44  0.000000D+00  0.000000D+00  0.000000D+00  0.100000D+01
 *** Kinetic Energy *** 
                1             2             3             4             5 
      1  0.760032D+00
      2 -0.444467D-03  0.232583D+03
      3 -0.391731D-02 -0.128622D+02  0.115288D+02
      4 -0.367880D-01 -0.154895D+01 -0.820755D+00  0.179517D+01
      5  0.396312D-01 -0.285017D-01 -0.171041D+00 -0.215769D+00  0.125751D+00
      6  0.231881D-01 -0.104443D+00 -0.732067D+00  0.362044D+00  0.760212D-01
      7  0.168140D-01  0.478399D-03  0.379823D-02 -0.234796D-02  0.464183D-01
      8  0.000000D+00  0.000000D+00  0.000000D+00  0.000000D+00  0.000000D+00
      9  0.000000D+00  0.000000D+00  0.000000D+00  0.000000D+00  0.000000D+00
     10  0.984538D-03  0.000000D+00  0.000000D+00  0.000000D+00  0.000000D+00
     11  0.000000D+00  0.000000D+00  0.000000D+00  0.000000D+00  0.000000D+00
     12  0.000000D+00  0.000000D+00  0.000000D+00  0.000000D+00  0.000000D+00
     13  0.104473D-02  0.000000D+00  0.000000D+00  0.000000D+00  0.000000D+00
     14  0.000000D+00  0.000000D+00  0.000000D+00  0.000000D+00  0.000000D+00
     15  0.000000D+00  0.000000D+00  0.000000D+00  0.000000D+00  0.000000D+00
     16 -0.114175D+00  0.000000D+00  0.000000D+00  0.000000D+00  0.000000D+00
     17  0.000000D+00  0.000000D+00  0.000000D+00  0.000000D+00  0.000000D+00
     18  0.000000D+00  0.000000D+00  0.000000D+00  0.000000D+00  0.000000D+00
     19 -0.631677D-01  0.000000D+00  0.000000D+00  0.000000D+00  0.000000D+00
     20  0.000000D+00  0.000000D+00  0.000000D+00  0.000000D+00  0.000000D+00
     21  0.000000D+00  0.000000D+00  0.000000D+00  0.000000D+00  0.000000D+00
     22 -0.372502D-01  0.000000D+00  0.000000D+00  0.000000D+00  0.000000D+00
     23  0.187341D+00  0.000000D+00  0.000000D+00  0.000000D+00  0.000000D+00
     24  0.000000D+00  0.000000D+00  0.000000D+00  0.000000D+00  0.000000D+00
     25  0.000000D+00  0.000000D+00  0.000000D+00  0.000000D+00  0.000000D+00
     26  0.000000D+00  0.000000D+00  0.000000D+00  0.000000D+00  0.000000D+00
     27  0.000000D+00  0.000000D+00  0.000000D+00  0.000000D+00  0.000000D+00
     28 -0.217906D-01  0.000000D+00  0.000000D+00  0.000000D+00  0.000000D+00
     29  0.000000D+00  0.000000D+00  0.000000D+00  0.000000D+00  0.000000D+00
     30  0.000000D+00  0.000000D+00  0.000000D+00  0.000000D+00  0.000000D+00
     31  0.000000D+00  0.000000D+00  0.000000D+00  0.000000D+00  0.000000D+00
     32  0.000000D+00  0.000000D+00  0.000000D+00  0.000000D+00  0.000000D+00
     33  0.868873D-01  0.000000D+00  0.000000D+00  0.000000D+00  0.000000D+00
     34  0.000000D+00  0.000000D+00  0.000000D+00  0.000000D+00  0.000000D+00
     35  0.000000D+00  0.000000D+00  0.000000D+00  0.000000D+00  0.000000D+00
     36  0.000000D+00  0.000000D+00  0.000000D+00  0.000000D+00  0.000000D+00
     37  0.000000D+00  0.000000D+00  0.000000D+00  0.000000D+00  0.000000D+00
     38 -0.210728D+00  0.000000D+00  0.000000D+00  0.000000D+00  0.000000D+00
     39  0.000000D+00  0.000000D+00  0.000000D+00  0.000000D+00  0.000000D+00
     40  0.000000D+00  0.000000D+00  0.000000D+00  0.000000D+00  0.000000D+00
     41  0.000000D+00  0.000000D+00  0.000000D+00  0.000000D+00  0.000000D+00
     42  0.000000D+00  0.000000D+00  0.000000D+00  0.000000D+00  0.000000D+00
     43  0.000000D+00  0.000000D+00  0.000000D+00  0.000000D+00  0.000000D+00
     44  0.000000D+00  0.000000D+00  0.000000D+00  0.000000D+00  0.000000D+00
                6             7             8             9            10 
      6  0.256601D+00
      7  0.417924D-01  0.381975D-01
      8  0.000000D+00  0.000000D+00  0.395927D+02
      9  0.000000D+00  0.000000D+00  0.000000D+00  0.395927D+02
     10  0.000000D+00  0.000000D+00  0.000000D+00  0.000000D+00  0.395927D+02
     11  0.000000D+00  0.000000D+00  0.114763D+01  0.000000D+00  0.000000D+00
     12  0.000000D+00  0.000000D+00  0.000000D+00  0.114763D+01  0.000000D+00
     13  0.000000D+00  0.000000D+00  0.000000D+00  0.000000D+00  0.114763D+01
     14  0.000000D+00  0.000000D+00 -0.629779D-01  0.000000D+00  0.000000D+00
     15  0.000000D+00  0.000000D+00  0.000000D+00 -0.629779D-01  0.000000D+00
     16  0.000000D+00  0.000000D+00  0.000000D+00  0.000000D+00 -0.629779D-01
     17  0.000000D+00  0.000000D+00  0.118366D+01  0.000000D+00  0.000000D+00
     18  0.000000D+00  0.000000D+00  0.000000D+00  0.118366D+01  0.000000D+00
     19  0.000000D+00  0.000000D+00  0.000000D+00  0.000000D+00  0.118366D+01
     20  0.000000D+00  0.000000D+00  0.731911D-03  0.000000D+00  0.000000D+00
     21  0.000000D+00  0.000000D+00  0.000000D+00  0.731911D-03  0.000000D+00
     22  0.000000D+00  0.000000D+00  0.000000D+00  0.000000D+00  0.731911D-03
     23  0.000000D+00  0.000000D+00  0.000000D+00  0.000000D+00  0.000000D+00
     24  0.000000D+00  0.000000D+00  0.000000D+00  0.000000D+00  0.000000D+00
     25  0.000000D+00  0.000000D+00  0.000000D+00  0.000000D+00  0.000000D+00
     26  0.000000D+00  0.000000D+00  0.000000D+00  0.000000D+00  0.000000D+00
     27  0.000000D+00  0.000000D+00  0.000000D+00  0.000000D+00  0.000000D+00
     28  0.000000D+00  0.000000D+00  0.000000D+00  0.000000D+00  0.000000D+00
     29  0.000000D+00  0.000000D+00  0.000000D+00  0.000000D+00  0.000000D+00
     30  0.000000D+00  0.000000D+00  0.000000D+00  0.000000D+00  0.000000D+00
     31  0.000000D+00  0.000000D+00  0.000000D+00  0.000000D+00  0.000000D+00
     32  0.000000D+00  0.000000D+00  0.000000D+00  0.000000D+00  0.000000D+00
     33  0.000000D+00  0.000000D+00  0.000000D+00  0.000000D+00  0.000000D+00
     34  0.000000D+00  0.000000D+00  0.000000D+00  0.000000D+00  0.000000D+00
     35  0.000000D+00  0.000000D+00  0.000000D+00  0.000000D+00  0.000000D+00
     36  0.000000D+00  0.000000D+00  0.000000D+00  0.000000D+00  0.000000D+00
     37  0.000000D+00  0.000000D+00  0.000000D+00  0.000000D+00  0.000000D+00
     38  0.000000D+00  0.000000D+00  0.000000D+00  0.000000D+00  0.000000D+00
     39  0.000000D+00  0.000000D+00  0.000000D+00  0.000000D+00  0.000000D+00
     40  0.000000D+00  0.000000D+00  0.000000D+00  0.000000D+00  0.000000D+00
     41  0.000000D+00  0.000000D+00  0.000000D+00  0.000000D+00  0.000000D+00
     42  0.000000D+00  0.000000D+00  0.000000D+00  0.000000D+00  0.000000D+00
     43  0.000000D+00  0.000000D+00  0.000000D+00  0.000000D+00  0.000000D+00
     44  0.000000D+00  0.000000D+00  0.000000D+00  0.000000D+00  0.000000D+00
               11            12            13            14            15 
     11  0.260289D+01
     12  0.000000D+00  0.260289D+01
     13  0.000000D+00  0.000000D+00  0.260289D+01
     14  0.536747D-01  0.000000D+00  0.000000D+00  0.237446D+00
     15  0.000000D+00  0.536747D-01  0.000000D+00  0.000000D+00  0.237446D+00
     16  0.000000D+00  0.000000D+00  0.536747D-01  0.000000D+00  0.000000D+00
     17  0.203947D+01  0.000000D+00  0.000000D+00  0.159802D+00  0.000000D+00
     18  0.000000D+00  0.203947D+01  0.000000D+00  0.000000D+00  0.159802D+00
     19  0.000000D+00  0.000000D+00  0.203947D+01  0.000000D+00  0.000000D+00
     20  0.140941D-01  0.000000D+00  0.000000D+00  0.758826D-01  0.000000D+00
     21  0.000000D+00  0.140941D-01  0.000000D+00  0.000000D+00  0.758826D-01
     22  0.000000D+00  0.000000D+00  0.140941D-01  0.000000D+00  0.000000D+00
     23  0.000000D+00  0.000000D+00  0.000000D+00  0.000000D+00  0.000000D+00
     24  0.000000D+00  0.000000D+00  0.000000D+00  0.000000D+00  0.000000D+00
     25  0.000000D+00  0.000000D+00  0.000000D+00  0.000000D+00  0.000000D+00
     26  0.000000D+00  0.000000D+00  0.000000D+00  0.000000D+00  0.000000D+00
     27  0.000000D+00  0.000000D+00  0.000000D+00  0.000000D+00  0.000000D+00
     28  0.000000D+00  0.000000D+00  0.000000D+00  0.000000D+00  0.000000D+00
     29  0.000000D+00  0.000000D+00  0.000000D+00  0.000000D+00  0.000000D+00
     30  0.000000D+00  0.000000D+00  0.000000D+00  0.000000D+00  0.000000D+00
     31  0.000000D+00  0.000000D+00  0.000000D+00  0.000000D+00  0.000000D+00
     32  0.000000D+00  0.000000D+00  0.000000D+00  0.000000D+00  0.000000D+00
     33  0.000000D+00  0.000000D+00  0.000000D+00  0.000000D+00  0.000000D+00
     34  0.000000D+00  0.000000D+00  0.000000D+00  0.000000D+00  0.000000D+00
     35  0.000000D+00  0.000000D+00  0.000000D+00  0.000000D+00  0.000000D+00
     36  0.000000D+00  0.000000D+00  0.000000D+00  0.000000D+00  0.000000D+00
     37  0.000000D+00  0.000000D+00  0.000000D+00  0.000000D+00  0.000000D+00
     38  0.000000D+00  0.000000D+00  0.000000D+00  0.000000D+00  0.000000D+00
     39  0.000000D+00  0.000000D+00  0.000000D+00  0.000000D+00  0.000000D+00
     40  0.000000D+00  0.000000D+00  0.000000D+00  0.000000D+00  0.000000D+00
     41  0.000000D+00  0.000000D+00  0.000000D+00  0.000000D+00  0.000000D+00
     42  0.000000D+00  0.000000D+00  0.000000D+00  0.000000D+00  0.000000D+00
     43  0.000000D+00  0.000000D+00  0.000000D+00  0.000000D+00  0.000000D+00
     44  0.000000D+00  0.000000D+00  0.000000D+00  0.000000D+00  0.000000D+00
               16            17            18            19            20 
     16  0.237446D+00
     17  0.000000D+00  0.167591D+01
     18  0.000000D+00  0.000000D+00  0.167591D+01
     19  0.159802D+00  0.000000D+00  0.000000D+00  0.167591D+01
     20  0.000000D+00  0.366117D-01  0.000000D+00  0.000000D+00  0.735025D-01
     21  0.000000D+00  0.000000D+00  0.366117D-01  0.000000D+00  0.000000D+00
     22  0.758826D-01  0.000000D+00  0.000000D+00  0.366117D-01  0.000000D+00
     23  0.000000D+00  0.000000D+00  0.000000D+00  0.000000D+00  0.000000D+00
     24  0.000000D+00  0.000000D+00  0.000000D+00  0.000000D+00  0.000000D+00
     25  0.000000D+00  0.000000D+00  0.000000D+00  0.000000D+00  0.000000D+00
     26  0.000000D+00  0.000000D+00  0.000000D+00  0.000000D+00  0.000000D+00
     27  0.000000D+00  0.000000D+00  0.000000D+00  0.000000D+00  0.000000D+00
     28  0.000000D+00  0.000000D+00  0.000000D+00  0.000000D+00  0.000000D+00
     29  0.000000D+00  0.000000D+00  0.000000D+00  0.000000D+00  0.000000D+00
     30  0.000000D+00  0.000000D+00  0.000000D+00  0.000000D+00  0.000000D+00
     31  0.000000D+00  0.000000D+00  0.000000D+00  0.000000D+00  0.000000D+00
     32  0.000000D+00  0.000000D+00  0.000000D+00  0.000000D+00  0.000000D+00
     33  0.000000D+00  0.000000D+00  0.000000D+00  0.000000D+00  0.000000D+00
     34  0.000000D+00  0.000000D+00  0.000000D+00  0.000000D+00  0.000000D+00
     35  0.000000D+00  0.000000D+00  0.000000D+00  0.000000D+00  0.000000D+00
     36  0.000000D+00  0.000000D+00  0.000000D+00  0.000000D+00  0.000000D+00
     37  0.000000D+00  0.000000D+00  0.000000D+00  0.000000D+00  0.000000D+00
     38  0.000000D+00  0.000000D+00  0.000000D+00  0.000000D+00  0.000000D+00
     39  0.000000D+00  0.000000D+00  0.000000D+00  0.000000D+00  0.000000D+00
     40  0.000000D+00  0.000000D+00  0.000000D+00  0.000000D+00  0.000000D+00
     41  0.000000D+00  0.000000D+00  0.000000D+00  0.000000D+00  0.000000D+00
     42  0.000000D+00  0.000000D+00  0.000000D+00  0.000000D+00  0.000000D+00
     43  0.000000D+00  0.000000D+00  0.000000D+00  0.000000D+00  0.000000D+00
     44  0.000000D+00  0.000000D+00  0.000000D+00  0.000000D+00  0.000000D+00
               21            22            23            24            25 
     21  0.735025D-01
     22  0.000000D+00  0.735025D-01
     23  0.000000D+00  0.000000D+00  0.748962D+00
     24  0.000000D+00  0.000000D+00  0.000000D+00  0.748962D+00
     25  0.000000D+00  0.000000D+00  0.000000D+00  0.000000D+00  0.748962D+00
     26  0.000000D+00  0.000000D+00  0.000000D+00  0.000000D+00  0.000000D+00
     27  0.000000D+00  0.000000D+00  0.000000D+00  0.000000D+00  0.000000D+00
     28  0.000000D+00  0.000000D+00 -0.801358D+00  0.000000D+00  0.000000D+00
     29  0.000000D+00  0.000000D+00  0.000000D+00 -0.801358D+00  0.000000D+00
     30  0.000000D+00  0.000000D+00  0.000000D+00  0.000000D+00 -0.801358D+00
     31  0.000000D+00  0.000000D+00  0.000000D+00  0.000000D+00  0.000000D+00
     32  0.000000D+00  0.000000D+00  0.000000D+00  0.000000D+00  0.000000D+00
     33  0.000000D+00  0.000000D+00  0.143749D+00  0.000000D+00  0.000000D+00
     34  0.000000D+00  0.000000D+00  0.000000D+00  0.143749D+00  0.000000D+00
     35  0.000000D+00  0.000000D+00  0.000000D+00  0.000000D+00  0.143749D+00
     36  0.000000D+00  0.000000D+00  0.000000D+00  0.000000D+00  0.000000D+00
     37  0.000000D+00  0.000000D+00  0.000000D+00  0.000000D+00  0.000000D+00
     38  0.000000D+00  0.000000D+00  0.000000D+00  0.000000D+00  0.000000D+00
     39  0.000000D+00  0.000000D+00  0.000000D+00  0.000000D+00  0.000000D+00
[...]
 Largest core mixing into a valence orbital is  4.11D-04
 Range of M.O.s used for correlation:    10    44
 NBasis=    44 NAE=    13 NBE=    10 NFC=     9 NFV=     0
 NROrb=     35 NOA=     4 NOB=     1 NVA=    31 NVB=    34
 Leave Link  801 at Mon Mar 28 10:02:24 2022, MaxMem=  9663676416 cpu:               3.9 elap:               0.1
 (Enter /nopt/nrel/apps/gaussian/g16C_1/g16/l804.exe)
 Open-shell transformation, MDV=  9663676416 ITran=4 ISComp=2.
 Unit  1 TFree=        123349 TCopy=        149208.
 Semi-Direct transformation.
 ModeAB=           2 MOrb=             4 LenV=    9663292016
 LASXX=        19543 LTotXX=       19543 LenRXX=       19543
 LTotAB=       21974 MaxLAS=      178500 LenRXY=      178500
 NonZer=      193200 LenScr=      785920 LnRSAI=           0
 LnScr1=           0 LExtra=      259875 Total=      1243838
 MaxDsk= 34359738368 SrtSym=           F ITran=            4
 DoSDTr:  NPSUse= 36
 JobTyp=1 Pass  1:  I=   1 to   4.
 (rs|ai) integrals will be sorted in core.
 Complete sort for first half transformation.
 First half transformation complete.
 Complete sort for second half transformation.
 Second half transformation complete.
 ModeAB=           2 MOrb=             1 LenV=    9663292016
 LASXX=         5266 LTotXX=        5266 LenRXX=       44625
 LTotAB=        4663 MaxLAS=       44625 LenRXY=        4663
 NonZer=       48300 LenScr=      785920 LnRSAI=           0
 LnScr1=           0 LExtra=      457918 Total=      1293126
 MaxDsk= 34359738368 SrtSym=           F ITran=            4
 DoSDTr:  NPSUse= 36
 JobTyp=2 Pass  1:  I=   1 to   1.
 (rs|ai) integrals will be sorted in core.
 Complete sort for first half transformation.
 First half transformation complete.
 Complete sort for second half transformation.
 Second half transformation complete.
 Spin components of T(2) and E(2):
     alpha-alpha T2 =       0.7258152205D-02 E2=     -0.1355523963D-01
     alpha-beta  T2 =       0.1216437001D-01 E2=     -0.1996667450D-01
     beta-beta   T2 =       0.0000000000D+00 E2=      0.0000000000D+00
 ANorm=    0.1009664559D+01
 E2 =    -0.3352191413D-01 EUMP2 =    -0.84898395679786D+03
 (S**2,0)=  0.37555D+01           (S**2,1)=  0.37539D+01
 E(PUHF)=      -0.84895059326D+03        E(PMP2)=      -0.84898409186D+03
 Leave Link  804 at Mon Mar 28 10:02:24 2022, MaxMem=  9663676416 cpu:              33.4 elap:               0.9
 (Enter /nopt/nrel/apps/gaussian/g16C_1/g16/l913.exe)
 CIDS:  MDV=  9663676416.
 Frozen-core window:  NFC=   9 NFV=   0.
 IFCWin=0 IBDFC=1 NFBD=     0     0 NFCmp=     0     0 NFFFC=     0     0
 Using original routines for 1st iteration.
 Using DD4UQ or CC4UQ for 2nd and later iterations.
 Keep R2 and R3 ints in memory in symmetry-blocked form, NReq=27569786.
 FoFCou: FMM=F IPFlag=           0 FMFlag=           0 FMFlg1=           0
         NFxFlg=           0 DoJE=F BraDBF=F KetDBF=F FulRan=T
         wScrn=  0.000000 ICntrl=       600 IOpCl=  0 I1Cent=           0 NGrid=           0
         NMat0=    1 NMatS0=    990 NMatT0=    0 NMatD0=    1 NMtDS0=    0 NMtDT0=    0
 Petite list used in FoFCou.
 CIDS: In Core Option IDoMem=           1.
 Coupled Cluster theory with single and double substitutions
 ===========================================================
 Iterations= 200 Convergence= 0.100D-06
 Produce multiple copies of IABC intergrals
 Iteration Nr.   1
 **********************
 DD1Dir will call FoFMem   1 times, MxPair=        14
 NAB=     4 NAA=     6 NBB=     0.
 E(PMP3)=      -0.84899284932D+03
 MP4(R+Q)=  0.41929964D-03
 Maximum subspace dimension=  5
 A-vector RMS=  7.3968002D-03 Max=  1.4491678D-02 conv= 1.00D-05.
 RLE energy=       -0.0446535686
 E3=       -0.87750934D-02        EUMP3=      -0.84899273189D+03
 E4(DQ)=   -0.25788989D-02        UMP4(DQ)=   -0.84899531079D+03
 E4(SDQ)=  -0.33296230D-02        UMP4(SDQ)=  -0.84899606151D+03
 VARIATIONAL ENERGIES WITH THE FIRST-ORDER WAVEFUNCTION:
 DE(Corr)= -0.41878567E-01 E(Corr)=     -848.99231345    
 NORM(A)=   0.10192409D+01
 Iteration Nr.   2
 **********************
 DD1Dir will call FoFMem   1 times, MxPair=        14
 NAB=     4 NAA=     6 NBB=     0.
 A-vector RMS=  3.9977777D-03 Max=  1.1036941D-02 conv= 1.00D-05.
 RLE energy=       -0.0486367859
 DE(Corr)= -0.46318158E-01 E(CORR)=     -848.99675304     Delta=-4.44D-03
 NORM(A)=   0.10276863D+01
 Iteration Nr.   3
 **********************
 DD1Dir will call FoFMem   1 times, MxPair=        14
 NAB=     4 NAA=     6 NBB=     0.
 A-vector RMS=  2.5261198D-03 Max=  9.3740767D-03 conv= 1.00D-05.
 RLE energy=       -0.0511746790
 DE(Corr)= -0.48702218E-01 E(CORR)=     -848.99913710     Delta=-2.38D-03
 NORM(A)=   0.10424800D+01
 Iteration Nr.   4
 **********************
 DD1Dir will call FoFMem   1 times, MxPair=        14
 NAB=     4 NAA=     6 NBB=     0.
 A-vector RMS=  1.6409633D-03 Max=  7.3700424D-03 conv= 1.00D-05.
 RLE energy=       -0.0533778306
 DE(Corr)= -0.51229270E-01 E(CORR)=     -849.00166415     Delta=-2.53D-03
 NORM(A)=   0.10643131D+01
 Iteration Nr.   5
 **********************
 DD1Dir will call FoFMem   1 times, MxPair=        14
 NAB=     4 NAA=     6 NBB=     0.
 A-vector RMS=  1.5982848D-03 Max=  5.4542205D-03 conv= 1.00D-05.
 RLE energy=       -0.0542591596
 DE(Corr)= -0.53276716E-01 E(CORR)=     -849.00371160     Delta=-2.05D-03
 NORM(A)=   0.10813805D+01
 Iteration Nr.   6
 **********************
 DD1Dir will call FoFMem   1 times, MxPair=        14
 NAB=     4 NAA=     6 NBB=     0.
 A-vector RMS=  1.3868258D-03 Max=  5.2694265D-03 conv= 1.00D-05.
 RLE energy=       -0.0552556320
 DE(Corr)= -0.54339901E-01 E(CORR)=     -849.00477479     Delta=-1.06D-03
 NORM(A)=   0.10960594D+01
 Iteration Nr.   7
 **********************
 DD1Dir will call FoFMem   1 times, MxPair=        14
 NAB=     4 NAA=     6 NBB=     0.
 A-vector RMS=  1.0199947D-03 Max=  5.9083500D-03 conv= 1.00D-05.
 RLE energy=       -0.0555448385
 DE(Corr)= -0.55211982E-01 E(CORR)=     -849.00564687     Delta=-8.72D-04
 NORM(A)=   0.11012611D+01
 Iteration Nr.   8
 **********************
 DD1Dir will call FoFMem   1 times, MxPair=        14
 NAB=     4 NAA=     6 NBB=     0.
 A-vector RMS=  8.1068805D-04 Max=  3.7545583D-03 conv= 1.00D-05.
 RLE energy=       -0.0557436731
 DE(Corr)= -0.55520663E-01 E(CORR)=     -849.00595555     Delta=-3.09D-04
 NORM(A)=   0.11050408D+01
 Iteration Nr.   9
 **********************
 DD1Dir will call FoFMem   1 times, MxPair=        14
 NAB=     4 NAA=     6 NBB=     0.
 A-vector RMS=  5.3869191D-04 Max=  1.7571214D-03 conv= 1.00D-05.
 RLE energy=       -0.0557865440
 DE(Corr)= -0.55729287E-01 E(CORR)=     -849.00616417     Delta=-2.09D-04
 NORM(A)=   0.11067023D+01
 Iteration Nr.  10
 **********************
 DD1Dir will call FoFMem   1 times, MxPair=        14
 NAB=     4 NAA=     6 NBB=     0.
 A-vector RMS=  2.4862197D-04 Max=  9.1239006D-04 conv= 1.00D-05.
 RLE energy=       -0.0558010477
 DE(Corr)= -0.55806736E-01 E(CORR)=     -849.00624162     Delta=-7.74D-05
 NORM(A)=   0.11070686D+01
 Iteration Nr.  11
 **********************
 DD1Dir will call FoFMem   1 times, MxPair=        14
 NAB=     4 NAA=     6 NBB=     0.
 A-vector RMS=  1.2450988D-04 Max=  3.6868951D-04 conv= 1.00D-05.
 RLE energy=       -0.0557812458
 DE(Corr)= -0.55816136E-01 E(CORR)=     -849.00625102     Delta=-9.40D-06
 NORM(A)=   0.11068892D+01
 Iteration Nr.  12
 **********************
 DD1Dir will call FoFMem   1 times, MxPair=        14
 NAB=     4 NAA=     6 NBB=     0.
 A-vector RMS=  6.9994328D-05 Max=  1.9149172D-04 conv= 1.00D-05.
 RLE energy=       -0.0557611210
 DE(Corr)= -0.55793994E-01 E(CORR)=     -849.00622888     Delta= 2.21D-05
 NORM(A)=   0.11065750D+01
 Iteration Nr.  13
 **********************
 DD1Dir will call FoFMem   1 times, MxPair=        14
 NAB=     4 NAA=     6 NBB=     0.
 A-vector RMS=  5.3286547D-05 Max=  1.3171586D-04 conv= 1.00D-05.
 RLE energy=       -0.0557469706
 DE(Corr)= -0.55771842E-01 E(CORR)=     -849.00620673     Delta= 2.22D-05
 NORM(A)=   0.11062577D+01
 Iteration Nr.  14
 **********************
 DD1Dir will call FoFMem   1 times, MxPair=        14
 NAB=     4 NAA=     6 NBB=     0.
 A-vector RMS=  3.8085996D-05 Max=  7.5546669D-05 conv= 1.00D-05.
 RLE energy=       -0.0557408050
 DE(Corr)= -0.55754462E-01 E(CORR)=     -849.00618935     Delta= 1.74D-05
 NORM(A)=   0.11060478D+01
 Iteration Nr.  15
 **********************
 DD1Dir will call FoFMem   1 times, MxPair=        14
 NAB=     4 NAA=     6 NBB=     0.
 A-vector RMS=  2.8478538D-05 Max=  8.9782227D-05 conv= 1.00D-05.
 RLE energy=       -0.0557409371
 DE(Corr)= -0.55747267E-01 E(CORR)=     -849.00618215     Delta= 7.19D-06
 NORM(A)=   0.11059111D+01
 Iteration Nr.  16
 **********************
 DD1Dir will call FoFMem   1 times, MxPair=        14
 NAB=     4 NAA=     6 NBB=     0.
 A-vector RMS=  1.8431527D-05 Max=  9.8430871D-05 conv= 1.00D-05.
 RLE energy=       -0.0557361154
 DE(Corr)= -0.55744200E-01 E(CORR)=     -849.00617908     Delta= 3.07D-06
 NORM(A)=   0.11057717D+01
 Iteration Nr.  17
 **********************
 DD1Dir will call FoFMem   1 times, MxPair=        14
 NAB=     4 NAA=     6 NBB=     0.
 A-vector RMS=  1.3483328D-05 Max=  7.2456989D-05 conv= 1.00D-05.
 RLE energy=       -0.0557334300
 DE(Corr)= -0.55738756E-01 E(CORR)=     -849.00617364     Delta= 5.44D-06
 NORM(A)=   0.11056858D+01
 Iteration Nr.  18
 **********************
 DD1Dir will call FoFMem   1 times, MxPair=        14
 NAB=     4 NAA=     6 NBB=     0.
 A-vector RMS=  1.0609034D-05 Max=  5.0763897D-05 conv= 1.00D-05.
 RLE energy=       -0.0557296787
 DE(Corr)= -0.55734628E-01 E(CORR)=     -849.00616951     Delta= 4.13D-06
 NORM(A)=   0.11056041D+01
 Iteration Nr.  19
 **********************
 DD1Dir will call FoFMem   1 times, MxPair=        14
 NAB=     4 NAA=     6 NBB=     0.
 A-vector RMS=  6.4331472D-06 Max=  2.8556595D-05 conv= 1.00D-05.
 RLE energy=       -0.0557296383
 DE(Corr)= -0.55730754E-01 E(CORR)=     -849.00616564     Delta= 3.87D-06
 NORM(A)=   0.11055702D+01
 Iteration Nr.  20
 **********************
 DD1Dir will call FoFMem   1 times, MxPair=        14
 NAB=     4 NAA=     6 NBB=     0.
 A-vector RMS=  3.9900290D-06 Max=  1.2843158D-05 conv= 1.00D-05.
 RLE energy=       -0.0557295761
 DE(Corr)= -0.55729774E-01 E(CORR)=     -849.00616466     Delta= 9.79D-07
 NORM(A)=   0.11055594D+01
 Iteration Nr.  21
 **********************
 DD1Dir will call FoFMem   1 times, MxPair=        14
 NAB=     4 NAA=     6 NBB=     0.
 A-vector RMS=  2.5064922D-06 Max=  9.2165278D-06 conv= 1.00D-05.
 RLE energy=       -0.0557299349
 DE(Corr)= -0.55729712E-01 E(CORR)=     -849.00616460     Delta= 6.28D-08
 NORM(A)=   0.11055524D+01
 CI/CC converged in   21 iterations to DelEn= 6.28D-08 Conv= 1.00D-07 ErrA1= 2.51D-06 Conv= 1.00D-05
 Wavefunction amplitudes converged. E(Corr)=     -849.00616460    
 Dominant configurations:
 ***********************
 Spin Case        I    J    A    B          Value
   AAAA          10   11   18   17      -0.219826D+00
   AAAA          10   11   18   25       0.182727D+00
   AAAA          10   11   26   17       0.182727D+00
   AAAA          10   11   26   25      -0.145831D+00
 Largest amplitude= 2.20D-01

 S**2, projected HF & approx projected MPn energies after annihilation of
 unwanted spin states (see manual for definitions):

 spins       (S**2,0) (S**2,1)    PUHF        PMP2        PMP3        PMP4
 annihilated
 s+1         3.75005  3.75005 -848.950593 -848.984092 -848.992849

 Discarding MO integrals.
 Leave Link  913 at Mon Mar 28 10:02:26 2022, MaxMem=  9663676416 cpu:              57.4 elap:               1.6
 (Enter /nopt/nrel/apps/gaussian/g16C_1/g16/l601.exe)
 Copying SCF densities to generalized density rwf, IOpCl= 1 IROHF=0.

 **********************************************************************

            Population analysis using the SCF Density.

 **********************************************************************

 Orbital symmetries:
 Alpha Orbitals:
       Occupied  (SG) (SG) (PI) (PI) (SG) (SG) (SG) (PI) (PI) (PI)
                 (PI) (SG) (SG)
       Virtual   (PI) (PI) (SG) (DLTA) (DLTA) (SG) (PI) (PI) (SG)
                 (PI) (PI) (DLTA) (DLTA) (SG) (SG) (SG) (PI) (PI)
                 (DLTA) (DLTA) (PI) (PI) (SG) (SG) (DLTA) (DLTA)
                 (PI) (PI) (PHI) (PHI) (SG)
 Beta  Orbitals:
       Occupied  (SG) (SG) (PI) (PI) (SG) (SG) (PI) (PI) (SG) (SG)
       Virtual   (SG) (PI) (PI) (SG) (DLTA) (DLTA) (SG) (PI) (PI)
                 (SG) (PI) (PI) (DLTA) (DLTA) (SG) (PI) (PI) (SG)
                 (SG) (DLTA) (DLTA) (PI) (PI) (PI) (PI) (SG) (SG)
                 (PHI) (PHI) (PI) (PI) (DLTA) (DLTA) (SG)
 The electronic state is 4-SG.
 Alpha  occ. eigenvalues -- -183.27512 -21.43846 -17.80830 -17.80830 -17.80640
 Alpha  occ. eigenvalues --   -2.92877  -1.89409  -1.85384  -1.85384  -0.41710
 Alpha  occ. eigenvalues --   -0.41710  -0.38438  -0.23198
 Alpha virt. eigenvalues --    0.01689   0.01689   0.05763   0.08946   0.08946
 Alpha virt. eigenvalues --    0.09175   0.15509   0.15509   0.16069   0.18647
 Alpha virt. eigenvalues --    0.18647   0.20184   0.20184   0.22172   0.55606
 Alpha virt. eigenvalues --    0.66463   0.77948   0.77948   0.86643   0.86643
 Alpha virt. eigenvalues --    0.96078   0.96078   0.96610   0.99265   1.19985
 Alpha virt. eigenvalues --    1.19985   1.21300   1.21300   1.22855   1.22855
 Alpha virt. eigenvalues --    1.61170
  Beta  occ. eigenvalues -- -183.27303 -21.40356 -17.78122 -17.78122 -17.75815
  Beta  occ. eigenvalues --   -2.79854  -1.73315  -1.73315  -1.66199  -0.34800
  Beta virt. eigenvalues --    0.01748   0.04447   0.04447   0.08304   0.12027
  Beta virt. eigenvalues --    0.12027   0.12689   0.13759   0.13759   0.20296
  Beta virt. eigenvalues --    0.22478   0.22478   0.23354   0.23354   0.25510
  Beta virt. eigenvalues --    0.28063   0.28063   0.59706   0.70987   0.90117
  Beta virt. eigenvalues --    0.90117   0.94324   0.94324   0.97322   0.97322
  Beta virt. eigenvalues --    0.98617   1.03529   1.25344   1.25344   1.29101
  Beta virt. eigenvalues --    1.29101   1.29532   1.29532   1.65936
          Condensed to atoms (all electrons):
               1          2
     1  H    0.523939   0.400512
     2  Ti   0.400512  21.675037
          Atomic-Atomic Spin Densities.
               1          2
     1  H    0.028784   0.005149
     2  Ti   0.005149   2.960918
 Mulliken charges and spin densities:
               1          2
     1  H    0.075549   0.033933
     2  Ti  -0.075549   2.966067
 Sum of Mulliken charges =  -0.00000   3.00000
 Mulliken charges and spin densities with hydrogens summed into heavy atoms:
               1          2
     2  Ti  -0.000000   3.000000
 N-N= 6.467721466800D+00 E-N=-2.025278954898D+03  KE= 8.488323279000D+02
 Symmetry A1   KE= 6.561012632558D+02
 Symmetry A2   KE= 4.981493103268D-50
 Symmetry B1   KE= 9.636553232211D+01
 Symmetry B2   KE= 9.636553232211D+01
 Symmetry A1   SP= 1.000000000000D+00
 Symmetry A2   SP= 1.074052685205D-50
 Symmetry B1   SP= 1.000000000000D+00
 Symmetry B2   SP= 1.000000000000D+00

 Atomic contributions to Alpha molecular orbitals:
 Alpha occ 1 OE=-183.275 is Ti2-s=1.0000
 Alpha occ 2 OE=-21.438 is Ti2-s=1.0000
 Alpha occ 3 OE=-17.808 is Ti2-p=1.0000
 Alpha occ 4 OE=-17.808 is Ti2-p=1.0000
 Alpha occ 5 OE=-17.806 is Ti2-p=1.0000
 Alpha occ 6 OE=-2.929 is Ti2-s=0.9997
 Alpha occ 7 OE=-1.894 is Ti2-p=0.9962
 Alpha occ 8 OE=-1.854 is Ti2-p=0.9998
 Alpha occ 9 OE=-1.854 is Ti2-p=0.9998
 Alpha occ 10 OE=-0.417 is Ti2-d=0.9964
 Alpha occ 11 OE=-0.417 is Ti2-d=0.9964
 Alpha occ 12 OE=-0.384 is H1-s=0.4362 Ti2-s=0.3154 Ti2-p=0.1246 Ti2-d=0.1186
 Alpha occ 13 OE=-0.232 is Ti2-s=0.5592 Ti2-p=0.3503
 Alpha vir 14 OE=0.017 is Ti2-p=0.9866
 Alpha vir 15 OE=0.017 is Ti2-p=0.9866
 Alpha vir 16 OE=0.058 is Ti2-p=0.4912 Ti2-d=0.4307
 Alpha vir 17 OE=0.089 is Ti2-d=0.9999
 Alpha vir 18 OE=0.089 is Ti2-d=0.9999
 Alpha vir 19 OE=0.092 is Ti2-s=0.9535
 Alpha vir 20 OE=0.155 is Ti2-d=0.9714
 Alpha vir 21 OE=0.155 is Ti2-d=0.9714
 Alpha vir 22 OE=0.161 is Ti2-p=0.6736 Ti2-d=0.3072
 Alpha vir 23 OE=0.186 is Ti2-p=0.9808
 Alpha vir 24 OE=0.186 is Ti2-p=0.9808
 Alpha vir 25 OE=0.202 is Ti2-d=1.0000
 Alpha vir 26 OE=0.202 is Ti2-d=1.0000
 Alpha vir 27 OE=0.222 is Ti2-d=0.9380
 Alpha vir 28 OE=0.556 is H1-s=0.3424 Ti2-d=0.2889 Ti2-p=0.2188
 Alpha vir 29 OE=0.665 is Ti2-s=1.0000
 Alpha vir 30 OE=0.779 is Ti2-d=0.9981
 Alpha vir 31 OE=0.779 is Ti2-d=0.9981
 Alpha vir 32 OE=0.866 is Ti2-d=0.9990
 Alpha vir 33 OE=0.866 is Ti2-d=0.9990
 Alpha vir 34 OE=0.961 is Ti2-p=0.9985
 Alpha vir 35 OE=0.961 is Ti2-p=0.9985
 Alpha vir 36 OE=0.966 is Ti2-p=0.8910
 Alpha vir 37 OE=0.993 is Ti2-d=0.6364 Ti2-f=0.1987 Ti2-p=0.1227
 Alpha vir 38 OE=1.200 is Ti2-f=0.9988
 Alpha vir 39 OE=1.200 is Ti2-f=0.9988
 Alpha vir 40 OE=1.213 is Ti2-f=0.9996
 Alpha vir 41 OE=1.213 is Ti2-f=0.9996
 Alpha vir 42 OE=1.229 is Ti2-f=1.0000
 Alpha vir 43 OE=1.229 is Ti2-f=1.0000
 Alpha vir 44 OE=1.612 is Ti2-f=0.7062 H1-s=0.1273 Ti2-d=0.1220

 Atomic contributions to Beta  molecular orbitals:
 Beta  occ 1 OE=-183.273 is Ti2-s=1.0000
 Beta  occ 2 OE=-21.404 is Ti2-s=1.0000
 Beta  occ 3 OE=-17.781 is Ti2-p=1.0000
 Beta  occ 4 OE=-17.781 is Ti2-p=1.0000
 Beta  occ 5 OE=-17.758 is Ti2-p=1.0000
 Beta  occ 6 OE=-2.799 is Ti2-s=0.9993
 Beta  occ 7 OE=-1.733 is Ti2-p=0.9999
 Beta  occ 8 OE=-1.733 is Ti2-p=0.9999
 Beta  occ 9 OE=-1.662 is Ti2-p=0.9974
 Beta  occ 10 OE=-0.348 is H1-s=0.4424 Ti2-s=0.2647 Ti2-p=0.1792 Ti2-d=0.1094
 Beta  vir 11 OE=0.017 is Ti2-s=0.6775 Ti2-p=0.2304
 Beta  vir 12 OE=0.044 is Ti2-p=0.9997
 Beta  vir 13 OE=0.044 is Ti2-p=0.9997
 Beta  vir 14 OE=0.083 is Ti2-p=0.6292 Ti2-d=0.2634
 Beta  vir 15 OE=0.120 is Ti2-d=1.0000
 Beta  vir 16 OE=0.120 is Ti2-d=1.0000
 Beta  vir 17 OE=0.127 is Ti2-s=0.8121 Ti2-d=0.1845
 Beta  vir 18 OE=0.138 is Ti2-d=0.9969
 Beta  vir 19 OE=0.138 is Ti2-d=0.9969
 Beta  vir 20 OE=0.203 is Ti2-p=0.5174 Ti2-d=0.3784
 Beta  vir 21 OE=0.225 is Ti2-p=0.9969
 Beta  vir 22 OE=0.225 is Ti2-p=0.9969
 Beta  vir 23 OE=0.234 is Ti2-d=1.0000
 Beta  vir 24 OE=0.234 is Ti2-d=1.0000
 Beta  vir 25 OE=0.255 is Ti2-d=0.8568 Ti2-p=0.1436
 Beta  vir 26 OE=0.281 is Ti2-d=0.9998
 Beta  vir 27 OE=0.281 is Ti2-d=0.9998
 Beta  vir 28 OE=0.597 is H1-s=0.3421 Ti2-d=0.2799 Ti2-p=0.2593
 Beta  vir 29 OE=0.710 is Ti2-s=0.9982
 Beta  vir 30 OE=0.901 is Ti2-d=1.0000
 Beta  vir 31 OE=0.901 is Ti2-d=1.0000
 Beta  vir 32 OE=0.943 is Ti2-d=0.9998
 Beta  vir 33 OE=0.943 is Ti2-d=0.9998
 Beta  vir 34 OE=0.973 is Ti2-p=0.9998
 Beta  vir 35 OE=0.973 is Ti2-p=0.9998
 Beta  vir 36 OE=0.986 is Ti2-p=0.9758
 Beta  vir 37 OE=1.035 is Ti2-d=0.7175 Ti2-f=0.1961
 Beta  vir 38 OE=1.253 is Ti2-f=1.0000
 Beta  vir 39 OE=1.253 is Ti2-f=1.0000
 Beta  vir 40 OE=1.291 is Ti2-f=0.9994
 Beta  vir 41 OE=1.291 is Ti2-f=0.9994
 Beta  vir 42 OE=1.295 is Ti2-f=1.0000
 Beta  vir 43 OE=1.295 is Ti2-f=1.0000
 Beta  vir 44 OE=1.659 is Ti2-f=0.7313 H1-s=0.1191 Ti2-d=0.1125
 
 Leave Link  601 at Mon Mar 28 10:02:26 2022, MaxMem=  9663676416 cpu:               1.2 elap:               0.1
 (Enter /nopt/nrel/apps/gaussian/g16C_1/g16/l9999.exe)

 Test job not archived.
 1\1\GINC-R1I7N35\SP\UCCSD-FC\Gen\H1Ti1(4)\USER\28-Mar-2022\0\\#P C
 CSD(MaxCyc=200)/GEN sp pop=AllOrbitals iop(3/33=1,3/36=-1)\\test\\0,4\
 H,0,0.,0.,0.\Ti,0,0.,0.,1.8\\Version=ES64L-G16RevC.01\State=4-SG\HF=-8
 48.9504349\MP2=-848.9839568\MP3=-848.9927319\MP4D=-848.9957301\MP4DQ=-
 848.9953108\PUHF=-848.9505933\PMP2-0=-848.9840919\PMP3-0=-848.9928493\
 MP4SDQ=-848.9960615\CCSD=-849.0061646\S2=3.755484\S2-1=3.753868\S2A=3.
 75001\RMSD=3.402e-09\PG=C*V [C*(H1Ti1)]\\@


 THE WISE MAN HAS THE POWER TO REASON AWAY
 WHAT A FOOL BELIEVES.
                     - DOOBIE BROTHERS
 Job cpu time:       0 days  0 hours  2 minutes 49.3 seconds.
 Elapsed time:       0 days  0 hours  0 minutes  5.1 seconds.
 File lengths (MBytes):  RWF=     14 Int=      0 D2E=      0 Chk=      1 Scr=      1
 Normal termination of Gaussian 16 at Mon Mar 28 10:02:26 2022.
