 Entering Gaussian System, Link 0=g16
 Initial command:
 /nopt/nrel/apps/gaussian/g16C_1/g16/l1.exe "/lustre/eaglefs/scratch/user/qc/nah-dissc/nah-3-ccsd-2.4-631g/Gau-19948.inp" -scrdir="/lustre/eaglefs/scratch/user/qc/nah-dissc/nah-3-ccsd-2.4-631g/"
 Default is to use a total of  36 processors:
                               36 via shared-memory
                                1 via Linda
 Entering Link 1 = /nopt/nrel/apps/gaussian/g16C_1/g16/l1.exe PID=     19949.
  
 Copyright (c) 1988-2019, Gaussian, Inc.  All Rights Reserved.
  
 This is part of the Gaussian(R) 16 program.  It is based on
 the Gaussian(R) 09 system (copyright 2009, Gaussian, Inc.),
 the Gaussian(R) 03 system (copyright 2003, Gaussian, Inc.),
 the Gaussian(R) 98 system (copyright 1998, Gaussian, Inc.),
 the Gaussian(R) 94 system (copyright 1995, Gaussian, Inc.),
 the Gaussian 92(TM) system (copyright 1992, Gaussian, Inc.),
 the Gaussian 90(TM) system (copyright 1990, Gaussian, Inc.),
 the Gaussian 88(TM) system (copyright 1988, Gaussian, Inc.),
 the Gaussian 86(TM) system (copyright 1986, Carnegie Mellon
 University), and the Gaussian 82(TM) system (copyright 1983,
 Carnegie Mellon University). Gaussian is a federally registered
 trademark of Gaussian, Inc.
  
 This software contains proprietary and confidential information,
 including trade secrets, belonging to Gaussian, Inc.
  
 This software is provided under written license and may be
 used, copied, transmitted, or stored only in accord with that
 written license.
  
 The following legend is applicable only to US Government
 contracts under FAR:
  
                    RESTRICTED RIGHTS LEGEND
  
 Use, reproduction and disclosure by the US Government is
 subject to restrictions as set forth in subparagraphs (a)
 and (c) of the Commercial Computer Software - Restricted
 Rights clause in FAR 52.227-19.
  
 Gaussian, Inc.
 340 Quinnipiac St., Bldg. 40, Wallingford CT 06492
  
  
 ---------------------------------------------------------------
 Warning -- This program may not be used in any manner that
 competes with the business of Gaussian, Inc. or will provide
 assistance to any competitor of Gaussian, Inc.  The licensee
 of this program is prohibited from giving any competitor of
 Gaussian, Inc. access to this program.  By using this program,
 the user acknowledges that Gaussian, Inc. is engaged in the
 business of creating and licensing software in the field of
 computational chemistry and represents and warrants to the
 licensee that it is not a competitor of Gaussian, Inc. and that
 it will not use this program in any manner prohibited above.
 ---------------------------------------------------------------
  

 Cite this work as:
 Gaussian 16, Revision C.01,
 M. J. Frisch, G. W. Trucks, H. B. Schlegel, G. E. Scuseria, 
 M. A. Robb, J. R. Cheeseman, G. Scalmani, V. Barone, 
 G. A. Petersson, H. Nakatsuji, X. Li, M. Caricato, A. V. Marenich, 
 J. Bloino, B. G. Janesko, R. Gomperts, B. Mennucci, H. P. Hratchian, 
 J. V. Ortiz, A. F. Izmaylov, J. L. Sonnenberg, D. Williams-Young, 
 F. Ding, F. Lipparini, F. Egidi, J. Goings, B. Peng, A. Petrone, 
 T. Henderson, D. Ranasinghe, V. G. Zakrzewski, J. Gao, N. Rega, 
 G. Zheng, W. Liang, M. Hada, M. Ehara, K. Toyota, R. Fukuda, 
 J. Hasegawa, M. Ishida, T. Nakajima, Y. Honda, O. Kitao, H. Nakai, 
 T. Vreven, K. Throssell, J. A. Montgomery, Jr., J. E. Peralta, 
 F. Ogliaro, M. J. Bearpark, J. J. Heyd, E. N. Brothers, K. N. Kudin, 
 V. N. Staroverov, T. A. Keith, R. Kobayashi, J. Normand, 
 K. Raghavachari, A. P. Rendell, J. C. Burant, S. S. Iyengar, 
 J. Tomasi, M. Cossi, J. M. Millam, M. Klene, C. Adamo, R. Cammi, 
 J. W. Ochterski, R. L. Martin, K. Morokuma, O. Farkas, 
 J. B. Foresman, and D. J. Fox, Gaussian, Inc., Wallingford CT, 2019.
 
 ******************************************
 Gaussian 16:  ES64L-G16RevC.01  3-Jul-2019
                28-Mar-2022 
 ******************************************
 %chk=molecule
 Default route: CacheSize=180224 MaxDisk=256GB
 ----------------------------------------------------------------------
 #P CCSD(MaxCyc=200,SaveAmplitudes,ReadAmplitudes)/GEN sp pop=AllOrbita
 ls iop(3/33=1,3/36=-1)
 ----------------------------------------------------------------------
 1/4=180224,38=1,172=1/1;
 2/4=180224,12=2,17=6,18=5,40=1/2;
 3/4=180224,5=7,11=9,25=1,30=1,33=1,36=-1/1,2,3;
 4/4=180224/1;
 5/4=180224,5=2,38=5/2;
 8/4=180224,6=4,9=120000,10=1,24=1/1,4;
 9/4=180224,5=7,6=200,77=1/13;
 6/4=180224,7=2,8=2,9=2,10=2,96=-1/1;
 99/4=180224,5=1,9=1/99;
 Leave Link    1 at Mon Mar 28 14:25:34 2022, MaxMem=           0 cpu:               2.3 elap:               0.1
 (Enter /nopt/nrel/apps/gaussian/g16C_1/g16/l101.exe)
 ----
 test
 ----
 Symbolic Z-matrix:
 Charge =  0 Multiplicity = 3
 H                     0.        0.        0. 
 Na                    0.        0.        2.4 
 
 ITRead=  0  0
 MicOpt= -1 -1
 NAtoms=      2 NQM=        2 NQMF=       0 NMMI=      0 NMMIF=      0
                NMic=       0 NMicF=      0.
                    Isotopes and Nuclear Properties:
 (Nuclear quadrupole moments (NQMom) in fm**2, nuclear magnetic moments (NMagM)
  in nuclear magnetons)

  Atom         1           2
 IAtWgt=           1          23
 AtmWgt=   1.0078250  22.9897697
 NucSpn=           1           3
 AtZEff=  -0.0000000  -0.0000000
 NQMom=    0.0000000  10.4000000
 NMagM=    2.7928460   2.2175200
 AtZNuc=   1.0000000  11.0000000
 Leave Link  101 at Mon Mar 28 14:25:35 2022, MaxMem=  9663676416 cpu:               2.8 elap:               0.1
 (Enter /nopt/nrel/apps/gaussian/g16C_1/g16/l202.exe)
                          Input orientation:                          
 ---------------------------------------------------------------------
 Center     Atomic      Atomic             Coordinates (Angstroms)
 Number     Number       Type             X           Y           Z
 ---------------------------------------------------------------------
      1          1           0        0.000000    0.000000    0.000000
      2         11           0        0.000000    0.000000    2.400000
 ---------------------------------------------------------------------
 Stoichiometry    HNa(3)
 Framework group  C*V[C*(HNa)]
 Deg. of freedom     1
 Full point group                 C*V     NOp   4
 Largest Abelian subgroup         C2V     NOp   4
 Largest concise Abelian subgroup C1      NOp   1
                         Standard orientation:                         
 ---------------------------------------------------------------------
 Center     Atomic      Atomic             Coordinates (Angstroms)
 Number     Number       Type             X           Y           Z
 ---------------------------------------------------------------------
      1          1           0        0.000000    0.000000   -2.200000
      2         11           0        0.000000    0.000000    0.200000
 ---------------------------------------------------------------------
 Rotational constants (GHZ):           0.0000000          90.8746324          90.8746324
 Leave Link  202 at Mon Mar 28 14:25:35 2022, MaxMem=  9663676416 cpu:               1.0 elap:               0.1
 (Enter /nopt/nrel/apps/gaussian/g16C_1/g16/l301.exe)
 General basis read from cards:  (5D, 7F)
                         Coordinates in L301:                         
 ---------------------------------------------------------------------
 Center     Atomic      Atomic             Coordinates (Angstroms)
 Number     Number       Type             X           Y           Z
 ---------------------------------------------------------------------
      1          1           0        0.000000    0.000000   -2.200000
      2         11           0        0.000000    0.000000    0.200000
 ---------------------------------------------------------------------
 Centers:       1
 STO-3G
 ****
 Centers:       2
 6-31G
 ****
 FixB: optimizing general contractions.
 Ernie: Thresh=  0.10000D-02 Tol=  0.10000D-05 Strict=F.
 IA=     1 ShT= 0 ShC= 0 NL=   1 NS=   0.
 IA=     1 L=0 SC=0 ISt=    0 NBk=    0 NP=    0 IndPr=    0.
 IA=     2 ShT= 0 ShC= 0 NL=   1 NS=   0.
 IA=     2 L=0 SC=0 ISt=    0 NBk=    0 NP=    0 IndPr=    0.
 IA=     2 ShT= 1 ShC= 0 NL=   3 NS=   1.
 IA=     2 L=1 SC=0 ISt=    1 NBk=    2 NP=    9 IndPr=    0.
 DoElim1:  L=1 select primitive    1 from    2 using    1 C=-3.54D-03
 DoElim2:  L=1 select primitive    9 from    1 using    2 C= 1.23D+00
 DoElim1:  L=1 select primitive    1 from    2 using    1 C= 5.00D-03
 DoElim2:  L=1 select primitive    8 from    1 using    2 C= 9.50D-01
 Delete L=1 primitive    7 from    2 C=  0.00D+00.
 Delete L=1 primitive    5 from    2 C=  0.00D+00.
 Delete L=1 primitive    4 from    2 C=  0.00D+00.
 Delete L=1 primitive    3 from    2 C=  0.00D+00.
 Delete L=1 primitive    2 from    2 C=  0.00D+00.
 Delete L=1 primitive    1 from    2 C=  0.00D+00.
 Delete L=1 primitive    9 from    1 C=  0.00D+00.
 Delete L=1 primitive    8 from    1 C=  0.00D+00.
 Delete L=1 primitive    6 from    1 C=  0.00D+00.
 IA=     2 L=1 SC=0 ISt=    0 NBk=    0 NP=    0 IndPr=    9.
 LdAtmC:  AtmChg=     1.000000    11.000000
 AtZEff=     -1.0000000    -10.0400000
 NEqShl: 
              1            2            3            4
     1            1            1            1            1
     2            2            2            2            2
     3            3            3            3            3
     4            4            4            4            4
     5            5            5            5            5
 NEqBas: 
              1            2            3            4
     1            1            1            1            1
     2            2            2            2            2
     3            3            3            3            3
     4            4           -4           -4            4
     5            5           -5            5           -5
     6            6            6            6            6
     7            7            7            7            7
     8            8           -8           -8            8
     9            9           -9            9           -9
    10           10           10           10           10
    11           11           11           11           11
    12           12          -12          -12           12
    13           13          -13           13          -13
    14           14           14           14           14
 There are     8 symmetry adapted cartesian basis functions of A1  symmetry.
   1         1   1   1   1
   2         2   2   2   2
   3         3   3   3   3
   4         6   6   6   6
   5         7   7   7   7
   6        10  10  10  10
   7        11  11  11  11
   8        14  14  14  14
 There are     0 symmetry adapted cartesian basis functions of A2  symmetry.
 There are     3 symmetry adapted cartesian basis functions of B1  symmetry.
   9         4   4   4   4
  10         8   8   8   8
  11        12  12  12  12
 There are     3 symmetry adapted cartesian basis functions of B2  symmetry.
  12         5   5   5   5
  13         9   9   9   9
  14        13  13  13  13
 Order= 1 2 4 3
 Reordered character table:
              1            2            3            4            5
     1            1            1            1            1            1
     2            2            1            1           -1           -1
     3            4            1           -1           -1            1
     4            3            1           -1            1           -1
 NEqShl: 
              1            2            3            4
     1            1            1            1            1
     2            2            2            2            2
     3            3            3            3            3
     4            4            4            4            4
     5            5            5            5            5
 NEqBas: 
              1            2            3            4
     1            1            1            1            1
     2            2            2            2            2
     3            3            3            3            3
     4            4           -4           -4            4
     5            5           -5            5           -5
     6            6            6            6            6
     7            7            7            7            7
     8            8           -8           -8            8
     9            9           -9            9           -9
    10           10           10           10           10
    11           11           11           11           11
    12           12          -12          -12           12
    13           13          -13           13          -13
    14           14           14           14           14
 There are     8 symmetry adapted basis functions of A1  symmetry.
   1         1   1   1   1
   2         2   2   2   2
   3         3   3   3   3
   4         6   6   6   6
   5         7   7   7   7
   6        10  10  10  10
   7        11  11  11  11
   8        14  14  14  14
 There are     0 symmetry adapted basis functions of A2  symmetry.
 There are     3 symmetry adapted basis functions of B1  symmetry.
   9         4   4   4   4
  10         8   8   8   8
  11        12  12  12  12
 There are     3 symmetry adapted basis functions of B2  symmetry.
  12         5   5   5   5
  13         9   9   9   9
  14        13  13  13  13
 Order= 1 2 4 3
 Reordered character table:
              1            2            3            4            5
     1            1            1            1            1            1
     2            2            1            1           -1           -1
     3            4            1           -1           -1            1
     4            3            1           -1            1           -1
    14 basis functions,    49 primitive gaussians,    14 cartesian basis functions
     7 alpha electrons        5 beta electrons
       nuclear repulsion energy         2.4253955501 Hartrees.
 IS=     1 IAt=     1 ISR=     1 T=0 IP=      1 IndIP=      1 IndIPD=      0 C=  2.769344D-01  0.000000D+00                             NZ=T
 IS=     1 IAt=     1 ISR=     1 T=0 IP=      2 IndIP=      2 IndIPD=      1 C=  2.678389D-01  0.000000D+00                             NZ=T
 IS=     1 IAt=     1 ISR=     1 T=0 IP=      3 IndIP=      3 IndIPD=      2 C=  8.347367D-02  0.000000D+00                             NZ=T
 IS=     2 IAt=     2 ISR=     1 T=0 IP=      1 IndIP=      4 IndIPD=      0 C=  1.380276D+00  0.000000D+00                             NZ=T
 IS=     2 IAt=     2 ISR=     1 T=0 IP=      2 IndIP=      5 IndIPD=      1 C=  2.543440D+00  0.000000D+00                             NZ=T
 IS=     2 IAt=     2 ISR=     1 T=0 IP=      3 IndIP=      6 IndIPD=      2 C=  4.120502D+00  0.000000D+00                             NZ=T
 IS=     2 IAt=     2 ISR=     1 T=0 IP=      4 IndIP=      7 IndIPD=      3 C=  5.464941D+00  0.000000D+00                             NZ=T
 IS=     2 IAt=     2 ISR=     1 T=0 IP=      5 IndIP=      8 IndIPD=      4 C=  4.476262D+00  0.000000D+00                             NZ=T
 IS=     2 IAt=     2 ISR=     1 T=0 IP=      6 IndIP=      9 IndIPD=      5 C=  1.255723D+00  0.000000D+00                             NZ=T
 IS=     3 IAt=     2 ISR=     2 T=1 IP=      1 IndIP=     10 IndIPD=      0 C= -1.087231D-01  3.772614D+00                             NZ=T
 IS=     3 IAt=     2 ISR=     2 T=1 IP=      2 IndIP=     11 IndIPD=      1 C= -4.564910D-01  4.399752D+00                             NZ=T
 IS=     3 IAt=     2 ISR=     2 T=1 IP=      3 IndIP=     12 IndIPD=      2 C= -4.778739D-01  4.156503D+00                             NZ=T
 IS=     3 IAt=     2 ISR=     2 T=1 IP=      4 IndIP=     13 IndIPD=      3 C=  3.708017D-01  2.647056D+00                             NZ=T
 IS=     3 IAt=     2 ISR=     2 T=1 IP=      5 IndIP=     14 IndIPD=      4 C=  5.874076D-01  9.643141D-01                             NZ=T
 IS=     3 IAt=     2 ISR=     2 T=1 IP=      6 IndIP=     15 IndIPD=      5 C=  1.231036D-01  1.501277D-01                             NZ=T
 IS=     4 IAt=     2 ISR=     3 T=1 IP=      1 IndIP=     16 IndIPD=      0 C= -1.049885D-01 -1.372752D-02                             NZ=T
 IS=     4 IAt=     2 ISR=     3 T=1 IP=      2 IndIP=     17 IndIPD=      1 C= -1.469212D-02  6.158186D-02                             NZ=T
 IS=     4 IAt=     2 ISR=     3 T=1 IP=      3 IndIP=     18 IndIPD=      2 C=  1.153011D-01  2.888614D-03                             NZ=T
 IS=     5 IAt=     2 ISR=     4 T=1 IP=      1 IndIP=     19 IndIPD=      0 C=  4.608593D-02  1.484923D-02                             NZ=T
 IExCor=    0 DFT=F Ex=HF Corr=None ExCW=0 ScaHFX=  1.000000
 ScaDFX=  1.000000  1.000000  1.000000  1.000000 ScalE2=  1.000000  1.000000
 IRadAn=      5 IRanWt=     -1 IRanGd=            0 ICorTp=0 IEmpDi=  4
 NAtoms=    2 NActive=    2 NUniq=    2 SFac= 1.00D+00 NAtFMM=   60 NAOKFM=F Big=F
 Integral buffers will be    131072 words long.
 Raffenetti 2 integral format.
 Two-electron integral symmetry is turned on.
 Leave Link  301 at Mon Mar 28 14:25:35 2022, MaxMem=  9663676416 cpu:               1.8 elap:               0.1
 (Enter /nopt/nrel/apps/gaussian/g16C_1/g16/l302.exe)
 NPDir=0 NMtPBC=     1 NCelOv=     1 NCel=       1 NClECP=     1 NCelD=      1
         NCelK=      1 NCelE2=     1 NClLst=     1 CellRange=     0.0.
 One-electron integrals computed using PRISM.
 One-electron integral symmetry used in STVInt
 Entering OneElI...
 Calculate overlap and kinetic energy integrals
    NBasis =  14  MinDer = 0  MaxDer = 0
 Requested accuracy = 0.1000D-12
 Symmetry will be used
 PrmmSu-InSpLW:  IPartL=    0 NPrtUS=   36 NPrtUL=    1 DoSpLW=F IThBeg=    0 IThEnd=   35 NThAct=   36.
 PrSmSu:  IncTry=   512 NBBP=             15 NTPThr=   100 NPartT=   36 Incr=           1 LDynOK=F GPUOK=F.
 PrsmSu:  NPrtUS=  36 ThrOK=T IAlg=1 LenDen=           0 ISkipM=0 DoSpLW=F IThBeg=    0 IThEnd=   35.
 Prism:   IPart=     0 DynPar=F LinDyn=F Incr=           1.
 PRISM was handed   268432545 working-precision words and    15 shell-pairs
 PRISM was handed   268432545 working-precision words and    15 shell-pairs
 PRISM was handed   268432545 working-precision words and    15 shell-pairs
 PRISM was handed   268432545 working-precision words and    15 shell-pairs
 PRISM was handed   268432545 working-precision words and    15 shell-pairs
 PRISM was handed   268432545 working-precision words and    15 shell-pairs
 PRISM was handed   268432545 working-precision words and    15 shell-pairs
 PRISM was handed   268432545 working-precision words and    15 shell-pairs
 PRISM was handed   268432545 working-precision words and    15 shell-pairs
 PRISM was handed   268432545 working-precision words and    15 shell-pairs
 PRISM was handed   268432545 working-precision words and    15 shell-pairs
 PRISM was handed   268432545 working-precision words and    15 shell-pairs
 PRISM was handed   268432545 working-precision words and    15 shell-pairs
 IPart= 32 NShTot=           0 NBatch=           0 AvBLen=         0.0
 IPart= 31 NShTot=           0 NBatch=           0 AvBLen=         0.0
 IPart= 34 NShTot=           0 NBatch=           0 AvBLen=         0.0
 IPart=  6 NShTot=           0 NBatch=           0 AvBLen=         0.0
 IPart= 12 NShTot=           0 NBatch=           0 AvBLen=         0.0
 IPart=  5 NShTot=           0 NBatch=           0 AvBLen=         0.0
 IPart= 16 NShTot=           0 NBatch=           0 AvBLen=         0.0
 IPart= 23 NShTot=           0 NBatch=           0 AvBLen=         0.0
 IPart= 15 NShTot=           0 NBatch=           0 AvBLen=         0.0
 IPart= 25 NShTot=           0 NBatch=           0 AvBLen=         0.0
 IPart=  7 NShTot=           0 NBatch=           0 AvBLen=         0.0
 IPart= 21 NShTot=           0 NBatch=           0 AvBLen=         0.0
 PRISM was handed   268432545 working-precision words and    15 shell-pairs
 PRISM was handed   268432545 working-precision words and    15 shell-pairs
 PRISM was handed   268432545 working-precision words and    15 shell-pairs
 PRISM was handed   268432545 working-precision words and    15 shell-pairs
 IPart= 28 NShTot=           0 NBatch=           0 AvBLen=         0.0
 IPart= 20 NShTot=           0 NBatch=           0 AvBLen=         0.0
 IPart=  9 NShTot=           0 NBatch=           0 AvBLen=         0.0
 IPart= 35 NShTot=           0 NBatch=           0 AvBLen=         0.0
 PRISM was handed   268432545 working-precision words and    15 shell-pairs
 PRISM was handed   268432545 working-precision words and    15 shell-pairs
 IPart= 10 NShTot=           0 NBatch=           0 AvBLen=         0.0
 IPart= 30 NShTot=           0 NBatch=           0 AvBLen=         0.0
 PRISM was handed   268432545 working-precision words and    15 shell-pairs
 PRISM was handed   268432545 working-precision words and    15 shell-pairs
 PRISM was handed   268432545 working-precision words and    15 shell-pairs
 IPart=  0 NShTot=          15 NBatch=          15 AvBLen=         1.0
 PRISM was handed   268432545 working-precision words and    15 shell-pairs
 PRISM was handed   268432545 working-precision words and    15 shell-pairs
 PRISM was handed   268432545 working-precision words and    15 shell-pairs
 PRISM was handed   268432545 working-precision words and    15 shell-pairs
 PRISM was handed   268432545 working-precision words and    15 shell-pairs
 IPart= 24 NShTot=           0 NBatch=           0 AvBLen=         0.0
 PRISM was handed   268432545 working-precision words and    15 shell-pairs
 PRISM was handed   268432545 working-precision words and    15 shell-pairs
 PRISM was handed   268432545 working-precision words and    15 shell-pairs
 PRISM was handed   268432545 working-precision words and    15 shell-pairs
 PRISM was handed   268432545 working-precision words and    15 shell-pairs
 PRISM was handed   268432545 working-precision words and    15 shell-pairs
 PRISM was handed   268432545 working-precision words and    15 shell-pairs
 PRISM was handed   268432545 working-precision words and    15 shell-pairs
 PRISM was handed   268432545 working-precision words and    15 shell-pairs
 IPart=  8 NShTot=           0 NBatch=           0 AvBLen=         0.0
 IPart= 27 NShTot=           0 NBatch=           0 AvBLen=         0.0
 IPart=  4 NShTot=           0 NBatch=           0 AvBLen=         0.0
 IPart= 14 NShTot=           0 NBatch=           0 AvBLen=         0.0
 IPart= 22 NShTot=           0 NBatch=           0 AvBLen=         0.0
 IPart= 13 NShTot=           0 NBatch=           0 AvBLen=         0.0
 IPart=  2 NShTot=           0 NBatch=           0 AvBLen=         0.0
 IPart= 19 NShTot=           0 NBatch=           0 AvBLen=         0.0
 IPart= 29 NShTot=           0 NBatch=           0 AvBLen=         0.0
 IPart= 17 NShTot=           0 NBatch=           0 AvBLen=         0.0
 IPart=  3 NShTot=           0 NBatch=           0 AvBLen=         0.0
 IPart=  1 NShTot=           0 NBatch=           0 AvBLen=         0.0
 IPart= 18 NShTot=           0 NBatch=           0 AvBLen=         0.0
 IPart= 26 NShTot=           0 NBatch=           0 AvBLen=         0.0
 IPart= 11 NShTot=           0 NBatch=           0 AvBLen=         0.0
 IPart= 33 NShTot=           0 NBatch=           0 AvBLen=         0.0
 PrSmSu:  NxtVal=             37.
 *** Overlap *** 
                1             2             3             4             5 
      1  0.100000D+01
      2  0.108965D-02  0.100000D+01
      3  0.164724D-01  0.230835D+00  0.100000D+01
      4  0.000000D+00  0.000000D+00  0.000000D+00  0.100000D+01
      5  0.000000D+00  0.000000D+00  0.000000D+00  0.000000D+00  0.100000D+01
      6 -0.215332D-01  0.000000D+00  0.000000D+00  0.000000D+00  0.000000D+00
      7  0.236881D+00 -0.127644D-04  0.161245D+00  0.000000D+00  0.000000D+00
      8  0.000000D+00  0.000000D+00  0.000000D+00  0.186871D+00  0.000000D+00
      9  0.000000D+00  0.000000D+00  0.000000D+00  0.000000D+00  0.186871D+00
     10 -0.381743D+00  0.000000D+00  0.000000D+00  0.000000D+00  0.000000D+00
     11  0.241951D+00  0.189170D-01  0.190082D+00  0.000000D+00  0.000000D+00
     12  0.000000D+00  0.000000D+00  0.000000D+00  0.574619D-01  0.000000D+00
     13  0.000000D+00  0.000000D+00  0.000000D+00  0.000000D+00  0.574619D-01
     14 -0.318375D+00  0.000000D+00  0.000000D+00  0.000000D+00  0.000000D+00
                6             7             8             9            10 
      6  0.100000D+01
      7  0.000000D+00  0.100000D+01
      8  0.000000D+00  0.000000D+00  0.100000D+01
      9  0.000000D+00  0.000000D+00  0.000000D+00  0.100000D+01
     10  0.186871D+00  0.000000D+00  0.000000D+00  0.000000D+00  0.100000D+01
     11  0.000000D+00  0.876272D+00  0.000000D+00  0.000000D+00  0.000000D+00
     12  0.000000D+00  0.000000D+00  0.672925D+00  0.000000D+00  0.000000D+00
     13  0.000000D+00  0.000000D+00  0.000000D+00  0.672925D+00  0.000000D+00
     14  0.574619D-01  0.000000D+00  0.000000D+00  0.000000D+00  0.672925D+00
               11            12            13            14 
     11  0.100000D+01
     12  0.000000D+00  0.100000D+01
     13  0.000000D+00  0.000000D+00  0.100000D+01
     14  0.000000D+00  0.000000D+00  0.000000D+00  0.100000D+01
 *** Kinetic Energy *** 
                1             2             3             4             5 
      1  0.760032D+00
      2 -0.709595D-03  0.565455D+02
      3 -0.741064D-02 -0.266647D+01  0.196759D+01
      4  0.000000D+00  0.000000D+00  0.000000D+00  0.588848D+01
      5  0.000000D+00  0.000000D+00  0.000000D+00  0.000000D+00  0.588848D+01
      6  0.549003D-02  0.000000D+00  0.000000D+00  0.000000D+00  0.000000D+00
      7  0.138529D-01 -0.516638D-01 -0.152029D+00  0.000000D+00  0.000000D+00
      8  0.000000D+00  0.000000D+00  0.000000D+00  0.478086D-01  0.000000D+00
      9  0.000000D+00  0.000000D+00  0.000000D+00  0.000000D+00  0.478086D-01
     10 -0.569510D-01  0.000000D+00  0.000000D+00  0.000000D+00  0.000000D+00
     11  0.115130D-01  0.147038D-02  0.142898D-01  0.000000D+00  0.000000D+00
     12  0.000000D+00  0.000000D+00  0.000000D+00  0.716353D-02  0.000000D+00
     13  0.000000D+00  0.000000D+00  0.000000D+00  0.000000D+00  0.716353D-02
     14 -0.300902D-01  0.000000D+00  0.000000D+00  0.000000D+00  0.000000D+00
                6             7             8             9            10 
      6  0.588848D+01
      7  0.000000D+00  0.116833D+00
      8  0.000000D+00  0.000000D+00  0.205703D+00
      9  0.000000D+00  0.000000D+00  0.000000D+00  0.205703D+00
     10  0.478086D-01  0.000000D+00  0.000000D+00  0.000000D+00  0.205703D+00
     11  0.000000D+00  0.474660D-01  0.000000D+00  0.000000D+00  0.000000D+00
     12  0.000000D+00  0.000000D+00  0.664432D-01  0.000000D+00  0.000000D+00
     13  0.000000D+00  0.000000D+00  0.000000D+00  0.664432D-01  0.000000D+00
     14  0.716353D-02  0.000000D+00  0.000000D+00  0.000000D+00  0.664432D-01
               11            12            13            14 
     11  0.389316D-01
     12  0.000000D+00  0.648860D-01
     13  0.000000D+00  0.000000D+00  0.648860D-01
     14  0.000000D+00  0.000000D+00  0.000000D+00  0.648860D-01
 Entering OneElI...
 Calculate potential energy integrals
    NBasis =  14  MinDer = 0  MaxDer = 0
 Requested accuracy = 0.1000D-12
 Symmetry will be used
 PrmmSu-InSpLW:  IPartL=    0 NPrtUS=   36 NPrtUL=    1 DoSpLW=F IThBeg=    0 IThEnd=   35 NThAct=   36.
 PrSmSu:  IncTry=   512 NBBP=             30 NTPThr=   100 NPartT=   36 Incr=           1 LDynOK=F GPUOK=F.
 PrsmSu:  NPrtUS=  36 ThrOK=T IAlg=1 LenDen=           0 ISkipM=0 DoSpLW=F IThBeg=    0 IThEnd=   35.
 Prism:   IPart=     0 DynPar=F LinDyn=F Incr=           1.
 PRISM was handed   268432644 working-precision words and    15 shell-pairs
 PRISM was handed   268432644 working-precision words and    15 shell-pairs
 PRISM was handed   268432644 working-precision words and    15 shell-pairs
 PRISM was handed   268432644 working-precision words and    15 shell-pairs
 PRISM was handed   268432644 working-precision words and    15 shell-pairs
 PRISM was handed   268432644 working-precision words and    15 shell-pairs
 PRISM was handed   268432644 working-precision words and    15 shell-pairs
 PRISM was handed   268432644 working-precision words and    15 shell-pairs
 PRISM was handed   268432644 working-precision words and    15 shell-pairs
 PRISM was handed   268432644 working-precision words and    15 shell-pairs
 PRISM was handed   268432644 working-precision words and    15 shell-pairs
 PRISM was handed   268432644 working-precision words and    15 shell-pairs
 PRISM was handed   268432644 working-precision words and    15 shell-pairs
 PRISM was handed   268432644 working-precision words and    15 shell-pairs
 PRISM was handed   268432644 working-precision words and    15 shell-pairs
 PRISM was handed   268432644 working-precision words and    15 shell-pairs
 PRISM was handed   268432644 working-precision words and    15 shell-pairs
 PRISM was handed   268432644 working-precision words and    15 shell-pairs
 PRISM was handed   268432644 working-precision words and    15 shell-pairs
 PRISM was handed   268432644 working-precision words and    15 shell-pairs
 PRISM was handed   268432644 working-precision words and    15 shell-pairs
 PRISM was handed   268432644 working-precision words and    15 shell-pairs
 PRISM was handed   268432644 working-precision words and    15 shell-pairs
 PRISM was handed   268432644 working-precision words and    15 shell-pairs
 PRISM was handed   268432644 working-precision words and    15 shell-pairs
 PRISM was handed   268432644 working-precision words and    15 shell-pairs
 PRISM was handed   268432644 working-precision words and    15 shell-pairs
 PRISM was handed   268432644 working-precision words and    15 shell-pairs
 PRISM was handed   268432644 working-precision words and    15 shell-pairs
 PRISM was handed   268432644 working-precision words and    15 shell-pairs
 PRISM was handed   268432644 working-precision words and    15 shell-pairs
 PRISM was handed   268432644 working-precision words and    15 shell-pairs
 PRISM was handed   268432644 working-precision words and    15 shell-pairs
 PRISM was handed   268432644 working-precision words and    15 shell-pairs
 PRISM was handed   268432644 working-precision words and    15 shell-pairs
 PRISM was handed   268432644 working-precision words and    15 shell-pairs
 IPart=  0 NShTot=          30 NBatch=          15 AvBLen=         2.0
 IPart= 20 NShTot=           0 NBatch=           0 AvBLen=         0.0
 IPart= 21 NShTot=           0 NBatch=           0 AvBLen=         0.0
 IPart= 12 NShTot=           0 NBatch=           0 AvBLen=         0.0
 IPart= 25 NShTot=           0 NBatch=           0 AvBLen=         0.0
 IPart= 29 NShTot=           0 NBatch=           0 AvBLen=         0.0
 IPart= 10 NShTot=           0 NBatch=           0 AvBLen=         0.0
 IPart= 18 NShTot=           0 NBatch=           0 AvBLen=         0.0
 IPart=  3 NShTot=           0 NBatch=           0 AvBLen=         0.0
 IPart=  1 NShTot=           0 NBatch=           0 AvBLen=         0.0
 IPart= 26 NShTot=           0 NBatch=           0 AvBLen=         0.0
 IPart= 14 NShTot=           0 NBatch=           0 AvBLen=         0.0
 IPart=  4 NShTot=           0 NBatch=           0 AvBLen=         0.0
 IPart= 31 NShTot=           0 NBatch=           0 AvBLen=         0.0
 IPart=  6 NShTot=           0 NBatch=           0 AvBLen=         0.0
 IPart= 15 NShTot=           0 NBatch=           0 AvBLen=         0.0
 IPart= 24 NShTot=           0 NBatch=           0 AvBLen=         0.0
 IPart=  2 NShTot=           0 NBatch=           0 AvBLen=         0.0
 IPart= 32 NShTot=           0 NBatch=           0 AvBLen=         0.0
 IPart= 30 NShTot=           0 NBatch=           0 AvBLen=         0.0
 IPart= 23 NShTot=           0 NBatch=           0 AvBLen=         0.0
 IPart=  7 NShTot=           0 NBatch=           0 AvBLen=         0.0
 IPart= 16 NShTot=           0 NBatch=           0 AvBLen=         0.0
 IPart=  5 NShTot=           0 NBatch=           0 AvBLen=         0.0
 IPart=  8 NShTot=           0 NBatch=           0 AvBLen=         0.0
 IPart= 22 NShTot=           0 NBatch=           0 AvBLen=         0.0
 IPart= 34 NShTot=           0 NBatch=           0 AvBLen=         0.0
 IPart= 17 NShTot=           0 NBatch=           0 AvBLen=         0.0
 IPart= 13 NShTot=           0 NBatch=           0 AvBLen=         0.0
 IPart= 11 NShTot=           0 NBatch=           0 AvBLen=         0.0
 IPart= 19 NShTot=           0 NBatch=           0 AvBLen=         0.0
 IPart= 27 NShTot=           0 NBatch=           0 AvBLen=         0.0
 IPart= 33 NShTot=           0 NBatch=           0 AvBLen=         0.0
 IPart=  9 NShTot=           0 NBatch=           0 AvBLen=         0.0
 IPart= 28 NShTot=           0 NBatch=           0 AvBLen=         0.0
 IPart= 35 NShTot=           0 NBatch=           0 AvBLen=         0.0
 PrSmSu:  NxtVal=             37.
 ***** Potential Energy ***** 
                1             2             3             4             5 
      1  0.365192D+01
      2  0.631947D-01  0.117181D+03
      3  0.169889D+00  0.106576D+02  0.180466D+02
      4  0.000000D+00  0.000000D+00  0.000000D+00  0.188761D+02
      5  0.000000D+00  0.000000D+00  0.000000D+00  0.000000D+00  0.188761D+02
      6 -0.158827D+00 -0.223545D-02 -0.217007D-01  0.000000D+00  0.000000D+00
      7  0.851322D+00 -0.498344D-01  0.132322D+01  0.000000D+00  0.000000D+00
      8  0.000000D+00  0.000000D+00  0.000000D+00  0.155456D+01  0.000000D+00
      9  0.000000D+00  0.000000D+00  0.000000D+00  0.000000D+00  0.155456D+01
     10 -0.133793D+01 -0.341957D-04 -0.636369D-02  0.000000D+00  0.000000D+00
     11  0.808081D+00  0.110997D+01  0.228905D+01  0.000000D+00  0.000000D+00
     12  0.000000D+00  0.000000D+00  0.000000D+00  0.461838D+00  0.000000D+00
     13  0.000000D+00  0.000000D+00  0.000000D+00  0.000000D+00  0.461838D+00
     14 -0.978418D+00 -0.990907D-05 -0.197865D-02  0.000000D+00  0.000000D+00
                6             7             8             9            10 
      6  0.188814D+02
      7 -0.102589D-01  0.381442D+01
      8  0.000000D+00  0.000000D+00  0.351223D+01
      9  0.000000D+00  0.000000D+00  0.000000D+00  0.351223D+01
     10  0.155869D+01 -0.890048D-01  0.000000D+00  0.000000D+00  0.358719D+01
     11 -0.866927D-02  0.308617D+01  0.000000D+00  0.000000D+00 -0.797194D-01
     12  0.000000D+00  0.000000D+00  0.194674D+01  0.000000D+00  0.000000D+00
     13  0.000000D+00  0.000000D+00  0.000000D+00  0.194674D+01  0.000000D+00
     14  0.463237D+00 -0.568700D-01  0.000000D+00  0.000000D+00  0.199824D+01
               11            12            13            14 
     11  0.301668D+01
     12  0.000000D+00  0.202704D+01
     13  0.000000D+00  0.000000D+00  0.202704D+01
     14 -0.686867D-01  0.000000D+00  0.000000D+00  0.207966D+01
 ****** Core Hamiltonian ****** 
                1             2             3             4             5 
      1 -0.289188D+01
      2 -0.639043D-01 -0.606357D+02
      3 -0.177300D+00 -0.133241D+02 -0.160791D+02
      4  0.000000D+00  0.000000D+00  0.000000D+00 -0.129876D+02
      5  0.000000D+00  0.000000D+00  0.000000D+00  0.000000D+00 -0.129876D+02
      6  0.164317D+00  0.223545D-02  0.217007D-01  0.000000D+00  0.000000D+00
      7 -0.837469D+00 -0.182936D-02 -0.147525D+01  0.000000D+00  0.000000D+00
      8  0.000000D+00  0.000000D+00  0.000000D+00 -0.150675D+01  0.000000D+00
      9  0.000000D+00  0.000000D+00  0.000000D+00  0.000000D+00 -0.150675D+01
     10  0.128098D+01  0.341957D-04  0.636369D-02  0.000000D+00  0.000000D+00
     11 -0.796568D+00 -0.110850D+01 -0.227476D+01  0.000000D+00  0.000000D+00
     12  0.000000D+00  0.000000D+00  0.000000D+00 -0.454675D+00  0.000000D+00
     13  0.000000D+00  0.000000D+00  0.000000D+00  0.000000D+00 -0.454675D+00
     14  0.948327D+00  0.990907D-05  0.197865D-02  0.000000D+00  0.000000D+00
                6             7             8             9            10 
      6 -0.129929D+02
      7  0.102589D-01 -0.369758D+01
      8  0.000000D+00  0.000000D+00 -0.330653D+01
      9  0.000000D+00  0.000000D+00  0.000000D+00 -0.330653D+01
     10 -0.151088D+01  0.890048D-01  0.000000D+00  0.000000D+00 -0.338149D+01
     11  0.866927D-02 -0.303870D+01  0.000000D+00  0.000000D+00  0.797194D-01
     12  0.000000D+00  0.000000D+00 -0.188029D+01  0.000000D+00  0.000000D+00
     13  0.000000D+00  0.000000D+00  0.000000D+00 -0.188029D+01  0.000000D+00
     14 -0.456074D+00  0.568700D-01  0.000000D+00  0.000000D+00 -0.193180D+01
               11            12            13            14 
     11 -0.297775D+01
     12  0.000000D+00 -0.196215D+01
     13  0.000000D+00  0.000000D+00 -0.196215D+01
     14  0.686867D-01  0.000000D+00  0.000000D+00 -0.201478D+01
 SVDSVc IOpt=   1 NormSV=T IR=1
 SVDSVc V= 2.14D+00 1.84D+00 1.19D+00 9.89D-01 7.55D-01 6.50D-01 3.09D-01 1.23D-01
 SVDSVc IOpt=   1 NormSV=T IR=3
 SVDSVc V= 1.72D+00 9.71D-01 3.14D-01
 SVDSVc IOpt=   1 NormSV=T IR=4
 SVDSVc V= 1.72D+00 9.71D-01 3.14D-01
 TstOVc:  Largest diagonal error= 2.44D-15 IB=1 I=    8.
 TstOVc:  Largest same sym error= 2.46D-15 IB=1 I=    4 J=    3.
 TstOVc:  Largest diff sym error= 0.00D+00 IB=0 JB=0 I=    0 J=    0.
 Orthogonalized basis functions: 
                 1             2             3             4             5 
      1   0.297440D+00 -0.146094D+00 -0.839626D-01  0.198354D+00 -0.321752D+00
      2   0.302126D-01  0.444790D-01  0.678407D+00  0.682762D-01 -0.739627D+00
      3   0.118811D+00  0.137740D+00  0.575328D+00  0.132913D-03  0.788840D+00
      4   0.000000D+00  0.000000D+00  0.000000D+00  0.000000D+00  0.000000D+00
      5   0.000000D+00  0.000000D+00  0.000000D+00  0.000000D+00  0.000000D+00
      6  -0.575797D-01  0.116722D+00 -0.520248D-01  0.967780D+00  0.862732D-01
      7   0.349970D+00  0.306699D+00 -0.141344D+00 -0.556039D-01 -0.542960D-01
      8   0.000000D+00  0.000000D+00  0.000000D+00  0.000000D+00  0.000000D+00
      9   0.000000D+00  0.000000D+00  0.000000D+00  0.000000D+00  0.000000D+00
     10  -0.245659D+00  0.393440D+00 -0.487598D-01  0.137729D-01 -0.974052D-01
     11   0.352702D+00  0.309069D+00 -0.114202D+00 -0.529434D-01 -0.430310D-01
     12   0.000000D+00  0.000000D+00  0.000000D+00  0.000000D+00  0.000000D+00
     13   0.000000D+00  0.000000D+00  0.000000D+00  0.000000D+00  0.000000D+00
     14  -0.231146D+00  0.377365D+00 -0.471282D-01 -0.156455D+00 -0.171076D+00
                 6             7             8             9            10 
      1   0.987024D+00  0.205339D+00 -0.190916D-01  0.000000D+00  0.000000D+00
      2  -0.206351D+00 -0.383289D-02 -0.272526D-01  0.000000D+00  0.000000D+00
      3   0.327247D+00  0.128970D-01 -0.623215D-01  0.000000D+00  0.000000D+00
      4   0.000000D+00  0.000000D+00  0.000000D+00  0.180764D+00  0.976429D+00
      5   0.000000D+00  0.000000D+00  0.000000D+00  0.000000D+00  0.000000D+00
      6  -0.140245D+00 -0.254037D+00  0.125695D-02  0.000000D+00  0.000000D+00
      7  -0.247930D+00 -0.364071D-01 -0.200548D+01  0.000000D+00  0.000000D+00
      8   0.000000D+00  0.000000D+00  0.000000D+00  0.532957D+00 -0.716361D-01
      9   0.000000D+00  0.000000D+00  0.000000D+00  0.000000D+00  0.000000D+00
     10   0.229277D+00  0.132422D+01 -0.777617D-02  0.000000D+00  0.000000D+00
     11  -0.227897D+00 -0.291604D-01  0.202348D+01  0.000000D+00  0.000000D+00
     12   0.000000D+00  0.000000D+00  0.000000D+00  0.516103D+00 -0.268016D+00
     13   0.000000D+00  0.000000D+00  0.000000D+00  0.000000D+00  0.000000D+00
     14   0.479483D+00 -0.117335D+01 -0.104660D-02  0.000000D+00  0.000000D+00
                11            12            13            14 
      1   0.000000D+00  0.000000D+00  0.000000D+00  0.000000D+00
      2   0.000000D+00  0.000000D+00  0.000000D+00  0.000000D+00
      3   0.000000D+00  0.000000D+00  0.000000D+00  0.000000D+00
      4  -0.243572D+00  0.000000D+00  0.000000D+00  0.000000D+00
      5   0.000000D+00  0.180764D+00  0.976429D+00 -0.243572D+00
      6   0.000000D+00  0.000000D+00  0.000000D+00  0.000000D+00
      7   0.000000D+00  0.000000D+00  0.000000D+00  0.000000D+00
      8   0.127086D+01  0.000000D+00  0.000000D+00  0.000000D+00
      9   0.000000D+00  0.532957D+00 -0.716361D-01  0.127086D+01
     10   0.000000D+00  0.000000D+00  0.000000D+00  0.000000D+00
     11   0.000000D+00  0.000000D+00  0.000000D+00  0.000000D+00
     12  -0.122706D+01  0.000000D+00  0.000000D+00  0.000000D+00
     13   0.000000D+00  0.516103D+00 -0.268016D+00 -0.122706D+01
     14   0.000000D+00  0.000000D+00  0.000000D+00  0.000000D+00
 NBasis=    14 RedAO= T EigKep=  1.23D-01  NBF=     8     0     3     3
 NBsUse=    14 1.00D-06 EigRej= -1.00D+00 NBFU=     8     0     3     3
 Leave Link  302 at Mon Mar 28 14:25:35 2022, MaxMem=  9663676416 cpu:               4.4 elap:               0.1
 (Enter /nopt/nrel/apps/gaussian/g16C_1/g16/l303.exe)
 DipDrv will not compute anything.
 Fermi contact integrals: 
                 1             2 
      1   0.628247D+00  0.258976D-02
      2   0.000000D+00  0.192411D+02
      3   0.839482D-05  0.382249D-01
      4   0.000000D+00  0.000000D+00
      5   0.000000D+00  0.000000D+00
      6  -0.464314D-04  0.000000D+00
      7   0.266849D-01 -0.437955D-02
      8   0.000000D+00  0.000000D+00
      9   0.000000D+00  0.000000D+00
     10  -0.525883D-01  0.000000D+00
     11   0.270218D-01  0.460859D-01
     12   0.000000D+00  0.000000D+00
     13   0.000000D+00  0.000000D+00
     14  -0.394875D-01  0.000000D+00
 Leave Link  303 at Mon Mar 28 14:25:35 2022, MaxMem=  9663676416 cpu:               1.2 elap:               0.1
 (Enter /nopt/nrel/apps/gaussian/g16C_1/g16/l401.exe)
 ExpMin= 2.60D-02 ExpMax= 9.99D+03 ExpMxC= 1.50D+03 IAcc=3 IRadAn=         5 AccDes= 0.00D+00
 Harris functional with IExCor=  205 and IRadAn=       5 diagonalized for initial guess.
 HarFok:  IExCor=  205 AccDes= 0.00D+00 IRadAn=         5 IDoV= 1 UseB2=F ITyADJ=14
 ICtDFT=  3500011 ScaDFX=  1.000000  1.000000  1.000000  1.000000
 FoFCou: FMM=F IPFlag=           0 FMFlag=      100000 FMFlg1=           0
         NFxFlg=           0 DoJE=T BraDBF=F KetDBF=T FulRan=T
         wScrn=  0.000000 ICntrl=       500 IOpCl=  0 I1Cent=   200000004 NGrid=           0
         NMat0=    1 NMatS0=      1 NMatT0=    0 NMatD0=    1 NMtDS0=    0 NMtDT0=    0
 Petite list used in FoFCou.
 Harris En= -162.045204680929    
 JPrj=0 DoOrth=F DoCkMO=F.
 Initial guess orbital symmetries:
 Alpha Orbitals:
       Occupied  (SG) (SG) (SG) (PI) (PI) (SG) (SG)
       Virtual   (PI) (PI) (SG) (SG) (PI) (PI) (SG)
 Beta  Orbitals:
       Occupied  (SG) (SG) (SG) (PI) (PI)
       Virtual   (SG) (SG) (PI) (PI) (SG) (SG) (PI) (PI) (SG)
 The electronic state of the initial guess is 3-SG.
 Initial guess <Sx>= 0.0000 <Sy>= 0.0000 <Sz>= 1.0000 <S**2>= 2.0000 S= 1.0000
 Leave Link  401 at Mon Mar 28 14:25:35 2022, MaxMem=  9663676416 cpu:               4.4 elap:               0.2
 (Enter /nopt/nrel/apps/gaussian/g16C_1/g16/l502.exe)
 Keep R1 and R2 ints in memory in symmetry-blocked form, NReq=7222902.
 FoFCou: FMM=F IPFlag=           0 FMFlag=           0 FMFlg1=           0
         NFxFlg=           0 DoJE=F BraDBF=F KetDBF=F FulRan=T
         wScrn=  0.000000 ICntrl=       600 IOpCl=  0 I1Cent=           0 NGrid=           0
         NMat0=    1 NMatS0=    105 NMatT0=    0 NMatD0=    1 NMtDS0=    0 NMtDT0=    0
 Petite list used in FoFCou.
 UHF open shell SCF:
 Using DIIS extrapolation, IDIIS=  1040.
 NGot=  9663676416 LenX=  9663669932 LenY=  9663669050
 Requested convergence on RMS density matrix=1.00D-08 within 128 cycles.
 Requested convergence on MAX density matrix=1.00D-06.
 Requested convergence on             energy=1.00D-06.
 No special actions if energy rises.

 Cycle   1  Pass 1  IDiag  1:
 E= -162.282649374446    
 DIIS: error= 3.64D-02 at cycle   1 NSaved=   1.
 NSaved= 1 IEnMin= 1 EnMin= -162.282649374446     IErMin= 1 ErrMin= 3.64D-02
 ErrMax= 3.64D-02  0.00D+00 EMaxC= 1.00D-01 BMatC= 3.30D-02 BMatP= 3.30D-02
 IDIUse=3 WtCom= 6.36D-01 WtEn= 3.64D-01
 Coeff-Com:  0.100D+01
 Coeff-En:   0.100D+01
 Coeff:      0.100D+01
 Gap=     0.199 Goal=   None    Shift=    0.000
 Gap=     1.550 Goal=   None    Shift=    0.000
 GapD=    0.199 DampG=1.000 DampE=0.500 DampFc=0.5000 IDamp=-1.
 Damping current iteration by 5.00D-01
 RMSDP=1.14D-02 MaxDP=1.65D-01              OVMax= 1.20D-02

 Cycle   2  Pass 1  IDiag  1:
 E= -162.291534617020     Delta-E=       -0.008885242574 Rises=F Damp=T
 DIIS: error= 2.41D-02 at cycle   2 NSaved=   2.
 NSaved= 2 IEnMin= 2 EnMin= -162.291534617020     IErMin= 2 ErrMin= 2.41D-02
 ErrMax= 2.41D-02  0.00D+00 EMaxC= 1.00D-01 BMatC= 1.19D-02 BMatP= 3.30D-02
 IDIUse=3 WtCom= 7.59D-01 WtEn= 2.41D-01
 Coeff-Com: -0.141D+01 0.241D+01
 Coeff-En:   0.000D+00 0.100D+01
 Coeff:     -0.107D+01 0.207D+01
 Gap=     0.192 Goal=   None    Shift=    0.000
 Gap=     1.509 Goal=   None    Shift=    0.000
 RMSDP=9.19D-03 MaxDP=1.39D-01 DE=-8.89D-03 OVMax= 1.54D-03

 Cycle   3  Pass 1  IDiag  1:
 E= -162.304419407433     Delta-E=       -0.012884790413 Rises=F Damp=F
 DIIS: error= 3.65D-03 at cycle   3 NSaved=   3.
 NSaved= 3 IEnMin= 3 EnMin= -162.304419407433     IErMin= 3 ErrMin= 3.65D-03
 ErrMax= 3.65D-03  0.00D+00 EMaxC= 1.00D-01 BMatC= 1.92D-04 BMatP= 1.19D-02
 IDIUse=3 WtCom= 9.64D-01 WtEn= 3.65D-02
 Coeff-Com:  0.604D+00-0.115D+01 0.155D+01
 Coeff-En:   0.000D+00 0.000D+00 0.100D+01
 Coeff:      0.582D+00-0.111D+01 0.153D+01
 Gap=     0.192 Goal=   None    Shift=    0.000
 Gap=     1.512 Goal=   None    Shift=    0.000
 RMSDP=1.88D-03 MaxDP=2.61D-02 DE=-1.29D-02 OVMax= 3.38D-04

 Cycle   4  Pass 1  IDiag  1:
 E= -162.304640350634     Delta-E=       -0.000220943201 Rises=F Damp=F
 DIIS: error= 1.59D-04 at cycle   4 NSaved=   4.
 NSaved= 4 IEnMin= 4 EnMin= -162.304640350634     IErMin= 4 ErrMin= 1.59D-04
 ErrMax= 1.59D-04  0.00D+00 EMaxC= 1.00D-01 BMatC= 6.58D-07 BMatP= 1.92D-04
 IDIUse=3 WtCom= 9.98D-01 WtEn= 1.59D-03
 Coeff-Com: -0.101D+00 0.195D+00-0.303D+00 0.121D+01
 Coeff-En:   0.000D+00 0.000D+00 0.000D+00 0.100D+01
 Coeff:     -0.101D+00 0.195D+00-0.303D+00 0.121D+01
 Gap=     0.192 Goal=   None    Shift=    0.000
 Gap=     1.512 Goal=   None    Shift=    0.000
 RMSDP=2.11D-04 MaxDP=1.49D-03 DE=-2.21D-04 OVMax= 3.55D-05

 Cycle   5  Pass 1  IDiag  1:
 E= -162.304642036979     Delta-E=       -0.000001686344 Rises=F Damp=F
 DIIS: error= 4.72D-05 at cycle   5 NSaved=   5.
 NSaved= 5 IEnMin= 5 EnMin= -162.304642036979     IErMin= 5 ErrMin= 4.72D-05
 ErrMax= 4.72D-05  0.00D+00 EMaxC= 1.00D-01 BMatC= 6.56D-08 BMatP= 6.58D-07
 IDIUse=1 WtCom= 1.00D+00 WtEn= 0.00D+00
 Coeff-Com:  0.315D-01-0.615D-01 0.104D+00-0.667D+00 0.159D+01
 Coeff:      0.315D-01-0.615D-01 0.104D+00-0.667D+00 0.159D+01
 Gap=     0.192 Goal=   None    Shift=    0.000
 Gap=     1.512 Goal=   None    Shift=    0.000
 RMSDP=1.02D-04 MaxDP=7.50D-04 DE=-1.69D-06 OVMax= 1.10D-06

 Cycle   6  Pass 1  IDiag  1:
 E= -162.304642292420     Delta-E=       -0.000000255442 Rises=F Damp=F
 DIIS: error= 9.61D-06 at cycle   6 NSaved=   6.
 NSaved= 6 IEnMin= 6 EnMin= -162.304642292420     IErMin= 6 ErrMin= 9.61D-06
 ErrMax= 9.61D-06  0.00D+00 EMaxC= 1.00D-01 BMatC= 2.02D-09 BMatP= 6.56D-08
 IDIUse=1 WtCom= 1.00D+00 WtEn= 0.00D+00
 Coeff-Com: -0.523D-02 0.104D-01-0.201D-01 0.181D+00-0.577D+00 0.141D+01
 Coeff:     -0.523D-02 0.104D-01-0.201D-01 0.181D+00-0.577D+00 0.141D+01
 Gap=     0.192 Goal=   None    Shift=    0.000
 Gap=     1.512 Goal=   None    Shift=    0.000
 RMSDP=1.62D-05 MaxDP=1.23D-04 DE=-2.55D-07 OVMax= 1.36D-06

 Cycle   7  Pass 1  IDiag  1:
 E= -162.304642299423     Delta-E=       -0.000000007003 Rises=F Damp=F
 DIIS: error= 1.40D-06 at cycle   7 NSaved=   7.
 NSaved= 7 IEnMin= 7 EnMin= -162.304642299423     IErMin= 7 ErrMin= 1.40D-06
 ErrMax= 1.40D-06  0.00D+00 EMaxC= 1.00D-01 BMatC= 6.90D-11 BMatP= 2.02D-09
 IDIUse=1 WtCom= 1.00D+00 WtEn= 0.00D+00
 Coeff-Com:  0.212D-02-0.419D-02 0.758D-02-0.590D-01 0.194D+00-0.549D+00
 Coeff-Com:  0.141D+01
 Coeff:      0.212D-02-0.419D-02 0.758D-02-0.590D-01 0.194D+00-0.549D+00
 Coeff:      0.141D+01
 Gap=     0.192 Goal=   None    Shift=    0.000
 Gap=     1.512 Goal=   None    Shift=    0.000
 RMSDP=2.73D-06 MaxDP=3.26D-05 DE=-7.00D-09 OVMax= 4.06D-07

 Cycle   8  Pass 1  IDiag  1:
 E= -162.304642299598     Delta-E=       -0.000000000176 Rises=F Damp=F
 DIIS: error= 3.67D-07 at cycle   8 NSaved=   8.
 NSaved= 8 IEnMin= 8 EnMin= -162.304642299598     IErMin= 8 ErrMin= 3.67D-07
 ErrMax= 3.67D-07  0.00D+00 EMaxC= 1.00D-01 BMatC= 4.17D-12 BMatP= 6.90D-11
 IDIUse=1 WtCom= 1.00D+00 WtEn= 0.00D+00
 Coeff-Com: -0.469D-03 0.938D-03-0.175D-02 0.145D-01-0.559D-01 0.186D+00
 Coeff-Com: -0.730D+00 0.159D+01
 Coeff:     -0.469D-03 0.938D-03-0.175D-02 0.145D-01-0.559D-01 0.186D+00
 Coeff:     -0.730D+00 0.159D+01
 Gap=     0.192 Goal=   None    Shift=    0.000
 Gap=     1.512 Goal=   None    Shift=    0.000
 RMSDP=9.65D-07 MaxDP=1.09D-05 DE=-1.76D-10 OVMax= 9.49D-08

 Cycle   9  Pass 1  IDiag  1:
 E= -162.304642299610     Delta-E=       -0.000000000012 Rises=F Damp=F
 DIIS: error= 4.01D-08 at cycle   9 NSaved=   9.
 NSaved= 9 IEnMin= 9 EnMin= -162.304642299610     IErMin= 9 ErrMin= 4.01D-08
 ErrMax= 4.01D-08  0.00D+00 EMaxC= 1.00D-01 BMatC= 5.07D-14 BMatP= 4.17D-12
 IDIUse=1 WtCom= 1.00D+00 WtEn= 0.00D+00
 Coeff-Com:  0.135D-04-0.276D-04 0.490D-04-0.315D-03 0.238D-02-0.889D-02
 Coeff-Com:  0.717D-01-0.217D+00 0.115D+01
 Coeff:      0.135D-04-0.276D-04 0.490D-04-0.315D-03 0.238D-02-0.889D-02
 Coeff:      0.717D-01-0.217D+00 0.115D+01
 Gap=     0.192 Goal=   None    Shift=    0.000
 Gap=     1.512 Goal=   None    Shift=    0.000
 RMSDP=8.81D-08 MaxDP=7.63D-07 DE=-1.15D-11 OVMax= 1.68D-08

 Cycle  10  Pass 1  IDiag  1:
 E= -162.304642299610     Delta-E=       -0.000000000000 Rises=F Damp=F
 DIIS: error= 9.94D-09 at cycle  10 NSaved=  10.
 NSaved=10 IEnMin=10 EnMin= -162.304642299610     IErMin=10 ErrMin= 9.94D-09
 ErrMax= 9.94D-09  0.00D+00 EMaxC= 1.00D-01 BMatC= 1.65D-15 BMatP= 5.07D-14
 IDIUse=1 WtCom= 1.00D+00 WtEn= 0.00D+00
 Coeff-Com: -0.101D-04 0.202D-04-0.345D-04 0.207D-03-0.106D-02 0.332D-02
 Coeff-Com: -0.238D-01 0.648D-01-0.415D+00 0.137D+01
 Coeff:     -0.101D-04 0.202D-04-0.345D-04 0.207D-03-0.106D-02 0.332D-02
 Coeff:     -0.238D-01 0.648D-01-0.415D+00 0.137D+01
 Gap=     0.192 Goal=   None    Shift=    0.000
 Gap=     1.512 Goal=   None    Shift=    0.000
 RMSDP=2.11D-08 MaxDP=2.60D-07 DE=-1.14D-13 OVMax= 3.35D-09

 Cycle  11  Pass 1  IDiag  1:
 E= -162.304642299610     Delta-E=        0.000000000000 Rises=F Damp=F
 DIIS: error= 1.65D-09 at cycle  11 NSaved=  11.
 NSaved=11 IEnMin=10 EnMin= -162.304642299610     IErMin=11 ErrMin= 1.65D-09
 ErrMax= 1.65D-09  0.00D+00 EMaxC= 1.00D-01 BMatC= 1.10D-16 BMatP= 1.65D-15
 IDIUse=1 WtCom= 1.00D+00 WtEn= 0.00D+00
 Coeff-Com: -0.500D-06 0.951D-06-0.251D-05 0.408D-04-0.225D-04 0.521D-04
 Coeff-Com:  0.434D-02-0.130D-01 0.140D+00-0.693D+00 0.156D+01
 Coeff:     -0.500D-06 0.951D-06-0.251D-05 0.408D-04-0.225D-04 0.521D-04
 Coeff:      0.434D-02-0.130D-01 0.140D+00-0.693D+00 0.156D+01
 Gap=     0.192 Goal=   None    Shift=    0.000
 Gap=     1.512 Goal=   None    Shift=    0.000
 RMSDP=4.89D-09 MaxDP=6.45D-08 DE= 5.68D-14 OVMax= 4.74D-10

 SCF Done:  E(UHF) =  -162.304642300     A.U. after   11 cycles
            NFock= 11  Conv=0.49D-08     -V/T= 1.9997
 <Sx>= 0.0000 <Sy>= 0.0000 <Sz>= 1.0000 <S**2>= 2.0000 S= 1.0000
 <L.S>= 0.000000000000E+00
 KE= 1.623609824194D+02 PE=-3.953452083360D+02 EE= 6.825418806699D+01
 Annihilation of the first spin contaminant:
 S**2 before annihilation     2.0000,   after     2.0000
 Leave Link  502 at Mon Mar 28 14:25:35 2022, MaxMem=  9663676416 cpu:               4.5 elap:               0.2
 (Enter /nopt/nrel/apps/gaussian/g16C_1/g16/l801.exe)
 Windowed orbitals will be sorted by symmetry type.
 ExpMin= 2.60D-02 ExpMax= 9.99D+03 ExpMxC= 1.50D+03 IAcc=3 IRadAn=         5 AccDes= 0.00D+00
 HarFok:  IExCor=  205 AccDes= 0.00D+00 IRadAn=         5 IDoV=-2 UseB2=F ITyADJ=14
 ICtDFT= 12500011 ScaDFX=  1.000000  1.000000  1.000000  1.000000
 Largest valence mixing into a core orbital is  9.12D-05
 Largest core mixing into a valence orbital is  7.05D-05
 Range of M.O.s used for correlation:     6    14
 NBasis=    14 NAE=     7 NBE=     5 NFC=     5 NFV=     0
 NROrb=      9 NOA=     2 NOB=     0 NVA=     7 NVB=     9
 Leave Link  801 at Mon Mar 28 14:25:35 2022, MaxMem=  9663676416 cpu:               1.6 elap:               0.1
 (Enter /nopt/nrel/apps/gaussian/g16C_1/g16/l804.exe)
 Open-shell transformation, MDV=  9663676416 ITran=4 ISComp=2.
 Unit  1 TFree=         14304 TCopy=        117557.
 Semi-Direct transformation.
 ModeAB=           2 MOrb=             2 LenV=    9663552382
 LASXX=          158 LTotXX=         158 LenRXX=         158
 LTotAB=         269 MaxLAS=        1890 LenRXY=        1890
 NonZer=        2214 LenScr=      785920 LnRSAI=           0
 LnScr1=           0 LExtra=      220944 Total=      1008912
 MaxDsk= 34359738368 SrtSym=           F ITran=            4
 DoSDTr:  NPSUse= 36
 JobTyp=1 Pass  1:  I=   1 to   2.
 (rs|ai) integrals will be sorted in core.
 Complete sort for first half transformation.
 First half transformation complete.
 Complete sort for second half transformation.
 Second half transformation complete.
 Spin components of T(2) and E(2):
     alpha-alpha T2 =       0.4485567347D-04 E2=     -0.4556928436D-04
     alpha-beta  T2 =       0.0000000000D+00 E2=      0.0000000000D+00
     beta-beta   T2 =       0.0000000000D+00 E2=      0.0000000000D+00
 ANorm=    0.1000022428D+01
 E2 =    -0.4556928436D-04 EUMP2 =    -0.16230468786889D+03
 Leave Link  804 at Mon Mar 28 14:25:36 2022, MaxMem=  9663676416 cpu:               2.6 elap:               0.1
 (Enter /nopt/nrel/apps/gaussian/g16C_1/g16/l913.exe)
 CIDS:  MDV=  9663676416.
 Frozen-core window:  NFC=   5 NFV=   0.
 IFCWin=0 IBDFC=1 NFBD=     0     0 NFCmp=     0     0 NFFFC=     0     0
 Using original routines for 1st iteration.
 Using DD4UQ or CC4UQ for 2nd and later iterations.
 Keep R2 and R3 ints in memory in symmetry-blocked form, NReq=7225308.
 FoFCou: FMM=F IPFlag=           0 FMFlag=           0 FMFlg1=           0
         NFxFlg=           0 DoJE=F BraDBF=F KetDBF=F FulRan=T
         wScrn=  0.000000 ICntrl=       600 IOpCl=  0 I1Cent=           0 NGrid=           0
         NMat0=    1 NMatS0=    105 NMatT0=    0 NMatD0=    1 NMtDS0=    0 NMtDT0=    0
 Petite list used in FoFCou.
 CIDS: In Core Option IDoMem=           1.
 Coupled Cluster theory with single and double substitutions
 ===========================================================
 Iterations= 200 Convergence= 0.100D-06
 Produce multiple copies of IABC intergrals
 Iteration Nr.   1
 **********************
 DD1Dir will call FoFMem   1 times, MxPair=         2
 NAB=     0 NAA=     1 NBB=     0.
 MP4(R+Q)=  0.20440409D-08
 Maximum subspace dimension=  5
 A-vector RMS=  7.3221666D-04 Max=  1.6567061D-03 conv= 1.00D-05.
 RLE energy=       -0.0000742006
 E3=       -0.17584860D-04        EUMP3=      -0.16230470545D+03
 E4(DQ)=   -0.68317383D-05        UMP4(DQ)=   -0.16230471229D+03
 E4(SDQ)=  -0.70317722D-05        UMP4(SDQ)=  -0.16230471249D+03
 VARIATIONAL ENERGIES WITH THE FIRST-ORDER WAVEFUNCTION:
 DE(Corr)= -0.63152800E-04 E(Corr)=     -162.30470545    
 NORM(A)=   0.10000601D+01
 Iteration Nr.   2
 **********************
 DD1Dir will call FoFMem   1 times, MxPair=         2
 NAB=     0 NAA=     1 NBB=     0.
 A-vector RMS=  1.3201235D-04 Max=  2.8670006D-04 conv= 1.00D-05.
 RLE energy=       -0.0000751268
 DE(Corr)= -0.74601984E-04 E(CORR)=     -162.30471690     Delta=-1.14D-05
 NORM(A)=   0.10000624D+01
 Iteration Nr.   3
 **********************
 DD1Dir will call FoFMem   1 times, MxPair=         2
 NAB=     0 NAA=     1 NBB=     0.
 A-vector RMS=  3.6344584D-05 Max=  9.6852241D-05 conv= 1.00D-05.
 RLE energy=       -0.0000751766
 DE(Corr)= -0.75127627E-04 E(CORR)=     -162.30471743     Delta=-5.26D-07
 NORM(A)=   0.10000627D+01
 Iteration Nr.   4
 **********************
 DD1Dir will call FoFMem   1 times, MxPair=         2
 NAB=     0 NAA=     1 NBB=     0.
 A-vector RMS=  4.3455524D-06 Max=  1.0964146D-05 conv= 1.00D-05.
 RLE energy=       -0.0000751765
 DE(Corr)= -0.75176274E-04 E(CORR)=     -162.30471748     Delta=-4.86D-08
 NORM(A)=   0.10000628D+01
 Iteration Nr.   5
 **********************
 DD1Dir will call FoFMem   1 times, MxPair=         2
 NAB=     0 NAA=     1 NBB=     0.
 A-vector RMS=  4.0981431D-07 Max=  9.5022133D-07 conv= 1.00D-05.
 RLE energy=       -0.0000751770
 DE(Corr)= -0.75176709E-04 E(CORR)=     -162.30471748     Delta=-4.36D-10
 NORM(A)=   0.10000628D+01
 CI/CC converged in    5 iterations to DelEn=-4.36D-10 Conv= 1.00D-07 ErrA1= 4.10D-07 Conv= 1.00D-05
 Wavefunction amplitudes converged. E(Corr)=     -162.30471748    
 Largest amplitude= 7.25D-03
 Discarding MO integrals.
 Leave Link  913 at Mon Mar 28 14:25:36 2022, MaxMem=  9663676416 cpu:               3.3 elap:               0.1
 (Enter /nopt/nrel/apps/gaussian/g16C_1/g16/l601.exe)
 Copying SCF densities to generalized density rwf, IOpCl= 1 IROHF=0.

 **********************************************************************

            Population analysis using the SCF Density.

 **********************************************************************

 Orbital symmetries:
 Alpha Orbitals:
       Occupied  (SG) (SG) (SG) (PI) (PI) (SG) (SG)
       Virtual   (PI) (PI) (SG) (SG) (PI) (PI) (SG)
 Beta  Orbitals:
       Occupied  (SG) (SG) (PI) (PI) (SG)
       Virtual   (SG) (PI) (PI) (SG) (SG) (SG) (PI) (PI) (SG)
 The electronic state is 3-SG.
 Alpha  occ. eigenvalues --  -40.49494  -2.80994  -1.52957  -1.52820  -1.52820
 Alpha  occ. eigenvalues --   -0.54697  -0.16458
 Alpha virt. eigenvalues --    0.02791   0.02791   0.07668   0.13466   0.19563
 Alpha virt. eigenvalues --    0.19563   0.22477
  Beta  occ. eigenvalues --  -40.49257  -2.80348  -1.52600  -1.52600  -1.52540
  Beta virt. eigenvalues --   -0.01306   0.05310   0.05310   0.05932   0.14758
  Beta virt. eigenvalues --    0.21291   0.22704   0.22704   0.38444
          Condensed to atoms (all electrons):
               1          2
     1  H    0.839673   0.057330
     2  Na   0.057330  11.045666
          Atomic-Atomic Spin Densities.
               1          2
     1  H    0.839670   0.057267
     2  Na   0.057267   1.045796
 Mulliken charges and spin densities:
               1          2
     1  H    0.102997   0.896937
     2  Na  -0.102997   1.103063
 Sum of Mulliken charges =  -0.00000   2.00000
 Mulliken charges and spin densities with hydrogens summed into heavy atoms:
               1          2
     2  Na  -0.000000   2.000000
 N-N= 2.425395550050D+00 E-N=-3.953452083770D+02  KE= 1.623609824194D+02
 Symmetry A1   KE= 1.388900633821D+02
 Symmetry A2   KE= 0.000000000000D+00
 Symmetry B1   KE= 1.173545951862D+01
 Symmetry B2   KE= 1.173545951862D+01
 Symmetry A1   SP= 2.000000000000D+00
 Symmetry A2   SP= 0.000000000000D+00
 Symmetry B1   SP=-6.046484807393D-16
 Symmetry B2   SP= 5.909554649691D-16

 Atomic contributions to Alpha molecular orbitals:
 Alpha occ 1 OE=-40.495 is Na2-s=1.0000
 Alpha occ 2 OE=-2.810 is Na2-s=0.9999
 Alpha occ 3 OE=-1.530 is Na2-p=0.9998
 Alpha occ 4 OE=-1.528 is Na2-p=1.0000
 Alpha occ 5 OE=-1.528 is Na2-p=1.0000
 Alpha occ 6 OE=-0.547 is H1-s=0.8808
 Alpha occ 7 OE=-0.165 is Na2-s=0.8497 Na2-p=0.1343
 Alpha vir 8 OE=0.028 is Na2-p=1.0000
 Alpha vir 9 OE=0.028 is Na2-p=1.0000
 Alpha vir 10 OE=0.077 is Na2-p=0.8042 Na2-s=0.1521
 Alpha vir 11 OE=0.135 is Na2-s=0.9135
 Alpha vir 12 OE=0.196 is Na2-p=1.0000
 Alpha vir 13 OE=0.196 is Na2-p=1.0000
 Alpha vir 14 OE=0.225 is Na2-p=0.9167

 Atomic contributions to Beta  molecular orbitals:
 Beta  occ 1 OE=-40.493 is Na2-s=1.0000
 Beta  occ 2 OE=-2.803 is Na2-s=0.9999
 Beta  occ 3 OE=-1.526 is Na2-p=1.0000
 Beta  occ 4 OE=-1.526 is Na2-p=1.0000
 Beta  occ 5 OE=-1.525 is Na2-p=0.9999
 Beta  vir 6 OE=-0.013 is Na2-s=0.6179 Na2-p=0.2582 H1-s=0.1239
 Beta  vir 7 OE=0.053 is Na2-p=1.0000
 Beta  vir 8 OE=0.053 is Na2-p=1.0000
 Beta  vir 9 OE=0.059 is Na2-p=0.6589 Na2-s=0.3229
 Beta  vir 10 OE=0.148 is Na2-s=0.6913 Na2-p=0.2267
 Beta  vir 11 OE=0.213 is Na2-p=0.5328 Na2-s=0.3483 H1-s=0.1189
 Beta  vir 12 OE=0.227 is Na2-p=1.0000
 Beta  vir 13 OE=0.227 is Na2-p=1.0000
 Beta  vir 14 OE=0.384 is H1-s=0.6569 Na2-p=0.3236
 
 Leave Link  601 at Mon Mar 28 14:25:36 2022, MaxMem=  9663676416 cpu:               3.6 elap:               0.2
 (Enter /nopt/nrel/apps/gaussian/g16C_1/g16/l9999.exe)

 Test job not archived.
 1\1\GINC-R102U34\SP\UCCSD-FC\Gen\H1Na1(3)\USER\28-Mar-2022\0\\#P C
 CSD(MaxCyc=200,SaveAmplitudes,ReadAmplitudes)/GEN sp pop=AllOrbitals i
 op(3/33=1,3/36=-1)\\test\\0,3\H,0,0.,0.,0.\Na,0,0.,0.,2.4\\Version=ES6
 4L-G16RevC.01\State=3-SG\HF=-162.3046423\MP2=-162.3046879\MP3=-162.304
 7055\MP4D=-162.3047123\MP4DQ=-162.3047123\MP4SDQ=-162.3047125\CCSD=-16
 2.3047175\S2=2.000036\S2-1=0.\S2A=2.\RMSD=4.894e-09\PG=C*V [C*(H1Na1)]
 \\@


 YOU SHOULDN'T LET PEOPLE DRIVE YOU CRAZY
 WHEN YOU KNOW IT'S WITHIN WALKING DISTANCE.
 Job cpu time:       0 days  0 hours  0 minutes 35.0 seconds.
 Elapsed time:       0 days  0 hours  0 minutes  1.4 seconds.
 File lengths (MBytes):  RWF=     13 Int=      0 D2E=      0 Chk=      1 Scr=      1
 Normal termination of Gaussian 16 at Mon Mar 28 14:25:36 2022.
