 Entering Gaussian System, Link 0=g16
 Initial command:
 /nopt/nrel/apps/gaussian/g16C_1/g16/l1.exe "/lustre/eaglefs/scratch/user/qc/tih-dissc-sto3g/tih-6-ccsd-1.6-631g/Gau-7646.inp" -scrdir="/lustre/eaglefs/scratch/user/qc/tih-dissc-sto3g/tih-6-ccsd-1.6-631g/"
 Default is to use a total of  36 processors:
                               36 via shared-memory
                                1 via Linda
 Entering Link 1 = /nopt/nrel/apps/gaussian/g16C_1/g16/l1.exe PID=      7647.
  
 Copyright (c) 1988-2019, Gaussian, Inc.  All Rights Reserved.
  
 This is part of the Gaussian(R) 16 program.  It is based on
 the Gaussian(R) 09 system (copyright 2009, Gaussian, Inc.),
 the Gaussian(R) 03 system (copyright 2003, Gaussian, Inc.),
 the Gaussian(R) 98 system (copyright 1998, Gaussian, Inc.),
 the Gaussian(R) 94 system (copyright 1995, Gaussian, Inc.),
 the Gaussian 92(TM) system (copyright 1992, Gaussian, Inc.),
 the Gaussian 90(TM) system (copyright 1990, Gaussian, Inc.),
 the Gaussian 88(TM) system (copyright 1988, Gaussian, Inc.),
 the Gaussian 86(TM) system (copyright 1986, Carnegie Mellon
 University), and the Gaussian 82(TM) system (copyright 1983,
 Carnegie Mellon University). Gaussian is a federally registered
 trademark of Gaussian, Inc.
  
 This software contains proprietary and confidential information,
 including trade secrets, belonging to Gaussian, Inc.
  
 This software is provided under written license and may be
 used, copied, transmitted, or stored only in accord with that
 written license.
  
 The following legend is applicable only to US Government
 contracts under FAR:
  
                    RESTRICTED RIGHTS LEGEND
  
 Use, reproduction and disclosure by the US Government is
 subject to restrictions as set forth in subparagraphs (a)
 and (c) of the Commercial Computer Software - Restricted
 Rights clause in FAR 52.227-19.
  
 Gaussian, Inc.
 340 Quinnipiac St., Bldg. 40, Wallingford CT 06492
  
  
 ---------------------------------------------------------------
 Warning -- This program may not be used in any manner that
 competes with the business of Gaussian, Inc. or will provide
 assistance to any competitor of Gaussian, Inc.  The licensee
 of this program is prohibited from giving any competitor of
 Gaussian, Inc. access to this program.  By using this program,
 the user acknowledges that Gaussian, Inc. is engaged in the
 business of creating and licensing software in the field of
 computational chemistry and represents and warrants to the
 licensee that it is not a competitor of Gaussian, Inc. and that
 it will not use this program in any manner prohibited above.
 ---------------------------------------------------------------
  

 Cite this work as:
 Gaussian 16, Revision C.01,
 M. J. Frisch, G. W. Trucks, H. B. Schlegel, G. E. Scuseria, 
 M. A. Robb, J. R. Cheeseman, G. Scalmani, V. Barone, 
 G. A. Petersson, H. Nakatsuji, X. Li, M. Caricato, A. V. Marenich, 
 J. Bloino, B. G. Janesko, R. Gomperts, B. Mennucci, H. P. Hratchian, 
 J. V. Ortiz, A. F. Izmaylov, J. L. Sonnenberg, D. Williams-Young, 
 F. Ding, F. Lipparini, F. Egidi, J. Goings, B. Peng, A. Petrone, 
 T. Henderson, D. Ranasinghe, V. G. Zakrzewski, J. Gao, N. Rega, 
 G. Zheng, W. Liang, M. Hada, M. Ehara, K. Toyota, R. Fukuda, 
 J. Hasegawa, M. Ishida, T. Nakajima, Y. Honda, O. Kitao, H. Nakai, 
 T. Vreven, K. Throssell, J. A. Montgomery, Jr., J. E. Peralta, 
 F. Ogliaro, M. J. Bearpark, J. J. Heyd, E. N. Brothers, K. N. Kudin, 
 V. N. Staroverov, T. A. Keith, R. Kobayashi, J. Normand, 
 K. Raghavachari, A. P. Rendell, J. C. Burant, S. S. Iyengar, 
 J. Tomasi, M. Cossi, J. M. Millam, M. Klene, C. Adamo, R. Cammi, 
 J. W. Ochterski, R. L. Martin, K. Morokuma, O. Farkas, 
 J. B. Foresman, and D. J. Fox, Gaussian, Inc., Wallingford CT, 2019.
 
 ******************************************
 Gaussian 16:  ES64L-G16RevC.01  3-Jul-2019
                28-Mar-2022 
 ******************************************
 %chk=molecule
 Default route: CacheSize=180224 MaxDisk=256GB
 ----------------------------------------------------------------------
 #P CCSD(MaxCyc=300,SaveAmplitudes,ReadAmplitudes)/GEN sp pop=AllOrbita
 ls iop(3/33=1,3/36=-1)
 ----------------------------------------------------------------------
 1/4=180224,38=1,172=1/1;
 2/4=180224,12=2,17=6,18=5,40=1/2;
 3/4=180224,5=7,11=9,25=1,30=1,33=1,36=-1/1,2,3;
 4/4=180224/1;
 5/4=180224,5=2,38=5/2;
 8/4=180224,6=4,9=120000,10=1,24=1/1,4;
 9/4=180224,5=7,6=300,77=1/13;
 6/4=180224,7=2,8=2,9=2,10=2,96=-1/1;
 99/4=180224,5=1,9=1/99;
 Leave Link    1 at Mon Mar 28 12:47:41 2022, MaxMem=           0 cpu:               2.8 elap:               0.1
 (Enter /nopt/nrel/apps/gaussian/g16C_1/g16/l101.exe)
 ----
 test
 ----
 Symbolic Z-matrix:
 Charge =  0 Multiplicity = 6
 H                     0.        0.        0. 
 Ti                    0.        0.        1.6 
 
 ITRead=  0  0
 MicOpt= -1 -1
 NAtoms=      2 NQM=        2 NQMF=       0 NMMI=      0 NMMIF=      0
                NMic=       0 NMicF=      0.
                    Isotopes and Nuclear Properties:
 (Nuclear quadrupole moments (NQMom) in fm**2, nuclear magnetic moments (NMagM)
  in nuclear magnetons)

  Atom         1           2
 IAtWgt=           1          48
 AtmWgt=   1.0078250  47.9479467
 NucSpn=           1           0
 AtZEff=  -0.0000000  -0.0000000
 NQMom=    0.0000000   0.0000000
 NMagM=    2.7928460   0.0000000
 AtZNuc=   1.0000000  22.0000000
 Leave Link  101 at Mon Mar 28 12:47:42 2022, MaxMem=  9663676416 cpu:               2.9 elap:               0.1
 (Enter /nopt/nrel/apps/gaussian/g16C_1/g16/l202.exe)
                          Input orientation:                          
 ---------------------------------------------------------------------
 Center     Atomic      Atomic             Coordinates (Angstroms)
 Number     Number       Type             X           Y           Z
 ---------------------------------------------------------------------
      1          1           0        0.000000    0.000000    0.000000
      2         22           0        0.000000    0.000000    1.600000
 ---------------------------------------------------------------------
 Stoichiometry    HTi(6)
 Framework group  C*V[C*(HTi)]
 Deg. of freedom     1
 Full point group                 C*V     NOp   4
 Largest Abelian subgroup         C2V     NOp   4
 Largest concise Abelian subgroup C1      NOp   1
                         Standard orientation:                         
 ---------------------------------------------------------------------
 Center     Atomic      Atomic             Coordinates (Angstroms)
 Number     Number       Type             X           Y           Z
 ---------------------------------------------------------------------
      1          1           0        0.000000    0.000000   -1.530435
      2         22           0        0.000000    0.000000    0.069565
 ---------------------------------------------------------------------
 Rotational constants (GHZ):           0.0000000         199.9981500         199.9981500
 Leave Link  202 at Mon Mar 28 12:47:42 2022, MaxMem=  9663676416 cpu:               1.0 elap:               0.1
 (Enter /nopt/nrel/apps/gaussian/g16C_1/g16/l301.exe)
 General basis read from cards:  (5D, 7F)
                         Coordinates in L301:                         
 ---------------------------------------------------------------------
 Center     Atomic      Atomic             Coordinates (Angstroms)
 Number     Number       Type             X           Y           Z
 ---------------------------------------------------------------------
      1          1           0        0.000000    0.000000   -1.530435
      2         22           0        0.000000    0.000000    0.069565
 ---------------------------------------------------------------------
 Centers:       1
 STO-3G
 ****
 Centers:       2
 6-31G
 ****
 FixB: optimizing general contractions.
 Ernie: Thresh=  0.10000D-02 Tol=  0.10000D-05 Strict=F.
 IA=     1 ShT= 0 ShC= 0 NL=   1 NS=   0.
 IA=     1 L=0 SC=0 ISt=    0 NBk=    0 NP=    0 IndPr=    0.
 IA=     2 ShT= 0 ShC= 0 NL=   1 NS=   0.
 IA=     2 L=0 SC=0 ISt=    0 NBk=    0 NP=    0 IndPr=    0.
 IA=     2 ShT= 1 ShC= 0 NL=   4 NS=   1.
 IA=     2 L=1 SC=0 ISt=    1 NBk=    3 NP=   15 IndPr=    0.
 DoElim1:  L=1 select primitive    1 from    2 using    1 C= 2.43D-03
 DoElim1:  L=1 select primitive    1 from    3 using    1 C= 2.43D-03
 DoElim1:  L=1 select primitive    4 from    3 using    2 C=-2.94D-03
 DoElim2:  L=1 select primitive   15 from    2 using    3 C=-1.16D+00
 DoElim2:  L=1 select primitive   15 from    1 using    3 C=-1.16D+00
 DoElim2:  L=1 select primitive   12 from    1 using    2 C=-7.43D-01
 DoElim1:  L=1 select primitive    1 from    2 using    1 C= 4.02D-03
 DoElim1:  L=1 select primitive    1 from    3 using    1 C= 4.02D-03
 DoElim1:  L=1 select primitive    4 from    3 using    2 C=-6.31D-03
 DoElim2:  L=1 select primitive   15 from    2 using    3 C= 9.90D-01
 DoElim2:  L=1 select primitive   15 from    1 using    3 C= 9.90D-01
 DoElim2:  L=1 select primitive   12 from    1 using    2 C= 5.13D-01
 Delete L=1 primitive   14 from    3 C=  0.00D+00.
 Delete L=1 primitive   12 from    3 C=  0.00D+00.
 Delete L=1 primitive   10 from    3 C=  0.00D+00.
 Delete L=1 primitive    9 from    3 C=  0.00D+00.
 Delete L=1 primitive    8 from    3 C=  0.00D+00.
 Delete L=1 primitive    7 from    3 C=  0.00D+00.
 Delete L=1 primitive    6 from    3 C=  0.00D+00.
 Delete L=1 primitive    5 from    3 C=  0.00D+00.
 Delete L=1 primitive    4 from    3 C=  0.00D+00.
 Delete L=1 primitive    3 from    3 C=  0.00D+00.
 Delete L=1 primitive    2 from    3 C=  0.00D+00.
 Delete L=1 primitive    1 from    3 C=  0.00D+00.
 Delete L=1 primitive   15 from    2 C=  0.00D+00.
 Delete L=1 primitive   13 from    2 C=  0.00D+00.
 Delete L=1 primitive   11 from    2 C=  0.00D+00.
 Delete L=1 primitive    9 from    2 C=  0.00D+00.
 Delete L=1 primitive    7 from    2 C=  0.00D+00.
 Delete L=1 primitive    5 from    2 C=  0.00D+00.
 Delete L=1 primitive    3 from    2 C=  0.00D+00.
 Delete L=1 primitive    2 from    2 C=  0.00D+00.
 Delete L=1 primitive    1 from    2 C=  0.00D+00.
 Delete L=1 primitive   15 from    1 C=  0.00D+00.
 Delete L=1 primitive   14 from    1 C=  0.00D+00.
 Delete L=1 primitive   13 from    1 C=  0.00D+00.
 Delete L=1 primitive   12 from    1 C=  0.00D+00.
 Delete L=1 primitive   11 from    1 C=  0.00D+00.
 Delete L=1 primitive   10 from    1 C=  0.00D+00.
 Delete L=1 primitive    8 from    1 C=  0.00D+00.
 Delete L=1 primitive    6 from    1 C=  0.00D+00.
 Delete L=1 primitive    4 from    1 C=  0.00D+00.
 IA=     2 L=1 SC=0 ISt=    0 NBk=    0 NP=    0 IndPr=   15.
 IA=     2 ShT= 2 ShC= 2 NL=   2 NS=   1.
 IA=     2 L=2 SC=2 ISt=    0 NBk=    0 NP=    0 IndPr=    0.
 LdAtmC:  AtmChg=     1.000000    22.000000
 AtZEff=     -1.0000000    -23.9800000
 NEqShl: 
              1            2            3            4
     1            1            1            1            1
     2            2            2            2            2
     3            3            3            3            3
     4            4            4            4            4
     5            5            5            5            5
     6            6            6            6            6
     7            7            7            7            7
     8            8            8            8            8
 NEqBas: 
              1            2            3            4
     1            1            1            1            1
     2            2            2            2            2
     3            3            3            3            3
     4            4           -4           -4            4
     5            5           -5            5           -5
     6            6            6            6            6
     7            7            7            7            7
     8            8           -8           -8            8
     9            9           -9            9           -9
    10           10           10           10           10
    11           11           11           11           11
    12           12          -12          -12           12
    13           13          -13           13          -13
    14           14           14           14           14
    15           15           15           15           15
    16           16          -16          -16           16
    17           17          -17           17          -17
    18           18           18           18           18
    19           19           19           19           19
    20           20           20           20           20
    21           21           21           21           21
    22           22           22          -22          -22
    23           23          -23          -23           23
    24           24          -24           24          -24
    25           25           25           25           25
    26           26           26           26           26
    27           27           27           27           27
    28           28           28          -28          -28
    29           29          -29          -29           29
    30           30          -30           30          -30
 There are    16 symmetry adapted cartesian basis functions of A1  symmetry.
   1         1   1   1   1
   2         2   2   2   2
   3         3   3   3   3
   4         6   6   6   6
   5         7   7   7   7
   6        10  10  10  10
   7        11  11  11  11
   8        14  14  14  14
   9        15  15  15  15
  10        18  18  18  18
  11        19  19  19  19
  12        20  20  20  20
  13        21  21  21  21
  14        25  25  25  25
  15        26  26  26  26
  16        27  27  27  27
 There are     2 symmetry adapted cartesian basis functions of A2  symmetry.
  17        22  22  22  22
  18        28  28  28  28
 There are     6 symmetry adapted cartesian basis functions of B1  symmetry.
  19         4   4   4   4
  20         8   8   8   8
  21        12  12  12  12
  22        16  16  16  16
  23        23  23  23  23
  24        29  29  29  29
 There are     6 symmetry adapted cartesian basis functions of B2  symmetry.
  25         5   5   5   5
  26         9   9   9   9
  27        13  13  13  13
  28        17  17  17  17
  29        24  24  24  24
  30        30  30  30  30
 Order= 1 2 4 3
 Reordered character table:
              1            2            3            4            5
     1            1            1            1            1            1
     2            2            1            1           -1           -1
     3            4            1           -1           -1            1
     4            3            1           -1            1           -1
 NEqShl: 
              1            2            3            4
     1            1            1            1            1
     2            2            2            2            2
     3            3            3            3            3
     4            4            4            4            4
     5            5            5            5            5
     6            6            6            6            6
     7            7            7            7            7
     8            8            8            8            8
 NEqBas: 
              1            2            3            4
     1            1            1            1            1
     2            2            2            2            2
     3            3            3            3            3
     4            4           -4           -4            4
     5            5           -5            5           -5
     6            6            6            6            6
     7            7            7            7            7
     8            8           -8           -8            8
     9            9           -9            9           -9
    10           10           10           10           10
    11           11           11           11           11
    12           12          -12          -12           12
    13           13          -13           13          -13
    14           14           14           14           14
    15           15           15           15           15
    16           16          -16          -16           16
    17           17          -17           17          -17
    18           18           18           18           18
    19           19           19           19           19
    20           20          -20          -20           20
    21           21          -21           21          -21
    22           22           22           22           22
    23           23           23          -23          -23
    24           24           24           24           24
    25           25          -25          -25           25
    26           26          -26           26          -26
    27           27           27           27           27
    28           28           28          -28          -28
 There are    14 symmetry adapted basis functions of A1  symmetry.
   1         1   1   1   1
   2         2   2   2   2
   3         3   3   3   3
   4         6   6   6   6
   5         7   7   7   7
   6        10  10  10  10
   7        11  11  11  11
   8        14  14  14  14
   9        15  15  15  15
  10        18  18  18  18
  11        19  19  19  19
  12        22  22  22  22
  13        24  24  24  24
  14        27  27  27  27
 There are     2 symmetry adapted basis functions of A2  symmetry.
  15        23  23  23  23
  16        28  28  28  28
 There are     6 symmetry adapted basis functions of B1  symmetry.
  17         4   4   4   4
  18         8   8   8   8
  19        12  12  12  12
  20        16  16  16  16
  21        20  20  20  20
  22        25  25  25  25
 There are     6 symmetry adapted basis functions of B2  symmetry.
  23         5   5   5   5
  24         9   9   9   9
  25        13  13  13  13
  26        17  17  17  17
  27        21  21  21  21
  28        26  26  26  26
 Order= 1 2 4 3
 Reordered character table:
              1            2            3            4            5
     1            1            1            1            1            1
     2            2            1            1           -1           -1
     3            4            1           -1           -1            1
     4            3            1           -1            1           -1
    28 basis functions,    97 primitive gaussians,    30 cartesian basis functions
    14 alpha electrons        9 beta electrons
       nuclear repulsion energy         7.2761866502 Hartrees.
 IS=     1 IAt=     1 ISR=     1 T=0 IP=      1 IndIP=      1 IndIPD=      0 C=  2.769344D-01  0.000000D+00                             NZ=T
 IS=     1 IAt=     1 ISR=     1 T=0 IP=      2 IndIP=      2 IndIPD=      1 C=  2.678389D-01  0.000000D+00                             NZ=T
 IS=     1 IAt=     1 ISR=     1 T=0 IP=      3 IndIP=      3 IndIPD=      2 C=  8.347367D-02  0.000000D+00                             NZ=T
 IS=     2 IAt=     2 ISR=     1 T=0 IP=      1 IndIP=      4 IndIPD=      0 C=  3.823622D+00  0.000000D+00                             NZ=T
 IS=     2 IAt=     2 ISR=     1 T=0 IP=      2 IndIP=      5 IndIPD=      1 C=  7.063955D+00  0.000000D+00                             NZ=T
 IS=     2 IAt=     2 ISR=     1 T=0 IP=      3 IndIP=      6 IndIPD=      2 C=  1.147576D+01  0.000000D+00                             NZ=T
 IS=     2 IAt=     2 ISR=     1 T=0 IP=      4 IndIP=      7 IndIPD=      3 C=  1.533813D+01  0.000000D+00                             NZ=T
 IS=     2 IAt=     2 ISR=     1 T=0 IP=      5 IndIP=      8 IndIPD=      4 C=  1.342790D+01  0.000000D+00                             NZ=T
 IS=     2 IAt=     2 ISR=     1 T=0 IP=      6 IndIP=      9 IndIPD=      5 C=  4.306715D+00  0.000000D+00                             NZ=T
 IS=     3 IAt=     2 ISR=     2 T=1 IP=      1 IndIP=     10 IndIPD=      0 C=  2.786662D-01  2.724134D+01                             NZ=T
 IS=     3 IAt=     2 ISR=     2 T=1 IP=      2 IndIP=     11 IndIPD=      1 C=  1.261924D+00  3.505718D+01                             NZ=T
 IS=     3 IAt=     2 ISR=     2 T=1 IP=      3 IndIP=     12 IndIPD=      2 C=  2.071008D+00  3.677821D+01                             NZ=T
 IS=     3 IAt=     2 ISR=     2 T=1 IP=      4 IndIP=     13 IndIPD=      3 C= -3.098929D-01  2.717167D+01                             NZ=T
 IS=     3 IAt=     2 ISR=     2 T=1 IP=      5 IndIP=     14 IndIPD=      4 C= -2.467696D+00  1.167904D+01                             NZ=T
 IS=     3 IAt=     2 ISR=     2 T=1 IP=      6 IndIP=     15 IndIPD=      5 C= -9.124724D-01  1.772051D+00                             NZ=T
 IS=     4 IAt=     2 ISR=     3 T=1 IP=      1 IndIP=     16 IndIPD=      0 C= -2.927436D-02 -7.289697D-01                             NZ=T
 IS=     4 IAt=     2 ISR=     3 T=1 IP=      2 IndIP=     17 IndIPD=      1 C=  3.057403D-01 -7.594388D-01                             NZ=T
 IS=     4 IAt=     2 ISR=     3 T=1 IP=      3 IndIP=     18 IndIPD=      2 C=  5.687287D-01  5.144727D-01                             NZ=T
 IS=     4 IAt=     2 ISR=     3 T=1 IP=      4 IndIP=     19 IndIPD=      3 C= -3.488887D-01  1.263214D+00                             NZ=T
 IS=     4 IAt=     2 ISR=     3 T=1 IP=      5 IndIP=     20 IndIPD=      4 C= -4.520346D-01  5.611750D-01                             NZ=T
 IS=     4 IAt=     2 ISR=     3 T=1 IP=      6 IndIP=     21 IndIPD=      5 C= -5.626677D-02  6.224893D-02                             NZ=T
 IS=     5 IAt=     2 ISR=     4 T=1 IP=      1 IndIP=     22 IndIPD=      0 C=  5.268162D-02 -3.876509D-01                             NZ=T
 IS=     5 IAt=     2 ISR=     4 T=1 IP=      2 IndIP=     23 IndIPD=      1 C=  1.303842D-01  4.475323D-02                             NZ=T
 IS=     5 IAt=     2 ISR=     4 T=1 IP=      3 IndIP=     24 IndIPD=      2 C= -1.293957D-01  6.389489D-02                             NZ=T
 IS=     6 IAt=     2 ISR=     5 T=1 IP=      1 IndIP=     25 IndIPD=      0 C=  5.396831D-02  1.931915D-02                             NZ=T
 IS=     7 IAt=     2 ISR=     6 T=2 IP=      1 IndIP=     26 IndIPD=      1 C=  0.000000D+00  0.000000D+00  1.377610D+01  0.000000D+00 NZ=T
 IS=     7 IAt=     2 ISR=     6 T=2 IP=      2 IndIP=     27 IndIPD=      2 C=  0.000000D+00  0.000000D+00  5.615749D+00  0.000000D+00 NZ=T
 IS=     7 IAt=     2 ISR=     6 T=2 IP=      3 IndIP=     28 IndIPD=      3 C=  0.000000D+00  0.000000D+00  1.263348D+00  0.000000D+00 NZ=T
 IS=     8 IAt=     2 ISR=     7 T=2 IP=      1 IndIP=     29 IndIPD=      4 C=  0.000000D+00  0.000000D+00  1.851834D-01  0.000000D+00 NZ=T
 IExCor=    0 DFT=F Ex=HF Corr=None ExCW=0 ScaHFX=  1.000000
 ScaDFX=  1.000000  1.000000  1.000000  1.000000 ScalE2=  1.000000  1.000000
 IRadAn=      5 IRanWt=     -1 IRanGd=            0 ICorTp=0 IEmpDi=  4
 NAtoms=    2 NActive=    2 NUniq=    2 SFac= 1.00D+00 NAtFMM=   60 NAOKFM=F Big=F
 Integral buffers will be    131072 words long.
 Raffenetti 2 integral format.
 Two-electron integral symmetry is turned on.
 Leave Link  301 at Mon Mar 28 12:47:42 2022, MaxMem=  9663676416 cpu:               2.0 elap:               0.1
 (Enter /nopt/nrel/apps/gaussian/g16C_1/g16/l302.exe)
 NPDir=0 NMtPBC=     1 NCelOv=     1 NCel=       1 NClECP=     1 NCelD=      1
         NCelK=      1 NCelE2=     1 NClLst=     1 CellRange=     0.0.
 One-electron integrals computed using PRISM.
 One-electron integral symmetry used in STVInt
 Entering OneElI...
 Calculate overlap and kinetic energy integrals
    NBasis =  28  MinDer = 0  MaxDer = 0
 Requested accuracy = 0.1000D-12
 Symmetry will be used
 PrmmSu-InSpLW:  IPartL=    0 NPrtUS=   36 NPrtUL=    1 DoSpLW=F IThBeg=    0 IThEnd=   35 NThAct=   36.
 PrSmSu:  IncTry=   512 NBBP=             36 NTPThr=   100 NPartT=   36 Incr=           1 LDynOK=F GPUOK=F.
 PrsmSu:  NPrtUS=  36 ThrOK=T IAlg=1 LenDen=           0 ISkipM=0 DoSpLW=F IThBeg=    0 IThEnd=   35.
 Prism:   IPart=     0 DynPar=F LinDyn=F Incr=           1.
 PRISM was handed   268429120 working-precision words and    36 shell-pairs
 PRISM was handed   268429120 working-precision words and    36 shell-pairs
 PRISM was handed   268429120 working-precision words and    36 shell-pairs
 PRISM was handed   268429120 working-precision words and    36 shell-pairs
 PRISM was handed   268429120 working-precision words and    36 shell-pairs
 PRISM was handed   268429120 working-precision words and    36 shell-pairs
 PRISM was handed   268429120 working-precision words and    36 shell-pairs
 PRISM was handed   268429120 working-precision words and    36 shell-pairs
 PRISM was handed   268429120 working-precision words and    36 shell-pairs
 PRISM was handed   268429120 working-precision words and    36 shell-pairs
 PRISM was handed   268429120 working-precision words and    36 shell-pairs
 IPart= 11 NShTot=           0 NBatch=           0 AvBLen=         0.0
 IPart=  8 NShTot=           0 NBatch=           0 AvBLen=         0.0
 PRISM was handed   268429120 working-precision words and    36 shell-pairs
 IPart= 29 NShTot=           0 NBatch=           0 AvBLen=         0.0
 PRISM was handed   268429120 working-precision words and    36 shell-pairs
 IPart= 14 NShTot=           0 NBatch=           0 AvBLen=         0.0
 IPart= 17 NShTot=           0 NBatch=           0 AvBLen=         0.0
 IPart= 32 NShTot=           0 NBatch=           0 AvBLen=         0.0
 PRISM was handed   268429120 working-precision words and    36 shell-pairs
 PRISM was handed   268429120 working-precision words and    36 shell-pairs
 PRISM was handed   268429120 working-precision words and    36 shell-pairs
 PRISM was handed   268429120 working-precision words and    36 shell-pairs
 IPart=  9 NShTot=           0 NBatch=           0 AvBLen=         0.0
 IPart= 18 NShTot=           0 NBatch=           0 AvBLen=         0.0
 IPart= 35 NShTot=           0 NBatch=           0 AvBLen=         0.0
 IPart= 23 NShTot=           0 NBatch=           0 AvBLen=         0.0
 IPart= 12 NShTot=           0 NBatch=           0 AvBLen=         0.0
 IPart= 22 NShTot=           0 NBatch=           0 AvBLen=         0.0
 IPart= 28 NShTot=           0 NBatch=           0 AvBLen=         0.0
 IPart= 15 NShTot=           0 NBatch=           0 AvBLen=         0.0
 IPart= 24 NShTot=           0 NBatch=           0 AvBLen=         0.0
 PRISM was handed   268429120 working-precision words and    36 shell-pairs
 PRISM was handed   268429120 working-precision words and    36 shell-pairs
 PRISM was handed   268429120 working-precision words and    36 shell-pairs
 PRISM was handed   268429120 working-precision words and    36 shell-pairs
 PRISM was handed   268429120 working-precision words and    36 shell-pairs
 PRISM was handed   268429120 working-precision words and    36 shell-pairs
 IPart=  2 NShTot=           2 NBatch=           2 AvBLen=         1.0
 IPart= 33 NShTot=           0 NBatch=           0 AvBLen=         0.0
 IPart=  3 NShTot=           0 NBatch=           0 AvBLen=         0.0
 PRISM was handed   268429120 working-precision words and    36 shell-pairs
 PRISM was handed   268429120 working-precision words and    36 shell-pairs
 PRISM was handed   268429120 working-precision words and    36 shell-pairs
 PRISM was handed   268429120 working-precision words and    36 shell-pairs
 PRISM was handed   268429120 working-precision words and    36 shell-pairs
 PRISM was handed   268429120 working-precision words and    36 shell-pairs
 IPart=  7 NShTot=           0 NBatch=           0 AvBLen=         0.0
 IPart= 25 NShTot=           0 NBatch=           0 AvBLen=         0.0
 IPart= 19 NShTot=           0 NBatch=           0 AvBLen=         0.0
 IPart=  6 NShTot=           0 NBatch=           0 AvBLen=         0.0
 PRISM was handed   268429120 working-precision words and    36 shell-pairs
 PRISM was handed   268429120 working-precision words and    36 shell-pairs
 IPart= 26 NShTot=           0 NBatch=           0 AvBLen=         0.0
 IPart=  4 NShTot=           0 NBatch=           0 AvBLen=         0.0
 IPart= 13 NShTot=           0 NBatch=           0 AvBLen=         0.0
 IPart= 10 NShTot=           0 NBatch=           0 AvBLen=         0.0
 IPart= 21 NShTot=           0 NBatch=           0 AvBLen=         0.0
 IPart= 30 NShTot=           0 NBatch=           0 AvBLen=         0.0
 PRISM was handed   268429120 working-precision words and    36 shell-pairs
 PRISM was handed   268429120 working-precision words and    36 shell-pairs
 PRISM was handed   268429120 working-precision words and    36 shell-pairs
 PRISM was handed   268429120 working-precision words and    36 shell-pairs
 PRISM was handed   268429120 working-precision words and    36 shell-pairs
 IPart= 31 NShTot=           0 NBatch=           0 AvBLen=         0.0
 IPart=  0 NShTot=          26 NBatch=          26 AvBLen=         1.0
 IPart= 34 NShTot=           0 NBatch=           0 AvBLen=         0.0
 IPart= 20 NShTot=           0 NBatch=           0 AvBLen=         0.0
 IPart= 16 NShTot=           0 NBatch=           0 AvBLen=         0.0
 IPart=  5 NShTot=           0 NBatch=           0 AvBLen=         0.0
 IPart= 27 NShTot=           0 NBatch=           0 AvBLen=         0.0
 IPart=  1 NShTot=           8 NBatch=           8 AvBLen=         1.0
 PrSmSu:  NxtVal=             37.
 *** Overlap *** 
                1             2             3             4             5 
      1  0.100000D+01
      2  0.260318D-02  0.100000D+01
      3 -0.201264D-01 -0.274497D+00  0.100000D+01
      4  0.000000D+00  0.000000D+00  0.000000D+00  0.100000D+01
      5  0.000000D+00  0.000000D+00  0.000000D+00  0.000000D+00  0.100000D+01
      6 -0.621080D-02  0.000000D+00  0.000000D+00  0.000000D+00  0.000000D+00
      7 -0.125595D+00 -0.126254D-01  0.358999D+00  0.000000D+00  0.000000D+00
      8  0.000000D+00  0.000000D+00  0.000000D+00  0.323756D+00  0.000000D+00
      9  0.000000D+00  0.000000D+00  0.000000D+00  0.000000D+00  0.323756D+00
     10 -0.145316D+00  0.000000D+00  0.000000D+00  0.000000D+00  0.000000D+00
     11 -0.406407D+00  0.708216D-02 -0.284985D-01  0.000000D+00  0.000000D+00
     12  0.000000D+00  0.000000D+00  0.000000D+00 -0.418224D-01  0.000000D+00
     13  0.000000D+00  0.000000D+00  0.000000D+00  0.000000D+00 -0.418224D-01
     14 -0.521981D+00  0.000000D+00  0.000000D+00  0.000000D+00  0.000000D+00
     15  0.342158D+00  0.748293D-02 -0.560115D-01  0.000000D+00  0.000000D+00
     16  0.000000D+00  0.000000D+00  0.000000D+00  0.532285D-02  0.000000D+00
     17  0.000000D+00  0.000000D+00  0.000000D+00  0.000000D+00  0.532285D-02
     18 -0.326583D+00  0.000000D+00  0.000000D+00  0.000000D+00  0.000000D+00
     19  0.568137D-01  0.000000D+00  0.000000D+00  0.000000D+00  0.000000D+00
     20  0.000000D+00  0.000000D+00  0.000000D+00  0.000000D+00  0.000000D+00
     21  0.000000D+00  0.000000D+00  0.000000D+00  0.000000D+00  0.000000D+00
     22  0.000000D+00  0.000000D+00  0.000000D+00  0.000000D+00  0.000000D+00
     23  0.000000D+00  0.000000D+00  0.000000D+00  0.000000D+00  0.000000D+00
     24  0.386330D+00  0.000000D+00  0.000000D+00  0.000000D+00  0.000000D+00
     25  0.000000D+00  0.000000D+00  0.000000D+00  0.000000D+00  0.000000D+00
     26  0.000000D+00  0.000000D+00  0.000000D+00  0.000000D+00  0.000000D+00
     27  0.000000D+00  0.000000D+00  0.000000D+00  0.000000D+00  0.000000D+00
     28  0.000000D+00  0.000000D+00  0.000000D+00  0.000000D+00  0.000000D+00
                6             7             8             9            10 
      6  0.100000D+01
      7  0.000000D+00  0.100000D+01
      8  0.000000D+00  0.000000D+00  0.100000D+01
      9  0.000000D+00  0.000000D+00  0.000000D+00  0.100000D+01
     10  0.323756D+00  0.000000D+00  0.000000D+00  0.000000D+00  0.100000D+01
     11  0.000000D+00  0.220325D+00  0.000000D+00  0.000000D+00  0.000000D+00
     12  0.000000D+00  0.000000D+00  0.139925D+00  0.000000D+00  0.000000D+00
     13  0.000000D+00  0.000000D+00  0.000000D+00  0.139925D+00  0.000000D+00
     14 -0.418224D-01  0.000000D+00  0.000000D+00  0.000000D+00  0.139925D+00
     15  0.000000D+00 -0.274846D+00  0.000000D+00  0.000000D+00  0.000000D+00
     16  0.000000D+00  0.000000D+00  0.104615D+00  0.000000D+00  0.000000D+00
     17  0.000000D+00  0.000000D+00  0.000000D+00  0.104615D+00  0.000000D+00
     18  0.532285D-02  0.000000D+00  0.000000D+00  0.000000D+00  0.104615D+00
     19  0.000000D+00  0.000000D+00  0.000000D+00  0.000000D+00  0.000000D+00
     20  0.000000D+00  0.000000D+00  0.000000D+00  0.000000D+00  0.000000D+00
     21  0.000000D+00  0.000000D+00  0.000000D+00  0.000000D+00  0.000000D+00
     22  0.000000D+00  0.000000D+00  0.000000D+00  0.000000D+00  0.000000D+00
     23  0.000000D+00  0.000000D+00  0.000000D+00  0.000000D+00  0.000000D+00
     24  0.000000D+00  0.000000D+00  0.000000D+00  0.000000D+00  0.000000D+00
     25  0.000000D+00  0.000000D+00  0.000000D+00  0.000000D+00  0.000000D+00
     26  0.000000D+00  0.000000D+00  0.000000D+00  0.000000D+00  0.000000D+00
     27  0.000000D+00  0.000000D+00  0.000000D+00  0.000000D+00  0.000000D+00
     28  0.000000D+00  0.000000D+00  0.000000D+00  0.000000D+00  0.000000D+00
               11            12            13            14            15 
     11  0.100000D+01
     12  0.000000D+00  0.100000D+01
     13  0.000000D+00  0.000000D+00  0.100000D+01
     14  0.000000D+00  0.000000D+00  0.000000D+00  0.100000D+01
     15 -0.865690D+00  0.000000D+00  0.000000D+00  0.000000D+00  0.100000D+01
     16  0.000000D+00  0.748550D+00  0.000000D+00  0.000000D+00  0.000000D+00
     17  0.000000D+00  0.000000D+00  0.748550D+00  0.000000D+00  0.000000D+00
     18  0.000000D+00  0.000000D+00  0.000000D+00  0.748550D+00  0.000000D+00
     19  0.000000D+00  0.000000D+00  0.000000D+00  0.000000D+00  0.000000D+00
     20  0.000000D+00  0.000000D+00  0.000000D+00  0.000000D+00  0.000000D+00
     21  0.000000D+00  0.000000D+00  0.000000D+00  0.000000D+00  0.000000D+00
     22  0.000000D+00  0.000000D+00  0.000000D+00  0.000000D+00  0.000000D+00
     23  0.000000D+00  0.000000D+00  0.000000D+00  0.000000D+00  0.000000D+00
     24  0.000000D+00  0.000000D+00  0.000000D+00  0.000000D+00  0.000000D+00
     25  0.000000D+00  0.000000D+00  0.000000D+00  0.000000D+00  0.000000D+00
     26  0.000000D+00  0.000000D+00  0.000000D+00  0.000000D+00  0.000000D+00
     27  0.000000D+00  0.000000D+00  0.000000D+00  0.000000D+00  0.000000D+00
     28  0.000000D+00  0.000000D+00  0.000000D+00  0.000000D+00  0.000000D+00
               16            17            18            19            20 
     16  0.100000D+01
     17  0.000000D+00  0.100000D+01
     18  0.000000D+00  0.000000D+00  0.100000D+01
     19  0.000000D+00  0.000000D+00  0.000000D+00  0.100000D+01
     20  0.000000D+00  0.000000D+00  0.000000D+00  0.000000D+00  0.100000D+01
     21  0.000000D+00  0.000000D+00  0.000000D+00  0.000000D+00  0.000000D+00
     22  0.000000D+00  0.000000D+00  0.000000D+00  0.000000D+00  0.000000D+00
     23  0.000000D+00  0.000000D+00  0.000000D+00  0.000000D+00  0.000000D+00
     24  0.000000D+00  0.000000D+00  0.000000D+00  0.404226D+00  0.000000D+00
     25  0.000000D+00  0.000000D+00  0.000000D+00  0.000000D+00  0.404226D+00
     26  0.000000D+00  0.000000D+00  0.000000D+00  0.000000D+00  0.000000D+00
     27  0.000000D+00  0.000000D+00  0.000000D+00  0.000000D+00  0.000000D+00
     28  0.000000D+00  0.000000D+00  0.000000D+00  0.000000D+00  0.000000D+00
               21            22            23            24            25 
     21  0.100000D+01
     22  0.000000D+00  0.100000D+01
     23  0.000000D+00  0.000000D+00  0.100000D+01
     24  0.000000D+00  0.000000D+00  0.000000D+00  0.100000D+01
     25  0.000000D+00  0.000000D+00  0.000000D+00  0.000000D+00  0.100000D+01
     26  0.404226D+00  0.000000D+00  0.000000D+00  0.000000D+00  0.000000D+00
     27  0.000000D+00  0.404226D+00  0.000000D+00  0.000000D+00  0.000000D+00
     28  0.000000D+00  0.000000D+00  0.404226D+00  0.000000D+00  0.000000D+00
               26            27            28 
     26  0.100000D+01
     27  0.000000D+00  0.100000D+01
     28  0.000000D+00  0.000000D+00  0.100000D+01
 *** Kinetic Energy *** 
                1             2             3             4             5 
      1  0.760032D+00
      2 -0.694225D-03  0.233868D+03
      3  0.575560D-02  0.128565D+02  0.116517D+02
      4  0.000000D+00  0.000000D+00  0.000000D+00  0.397344D+02
      5  0.000000D+00  0.000000D+00  0.000000D+00  0.000000D+00  0.397344D+02
      6  0.213826D-02  0.000000D+00  0.000000D+00  0.000000D+00  0.000000D+00
      7  0.185685D-01  0.130537D+01 -0.886570D+00  0.000000D+00  0.000000D+00
      8  0.000000D+00  0.000000D+00  0.000000D+00  0.141365D+01  0.000000D+00
      9  0.000000D+00  0.000000D+00  0.000000D+00  0.000000D+00  0.141365D+01
     10 -0.106718D-01  0.000000D+00  0.000000D+00  0.000000D+00  0.000000D+00
     11 -0.596751D-01  0.469217D-01 -0.250757D+00  0.000000D+00  0.000000D+00
     12  0.000000D+00  0.000000D+00  0.000000D+00 -0.329355D+00  0.000000D+00
     13  0.000000D+00  0.000000D+00  0.000000D+00  0.000000D+00 -0.329355D+00
     14 -0.132697D+00  0.000000D+00  0.000000D+00  0.000000D+00  0.000000D+00
     15  0.239866D-01  0.718816D-03 -0.535103D-02  0.000000D+00  0.000000D+00
     16  0.000000D+00  0.000000D+00  0.000000D+00  0.847976D-03  0.000000D+00
     17  0.000000D+00  0.000000D+00  0.000000D+00  0.000000D+00  0.847976D-03
     18 -0.414895D-01  0.000000D+00  0.000000D+00  0.000000D+00  0.000000D+00
     19  0.566010D-02  0.000000D+00  0.000000D+00  0.000000D+00  0.000000D+00
     20  0.000000D+00  0.000000D+00  0.000000D+00  0.000000D+00  0.000000D+00
     21  0.000000D+00  0.000000D+00  0.000000D+00  0.000000D+00  0.000000D+00
     22  0.000000D+00  0.000000D+00  0.000000D+00  0.000000D+00  0.000000D+00
     23  0.000000D+00  0.000000D+00  0.000000D+00  0.000000D+00  0.000000D+00
     24  0.238422D+00  0.000000D+00  0.000000D+00  0.000000D+00  0.000000D+00
     25  0.000000D+00  0.000000D+00  0.000000D+00  0.000000D+00  0.000000D+00
     26  0.000000D+00  0.000000D+00  0.000000D+00  0.000000D+00  0.000000D+00
     27  0.000000D+00  0.000000D+00  0.000000D+00  0.000000D+00  0.000000D+00
     28  0.000000D+00  0.000000D+00  0.000000D+00  0.000000D+00  0.000000D+00
                6             7             8             9            10 
      6  0.397344D+02
      7  0.000000D+00  0.138627D+01
      8  0.000000D+00  0.000000D+00  0.264346D+01
      9  0.000000D+00  0.000000D+00  0.000000D+00  0.264346D+01
     10  0.141365D+01  0.000000D+00  0.000000D+00  0.000000D+00  0.264346D+01
     11  0.000000D+00 -0.202155D+00  0.000000D+00  0.000000D+00  0.000000D+00
     12  0.000000D+00  0.000000D+00 -0.382323D+00  0.000000D+00  0.000000D+00
     13  0.000000D+00  0.000000D+00  0.000000D+00 -0.382323D+00  0.000000D+00
     14 -0.329355D+00  0.000000D+00  0.000000D+00  0.000000D+00 -0.382323D+00
     15  0.000000D+00 -0.250190D-01  0.000000D+00  0.000000D+00  0.000000D+00
     16  0.000000D+00  0.000000D+00  0.157808D-01  0.000000D+00  0.000000D+00
     17  0.000000D+00  0.000000D+00  0.000000D+00  0.157808D-01  0.000000D+00
     18  0.847976D-03  0.000000D+00  0.000000D+00  0.000000D+00  0.157808D-01
     19  0.000000D+00  0.000000D+00  0.000000D+00  0.000000D+00  0.000000D+00
     20  0.000000D+00  0.000000D+00  0.000000D+00  0.000000D+00  0.000000D+00
     21  0.000000D+00  0.000000D+00  0.000000D+00  0.000000D+00  0.000000D+00
     22  0.000000D+00  0.000000D+00  0.000000D+00  0.000000D+00  0.000000D+00
     23  0.000000D+00  0.000000D+00  0.000000D+00  0.000000D+00  0.000000D+00
     24  0.000000D+00  0.000000D+00  0.000000D+00  0.000000D+00  0.000000D+00
     25  0.000000D+00  0.000000D+00  0.000000D+00  0.000000D+00  0.000000D+00
     26  0.000000D+00  0.000000D+00  0.000000D+00  0.000000D+00  0.000000D+00
     27  0.000000D+00  0.000000D+00  0.000000D+00  0.000000D+00  0.000000D+00
     28  0.000000D+00  0.000000D+00  0.000000D+00  0.000000D+00  0.000000D+00
               11            12            13            14            15 
     11  0.179473D+00
     12  0.000000D+00  0.301582D+00
     13  0.000000D+00  0.000000D+00  0.301582D+00
     14  0.000000D+00  0.000000D+00  0.000000D+00  0.301582D+00
     15 -0.578075D-01  0.000000D+00  0.000000D+00  0.000000D+00  0.480540D-01
     16  0.000000D+00  0.867842D-01  0.000000D+00  0.000000D+00  0.000000D+00
     17  0.000000D+00  0.000000D+00  0.867842D-01  0.000000D+00  0.000000D+00
     18  0.000000D+00  0.000000D+00  0.000000D+00  0.867842D-01  0.000000D+00
     19  0.000000D+00  0.000000D+00  0.000000D+00  0.000000D+00  0.000000D+00
     20  0.000000D+00  0.000000D+00  0.000000D+00  0.000000D+00  0.000000D+00
     21  0.000000D+00  0.000000D+00  0.000000D+00  0.000000D+00  0.000000D+00
     22  0.000000D+00  0.000000D+00  0.000000D+00  0.000000D+00  0.000000D+00
     23  0.000000D+00  0.000000D+00  0.000000D+00  0.000000D+00  0.000000D+00
     24  0.000000D+00  0.000000D+00  0.000000D+00  0.000000D+00  0.000000D+00
     25  0.000000D+00  0.000000D+00  0.000000D+00  0.000000D+00  0.000000D+00
     26  0.000000D+00  0.000000D+00  0.000000D+00  0.000000D+00  0.000000D+00
     27  0.000000D+00  0.000000D+00  0.000000D+00  0.000000D+00  0.000000D+00
     28  0.000000D+00  0.000000D+00  0.000000D+00  0.000000D+00  0.000000D+00
               16            17            18            19            20 
     16  0.800900D-01
     17  0.000000D+00  0.800900D-01
     18  0.000000D+00  0.000000D+00  0.800900D-01
     19  0.000000D+00  0.000000D+00  0.000000D+00  0.631380D+01
     20  0.000000D+00  0.000000D+00  0.000000D+00  0.000000D+00  0.631380D+01
     21  0.000000D+00  0.000000D+00  0.000000D+00  0.000000D+00  0.000000D+00
     22  0.000000D+00  0.000000D+00  0.000000D+00  0.000000D+00  0.000000D+00
     23  0.000000D+00  0.000000D+00  0.000000D+00  0.000000D+00  0.000000D+00
     24  0.000000D+00  0.000000D+00  0.000000D+00  0.648327D+00  0.000000D+00
     25  0.000000D+00  0.000000D+00  0.000000D+00  0.000000D+00  0.648327D+00
     26  0.000000D+00  0.000000D+00  0.000000D+00  0.000000D+00  0.000000D+00
     27  0.000000D+00  0.000000D+00  0.000000D+00  0.000000D+00  0.000000D+00
     28  0.000000D+00  0.000000D+00  0.000000D+00  0.000000D+00  0.000000D+00
               21            22            23            24            25 
     21  0.631380D+01
     22  0.000000D+00  0.631380D+01
     23  0.000000D+00  0.000000D+00  0.631380D+01
     24  0.000000D+00  0.000000D+00  0.000000D+00  0.100437D+01
     25  0.000000D+00  0.000000D+00  0.000000D+00  0.000000D+00  0.100437D+01
     26  0.648327D+00  0.000000D+00  0.000000D+00  0.000000D+00  0.000000D+00
     27  0.000000D+00  0.648327D+00  0.000000D+00  0.000000D+00  0.000000D+00
     28  0.000000D+00  0.000000D+00  0.648327D+00  0.000000D+00  0.000000D+00
               26            27            28 
     26  0.100437D+01
     27  0.000000D+00  0.100437D+01
     28  0.000000D+00  0.000000D+00  0.100437D+01
 Entering OneElI...
 Calculate potential energy integrals
    NBasis =  28  MinDer = 0  MaxDer = 0
 Requested accuracy = 0.1000D-12
 Symmetry will be used
 PrmmSu-InSpLW:  IPartL=    0 NPrtUS=   36 NPrtUL=    1 DoSpLW=F IThBeg=    0 IThEnd=   35 NThAct=   36.
 PrSmSu:  IncTry=   512 NBBP=             72 NTPThr=   100 NPartT=   36 Incr=           1 LDynOK=F GPUOK=F.
 PrsmSu:  NPrtUS=  36 ThrOK=T IAlg=1 LenDen=           0 ISkipM=0 DoSpLW=F IThBeg=    0 IThEnd=   35.
 Prism:   IPart=     0 DynPar=F LinDyn=F Incr=           1.
 PRISM was handed   268429628 working-precision words and    36 shell-pairs
 PRISM was handed   268429628 working-precision words and    36 shell-pairs
 PRISM was handed   268429628 working-precision words and    36 shell-pairs
 PRISM was handed   268429628 working-precision words and    36 shell-pairs
 PRISM was handed   268429628 working-precision words and    36 shell-pairs
 PRISM was handed   268429628 working-precision words and    36 shell-pairs
 PRISM was handed   268429628 working-precision words and    36 shell-pairs
 PRISM was handed   268429628 working-precision words and    36 shell-pairs
 PRISM was handed   268429628 working-precision words and    36 shell-pairs
 PRISM was handed   268429628 working-precision words and    36 shell-pairs
 PRISM was handed   268429628 working-precision words and    36 shell-pairs
 PRISM was handed   268429628 working-precision words and    36 shell-pairs
 PRISM was handed   268429628 working-precision words and    36 shell-pairs
 PRISM was handed   268429628 working-precision words and    36 shell-pairs
 PRISM was handed   268429628 working-precision words and    36 shell-pairs
 PRISM was handed   268429628 working-precision words and    36 shell-pairs
 PRISM was handed   268429628 working-precision words and    36 shell-pairs
 PRISM was handed   268429628 working-precision words and    36 shell-pairs
 PRISM was handed   268429628 working-precision words and    36 shell-pairs
 PRISM was handed   268429628 working-precision words and    36 shell-pairs
 PRISM was handed   268429628 working-precision words and    36 shell-pairs
 PRISM was handed   268429628 working-precision words and    36 shell-pairs
 PRISM was handed   268429628 working-precision words and    36 shell-pairs
 PRISM was handed   268429628 working-precision words and    36 shell-pairs
 PRISM was handed   268429628 working-precision words and    36 shell-pairs
 PRISM was handed   268429628 working-precision words and    36 shell-pairs
 PRISM was handed   268429628 working-precision words and    36 shell-pairs
 PRISM was handed   268429628 working-precision words and    36 shell-pairs
 PRISM was handed   268429628 working-precision words and    36 shell-pairs
 PRISM was handed   268429628 working-precision words and    36 shell-pairs
 PRISM was handed   268429628 working-precision words and    36 shell-pairs
 PRISM was handed   268429628 working-precision words and    36 shell-pairs
 PRISM was handed   268429628 working-precision words and    36 shell-pairs
 PRISM was handed   268429628 working-precision words and    36 shell-pairs
 PRISM was handed   268429628 working-precision words and    36 shell-pairs
 PRISM was handed   268429628 working-precision words and    36 shell-pairs
 IPart=  2 NShTot=           2 NBatch=           1 AvBLen=         2.0
 IPart=  0 NShTot=          56 NBatch=          28 AvBLen=         2.0
 IPart=  1 NShTot=          14 NBatch=           7 AvBLen=         2.0
 IPart=  8 NShTot=           0 NBatch=           0 AvBLen=         0.0
 IPart=  4 NShTot=           0 NBatch=           0 AvBLen=         0.0
 IPart=  6 NShTot=           0 NBatch=           0 AvBLen=         0.0
 IPart= 21 NShTot=           0 NBatch=           0 AvBLen=         0.0
 IPart=  9 NShTot=           0 NBatch=           0 AvBLen=         0.0
 IPart= 17 NShTot=           0 NBatch=           0 AvBLen=         0.0
 IPart= 25 NShTot=           0 NBatch=           0 AvBLen=         0.0
 IPart= 33 NShTot=           0 NBatch=           0 AvBLen=         0.0
 IPart= 26 NShTot=           0 NBatch=           0 AvBLen=         0.0
 IPart=  7 NShTot=           0 NBatch=           0 AvBLen=         0.0
 IPart= 20 NShTot=           0 NBatch=           0 AvBLen=         0.0
 IPart= 18 NShTot=           0 NBatch=           0 AvBLen=         0.0
 IPart= 16 NShTot=           0 NBatch=           0 AvBLen=         0.0
 IPart= 29 NShTot=           0 NBatch=           0 AvBLen=         0.0
 IPart= 22 NShTot=           0 NBatch=           0 AvBLen=         0.0
 IPart= 19 NShTot=           0 NBatch=           0 AvBLen=         0.0
 IPart= 32 NShTot=           0 NBatch=           0 AvBLen=         0.0
 IPart= 35 NShTot=           0 NBatch=           0 AvBLen=         0.0
 IPart= 30 NShTot=           0 NBatch=           0 AvBLen=         0.0
 IPart= 10 NShTot=           0 NBatch=           0 AvBLen=         0.0
 IPart= 28 NShTot=           0 NBatch=           0 AvBLen=         0.0
 IPart= 34 NShTot=           0 NBatch=           0 AvBLen=         0.0
 IPart=  3 NShTot=           0 NBatch=           0 AvBLen=         0.0
 IPart= 11 NShTot=           0 NBatch=           0 AvBLen=         0.0
 IPart= 15 NShTot=           0 NBatch=           0 AvBLen=         0.0
 IPart= 23 NShTot=           0 NBatch=           0 AvBLen=         0.0
 IPart= 24 NShTot=           0 NBatch=           0 AvBLen=         0.0
 IPart= 14 NShTot=           0 NBatch=           0 AvBLen=         0.0
 IPart= 13 NShTot=           0 NBatch=           0 AvBLen=         0.0
 IPart= 31 NShTot=           0 NBatch=           0 AvBLen=         0.0
 IPart= 27 NShTot=           0 NBatch=           0 AvBLen=         0.0
 IPart= 12 NShTot=           0 NBatch=           0 AvBLen=         0.0
 IPart=  5 NShTot=           0 NBatch=           0 AvBLen=         0.0
 PrSmSu:  NxtVal=             37.
 ***** Potential Energy ***** 
                1             2             3             4             5 
      1  0.848379D+01
      2  0.627694D+00  0.476091D+03
      3 -0.118348D+01 -0.526132D+02  0.840460D+02
      4  0.000000D+00  0.000000D+00  0.000000D+00  0.982300D+02
      5  0.000000D+00  0.000000D+00  0.000000D+00  0.000000D+00  0.982300D+02
      6 -0.284630D+00 -0.310955D-02  0.189584D-01  0.000000D+00  0.000000D+00
      7 -0.233470D+01 -0.186153D+01  0.180366D+02  0.000000D+00  0.000000D+00
      8  0.000000D+00  0.000000D+00  0.000000D+00  0.169196D+02  0.000000D+00
      9  0.000000D+00  0.000000D+00  0.000000D+00  0.000000D+00  0.169196D+02
     10 -0.206797D+01 -0.170737D-03  0.110818D-01  0.000000D+00  0.000000D+00
     11 -0.343485D+01  0.175036D+01 -0.223231D+01  0.000000D+00  0.000000D+00
     12  0.000000D+00  0.000000D+00  0.000000D+00 -0.237885D+01  0.000000D+00
     13  0.000000D+00  0.000000D+00  0.000000D+00  0.000000D+00 -0.237885D+01
     14 -0.407450D+01  0.301019D-04 -0.133928D-02  0.000000D+00  0.000000D+00
     15  0.286385D+01  0.180668D+01 -0.333558D+01  0.000000D+00  0.000000D+00
     16  0.000000D+00  0.000000D+00  0.000000D+00  0.246783D+00  0.000000D+00
     17  0.000000D+00  0.000000D+00  0.000000D+00  0.000000D+00  0.246783D+00
     18 -0.230430D+01 -0.224766D-05  0.204277D-03  0.000000D+00  0.000000D+00
     19  0.850520D+00  0.126532D-04 -0.172861D-02  0.000000D+00  0.000000D+00
     20  0.000000D+00  0.000000D+00  0.000000D+00 -0.849537D-02  0.000000D+00
     21  0.000000D+00  0.000000D+00  0.000000D+00  0.000000D+00 -0.849537D-02
     22  0.000000D+00  0.000000D+00  0.000000D+00  0.000000D+00  0.000000D+00
     23  0.000000D+00  0.000000D+00  0.000000D+00  0.000000D+00  0.000000D+00
     24  0.364381D+01  0.000000D+00 -0.168689D-03  0.000000D+00  0.000000D+00
     25  0.000000D+00  0.000000D+00  0.000000D+00 -0.664562D-03  0.000000D+00
     26  0.000000D+00  0.000000D+00  0.000000D+00  0.000000D+00 -0.664562D-03
     27  0.000000D+00  0.000000D+00  0.000000D+00  0.000000D+00  0.000000D+00
     28  0.000000D+00  0.000000D+00  0.000000D+00  0.000000D+00  0.000000D+00
                6             7             8             9            10 
      6  0.982322D+02
      7  0.110399D-01  0.265463D+02
      8  0.000000D+00  0.000000D+00  0.251293D+02
      9  0.000000D+00  0.000000D+00  0.000000D+00  0.251293D+02
     10  0.169217D+02  0.635058D-01  0.000000D+00  0.000000D+00  0.251577D+02
     11 -0.498317D-03  0.256935D+01  0.000000D+00  0.000000D+00  0.354764D-01
     12  0.000000D+00  0.000000D+00  0.236893D+00  0.000000D+00  0.000000D+00
     13  0.000000D+00  0.000000D+00  0.000000D+00  0.236893D+00  0.000000D+00
     14 -0.237908D+01  0.146566D-01  0.000000D+00  0.000000D+00  0.255362D+00
     15 -0.162651D-02 -0.548882D+01  0.000000D+00  0.000000D+00 -0.306720D-01
     16  0.000000D+00  0.000000D+00  0.148362D+01  0.000000D+00  0.000000D+00
     17  0.000000D+00  0.000000D+00  0.000000D+00  0.148362D+01  0.000000D+00
     18  0.246832D+00  0.845843D-02  0.000000D+00  0.000000D+00  0.149206D+01
     19 -0.102660D-01 -0.180967D-01  0.000000D+00  0.000000D+00 -0.639087D-01
     20  0.000000D+00  0.000000D+00 -0.461670D-01  0.000000D+00  0.000000D+00
     21  0.000000D+00  0.000000D+00  0.000000D+00 -0.461670D-01  0.000000D+00
     22  0.000000D+00  0.000000D+00  0.000000D+00  0.000000D+00  0.000000D+00
     23  0.000000D+00  0.000000D+00  0.000000D+00  0.000000D+00  0.000000D+00
     24 -0.830165D-03 -0.182414D-01  0.000000D+00  0.000000D+00 -0.593265D-01
     25  0.000000D+00  0.000000D+00 -0.331277D-01  0.000000D+00  0.000000D+00
     26  0.000000D+00  0.000000D+00  0.000000D+00 -0.331277D-01  0.000000D+00
     27  0.000000D+00  0.000000D+00  0.000000D+00  0.000000D+00  0.000000D+00
     28  0.000000D+00  0.000000D+00  0.000000D+00  0.000000D+00  0.000000D+00
               11            12            13            14            15 
     11  0.810351D+01
     12  0.000000D+00  0.707596D+01
     13  0.000000D+00  0.000000D+00  0.707596D+01
     14  0.125655D+00  0.000000D+00  0.000000D+00  0.717790D+01
     15 -0.635453D+01  0.000000D+00  0.000000D+00 -0.103609D+00  0.652208D+01
     16  0.000000D+00  0.430673D+01  0.000000D+00  0.000000D+00  0.000000D+00
     17  0.000000D+00  0.000000D+00  0.430673D+01  0.000000D+00  0.000000D+00
     18  0.709200D-01  0.000000D+00  0.000000D+00  0.436618D+01 -0.733825D-01
     19 -0.102789D-01  0.000000D+00  0.000000D+00 -0.138128D-01  0.860948D-02
     20  0.000000D+00 -0.729888D-02  0.000000D+00  0.000000D+00  0.000000D+00
     21  0.000000D+00  0.000000D+00 -0.729888D-02  0.000000D+00  0.000000D+00
     22  0.000000D+00  0.000000D+00  0.000000D+00  0.000000D+00  0.000000D+00
     23  0.000000D+00  0.000000D+00  0.000000D+00  0.000000D+00  0.000000D+00
     24 -0.794744D-01  0.000000D+00  0.000000D+00 -0.139874D+00  0.557689D-01
     25  0.000000D+00 -0.588164D-01  0.000000D+00  0.000000D+00  0.000000D+00
     26  0.000000D+00  0.000000D+00 -0.588164D-01  0.000000D+00  0.000000D+00
     27  0.000000D+00  0.000000D+00  0.000000D+00  0.000000D+00  0.000000D+00
     28  0.000000D+00  0.000000D+00  0.000000D+00  0.000000D+00  0.000000D+00
               16            17            18            19            20 
     16  0.435973D+01
     17  0.000000D+00  0.435973D+01
     18  0.000000D+00  0.000000D+00  0.440412D+01
     19  0.000000D+00  0.000000D+00 -0.756943D-02  0.262690D+02
     20 -0.460078D-02  0.000000D+00  0.000000D+00  0.000000D+00  0.262589D+02
     21  0.000000D+00 -0.460078D-02  0.000000D+00  0.000000D+00  0.000000D+00
     22  0.000000D+00  0.000000D+00  0.000000D+00  0.000000D+00  0.000000D+00
     23  0.000000D+00  0.000000D+00  0.000000D+00  0.000000D+00  0.000000D+00
     24  0.000000D+00  0.000000D+00 -0.652621D-01  0.677789D+01  0.000000D+00
     25 -0.273623D-01  0.000000D+00  0.000000D+00  0.000000D+00  0.676659D+01
     26  0.000000D+00 -0.273623D-01  0.000000D+00  0.000000D+00  0.000000D+00
     27  0.000000D+00  0.000000D+00  0.000000D+00  0.000000D+00  0.000000D+00
     28  0.000000D+00  0.000000D+00  0.000000D+00  0.000000D+00  0.000000D+00
               21            22            23            24            25 
     21  0.262589D+02
     22  0.000000D+00  0.262428D+02
     23  0.000000D+00  0.000000D+00  0.262428D+02
     24  0.000000D+00  0.000000D+00  0.000000D+00  0.104470D+02
     25  0.000000D+00  0.000000D+00  0.000000D+00  0.000000D+00  0.103577D+02
     26  0.676659D+01  0.000000D+00  0.000000D+00  0.000000D+00  0.000000D+00
     27  0.000000D+00  0.675428D+01  0.000000D+00  0.000000D+00  0.000000D+00
     28  0.000000D+00  0.000000D+00  0.675428D+01  0.000000D+00  0.000000D+00
               26            27            28 
     26  0.103577D+02
     27  0.000000D+00  0.103067D+02
     28  0.000000D+00  0.000000D+00  0.103067D+02
 ****** Core Hamiltonian ****** 
                1             2             3             4             5 
      1 -0.772376D+01
      2 -0.628388D+00 -0.242223D+03
      3  0.118924D+01  0.654697D+02 -0.723943D+02
      4  0.000000D+00  0.000000D+00  0.000000D+00 -0.584956D+02
      5  0.000000D+00  0.000000D+00  0.000000D+00  0.000000D+00 -0.584956D+02
      6  0.286769D+00  0.310955D-02 -0.189584D-01  0.000000D+00  0.000000D+00
      7  0.235327D+01  0.316690D+01 -0.189231D+02  0.000000D+00  0.000000D+00
      8  0.000000D+00  0.000000D+00  0.000000D+00 -0.155059D+02  0.000000D+00
      9  0.000000D+00  0.000000D+00  0.000000D+00  0.000000D+00 -0.155059D+02
     10  0.205730D+01  0.170737D-03 -0.110818D-01  0.000000D+00  0.000000D+00
     11  0.337517D+01 -0.170344D+01  0.198155D+01  0.000000D+00  0.000000D+00
     12  0.000000D+00  0.000000D+00  0.000000D+00  0.204950D+01  0.000000D+00
     13  0.000000D+00  0.000000D+00  0.000000D+00  0.000000D+00  0.204950D+01
     14  0.394181D+01 -0.301019D-04  0.133928D-02  0.000000D+00  0.000000D+00
     15 -0.283986D+01 -0.180596D+01  0.333023D+01  0.000000D+00  0.000000D+00
     16  0.000000D+00  0.000000D+00  0.000000D+00 -0.245935D+00  0.000000D+00
     17  0.000000D+00  0.000000D+00  0.000000D+00  0.000000D+00 -0.245935D+00
     18  0.226281D+01  0.224766D-05 -0.204277D-03  0.000000D+00  0.000000D+00
     19 -0.844860D+00 -0.126532D-04  0.172861D-02  0.000000D+00  0.000000D+00
     20  0.000000D+00  0.000000D+00  0.000000D+00  0.849537D-02  0.000000D+00
     21  0.000000D+00  0.000000D+00  0.000000D+00  0.000000D+00  0.849537D-02
     22  0.000000D+00  0.000000D+00  0.000000D+00  0.000000D+00  0.000000D+00
     23  0.000000D+00  0.000000D+00  0.000000D+00  0.000000D+00  0.000000D+00
     24 -0.340539D+01  0.000000D+00  0.168689D-03  0.000000D+00  0.000000D+00
     25  0.000000D+00  0.000000D+00  0.000000D+00  0.664562D-03  0.000000D+00
     26  0.000000D+00  0.000000D+00  0.000000D+00  0.000000D+00  0.664562D-03
     27  0.000000D+00  0.000000D+00  0.000000D+00  0.000000D+00  0.000000D+00
     28  0.000000D+00  0.000000D+00  0.000000D+00  0.000000D+00  0.000000D+00
                6             7             8             9            10 
      6 -0.584978D+02
      7 -0.110399D-01 -0.251601D+02
      8  0.000000D+00  0.000000D+00 -0.224858D+02
      9  0.000000D+00  0.000000D+00  0.000000D+00 -0.224858D+02
     10 -0.155081D+02 -0.635058D-01  0.000000D+00  0.000000D+00 -0.225142D+02
     11  0.498317D-03 -0.277151D+01  0.000000D+00  0.000000D+00 -0.354764D-01
     12  0.000000D+00  0.000000D+00 -0.619215D+00  0.000000D+00  0.000000D+00
     13  0.000000D+00  0.000000D+00  0.000000D+00 -0.619215D+00  0.000000D+00
     14  0.204973D+01 -0.146566D-01  0.000000D+00  0.000000D+00 -0.637684D+00
     15  0.162651D-02  0.546380D+01  0.000000D+00  0.000000D+00  0.306720D-01
     16  0.000000D+00  0.000000D+00 -0.146784D+01  0.000000D+00  0.000000D+00
     17  0.000000D+00  0.000000D+00  0.000000D+00 -0.146784D+01  0.000000D+00
     18 -0.245984D+00 -0.845843D-02  0.000000D+00  0.000000D+00 -0.147628D+01
     19  0.102660D-01  0.180967D-01  0.000000D+00  0.000000D+00  0.639087D-01
     20  0.000000D+00  0.000000D+00  0.461670D-01  0.000000D+00  0.000000D+00
     21  0.000000D+00  0.000000D+00  0.000000D+00  0.461670D-01  0.000000D+00
     22  0.000000D+00  0.000000D+00  0.000000D+00  0.000000D+00  0.000000D+00
     23  0.000000D+00  0.000000D+00  0.000000D+00  0.000000D+00  0.000000D+00
     24  0.830165D-03  0.182414D-01  0.000000D+00  0.000000D+00  0.593265D-01
     25  0.000000D+00  0.000000D+00  0.331277D-01  0.000000D+00  0.000000D+00
     26  0.000000D+00  0.000000D+00  0.000000D+00  0.331277D-01  0.000000D+00
     27  0.000000D+00  0.000000D+00  0.000000D+00  0.000000D+00  0.000000D+00
     28  0.000000D+00  0.000000D+00  0.000000D+00  0.000000D+00  0.000000D+00
               11            12            13            14            15 
     11 -0.792404D+01
     12  0.000000D+00 -0.677438D+01
     13  0.000000D+00  0.000000D+00 -0.677438D+01
     14 -0.125655D+00  0.000000D+00  0.000000D+00 -0.687632D+01
     15  0.629672D+01  0.000000D+00  0.000000D+00  0.103609D+00 -0.647402D+01
     16  0.000000D+00 -0.421994D+01  0.000000D+00  0.000000D+00  0.000000D+00
     17  0.000000D+00  0.000000D+00 -0.421994D+01  0.000000D+00  0.000000D+00
     18 -0.709200D-01  0.000000D+00  0.000000D+00 -0.427940D+01  0.733825D-01
     19  0.102789D-01  0.000000D+00  0.000000D+00  0.138128D-01 -0.860948D-02
     20  0.000000D+00  0.729888D-02  0.000000D+00  0.000000D+00  0.000000D+00
     21  0.000000D+00  0.000000D+00  0.729888D-02  0.000000D+00  0.000000D+00
     22  0.000000D+00  0.000000D+00  0.000000D+00  0.000000D+00  0.000000D+00
     23  0.000000D+00  0.000000D+00  0.000000D+00  0.000000D+00  0.000000D+00
     24  0.794744D-01  0.000000D+00  0.000000D+00  0.139874D+00 -0.557689D-01
     25  0.000000D+00  0.588164D-01  0.000000D+00  0.000000D+00  0.000000D+00
     26  0.000000D+00  0.000000D+00  0.588164D-01  0.000000D+00  0.000000D+00
     27  0.000000D+00  0.000000D+00  0.000000D+00  0.000000D+00  0.000000D+00
     28  0.000000D+00  0.000000D+00  0.000000D+00  0.000000D+00  0.000000D+00
               16            17            18            19            20 
     16 -0.427964D+01
     17  0.000000D+00 -0.427964D+01
     18  0.000000D+00  0.000000D+00 -0.432403D+01
     19  0.000000D+00  0.000000D+00  0.756943D-02 -0.199552D+02
     20  0.460078D-02  0.000000D+00  0.000000D+00  0.000000D+00 -0.199451D+02
     21  0.000000D+00  0.460078D-02  0.000000D+00  0.000000D+00  0.000000D+00
     22  0.000000D+00  0.000000D+00  0.000000D+00  0.000000D+00  0.000000D+00
     23  0.000000D+00  0.000000D+00  0.000000D+00  0.000000D+00  0.000000D+00
     24  0.000000D+00  0.000000D+00  0.652621D-01 -0.612956D+01  0.000000D+00
     25  0.273623D-01  0.000000D+00  0.000000D+00  0.000000D+00 -0.611826D+01
     26  0.000000D+00  0.273623D-01  0.000000D+00  0.000000D+00  0.000000D+00
     27  0.000000D+00  0.000000D+00  0.000000D+00  0.000000D+00  0.000000D+00
     28  0.000000D+00  0.000000D+00  0.000000D+00  0.000000D+00  0.000000D+00
               21            22            23            24            25 
     21 -0.199451D+02
     22  0.000000D+00 -0.199290D+02
     23  0.000000D+00  0.000000D+00 -0.199290D+02
     24  0.000000D+00  0.000000D+00  0.000000D+00 -0.944259D+01
     25  0.000000D+00  0.000000D+00  0.000000D+00  0.000000D+00 -0.935329D+01
     26 -0.611826D+01  0.000000D+00  0.000000D+00  0.000000D+00  0.000000D+00
     27  0.000000D+00 -0.610595D+01  0.000000D+00  0.000000D+00  0.000000D+00
     28  0.000000D+00  0.000000D+00 -0.610595D+01  0.000000D+00  0.000000D+00
               26            27            28 
     26 -0.935329D+01
     27  0.000000D+00 -0.930238D+01
     28  0.000000D+00  0.000000D+00 -0.930238D+01
 SVDSVc IOpt=   1 NormSV=T IR=1
 SVDSVc V= 2.43D+00 1.91D+00 1.46D+00 1.40D+00 1.39D+00 1.30D+00 9.43D-01 7.26D-01 6.60D-01 5.96D-01
 SVDSVc V= 5.27D-01 3.67D-01 1.77D-01 1.17D-01
 SVDSVc IOpt=   1 NormSV=T IR=2
 SVDSVc V= 1.40D+00 5.96D-01
 SVDSVc IOpt=   1 NormSV=T IR=3
 SVDSVc V= 1.79D+00 1.40D+00 1.30D+00 6.62D-01 5.96D-01 2.47D-01
 SVDSVc IOpt=   1 NormSV=T IR=4
 SVDSVc V= 1.79D+00 1.40D+00 1.30D+00 6.62D-01 5.96D-01 2.47D-01
 TstOVc:  Largest diagonal error= 4.55D-15 IB=1 I=   14.
 TstOVc:  Largest same sym error= 9.52D-16 IB=1 I=   14 J=    7.
 TstOVc:  Largest diff sym error= 0.00D+00 IB=0 JB=0 I=    0 J=    0.
 Orthogonalized basis functions: 
                 1             2             3             4             5 
      1   0.333258D+00 -0.983623D-01  0.126234D+00  0.000000D+00  0.881750D-02
      2   0.110229D-01  0.311601D-01 -0.988549D-01  0.000000D+00 -0.414105D+00
      3  -0.474158D-01 -0.940244D-01  0.159229D+00  0.000000D+00  0.575359D+00
      4   0.000000D+00  0.000000D+00  0.000000D+00  0.000000D+00  0.000000D+00
      5   0.000000D+00  0.000000D+00  0.000000D+00  0.000000D+00  0.000000D+00
      6  -0.122940D-01  0.300030D-01  0.349450D-01  0.000000D+00  0.311609D-02
      7  -0.140090D+00 -0.193545D+00  0.129110D+00  0.000000D+00  0.318665D+00
      8   0.000000D+00  0.000000D+00  0.000000D+00  0.000000D+00  0.000000D+00
      9   0.000000D+00  0.000000D+00  0.000000D+00  0.000000D+00  0.000000D+00
     10  -0.750262D-01  0.123373D+00  0.680621D-01  0.000000D+00  0.484582D-02
     11  -0.287005D+00 -0.302113D+00  0.206350D-01  0.000000D+00 -0.205298D+00
     12   0.000000D+00  0.000000D+00  0.000000D+00  0.000000D+00  0.000000D+00
     13   0.000000D+00  0.000000D+00  0.000000D+00  0.000000D+00  0.000000D+00
     14  -0.236868D+00  0.364544D+00  0.147491D+00  0.000000D+00  0.824276D-02
     15   0.282816D+00  0.316379D+00 -0.433489D-01  0.000000D+00  0.147572D+00
     16   0.000000D+00  0.000000D+00  0.000000D+00  0.000000D+00  0.000000D+00
     17   0.000000D+00  0.000000D+00  0.000000D+00  0.000000D+00  0.000000D+00
     18  -0.205992D+00  0.351148D+00  0.167323D+00  0.000000D+00  0.973229D-02
     19   0.421845D-01 -0.310813D-01  0.504760D+00  0.000000D+00 -0.160212D+00
     20   0.000000D+00  0.000000D+00  0.000000D+00  0.000000D+00  0.000000D+00
     21   0.000000D+00  0.000000D+00  0.000000D+00  0.000000D+00  0.000000D+00
     22   0.000000D+00  0.000000D+00  0.000000D+00  0.596714D+00  0.000000D+00
     23   0.000000D+00  0.000000D+00  0.000000D+00  0.000000D+00  0.000000D+00
     24   0.102135D+00 -0.558229D-01  0.553053D+00  0.000000D+00 -0.156562D+00
     25   0.000000D+00  0.000000D+00  0.000000D+00  0.000000D+00  0.000000D+00
     26   0.000000D+00  0.000000D+00  0.000000D+00  0.000000D+00  0.000000D+00
     27   0.000000D+00  0.000000D+00  0.000000D+00  0.596714D+00  0.000000D+00
     28   0.000000D+00  0.000000D+00  0.000000D+00  0.000000D+00  0.000000D+00
                 6             7             8             9            10 
      1   0.100973D-01  0.649959D-01 -0.506931D+00  0.779622D-01  0.000000D+00
      2   0.650455D-02  0.798164D+00  0.660082D-01 -0.864316D-02  0.000000D+00
      3  -0.701692D-02  0.139006D+00  0.628339D-01 -0.104654D-01  0.000000D+00
      4   0.000000D+00  0.000000D+00  0.000000D+00  0.000000D+00  0.000000D+00
      5   0.000000D+00  0.000000D+00  0.000000D+00  0.000000D+00  0.000000D+00
      6   0.635353D+00  0.407971D-02 -0.179721D+00 -0.815942D+00  0.000000D+00
      7  -0.902614D-03  0.596745D+00 -0.743556D-02  0.488653D-02  0.000000D+00
      8   0.000000D+00  0.000000D+00  0.000000D+00  0.000000D+00  0.000000D+00
      9   0.000000D+00  0.000000D+00  0.000000D+00  0.000000D+00  0.000000D+00
     10   0.577368D+00  0.299358D-02  0.133431D+00  0.859913D+00  0.000000D+00
     11   0.730644D-02 -0.158387D+00 -0.141509D+00  0.190096D-01  0.000000D+00
     12   0.000000D+00  0.000000D+00  0.000000D+00  0.000000D+00  0.000000D+00
     13   0.000000D+00  0.000000D+00  0.000000D+00  0.000000D+00  0.000000D+00
     14  -0.127900D+00  0.246053D-01 -0.111468D+00 -0.141946D-01  0.000000D+00
     15  -0.723087D-02  0.112819D+00  0.189851D+00 -0.276081D-01  0.000000D+00
     16   0.000000D+00  0.000000D+00  0.000000D+00  0.000000D+00  0.000000D+00
     17   0.000000D+00  0.000000D+00  0.000000D+00  0.000000D+00  0.000000D+00
     18  -0.116911D+00  0.431053D-01 -0.347746D+00 -0.145510D+00  0.000000D+00
     19  -0.241466D-01 -0.620724D-01  0.804757D+00 -0.224407D+00  0.000000D+00
     20   0.000000D+00  0.000000D+00  0.000000D+00  0.000000D+00  0.000000D+00
     21   0.000000D+00  0.000000D+00  0.000000D+00  0.000000D+00  0.000000D+00
     22   0.000000D+00  0.000000D+00  0.000000D+00  0.000000D+00  0.916103D+00
     23   0.000000D+00  0.000000D+00  0.000000D+00  0.000000D+00  0.000000D+00
     24  -0.194323D-01 -0.323815D-03 -0.473303D+00  0.178010D+00  0.000000D+00
     25   0.000000D+00  0.000000D+00  0.000000D+00  0.000000D+00  0.000000D+00
     26   0.000000D+00  0.000000D+00  0.000000D+00  0.000000D+00  0.000000D+00
     27   0.000000D+00  0.000000D+00  0.000000D+00  0.000000D+00 -0.916103D+00
     28   0.000000D+00  0.000000D+00  0.000000D+00  0.000000D+00  0.000000D+00
                11            12            13            14            15 
      1  -0.217957D-01  0.852860D+00  0.953972D+00  0.749729D+00  0.000000D+00
      2   0.517496D+00  0.518088D-02 -0.914626D-02  0.208092D-01  0.000000D+00
      3   0.929145D+00  0.142692D-01 -0.538115D-01  0.170525D+00  0.000000D+00
      4   0.000000D+00  0.000000D+00  0.000000D+00  0.000000D+00  0.000000D+00
      5   0.000000D+00  0.000000D+00  0.000000D+00  0.000000D+00  0.000000D+00
      6   0.450378D-02 -0.133121D+00  0.918191D-01  0.283386D-01  0.000000D+00
      7  -0.848115D+00 -0.177393D-01 -0.283098D-02  0.701883D-01  0.000000D+00
      8   0.000000D+00  0.000000D+00  0.000000D+00  0.000000D+00  0.000000D+00
      9   0.000000D+00  0.000000D+00  0.000000D+00  0.000000D+00  0.000000D+00
     10  -0.676354D-02  0.207411D+00  0.541889D-03  0.379504D-01  0.000000D+00
     11   0.111529D+00  0.976271D-01 -0.452153D+00  0.203197D+01  0.000000D+00
     12   0.000000D+00  0.000000D+00  0.000000D+00  0.000000D+00  0.000000D+00
     13   0.000000D+00  0.000000D+00  0.000000D+00  0.000000D+00  0.000000D+00
     14   0.897299D-04 -0.421108D+00  0.153930D+01  0.736202D+00  0.000000D+00
     15  -0.171008D+00 -0.333928D+00 -0.876734D+00  0.173363D+01  0.000000D+00
     16   0.000000D+00  0.000000D+00  0.000000D+00  0.000000D+00  0.000000D+00
     17   0.000000D+00  0.000000D+00  0.000000D+00  0.000000D+00  0.000000D+00
     18  -0.137395D-01  0.904676D+00 -0.102215D+01 -0.351382D+00  0.000000D+00
     19  -0.465497D-01  0.431747D+00  0.203081D+00  0.128842D+00  0.000000D+00
     20   0.000000D+00  0.000000D+00  0.000000D+00  0.000000D+00  0.000000D+00
     21   0.000000D+00  0.000000D+00  0.000000D+00  0.000000D+00  0.000000D+00
     22   0.000000D+00  0.000000D+00  0.000000D+00  0.000000D+00  0.000000D+00
     23   0.000000D+00  0.000000D+00  0.000000D+00  0.000000D+00  0.596714D+00
     24   0.575575D-01 -0.796084D+00 -0.547553D+00 -0.386897D+00  0.000000D+00
     25   0.000000D+00  0.000000D+00  0.000000D+00  0.000000D+00  0.000000D+00
     26   0.000000D+00  0.000000D+00  0.000000D+00  0.000000D+00  0.000000D+00
     27   0.000000D+00  0.000000D+00  0.000000D+00  0.000000D+00  0.000000D+00
     28   0.000000D+00  0.000000D+00  0.000000D+00  0.000000D+00  0.596714D+00
                16            17            18            19            20 
      1   0.000000D+00  0.000000D+00  0.000000D+00  0.000000D+00  0.000000D+00
      2   0.000000D+00  0.000000D+00  0.000000D+00  0.000000D+00  0.000000D+00
      3   0.000000D+00  0.000000D+00  0.000000D+00  0.000000D+00  0.000000D+00
      4   0.000000D+00  0.496550D-01  0.000000D+00  0.634889D+00 -0.838847D+00
      5   0.000000D+00  0.000000D+00  0.000000D+00  0.000000D+00  0.000000D+00
      6   0.000000D+00  0.000000D+00  0.000000D+00  0.000000D+00  0.000000D+00
      7   0.000000D+00  0.000000D+00  0.000000D+00  0.000000D+00  0.000000D+00
      8   0.000000D+00  0.179002D+00  0.000000D+00  0.575229D+00  0.875786D+00
      9   0.000000D+00  0.000000D+00  0.000000D+00  0.000000D+00  0.000000D+00
     10   0.000000D+00  0.000000D+00  0.000000D+00  0.000000D+00  0.000000D+00
     11   0.000000D+00  0.000000D+00  0.000000D+00  0.000000D+00  0.000000D+00
     12   0.000000D+00  0.513298D+00  0.000000D+00 -0.135910D+00 -0.267878D-01
     13   0.000000D+00  0.000000D+00  0.000000D+00  0.000000D+00  0.000000D+00
     14   0.000000D+00  0.000000D+00  0.000000D+00  0.000000D+00  0.000000D+00
     15   0.000000D+00  0.000000D+00  0.000000D+00  0.000000D+00  0.000000D+00
     16   0.000000D+00  0.510710D+00  0.000000D+00 -0.126746D+00 -0.198477D+00
     17   0.000000D+00  0.000000D+00  0.000000D+00  0.000000D+00  0.000000D+00
     18   0.000000D+00  0.000000D+00  0.000000D+00  0.000000D+00  0.000000D+00
     19   0.000000D+00  0.000000D+00  0.000000D+00  0.000000D+00  0.000000D+00
     20   0.000000D+00  0.000000D+00  0.596714D+00  0.000000D+00  0.000000D+00
     21   0.000000D+00  0.000000D+00  0.000000D+00  0.000000D+00  0.000000D+00
     22   0.000000D+00  0.000000D+00  0.000000D+00  0.000000D+00  0.000000D+00
     23   0.916103D+00  0.000000D+00  0.000000D+00  0.000000D+00  0.000000D+00
     24   0.000000D+00  0.000000D+00  0.000000D+00  0.000000D+00  0.000000D+00
     25   0.000000D+00  0.000000D+00  0.596714D+00  0.000000D+00  0.000000D+00
     26   0.000000D+00  0.000000D+00  0.000000D+00  0.000000D+00  0.000000D+00
     27   0.000000D+00  0.000000D+00  0.000000D+00  0.000000D+00  0.000000D+00
     28  -0.916103D+00  0.000000D+00  0.000000D+00  0.000000D+00  0.000000D+00
                21            22            23            24            25 
      1   0.000000D+00  0.000000D+00  0.000000D+00  0.000000D+00  0.000000D+00
      2   0.000000D+00  0.000000D+00  0.000000D+00  0.000000D+00  0.000000D+00
      3   0.000000D+00  0.000000D+00  0.000000D+00  0.000000D+00  0.000000D+00
      4   0.000000D+00  0.146699D+00  0.000000D+00  0.000000D+00  0.000000D+00
      5   0.000000D+00  0.000000D+00  0.496550D-01  0.000000D+00  0.634889D+00
      6   0.000000D+00  0.000000D+00  0.000000D+00  0.000000D+00  0.000000D+00
      7   0.000000D+00  0.000000D+00  0.000000D+00  0.000000D+00  0.000000D+00
      8   0.000000D+00 -0.133591D+00  0.000000D+00  0.000000D+00  0.000000D+00
      9   0.000000D+00  0.000000D+00  0.179002D+00  0.000000D+00  0.575229D+00
     10   0.000000D+00  0.000000D+00  0.000000D+00  0.000000D+00  0.000000D+00
     11   0.000000D+00  0.000000D+00  0.000000D+00  0.000000D+00  0.000000D+00
     12   0.000000D+00  0.142747D+01  0.000000D+00  0.000000D+00  0.000000D+00
     13   0.000000D+00  0.000000D+00  0.513298D+00  0.000000D+00 -0.135910D+00
     14   0.000000D+00  0.000000D+00  0.000000D+00  0.000000D+00  0.000000D+00
     15   0.000000D+00  0.000000D+00  0.000000D+00  0.000000D+00  0.000000D+00
     16   0.000000D+00 -0.140214D+01  0.000000D+00  0.000000D+00  0.000000D+00
     17   0.000000D+00  0.000000D+00  0.510710D+00  0.000000D+00 -0.126746D+00
     18   0.000000D+00  0.000000D+00  0.000000D+00  0.000000D+00  0.000000D+00
     19   0.000000D+00  0.000000D+00  0.000000D+00  0.000000D+00  0.000000D+00
     20   0.916103D+00  0.000000D+00  0.000000D+00  0.000000D+00  0.000000D+00
     21   0.000000D+00  0.000000D+00  0.000000D+00  0.596714D+00  0.000000D+00
     22   0.000000D+00  0.000000D+00  0.000000D+00  0.000000D+00  0.000000D+00
     23   0.000000D+00  0.000000D+00  0.000000D+00  0.000000D+00  0.000000D+00
     24   0.000000D+00  0.000000D+00  0.000000D+00  0.000000D+00  0.000000D+00
     25  -0.916103D+00  0.000000D+00  0.000000D+00  0.000000D+00  0.000000D+00
     26   0.000000D+00  0.000000D+00  0.000000D+00  0.596714D+00  0.000000D+00
     27   0.000000D+00  0.000000D+00  0.000000D+00  0.000000D+00  0.000000D+00
     28   0.000000D+00  0.000000D+00  0.000000D+00  0.000000D+00  0.000000D+00
                26            27            28 
      1   0.000000D+00  0.000000D+00  0.000000D+00
      2   0.000000D+00  0.000000D+00  0.000000D+00
      3   0.000000D+00  0.000000D+00  0.000000D+00
      4   0.000000D+00  0.000000D+00  0.000000D+00
      5  -0.838847D+00  0.000000D+00  0.146699D+00
      6   0.000000D+00  0.000000D+00  0.000000D+00
      7   0.000000D+00  0.000000D+00  0.000000D+00
      8   0.000000D+00  0.000000D+00  0.000000D+00
      9   0.875786D+00  0.000000D+00 -0.133591D+00
     10   0.000000D+00  0.000000D+00  0.000000D+00
     11   0.000000D+00  0.000000D+00  0.000000D+00
     12   0.000000D+00  0.000000D+00  0.000000D+00
     13  -0.267878D-01  0.000000D+00  0.142747D+01
     14   0.000000D+00  0.000000D+00  0.000000D+00
     15   0.000000D+00  0.000000D+00  0.000000D+00
     16   0.000000D+00  0.000000D+00  0.000000D+00
     17  -0.198477D+00  0.000000D+00 -0.140214D+01
     18   0.000000D+00  0.000000D+00  0.000000D+00
     19   0.000000D+00  0.000000D+00  0.000000D+00
     20   0.000000D+00  0.000000D+00  0.000000D+00
     21   0.000000D+00  0.916103D+00  0.000000D+00
     22   0.000000D+00  0.000000D+00  0.000000D+00
     23   0.000000D+00  0.000000D+00  0.000000D+00
     24   0.000000D+00  0.000000D+00  0.000000D+00
     25   0.000000D+00  0.000000D+00  0.000000D+00
     26   0.000000D+00 -0.916103D+00  0.000000D+00
     27   0.000000D+00  0.000000D+00  0.000000D+00
     28   0.000000D+00  0.000000D+00  0.000000D+00
 NBasis=    28 RedAO= T EigKep=  1.17D-01  NBF=    14     2     6     6
 NBsUse=    28 1.00D-06 EigRej= -1.00D+00 NBFU=    14     2     6     6
 Leave Link  302 at Mon Mar 28 12:47:42 2022, MaxMem=  9663676416 cpu:               3.5 elap:               0.1
 (Enter /nopt/nrel/apps/gaussian/g16C_1/g16/l303.exe)
 DipDrv will not compute anything.
 Fermi contact integrals: 
                 1             2 
      1   0.628247D+00  0.187225D-01
      2   0.000000D+00  0.554361D+02
      3   0.000000D+00 -0.784630D-01
      4   0.000000D+00  0.000000D+00
      5   0.000000D+00  0.000000D+00
      6   0.000000D+00  0.000000D+00
      7  -0.328156D-02 -0.119954D-01
      8   0.000000D+00  0.000000D+00
      9   0.000000D+00  0.000000D+00
     10  -0.110898D-01  0.000000D+00
     11  -0.584252D-01  0.536701D-01
     12   0.000000D+00  0.000000D+00
     13   0.000000D+00  0.000000D+00
     14  -0.911577D-01  0.000000D+00
     15   0.402668D-01  0.539683D-01
     16   0.000000D+00  0.000000D+00
     17   0.000000D+00  0.000000D+00
     18  -0.435828D-01  0.000000D+00
     19   0.854551D-03  0.000000D+00
     20   0.000000D+00  0.000000D+00
     21   0.000000D+00  0.000000D+00
     22   0.000000D+00  0.000000D+00
     23   0.000000D+00  0.000000D+00
     24   0.122834D+00  0.000000D+00
     25   0.000000D+00  0.000000D+00
     26   0.000000D+00  0.000000D+00
     27   0.000000D+00  0.000000D+00
     28   0.000000D+00  0.000000D+00
 Leave Link  303 at Mon Mar 28 12:47:42 2022, MaxMem=  9663676416 cpu:               1.1 elap:               0.1
 (Enter /nopt/nrel/apps/gaussian/g16C_1/g16/l401.exe)
 ExpMin= 3.20D-02 ExpMax= 4.32D+04 ExpMxC= 6.48D+03 IAcc=3 IRadAn=         5 AccDes= 0.00D+00
 Harris functional with IExCor=  205 and IRadAn=       5 diagonalized for initial guess.
 HarFok:  IExCor=  205 AccDes= 0.00D+00 IRadAn=         5 IDoV= 1 UseB2=F ITyADJ=14
 ICtDFT=  3500011 ScaDFX=  1.000000  1.000000  1.000000  1.000000
 FoFCou: FMM=F IPFlag=           0 FMFlag=      100000 FMFlg1=           0
         NFxFlg=           0 DoJE=T BraDBF=F KetDBF=T FulRan=T
         wScrn=  0.000000 ICntrl=       500 IOpCl=  0 I1Cent=   200000004 NGrid=           0
         NMat0=    1 NMatS0=      1 NMatT0=    0 NMatD0=    1 NMtDS0=    0 NMtDT0=    0
 Petite list used in FoFCou.
 Harris En= -847.981281972248    
 JPrj=0 DoOrth=F DoCkMO=F.
 Initial guess orbital symmetries:
 Alpha Orbitals:
       Occupied  (SG) (SG) (SG) (PI) (PI) (SG) (SG) (PI) (PI) (SG)
                 (SG) (PI) (PI) (DLTA)
       Virtual   (DLTA) (SG) (PI) (PI) (SG) (SG) (PI) (PI) (SG)
                 (PI) (PI) (DLTA) (DLTA) (SG)
 Beta  Orbitals:
       Occupied  (SG) (SG) (SG) (PI) (PI) (SG) (SG) (PI) (PI)
       Virtual   (SG) (SG) (PI) (PI) (DLTA) (DLTA) (SG) (PI) (PI)
                 (SG) (SG) (PI) (PI) (SG) (PI) (PI) (DLTA) (DLTA)
                 (SG)
 Initial guess <Sx>= 0.0000 <Sy>= 0.0000 <Sz>= 2.5000 <S**2>= 8.7500 S= 2.5000
 Leave Link  401 at Mon Mar 28 12:47:42 2022, MaxMem=  9663676416 cpu:               4.3 elap:               0.1
 (Enter /nopt/nrel/apps/gaussian/g16C_1/g16/l502.exe)
 Keep R1 and R2 ints in memory in symmetry-blocked form, NReq=7501073.
 FoFCou: FMM=F IPFlag=           0 FMFlag=           0 FMFlg1=           0
         NFxFlg=           0 DoJE=F BraDBF=F KetDBF=F FulRan=T
         wScrn=  0.000000 ICntrl=       600 IOpCl=  0 I1Cent=           0 NGrid=           0
         NMat0=    1 NMatS0=    406 NMatT0=    0 NMatD0=    1 NMtDS0=    0 NMtDT0=    0
 Petite list used in FoFCou.
 UHF open shell SCF:
 Using DIIS extrapolation, IDIIS=  1040.
[...]
 NSaved=13 IEnMin=13 EnMin= -848.706503669419     IErMin=13 ErrMin= 2.27D-07
 ErrMax= 2.27D-07  0.00D+00 EMaxC= 1.00D-01 BMatC= 2.17D-12 BMatP= 6.41D-11
 IDIUse=1 WtCom= 1.00D+00 WtEn= 0.00D+00
 Coeff-Com:  0.449D-05-0.640D-05 0.265D-04-0.133D-03 0.348D-03-0.578D-03
 Coeff-Com: -0.473D-03-0.384D-02 0.331D-01-0.208D+00 0.401D+00-0.628D+00
 Coeff-Com:  0.141D+01
 Coeff:      0.449D-05-0.640D-05 0.265D-04-0.133D-03 0.348D-03-0.578D-03
 Coeff:     -0.473D-03-0.384D-02 0.331D-01-0.208D+00 0.401D+00-0.628D+00
 Coeff:      0.141D+01
 Gap=     0.199 Goal=   None    Shift=    0.000
 Gap=     1.471 Goal=   None    Shift=    0.000
 RMSDP=3.74D-07 MaxDP=6.71D-06 DE=-3.98D-10 OVMax= 1.56D-07

 Cycle  14  Pass 1  IDiag  1:
 E= -848.706503669429     Delta-E=       -0.000000000010 Rises=F Damp=F
 DIIS: error= 6.35D-08 at cycle  14 NSaved=  14.
 NSaved=14 IEnMin=14 EnMin= -848.706503669429     IErMin=14 ErrMin= 6.35D-08
 ErrMax= 6.35D-08  0.00D+00 EMaxC= 1.00D-01 BMatC= 7.72D-14 BMatP= 2.17D-12
 IDIUse=1 WtCom= 1.00D+00 WtEn= 0.00D+00
 Coeff-Com:  0.624D-06-0.961D-06-0.146D-05 0.289D-04-0.963D-04 0.199D-03
 Coeff-Com: -0.198D-03 0.116D-02-0.553D-02 0.402D-01-0.877D-01 0.166D+00
 Coeff-Com: -0.502D+00 0.139D+01
 Coeff:      0.624D-06-0.961D-06-0.146D-05 0.289D-04-0.963D-04 0.199D-03
 Coeff:     -0.198D-03 0.116D-02-0.553D-02 0.402D-01-0.877D-01 0.166D+00
 Coeff:     -0.502D+00 0.139D+01
 Gap=     0.199 Goal=   None    Shift=    0.000
 Gap=     1.471 Goal=   None    Shift=    0.000
 RMSDP=3.42D-08 MaxDP=6.75D-07 DE=-1.01D-11 OVMax= 2.48D-08

 Cycle  15  Pass 1  IDiag  1:
 E= -848.706503669430     Delta-E=       -0.000000000001 Rises=F Damp=F
 DIIS: error= 5.60D-09 at cycle  15 NSaved=  15.
 NSaved=15 IEnMin=15 EnMin= -848.706503669430     IErMin=15 ErrMin= 5.60D-09
 ErrMax= 5.60D-09  0.00D+00 EMaxC= 1.00D-01 BMatC= 1.49D-15 BMatP= 7.72D-14
 IDIUse=1 WtCom= 1.00D+00 WtEn= 0.00D+00
 Coeff-Com:  0.483D-06-0.588D-06 0.752D-07-0.533D-05 0.168D-04-0.344D-04
 Coeff-Com:  0.657D-04-0.271D-03 0.880D-03-0.483D-02 0.105D-01-0.216D-01
 Coeff-Com:  0.750D-01-0.335D+00 0.128D+01
 Coeff:      0.483D-06-0.588D-06 0.752D-07-0.533D-05 0.168D-04-0.344D-04
 Coeff:      0.657D-04-0.271D-03 0.880D-03-0.483D-02 0.105D-01-0.216D-01
 Coeff:      0.750D-01-0.335D+00 0.128D+01
 Gap=     0.199 Goal=   None    Shift=    0.000
 Gap=     1.471 Goal=   None    Shift=    0.000
 RMSDP=6.99D-09 MaxDP=2.07D-07 DE=-5.68D-13 OVMax= 3.36D-09

 SCF Done:  E(UHF) =  -848.706503669     A.U. after   15 cycles
            NFock= 15  Conv=0.70D-08     -V/T= 1.9987
 <Sx>= 0.0000 <Sy>= 0.0000 <Sz>= 2.5000 <S**2>= 8.7505 S= 2.5001
 <L.S>= 0.000000000000E+00
 KE= 8.498217359140D+02 PE=-2.031849925178D+03 EE= 3.260454989443D+02
 Annihilation of the first spin contaminant:
 S**2 before annihilation     8.7505,   after     8.7500
 Leave Link  502 at Mon Mar 28 12:47:42 2022, MaxMem=  9663676416 cpu:               6.8 elap:               0.2
 (Enter /nopt/nrel/apps/gaussian/g16C_1/g16/l801.exe)
 Windowed orbitals will be sorted by symmetry type.
 ExpMin= 3.20D-02 ExpMax= 4.32D+04 ExpMxC= 6.48D+03 IAcc=3 IRadAn=         5 AccDes= 0.00D+00
 HarFok:  IExCor=  205 AccDes= 0.00D+00 IRadAn=         5 IDoV=-2 UseB2=F ITyADJ=14
 ICtDFT= 12500011 ScaDFX=  1.000000  1.000000  1.000000  1.000000
 Largest valence mixing into a core orbital is  4.81D-03
 Largest core mixing into a valence orbital is  4.47D-03
 Range of M.O.s used for correlation:    10    28
 NBasis=    28 NAE=    14 NBE=     9 NFC=     9 NFV=     0
 NROrb=     19 NOA=     5 NOB=     0 NVA=    14 NVB=    19
 Leave Link  801 at Mon Mar 28 12:47:42 2022, MaxMem=  9663676416 cpu:               2.3 elap:               0.1
 (Enter /nopt/nrel/apps/gaussian/g16C_1/g16/l804.exe)
 Open-shell transformation, MDV=  9663676416 ITran=4 ISComp=2.
 Unit  1 TFree=         51647 TCopy=        128016.
 Semi-Direct transformation.
 ModeAB=           2 MOrb=             5 LenV=    9663489563
 LASXX=         3330 LTotXX=        3330 LenRXX=        3330
 LTotAB=        4378 MaxLAS=       44175 LenRXY=       44175
 NonZer=       49305 LenScr=      785920 LnRSAI=           0
 LnScr1=           0 LExtra=      232387 Total=      1065812
 MaxDsk= 34359738368 SrtSym=           F ITran=            4
 DoSDTr:  NPSUse= 36
 JobTyp=1 Pass  1:  I=   1 to   5.
 (rs|ai) integrals will be sorted in core.
 Complete sort for first half transformation.
 First half transformation complete.
 Complete sort for second half transformation.
 Second half transformation complete.
 Spin components of T(2) and E(2):
     alpha-alpha T2 =       0.5504385290D-02 E2=     -0.1254416667D-01
     alpha-beta  T2 =       0.0000000000D+00 E2=      0.0000000000D+00
     beta-beta   T2 =       0.0000000000D+00 E2=      0.0000000000D+00
 ANorm=    0.1002748416D+01
 E2 =    -0.1254416667D-01 EUMP2 =    -0.84871904783610D+03
 Leave Link  804 at Mon Mar 28 12:47:42 2022, MaxMem=  9663676416 cpu:               3.9 elap:               0.1
 (Enter /nopt/nrel/apps/gaussian/g16C_1/g16/l913.exe)
 CIDS:  MDV=  9663676416.
 Frozen-core window:  NFC=   9 NFV=   0.
 IFCWin=0 IBDFC=1 NFBD=     0     0 NFCmp=     0     0 NFFFC=     0     0
 Using original routines for 1st iteration.
 Using DD4UQ or CC4UQ for 2nd and later iterations.
 Keep R2 and R3 ints in memory in symmetry-blocked form, NReq=7503631.
 FoFCou: FMM=F IPFlag=           0 FMFlag=           0 FMFlg1=           0
         NFxFlg=           0 DoJE=F BraDBF=F KetDBF=F FulRan=T
         wScrn=  0.000000 ICntrl=       600 IOpCl=  0 I1Cent=           0 NGrid=           0
         NMat0=    1 NMatS0=    406 NMatT0=    0 NMatD0=    1 NMtDS0=    0 NMtDT0=    0
 Petite list used in FoFCou.
 CIDS: In Core Option IDoMem=           1.
 Coupled Cluster theory with single and double substitutions
 ===========================================================
 Iterations= 300 Convergence= 0.100D-06
 Produce multiple copies of IABC intergrals
 Iteration Nr.   1
 **********************
 DD1Dir will call FoFMem   1 times, MxPair=        10
 NAB=     0 NAA=    10 NBB=     0.
 MP4(R+Q)=  0.43288145D-04
 Maximum subspace dimension=  5
 A-vector RMS=  2.5993910D-03 Max=  8.7561293D-03 conv= 1.00D-05.
 RLE energy=       -0.0165035361
 E3=       -0.30520596D-02        EUMP3=      -0.84872209990D+03
 E4(DQ)=   -0.79888123D-03        UMP4(DQ)=   -0.84872289878D+03
 E4(SDQ)=  -0.90500652D-03        UMP4(SDQ)=  -0.84872300490D+03
 VARIATIONAL ENERGIES WITH THE FIRST-ORDER WAVEFUNCTION:
 DE(Corr)= -0.15553642E-01 E(Corr)=     -848.72205731    
 NORM(A)=   0.10053167D+01
 Iteration Nr.   2
 **********************
 DD1Dir will call FoFMem   1 times, MxPair=        10
 NAB=     0 NAA=    10 NBB=     0.
 A-vector RMS=  2.2664601D-03 Max=  9.6389495D-03 conv= 1.00D-05.
 RLE energy=       -0.0173561677
 DE(Corr)= -0.16740517E-01 E(CORR)=     -848.72324419     Delta=-1.19D-03
 NORM(A)=   0.10090797D+01
 Iteration Nr.   3
 **********************
 DD1Dir will call FoFMem   1 times, MxPair=        10
 NAB=     0 NAA=    10 NBB=     0.
 A-vector RMS=  1.9740640D-03 Max=  9.1509170D-03 conv= 1.00D-05.
 RLE energy=       -0.0188512596
 DE(Corr)= -0.17384489E-01 E(CORR)=     -848.72388816     Delta=-6.44D-04
 NORM(A)=   0.10350926D+01
 Iteration Nr.   4
 **********************
 DD1Dir will call FoFMem   1 times, MxPair=        10
 NAB=     0 NAA=    10 NBB=     0.
 A-vector RMS=  1.7269787D-03 Max=  6.3371077D-03 conv= 1.00D-05.
 RLE energy=       -0.0200715737
 DE(Corr)= -0.18812914E-01 E(CORR)=     -848.72531658     Delta=-1.43D-03
 NORM(A)=   0.10929496D+01
 Iteration Nr.   5
 **********************
 DD1Dir will call FoFMem   1 times, MxPair=        10
 NAB=     0 NAA=    10 NBB=     0.
 A-vector RMS=  1.4678577D-03 Max=  8.7792141D-03 conv= 1.00D-05.
 RLE energy=       -0.0201089166
 DE(Corr)= -0.20068207E-01 E(CORR)=     -848.72657188     Delta=-1.26D-03
 NORM(A)=   0.10993212D+01
 Iteration Nr.   6
 **********************
 DD1Dir will call FoFMem   1 times, MxPair=        10
 NAB=     0 NAA=    10 NBB=     0.
 A-vector RMS=  6.3268190D-04 Max=  3.3053404D-03 conv= 1.00D-05.
 RLE energy=       -0.0201118728
 DE(Corr)= -0.20099212E-01 E(CORR)=     -848.72660288     Delta=-3.10D-05
 NORM(A)=   0.11025660D+01
 Iteration Nr.   7
 **********************
 DD1Dir will call FoFMem   1 times, MxPair=        10
 NAB=     0 NAA=    10 NBB=     0.
 A-vector RMS=  2.3827903D-04 Max=  1.0753596D-03 conv= 1.00D-05.
 RLE energy=       -0.0201223485
 DE(Corr)= -0.20112048E-01 E(CORR)=     -848.72661572     Delta=-1.28D-05
 NORM(A)=   0.11055262D+01
 Iteration Nr.   8
 **********************
 DD1Dir will call FoFMem   1 times, MxPair=        10
 NAB=     0 NAA=    10 NBB=     0.
 A-vector RMS=  1.6805283D-04 Max=  7.7905729D-04 conv= 1.00D-05.
 RLE energy=       -0.0201044419
 DE(Corr)= -0.20122362E-01 E(CORR)=     -848.72662603     Delta=-1.03D-05
 NORM(A)=   0.11050218D+01
 Iteration Nr.   9
 **********************
 DD1Dir will call FoFMem   1 times, MxPair=        10
 NAB=     0 NAA=    10 NBB=     0.
 A-vector RMS=  1.2315559D-04 Max=  5.5735857D-04 conv= 1.00D-05.
 RLE energy=       -0.0201005445
 DE(Corr)= -0.20105506E-01 E(CORR)=     -848.72660918     Delta= 1.69D-05
 NORM(A)=   0.11046536D+01
 Iteration Nr.  10
 **********************
 DD1Dir will call FoFMem   1 times, MxPair=        10
 NAB=     0 NAA=    10 NBB=     0.
 A-vector RMS=  6.5335199D-05 Max=  2.8749142D-04 conv= 1.00D-05.
 RLE energy=       -0.0201039197
 DE(Corr)= -0.20093157E-01 E(CORR)=     -848.72659683     Delta= 1.23D-05
 NORM(A)=   0.11053306D+01
 Iteration Nr.  11
 **********************
 DD1Dir will call FoFMem   1 times, MxPair=        10
 NAB=     0 NAA=    10 NBB=     0.
 A-vector RMS=  4.1053002D-05 Max=  2.5664580D-04 conv= 1.00D-05.
 RLE energy=       -0.0201323338
 DE(Corr)= -0.20098861E-01 E(CORR)=     -848.72660253     Delta=-5.70D-06
 NORM(A)=   0.11073841D+01
 Iteration Nr.  12
 **********************
 DD1Dir will call FoFMem   1 times, MxPair=        10
 NAB=     0 NAA=    10 NBB=     0.
 A-vector RMS=  3.7283682D-05 Max=  1.7990996D-04 conv= 1.00D-05.
 RLE energy=       -0.0201431186
 DE(Corr)= -0.20129580E-01 E(CORR)=     -848.72663325     Delta=-3.07D-05
 NORM(A)=   0.11083745D+01
 Iteration Nr.  13
 **********************
 DD1Dir will call FoFMem   1 times, MxPair=        10
 NAB=     0 NAA=    10 NBB=     0.
 A-vector RMS=  2.5635670D-05 Max=  1.1124394D-04 conv= 1.00D-05.
 RLE energy=       -0.0201527334
 DE(Corr)= -0.20146886E-01 E(CORR)=     -848.72665056     Delta=-1.73D-05
 NORM(A)=   0.11087251D+01
 Iteration Nr.  14
 **********************
 DD1Dir will call FoFMem   1 times, MxPair=        10
 NAB=     0 NAA=    10 NBB=     0.
 A-vector RMS=  2.0236692D-05 Max=  7.8208032D-05 conv= 1.00D-05.
 RLE energy=       -0.0201444921
 DE(Corr)= -0.20155430E-01 E(CORR)=     -848.72665910     Delta=-8.54D-06
 NORM(A)=   0.11080496D+01
 Iteration Nr.  15
 **********************
 DD1Dir will call FoFMem   1 times, MxPair=        10
 NAB=     0 NAA=    10 NBB=     0.
 A-vector RMS=  1.1788314D-05 Max=  4.5928246D-05 conv= 1.00D-05.
 RLE energy=       -0.0201461962
 DE(Corr)= -0.20146163E-01 E(CORR)=     -848.72664983     Delta= 9.27D-06
 NORM(A)=   0.11080389D+01
 Iteration Nr.  16
 **********************
 DD1Dir will call FoFMem   1 times, MxPair=        10
 NAB=     0 NAA=    10 NBB=     0.
 A-vector RMS=  7.9049912D-06 Max=  3.3211285D-05 conv= 1.00D-05.
 RLE energy=       -0.0201436683
 DE(Corr)= -0.20146119E-01 E(CORR)=     -848.72664979     Delta= 4.32D-08
 NORM(A)=   0.11079299D+01
 Iteration Nr.  17
 **********************
 DD1Dir will call FoFMem   1 times, MxPair=        10
 NAB=     0 NAA=    10 NBB=     0.
 A-vector RMS=  4.9700920D-06 Max=  1.9721327D-05 conv= 1.00D-05.
 RLE energy=       -0.0201413283
 DE(Corr)= -0.20143713E-01 E(CORR)=     -848.72664738     Delta= 2.41D-06
 NORM(A)=   0.11078221D+01
 Iteration Nr.  18
 **********************
 DD1Dir will call FoFMem   1 times, MxPair=        10
 NAB=     0 NAA=    10 NBB=     0.
 A-vector RMS=  1.5285522D-06 Max=  7.1448618D-06 conv= 1.00D-05.
 RLE energy=       -0.0201408475
 DE(Corr)= -0.20141124E-01 E(CORR)=     -848.72664479     Delta= 2.59D-06
 NORM(A)=   0.11078115D+01
 Iteration Nr.  19
 **********************
 DD1Dir will call FoFMem   1 times, MxPair=        10
 NAB=     0 NAA=    10 NBB=     0.
 A-vector RMS=  1.3122398D-06 Max=  4.3500010D-06 conv= 1.00D-05.
 RLE energy=       -0.0201411236
 DE(Corr)= -0.20140807E-01 E(CORR)=     -848.72664448     Delta= 3.18D-07
 NORM(A)=   0.11078166D+01
 Iteration Nr.  20
 **********************
 DD1Dir will call FoFMem   1 times, MxPair=        10
 NAB=     0 NAA=    10 NBB=     0.
 A-vector RMS=  8.0253468D-07 Max=  2.5920320D-06 conv= 1.00D-05.
 RLE energy=       -0.0201411508
 DE(Corr)= -0.20141015E-01 E(CORR)=     -848.72664468     Delta=-2.09D-07
 NORM(A)=   0.11078187D+01
 Iteration Nr.  21
 **********************
 DD1Dir will call FoFMem   1 times, MxPair=        10
 NAB=     0 NAA=    10 NBB=     0.
 A-vector RMS=  4.2239882D-07 Max=  1.3450568D-06 conv= 1.00D-05.
 RLE energy=       -0.0201412370
 DE(Corr)= -0.20141079E-01 E(CORR)=     -848.72664475     Delta=-6.38D-08
 NORM(A)=   0.11078253D+01
 CI/CC converged in   21 iterations to DelEn=-6.38D-08 Conv= 1.00D-07 ErrA1= 4.22D-07 Conv= 1.00D-05
 Wavefunction amplitudes converged. E(Corr)=     -848.72664475    
 Dominant configurations:
 ***********************
 Spin Case        I    J    A    B          Value
    AA           11        16           -0.252215D+00
    AA           12        15           -0.252215D+00
 Largest amplitude= 2.52D-01
 Discarding MO integrals.
 Leave Link  913 at Mon Mar 28 12:47:43 2022, MaxMem=  9663676416 cpu:               7.6 elap:               0.2
 (Enter /nopt/nrel/apps/gaussian/g16C_1/g16/l601.exe)
 Copying SCF densities to generalized density rwf, IOpCl= 1 IROHF=0.

 **********************************************************************

            Population analysis using the SCF Density.

 **********************************************************************

 Orbital symmetries:
 Alpha Orbitals:
       Occupied  (SG) (SG) (SG) (PI) (PI) (SG) (SG) (PI) (PI) (SG)
                 (PI) (PI) (?A) (SG)
       Virtual   (PI) (PI) (SG) (SG) (PI) (PI) (SG) (?A) (SG) (PI)
                 (PI) (?A) (?A) (SG)
 Beta  Orbitals:
       Occupied  (SG) (SG) (PI) (PI) (SG) (SG) (SG) (PI) (PI)
       Virtual   (SG) (PI) (PI) (SG) (SG) (SG) (PI) (PI) (SG) (DLTA)
                 (PI) (PI) (DLTA) (SG) (DLTA) (PI) (PI) (DLTA)
                 (SG)
 Unable to determine electronic state:  an orbital has unidentified symmetry.
 Alpha  occ. eigenvalues -- -183.00378 -21.18172 -17.55361 -17.55180 -17.55180
 Alpha  occ. eigenvalues --   -2.74600  -1.72204  -1.70143  -1.70143  -0.61227
 Alpha  occ. eigenvalues --   -0.24641  -0.24641  -0.24604  -0.16677
 Alpha virt. eigenvalues --    0.03185   0.03185   0.06062   0.18180   0.24896
 Alpha virt. eigenvalues --    0.24896   0.27668   0.31453   0.55850   1.15495
 Alpha virt. eigenvalues --    1.15495   1.16661   1.28973   1.46481
  Beta  occ. eigenvalues -- -183.00100 -21.13945 -17.51136 -17.51136 -17.51055
  Beta  occ. eigenvalues --   -2.56694  -1.49160  -1.48670  -1.48670
  Beta virt. eigenvalues --   -0.01575   0.06436   0.06436   0.07028   0.14704
  Beta virt. eigenvalues --    0.26874   0.30909   0.30909   0.34906   0.38047
  Beta virt. eigenvalues --    0.39778   0.39778   0.40423   0.73623   1.33848
  Beta virt. eigenvalues --    1.35510   1.35510   1.36076   1.53387
          Condensed to atoms (all electrons):
               1          2
     1  H    0.713282   0.092551
     2  Ti   0.092551  22.101616
          Atomic-Atomic Spin Densities.
               1          2
     1  H    0.712726   0.086639
     2  Ti   0.086639   4.113997
 Mulliken charges and spin densities:
               1          2
     1  H    0.194167   0.799364
     2  Ti  -0.194167   4.200636
 Sum of Mulliken charges =  -0.00000   5.00000
 Mulliken charges and spin densities with hydrogens summed into heavy atoms:
               1          2
     2  Ti  -0.000000   5.000000
 N-N= 7.276186650150D+00 E-N=-2.031849925270D+03  KE= 8.498217359140D+02
 Symmetry A1   KE= 6.585063482076D+02
 Symmetry A2   KE= 1.017331201334D-31
 Symmetry B1   KE= 9.565769385322D+01
 Symmetry B2   KE= 9.565769385322D+01
 Symmetry A1   SP= 3.000000000000D+00
 Symmetry A2   SP= 2.999519565324D-32
 Symmetry B1   SP= 1.000000000000D+00
 Symmetry B2   SP= 1.000000000000D+00

 Atomic contributions to Alpha molecular orbitals:
 Alpha occ 1 OE=-183.004 is Ti2-s=1.0000
 Alpha occ 2 OE=-21.182 is Ti2-s=1.0000
 Alpha occ 3 OE=-17.554 is Ti2-p=1.0000
 Alpha occ 4 OE=-17.552 is Ti2-p=1.0000
 Alpha occ 5 OE=-17.552 is Ti2-p=1.0000
 Alpha occ 6 OE=-2.746 is Ti2-s=0.9991
 Alpha occ 7 OE=-1.722 is Ti2-p=0.9910
 Alpha occ 8 OE=-1.701 is Ti2-p=1.0000
 Alpha occ 9 OE=-1.701 is Ti2-p=1.0000
 Alpha occ 10 OE=-0.612 is H1-s=0.7844
 Alpha occ 11 OE=-0.246 is Ti2-d=0.9789
 Alpha occ 12 OE=-0.246 is Ti2-d=0.9789
 Alpha occ 13 OE=-0.246 is Ti2-d=1.0000
 Alpha occ 14 OE=-0.167 is Ti2-s=0.7922 Ti2-p=0.1825
 Alpha vir 15 OE=0.032 is Ti2-p=0.9870
 Alpha vir 16 OE=0.032 is Ti2-p=0.9870
 Alpha vir 17 OE=0.061 is Ti2-p=0.7699 Ti2-s=0.1718
 Alpha vir 18 OE=0.182 is Ti2-s=0.8698
 Alpha vir 19 OE=0.249 is Ti2-p=0.9917
 Alpha vir 20 OE=0.249 is Ti2-p=0.9917
 Alpha vir 21 OE=0.277 is Ti2-p=0.5937 Ti2-d=0.4099
 Alpha vir 22 OE=0.315 is Ti2-d=1.0000
 Alpha vir 23 OE=0.558 is Ti2-d=0.4425 Ti2-p=0.2927 H1-s=0.1779
 Alpha vir 24 OE=1.155 is Ti2-d=0.9998
 Alpha vir 25 OE=1.155 is Ti2-d=0.9998
 Alpha vir 26 OE=1.167 is Ti2-d=1.0000
 Alpha vir 27 OE=1.290 is Ti2-d=1.0000
 Alpha vir 28 OE=1.465 is Ti2-d=0.9695

 Atomic contributions to Beta  molecular orbitals:
 Beta  occ 1 OE=-183.001 is Ti2-s=1.0000
 Beta  occ 2 OE=-21.139 is Ti2-s=1.0000
 Beta  occ 3 OE=-17.511 is Ti2-p=1.0000
 Beta  occ 4 OE=-17.511 is Ti2-p=1.0000
 Beta  occ 5 OE=-17.511 is Ti2-p=1.0000
 Beta  occ 6 OE=-2.567 is Ti2-s=0.9990
 Beta  occ 7 OE=-1.492 is Ti2-p=0.9960
 Beta  occ 8 OE=-1.487 is Ti2-p=0.9999
 Beta  occ 9 OE=-1.487 is Ti2-p=0.9999
 Beta  vir 10 OE=-0.016 is Ti2-s=0.5743 Ti2-p=0.2161 H1-s=0.1975
 Beta  vir 11 OE=0.064 is Ti2-p=0.9999
 Beta  vir 12 OE=0.064 is Ti2-p=0.9999
 Beta  vir 13 OE=0.070 is Ti2-p=0.6542 Ti2-s=0.3260
 Beta  vir 14 OE=0.147 is Ti2-s=0.3548 Ti2-p=0.2804 H1-s=0.2660
 Beta  vir 15 OE=0.269 is Ti2-s=0.6859 Ti2-p=0.1661 Ti2-d=0.1061
 Beta  vir 16 OE=0.309 is Ti2-p=0.9917
 Beta  vir 17 OE=0.309 is Ti2-p=0.9917
 Beta  vir 18 OE=0.349 is Ti2-d=0.5112 Ti2-p=0.4855
 Beta  vir 19 OE=0.380 is Ti2-d=1.0000
 Beta  vir 20 OE=0.398 is Ti2-d=0.9916
 Beta  vir 21 OE=0.398 is Ti2-d=0.9916
 Beta  vir 22 OE=0.404 is Ti2-d=1.0000
 Beta  vir 23 OE=0.736 is H1-s=0.4287 Ti2-d=0.3253 Ti2-p=0.1915
 Beta  vir 24 OE=1.338 is Ti2-d=1.0000
 Beta  vir 25 OE=1.355 is Ti2-d=0.9998
 Beta  vir 26 OE=1.355 is Ti2-d=0.9998
 Beta  vir 27 OE=1.361 is Ti2-d=1.0000
 Beta  vir 28 OE=1.534 is Ti2-d=0.9436
 
 Leave Link  601 at Mon Mar 28 12:47:43 2022, MaxMem=  9663676416 cpu:               1.1 elap:               0.1
 (Enter /nopt/nrel/apps/gaussian/g16C_1/g16/l9999.exe)

 Test job not archived.
 1\1\GINC-R3I7N35\SP\UCCSD-FC\Gen\H1Ti1(6)\USER\28-Mar-2022\0\\#P C
 CSD(MaxCyc=300,SaveAmplitudes,ReadAmplitudes)/GEN sp pop=AllOrbitals i
 op(3/33=1,3/36=-1)\\test\\0,6\H,0,0.,0.,0.\Ti,0,0.,0.,1.6\\Version=ES6
 4L-G16RevC.01\HF=-848.7065037\MP2=-848.7190478\MP3=-848.7220999\MP4D=-
 848.7229421\MP4DQ=-848.7228988\MP4SDQ=-848.7230049\CCSD=-848.7266447\S
 2=8.750483\S2-1=0.\S2A=8.75\RMSD=6.986e-09\PG=C*V [C*(H1Ti1)]\\@


 ... IT IS NO ONE DREAME THAT
     CAN PLEASE THESE ALL ...

                -- BEN JONSON
 Job cpu time:       0 days  0 hours  0 minutes 40.6 seconds.
 Elapsed time:       0 days  0 hours  0 minutes  1.5 seconds.
 File lengths (MBytes):  RWF=     13 Int=      0 D2E=      0 Chk=      1 Scr=      1
 Normal termination of Gaussian 16 at Mon Mar 28 12:47:43 2022.
