 Entering Gaussian System, Link 0=g16
 Initial command:
 /nopt/nrel/apps/gaussian/g16C_1/g16/l1.exe "/lustre/eaglefs/scratch/user/qc/nah-dissc/nah-1-ccsd-1.1-sto3g/Gau-18116.inp" -scrdir="/lustre/eaglefs/scratch/user/qc/nah-dissc/nah-1-ccsd-1.1-sto3g/"
 Default is to use a total of  36 processors:
                               36 via shared-memory
                                1 via Linda
 Entering Link 1 = /nopt/nrel/apps/gaussian/g16C_1/g16/l1.exe PID=     18117.
  
 Copyright (c) 1988-2019, Gaussian, Inc.  All Rights Reserved.
  
 This is part of the Gaussian(R) 16 program.  It is based on
 the Gaussian(R) 09 system (copyright 2009, Gaussian, Inc.),
 the Gaussian(R) 03 system (copyright 2003, Gaussian, Inc.),
 the Gaussian(R) 98 system (copyright 1998, Gaussian, Inc.),
 the Gaussian(R) 94 system (copyright 1995, Gaussian, Inc.),
 the Gaussian 92(TM) system (copyright 1992, Gaussian, Inc.),
 the Gaussian 90(TM) system (copyright 1990, Gaussian, Inc.),
 the Gaussian 88(TM) system (copyright 1988, Gaussian, Inc.),
 the Gaussian 86(TM) system (copyright 1986, Carnegie Mellon
 University), and the Gaussian 82(TM) system (copyright 1983,
 Carnegie Mellon University). Gaussian is a federally registered
 trademark of Gaussian, Inc.
  
 This software contains proprietary and confidential information,
 including trade secrets, belonging to Gaussian, Inc.
  
 This software is provided under written license and may be
 used, copied, transmitted, or stored only in accord with that
 written license.
  
 The following legend is applicable only to US Government
 contracts under FAR:
  
                    RESTRICTED RIGHTS LEGEND
  
 Use, reproduction and disclosure by the US Government is
 subject to restrictions as set forth in subparagraphs (a)
 and (c) of the Commercial Computer Software - Restricted
 Rights clause in FAR 52.227-19.
  
 Gaussian, Inc.
 340 Quinnipiac St., Bldg. 40, Wallingford CT 06492
  
  
 ---------------------------------------------------------------
 Warning -- This program may not be used in any manner that
 competes with the business of Gaussian, Inc. or will provide
 assistance to any competitor of Gaussian, Inc.  The licensee
 of this program is prohibited from giving any competitor of
 Gaussian, Inc. access to this program.  By using this program,
 the user acknowledges that Gaussian, Inc. is engaged in the
 business of creating and licensing software in the field of
 computational chemistry and represents and warrants to the
 licensee that it is not a competitor of Gaussian, Inc. and that
 it will not use this program in any manner prohibited above.
 ---------------------------------------------------------------
  

 Cite this work as:
 Gaussian 16, Revision C.01,
 M. J. Frisch, G. W. Trucks, H. B. Schlegel, G. E. Scuseria, 
 M. A. Robb, J. R. Cheeseman, G. Scalmani, V. Barone, 
 G. A. Petersson, H. Nakatsuji, X. Li, M. Caricato, A. V. Marenich, 
 J. Bloino, B. G. Janesko, R. Gomperts, B. Mennucci, H. P. Hratchian, 
 J. V. Ortiz, A. F. Izmaylov, J. L. Sonnenberg, D. Williams-Young, 
 F. Ding, F. Lipparini, F. Egidi, J. Goings, B. Peng, A. Petrone, 
 T. Henderson, D. Ranasinghe, V. G. Zakrzewski, J. Gao, N. Rega, 
 G. Zheng, W. Liang, M. Hada, M. Ehara, K. Toyota, R. Fukuda, 
 J. Hasegawa, M. Ishida, T. Nakajima, Y. Honda, O. Kitao, H. Nakai, 
 T. Vreven, K. Throssell, J. A. Montgomery, Jr., J. E. Peralta, 
 F. Ogliaro, M. J. Bearpark, J. J. Heyd, E. N. Brothers, K. N. Kudin, 
 V. N. Staroverov, T. A. Keith, R. Kobayashi, J. Normand, 
 K. Raghavachari, A. P. Rendell, J. C. Burant, S. S. Iyengar, 
 J. Tomasi, M. Cossi, J. M. Millam, M. Klene, C. Adamo, R. Cammi, 
 J. W. Ochterski, R. L. Martin, K. Morokuma, O. Farkas, 
 J. B. Foresman, and D. J. Fox, Gaussian, Inc., Wallingford CT, 2019.
 
 ******************************************
 Gaussian 16:  ES64L-G16RevC.01  3-Jul-2019
                28-Mar-2022 
 ******************************************
 %chk=molecule
 Default route: CacheSize=180224 MaxDisk=256GB
 ----------------------------------------------------------------------
 #P CCSD(MaxCyc=200,SaveAmplitudes,ReadAmplitudes)/GEN sp pop=AllOrbita
 ls iop(3/33=1,3/36=-1)
 ----------------------------------------------------------------------
 1/4=180224,38=1,172=1/1;
 2/4=180224,12=2,17=6,18=5,40=1/2;
 3/4=180224,5=7,11=9,25=1,30=1,33=1,36=-1/1,2,3;
 4/4=180224/1;
 5/4=180224,5=2,38=5/2;
 8/4=180224,6=4,9=120000,10=1,24=1/1,4;
 9/4=180224,5=7,6=200,77=1/13;
 6/4=180224,7=2,8=2,9=2,10=2,96=-1/1;
 99/4=180224,5=1,9=1/99;
 Leave Link    1 at Mon Mar 28 14:18:24 2022, MaxMem=           0 cpu:               2.6 elap:               0.1
 (Enter /nopt/nrel/apps/gaussian/g16C_1/g16/l101.exe)
 ----
 test
 ----
 Symbolic Z-matrix:
 Charge =  0 Multiplicity = 1
 H                     0.        0.        0. 
 Na                    0.        0.        1.1 
 
 ITRead=  0  0
 MicOpt= -1 -1
 NAtoms=      2 NQM=        2 NQMF=       0 NMMI=      0 NMMIF=      0
                NMic=       0 NMicF=      0.
                    Isotopes and Nuclear Properties:
 (Nuclear quadrupole moments (NQMom) in fm**2, nuclear magnetic moments (NMagM)
  in nuclear magnetons)

  Atom         1           2
 IAtWgt=           1          23
 AtmWgt=   1.0078250  22.9897697
 NucSpn=           1           3
 AtZEff=  -0.0000000  -0.0000000
 NQMom=    0.0000000  10.4000000
 NMagM=    2.7928460   2.2175200
 AtZNuc=   1.0000000  11.0000000
 Leave Link  101 at Mon Mar 28 14:18:24 2022, MaxMem=  9663676416 cpu:               3.1 elap:               0.1
 (Enter /nopt/nrel/apps/gaussian/g16C_1/g16/l202.exe)
                          Input orientation:                          
 ---------------------------------------------------------------------
 Center     Atomic      Atomic             Coordinates (Angstroms)
 Number     Number       Type             X           Y           Z
 ---------------------------------------------------------------------
      1          1           0        0.000000    0.000000    0.000000
      2         11           0        0.000000    0.000000    1.100000
 ---------------------------------------------------------------------
 Stoichiometry    HNa
 Framework group  C*V[C*(HNa)]
 Deg. of freedom     1
 Full point group                 C*V     NOp   4
 Largest Abelian subgroup         C2V     NOp   4
 Largest concise Abelian subgroup C1      NOp   1
                         Standard orientation:                         
 ---------------------------------------------------------------------
 Center     Atomic      Atomic             Coordinates (Angstroms)
 Number     Number       Type             X           Y           Z
 ---------------------------------------------------------------------
      1          1           0        0.000000    0.000000   -1.008333
      2         11           0        0.000000    0.000000    0.091667
 ---------------------------------------------------------------------
 Rotational constants (GHZ):           0.0000000         432.5932915         432.5932915
 Leave Link  202 at Mon Mar 28 14:18:24 2022, MaxMem=  9663676416 cpu:               1.0 elap:               0.1
 (Enter /nopt/nrel/apps/gaussian/g16C_1/g16/l301.exe)
 General basis read from cards:  (5D, 7F)
                         Coordinates in L301:                         
 ---------------------------------------------------------------------
 Center     Atomic      Atomic             Coordinates (Angstroms)
 Number     Number       Type             X           Y           Z
 ---------------------------------------------------------------------
      1          1           0        0.000000    0.000000   -1.008333
      2         11           0        0.000000    0.000000    0.091667
 ---------------------------------------------------------------------
 Centers:       1
 STO-3G
 ****
 Centers:       2
 STO-3G
 ****
 FixB: optimizing general contractions.
 Ernie: Thresh=  0.10000D-02 Tol=  0.10000D-05 Strict=F.
 IA=     1 ShT= 0 ShC= 0 NL=   1 NS=   0.
 IA=     1 L=0 SC=0 ISt=    0 NBk=    0 NP=    0 IndPr=    0.
 IA=     2 ShT= 0 ShC= 0 NL=   1 NS=   0.
 IA=     2 L=0 SC=0 ISt=    0 NBk=    0 NP=    0 IndPr=    0.
 IA=     2 ShT= 1 ShC= 0 NL=   2 NS=   0.
 IA=     2 L=1 SC=0 ISt=    1 NBk=    2 NP=    6 IndPr=    0.
 DoElim1:  L=1 select primitive    1 from    2 using    1 C=-1.00D-01
 DoElim2:  L=1 select primitive    6 from    1 using    2 C= 9.00D-01
 DoElim1:  L=1 select primitive    1 from    2 using    1 C= 1.56D-01
 DoElim2:  L=1 select primitive    5 from    1 using    2 C= 5.95D-01
 Delete L=1 primitive    4 from    2 C=  0.00D+00.
 Delete L=1 primitive    2 from    2 C=  0.00D+00.
 Delete L=1 primitive    1 from    2 C=  0.00D+00.
 Delete L=1 primitive    6 from    1 C=  0.00D+00.
 Delete L=1 primitive    5 from    1 C=  0.00D+00.
 Delete L=1 primitive    3 from    1 C=  0.00D+00.
 IA=     2 L=1 SC=0 ISt=    0 NBk=    0 NP=    0 IndPr=    6.
 LdAtmC:  AtmChg=     1.000000    11.000000
 AtZEff=     -1.0000000    -10.0400000
 NEqShl: 
              1            2            3            4
     1            1            1            1            1
     2            2            2            2            2
     3            3            3            3            3
     4            4            4            4            4
 NEqBas: 
              1            2            3            4
     1            1            1            1            1
     2            2            2            2            2
     3            3            3            3            3
     4            4           -4           -4            4
     5            5           -5            5           -5
     6            6            6            6            6
     7            7            7            7            7
     8            8           -8           -8            8
     9            9           -9            9           -9
    10           10           10           10           10
 There are     6 symmetry adapted cartesian basis functions of A1  symmetry.
   1         1   1   1   1
   2         2   2   2   2
   3         3   3   3   3
   4         6   6   6   6
   5         7   7   7   7
   6        10  10  10  10
 There are     0 symmetry adapted cartesian basis functions of A2  symmetry.
 There are     2 symmetry adapted cartesian basis functions of B1  symmetry.
   7         4   4   4   4
   8         8   8   8   8
 There are     2 symmetry adapted cartesian basis functions of B2  symmetry.
   9         5   5   5   5
  10         9   9   9   9
 Order= 1 2 4 3
 Reordered character table:
              1            2            3            4            5
     1            1            1            1            1            1
     2            2            1            1           -1           -1
     3            4            1           -1           -1            1
     4            3            1           -1            1           -1
 NEqShl: 
              1            2            3            4
     1            1            1            1            1
     2            2            2            2            2
     3            3            3            3            3
     4            4            4            4            4
 NEqBas: 
              1            2            3            4
     1            1            1            1            1
     2            2            2            2            2
     3            3            3            3            3
     4            4           -4           -4            4
     5            5           -5            5           -5
     6            6            6            6            6
     7            7            7            7            7
     8            8           -8           -8            8
     9            9           -9            9           -9
    10           10           10           10           10
 There are     6 symmetry adapted basis functions of A1  symmetry.
   1         1   1   1   1
   2         2   2   2   2
   3         3   3   3   3
   4         6   6   6   6
   5         7   7   7   7
   6        10  10  10  10
 There are     0 symmetry adapted basis functions of A2  symmetry.
 There are     2 symmetry adapted basis functions of B1  symmetry.
   7         4   4   4   4
   8         8   8   8   8
 There are     2 symmetry adapted basis functions of B2  symmetry.
   9         5   5   5   5
  10         9   9   9   9
 Order= 1 2 4 3
 Reordered character table:
              1            2            3            4            5
     1            1            1            1            1            1
     2            2            1            1           -1           -1
     3            4            1           -1           -1            1
     4            3            1           -1            1           -1
    10 basis functions,    30 primitive gaussians,    10 cartesian basis functions
     6 alpha electrons        6 beta electrons
       nuclear repulsion energy         5.2917721092 Hartrees.
 IS=     1 IAt=     1 ISR=     1 T=0 IP=      1 IndIP=      1 IndIPD=      0 C=  2.769344D-01  0.000000D+00                             NZ=T
 IS=     1 IAt=     1 ISR=     1 T=0 IP=      2 IndIP=      2 IndIPD=      1 C=  2.678389D-01  0.000000D+00                             NZ=T
 IS=     1 IAt=     1 ISR=     1 T=0 IP=      3 IndIP=      3 IndIPD=      2 C=  8.347367D-02  0.000000D+00                             NZ=T
 IS=     2 IAt=     2 ISR=     1 T=0 IP=      1 IndIP=      4 IndIPD=      0 C=  6.931343D+00  0.000000D+00                             NZ=T
 IS=     2 IAt=     2 ISR=     1 T=0 IP=      2 IndIP=      5 IndIPD=      1 C=  6.703693D+00  0.000000D+00                             NZ=T
 IS=     2 IAt=     2 ISR=     1 T=0 IP=      3 IndIP=      6 IndIPD=      2 C=  2.089248D+00  0.000000D+00                             NZ=T
 IS=     3 IAt=     2 ISR=     2 T=1 IP=      1 IndIP=      7 IndIPD=      0 C= -4.605140D-01  4.984520D+00                             NZ=T
 IS=     3 IAt=     2 ISR=     2 T=1 IP=      2 IndIP=      8 IndIPD=      1 C=  6.159747D-01  3.134400D+00                             NZ=T
 IS=     3 IAt=     2 ISR=     2 T=1 IP=      3 IndIP=      9 IndIPD=      2 C=  4.648853D-01  4.965416D-01                             NZ=T
 IS=     4 IAt=     2 ISR=     3 T=1 IP=      1 IndIP=     10 IndIPD=      0 C= -2.098948D-01  2.460950D-02                             NZ=T
 IS=     4 IAt=     2 ISR=     3 T=1 IP=      2 IndIP=     11 IndIPD=      1 C=  8.276745D-02  2.805074D-01                             NZ=T
 IS=     4 IAt=     2 ISR=     3 T=1 IP=      3 IndIP=     12 IndIPD=      2 C=  1.634647D-01  6.740855D-02                             NZ=T
 IExCor=    0 DFT=F Ex=HF Corr=None ExCW=0 ScaHFX=  1.000000
 ScaDFX=  1.000000  1.000000  1.000000  1.000000 ScalE2=  1.000000  1.000000
 IRadAn=      5 IRanWt=     -1 IRanGd=            0 ICorTp=0 IEmpDi=  4
 NAtoms=    2 NActive=    2 NUniq=    2 SFac= 1.00D+00 NAtFMM=   60 NAOKFM=F Big=F
 Integral buffers will be    131072 words long.
 Raffenetti 1 integral format.
 Two-electron integral symmetry is turned on.
 Leave Link  301 at Mon Mar 28 14:18:24 2022, MaxMem=  9663676416 cpu:               2.1 elap:               0.1
 (Enter /nopt/nrel/apps/gaussian/g16C_1/g16/l302.exe)
 NPDir=0 NMtPBC=     1 NCelOv=     1 NCel=       1 NClECP=     1 NCelD=      1
         NCelK=      1 NCelE2=     1 NClLst=     1 CellRange=     0.0.
 One-electron integrals computed using PRISM.
 One-electron integral symmetry used in STVInt
 Entering OneElI...
 Calculate overlap and kinetic energy integrals
    NBasis =  10  MinDer = 0  MaxDer = 0
 Requested accuracy = 0.1000D-12
 Symmetry will be used
 PrmmSu-InSpLW:  IPartL=    0 NPrtUS=   36 NPrtUL=    1 DoSpLW=F IThBeg=    0 IThEnd=   35 NThAct=   36.
 PrSmSu:  IncTry=   512 NBBP=             10 NTPThr=   100 NPartT=   36 Incr=           1 LDynOK=F GPUOK=F.
 PrsmSu:  NPrtUS=  36 ThrOK=T IAlg=1 LenDen=           0 ISkipM=0 DoSpLW=F IThBeg=    0 IThEnd=   35.
 Prism:   IPart=     0 DynPar=F LinDyn=F Incr=           1.
 PRISM was handed   268433911 working-precision words and    10 shell-pairs
 PRISM was handed   268433911 working-precision words and    10 shell-pairs
 PRISM was handed   268433911 working-precision words and    10 shell-pairs
 PRISM was handed   268433911 working-precision words and    10 shell-pairs
 PRISM was handed   268433911 working-precision words and    10 shell-pairs
 PRISM was handed   268433911 working-precision words and    10 shell-pairs
 PRISM was handed   268433911 working-precision words and    10 shell-pairs
 PRISM was handed   268433911 working-precision words and    10 shell-pairs
 IPart= 21 NShTot=           0 NBatch=           0 AvBLen=         0.0
 IPart= 32 NShTot=           0 NBatch=           0 AvBLen=         0.0
 IPart= 27 NShTot=           0 NBatch=           0 AvBLen=         0.0
 IPart= 31 NShTot=           0 NBatch=           0 AvBLen=         0.0
 IPart= 24 NShTot=           0 NBatch=           0 AvBLen=         0.0
 IPart= 28 NShTot=           0 NBatch=           0 AvBLen=         0.0
 IPart=  5 NShTot=           0 NBatch=           0 AvBLen=         0.0
 PRISM was handed   268433911 working-precision words and    10 shell-pairs
 PRISM was handed   268433911 working-precision words and    10 shell-pairs
 PRISM was handed   268433911 working-precision words and    10 shell-pairs
 IPart= 34 NShTot=           0 NBatch=           0 AvBLen=         0.0
 PRISM was handed   268433911 working-precision words and    10 shell-pairs
 IPart=  7 NShTot=           0 NBatch=           0 AvBLen=         0.0
 IPart=  3 NShTot=           1 NBatch=           1 AvBLen=         1.0
 IPart= 13 NShTot=           0 NBatch=           0 AvBLen=         0.0
 PRISM was handed   268433911 working-precision words and    10 shell-pairs
 PRISM was handed   268433911 working-precision words and    10 shell-pairs
 PRISM was handed   268433911 working-precision words and    10 shell-pairs
 PRISM was handed   268433911 working-precision words and    10 shell-pairs
 PRISM was handed   268433911 working-precision words and    10 shell-pairs
 PRISM was handed   268433911 working-precision words and    10 shell-pairs
 IPart= 26 NShTot=           0 NBatch=           0 AvBLen=         0.0
 IPart= 17 NShTot=           0 NBatch=           0 AvBLen=         0.0
 IPart=  8 NShTot=           0 NBatch=           0 AvBLen=         0.0
 IPart= 29 NShTot=           0 NBatch=           0 AvBLen=         0.0
 IPart=  9 NShTot=           0 NBatch=           0 AvBLen=         0.0
 IPart= 33 NShTot=           0 NBatch=           0 AvBLen=         0.0
 IPart=  0 NShTot=           3 NBatch=           3 AvBLen=         1.0
 PRISM was handed   268433911 working-precision words and    10 shell-pairs
 PRISM was handed   268433911 working-precision words and    10 shell-pairs
 PRISM was handed   268433911 working-precision words and    10 shell-pairs
 PRISM was handed   268433911 working-precision words and    10 shell-pairs
 PRISM was handed   268433911 working-precision words and    10 shell-pairs
 PRISM was handed   268433911 working-precision words and    10 shell-pairs
 PRISM was handed   268433911 working-precision words and    10 shell-pairs
 PRISM was handed   268433911 working-precision words and    10 shell-pairs
 PRISM was handed   268433911 working-precision words and    10 shell-pairs
 PRISM was handed   268433911 working-precision words and    10 shell-pairs
 PRISM was handed   268433911 working-precision words and    10 shell-pairs
 PRISM was handed   268433911 working-precision words and    10 shell-pairs
 PRISM was handed   268433911 working-precision words and    10 shell-pairs
 PRISM was handed   268433911 working-precision words and    10 shell-pairs
 IPart= 11 NShTot=           0 NBatch=           0 AvBLen=         0.0
 PRISM was handed   268433911 working-precision words and    10 shell-pairs
 PRISM was handed   268433911 working-precision words and    10 shell-pairs
 PRISM was handed   268433911 working-precision words and    10 shell-pairs
 IPart= 22 NShTot=           0 NBatch=           0 AvBLen=         0.0
 IPart= 18 NShTot=           0 NBatch=           0 AvBLen=         0.0
 PRISM was handed   268433911 working-precision words and    10 shell-pairs
 IPart= 30 NShTot=           0 NBatch=           0 AvBLen=         0.0
 IPart=  1 NShTot=           3 NBatch=           3 AvBLen=         1.0
 IPart= 14 NShTot=           0 NBatch=           0 AvBLen=         0.0
 IPart= 10 NShTot=           0 NBatch=           0 AvBLen=         0.0
 IPart=  2 NShTot=           3 NBatch=           3 AvBLen=         1.0
 IPart= 20 NShTot=           0 NBatch=           0 AvBLen=         0.0
 IPart=  4 NShTot=           0 NBatch=           0 AvBLen=         0.0
 IPart= 16 NShTot=           0 NBatch=           0 AvBLen=         0.0
 IPart= 35 NShTot=           0 NBatch=           0 AvBLen=         0.0
 IPart= 15 NShTot=           0 NBatch=           0 AvBLen=         0.0
 IPart= 23 NShTot=           0 NBatch=           0 AvBLen=         0.0
 IPart= 25 NShTot=           0 NBatch=           0 AvBLen=         0.0
 IPart= 12 NShTot=           0 NBatch=           0 AvBLen=         0.0
 IPart=  6 NShTot=           0 NBatch=           0 AvBLen=         0.0
 IPart= 19 NShTot=           0 NBatch=           0 AvBLen=         0.0
 PrSmSu:  NxtVal=             37.
 *** Overlap *** 
                1             2             3             4             5 
      1  0.100000D+01
      2  0.234123D-01  0.100000D+01
      3  0.222133D+00  0.278512D+00  0.100000D+01
      4  0.000000D+00  0.000000D+00  0.000000D+00  0.100000D+01
      5  0.000000D+00  0.000000D+00  0.000000D+00  0.000000D+00  0.100000D+01
      6 -0.159395D+00  0.000000D+00  0.000000D+00  0.000000D+00  0.000000D+00
      7  0.555862D+00  0.222827D-01  0.449490D+00  0.000000D+00  0.000000D+00
      8  0.000000D+00  0.000000D+00  0.000000D+00  0.461768D+00  0.000000D+00
      9  0.000000D+00  0.000000D+00  0.000000D+00  0.000000D+00  0.461768D+00
     10 -0.574322D+00  0.000000D+00  0.000000D+00  0.000000D+00  0.000000D+00
                6             7             8             9            10 
      6  0.100000D+01
      7  0.000000D+00  0.100000D+01
      8  0.000000D+00  0.000000D+00  0.100000D+01
      9  0.000000D+00  0.000000D+00  0.000000D+00  0.100000D+01
     10  0.461768D+00  0.000000D+00  0.000000D+00  0.000000D+00  0.100000D+01
 *** Kinetic Energy *** 
                1             2             3             4             5 
      1  0.760032D+00
      2 -0.580336D-02  0.556441D+02
      3  0.800062D-02 -0.216342D+00  0.193319D+01
      4  0.000000D+00  0.000000D+00  0.000000D+00  0.604917D+01
      5  0.000000D+00  0.000000D+00  0.000000D+00  0.000000D+00  0.604917D+01
      6 -0.719507D-01  0.000000D+00  0.000000D+00  0.000000D+00  0.000000D+00
      7  0.128340D+00 -0.231638D+00 -0.720563D-01  0.000000D+00  0.000000D+00
      8  0.000000D+00  0.000000D+00  0.000000D+00  0.652802D+00  0.000000D+00
      9  0.000000D+00  0.000000D+00  0.000000D+00  0.000000D+00  0.652802D+00
     10 -0.306379D+00  0.000000D+00  0.000000D+00  0.000000D+00  0.000000D+00
                6             7             8             9            10 
      6  0.604917D+01
      7  0.000000D+00  0.304040D+00
      8  0.000000D+00  0.000000D+00  0.711196D+00
      9  0.000000D+00  0.000000D+00  0.000000D+00  0.711196D+00
     10  0.652802D+00  0.000000D+00  0.000000D+00  0.000000D+00  0.711196D+00
 Entering OneElI...
 Calculate potential energy integrals
    NBasis =  10  MinDer = 0  MaxDer = 0
 Requested accuracy = 0.1000D-12
 Symmetry will be used
 PrmmSu-InSpLW:  IPartL=    0 NPrtUS=   36 NPrtUL=    1 DoSpLW=F IThBeg=    0 IThEnd=   35 NThAct=   36.
 PrSmSu:  IncTry=   512 NBBP=             20 NTPThr=   100 NPartT=   36 Incr=           1 LDynOK=F GPUOK=F.
 PrsmSu:  NPrtUS=  36 ThrOK=T IAlg=1 LenDen=           0 ISkipM=0 DoSpLW=F IThBeg=    0 IThEnd=   35.
 Prism:   IPart=     0 DynPar=F LinDyn=F Incr=           1.
 PRISM was handed   268433953 working-precision words and    10 shell-pairs
 PRISM was handed   268433953 working-precision words and    10 shell-pairs
 PRISM was handed   268433953 working-precision words and    10 shell-pairs
 PRISM was handed   268433953 working-precision words and    10 shell-pairs
 PRISM was handed   268433953 working-precision words and    10 shell-pairs
 PRISM was handed   268433953 working-precision words and    10 shell-pairs
 PRISM was handed   268433953 working-precision words and    10 shell-pairs
 PRISM was handed   268433953 working-precision words and    10 shell-pairs
 PRISM was handed   268433953 working-precision words and    10 shell-pairs
 PRISM was handed   268433953 working-precision words and    10 shell-pairs
 PRISM was handed   268433953 working-precision words and    10 shell-pairs
 PRISM was handed   268433953 working-precision words and    10 shell-pairs
 PRISM was handed   268433953 working-precision words and    10 shell-pairs
 PRISM was handed   268433953 working-precision words and    10 shell-pairs
 PRISM was handed   268433953 working-precision words and    10 shell-pairs
 PRISM was handed   268433953 working-precision words and    10 shell-pairs
 PRISM was handed   268433953 working-precision words and    10 shell-pairs
 PRISM was handed   268433953 working-precision words and    10 shell-pairs
 PRISM was handed   268433953 working-precision words and    10 shell-pairs
 PRISM was handed   268433953 working-precision words and    10 shell-pairs
 PRISM was handed   268433953 working-precision words and    10 shell-pairs
 PRISM was handed   268433953 working-precision words and    10 shell-pairs
 PRISM was handed   268433953 working-precision words and    10 shell-pairs
 PRISM was handed   268433953 working-precision words and    10 shell-pairs
 PRISM was handed   268433953 working-precision words and    10 shell-pairs
 PRISM was handed   268433953 working-precision words and    10 shell-pairs
 PRISM was handed   268433953 working-precision words and    10 shell-pairs
 PRISM was handed   268433953 working-precision words and    10 shell-pairs
 PRISM was handed   268433953 working-precision words and    10 shell-pairs
 PRISM was handed   268433953 working-precision words and    10 shell-pairs
 PRISM was handed   268433953 working-precision words and    10 shell-pairs
 PRISM was handed   268433953 working-precision words and    10 shell-pairs
 PRISM was handed   268433953 working-precision words and    10 shell-pairs
 PRISM was handed   268433953 working-precision words and    10 shell-pairs
 PRISM was handed   268433953 working-precision words and    10 shell-pairs
 PRISM was handed   268433953 working-precision words and    10 shell-pairs
 IPart= 16 NShTot=           0 NBatch=           0 AvBLen=         0.0
 IPart= 25 NShTot=           0 NBatch=           0 AvBLen=         0.0
 IPart= 23 NShTot=           0 NBatch=           0 AvBLen=         0.0
 IPart= 26 NShTot=           0 NBatch=           0 AvBLen=         0.0
 IPart=  9 NShTot=           0 NBatch=           0 AvBLen=         0.0
 IPart= 19 NShTot=           0 NBatch=           0 AvBLen=         0.0
 IPart=  4 NShTot=           0 NBatch=           0 AvBLen=         0.0
 IPart= 34 NShTot=           0 NBatch=           0 AvBLen=         0.0
 IPart= 28 NShTot=           0 NBatch=           0 AvBLen=         0.0
 IPart= 11 NShTot=           0 NBatch=           0 AvBLen=         0.0
 IPart= 20 NShTot=           0 NBatch=           0 AvBLen=         0.0
 IPart= 27 NShTot=           0 NBatch=           0 AvBLen=         0.0
 IPart= 33 NShTot=           0 NBatch=           0 AvBLen=         0.0
 IPart= 17 NShTot=           0 NBatch=           0 AvBLen=         0.0
 IPart= 24 NShTot=           0 NBatch=           0 AvBLen=         0.0
 IPart= 13 NShTot=           0 NBatch=           0 AvBLen=         0.0
 IPart=  5 NShTot=           0 NBatch=           0 AvBLen=         0.0
 IPart=  7 NShTot=           0 NBatch=           0 AvBLen=         0.0
 IPart= 18 NShTot=           0 NBatch=           0 AvBLen=         0.0
 IPart= 15 NShTot=           0 NBatch=           0 AvBLen=         0.0
 IPart= 30 NShTot=           0 NBatch=           0 AvBLen=         0.0
 IPart= 31 NShTot=           0 NBatch=           0 AvBLen=         0.0
 IPart= 35 NShTot=           0 NBatch=           0 AvBLen=         0.0
 IPart= 10 NShTot=           0 NBatch=           0 AvBLen=         0.0
 IPart= 32 NShTot=           0 NBatch=           0 AvBLen=         0.0
 IPart= 21 NShTot=           0 NBatch=           0 AvBLen=         0.0
 IPart= 22 NShTot=           0 NBatch=           0 AvBLen=         0.0
 IPart= 12 NShTot=           0 NBatch=           0 AvBLen=         0.0
 IPart= 29 NShTot=           0 NBatch=           0 AvBLen=         0.0
 IPart=  6 NShTot=           0 NBatch=           0 AvBLen=         0.0
 IPart= 14 NShTot=           0 NBatch=           0 AvBLen=         0.0
 IPart=  8 NShTot=           0 NBatch=           0 AvBLen=         0.0
 IPart=  1 NShTot=           6 NBatch=           3 AvBLen=         2.0
 IPart=  2 NShTot=           6 NBatch=           3 AvBLen=         2.0
 IPart=  3 NShTot=           2 NBatch=           1 AvBLen=         2.0
 IPart=  0 NShTot=           6 NBatch=           3 AvBLen=         2.0
 PrSmSu:  NxtVal=             37.
 ***** Potential Energy ***** 
                1             2             3             4             5 
      1  0.640868D+01
      2  0.140166D+01  0.115931D+03
      3  0.304413D+01  0.163569D+02  0.197315D+02
      4  0.000000D+00  0.000000D+00  0.000000D+00  0.195636D+02
      5  0.000000D+00  0.000000D+00  0.000000D+00  0.000000D+00  0.195636D+02
      6 -0.179303D+01 -0.989637D-02 -0.958961D-01  0.000000D+00  0.000000D+00
      7  0.382714D+01  0.113453D+01  0.552122D+01  0.000000D+00  0.000000D+00
      8  0.000000D+00  0.000000D+00  0.000000D+00  0.565583D+01  0.000000D+00
      9  0.000000D+00  0.000000D+00  0.000000D+00  0.000000D+00  0.565583D+01
     10 -0.381386D+01 -0.970426D-03 -0.666181D-01  0.000000D+00  0.000000D+00
                6             7             8             9            10 
      6  0.196049D+02
      7 -0.685394D-01  0.685824D+01
      8  0.000000D+00  0.000000D+00  0.681642D+01
      9  0.000000D+00  0.000000D+00  0.000000D+00  0.681642D+01
     10  0.569984D+01 -0.191428D+00  0.000000D+00  0.000000D+00  0.697458D+01
 ****** Core Hamiltonian ****** 
                1             2             3             4             5 
      1 -0.564865D+01
      2 -0.140747D+01 -0.602870D+02
      3 -0.303613D+01 -0.165733D+02 -0.177983D+02
      4  0.000000D+00  0.000000D+00  0.000000D+00 -0.135144D+02
      5  0.000000D+00  0.000000D+00  0.000000D+00  0.000000D+00 -0.135144D+02
      6  0.172108D+01  0.989637D-02  0.958961D-01  0.000000D+00  0.000000D+00
      7 -0.369880D+01 -0.136617D+01 -0.559328D+01  0.000000D+00  0.000000D+00
      8  0.000000D+00  0.000000D+00  0.000000D+00 -0.500303D+01  0.000000D+00
      9  0.000000D+00  0.000000D+00  0.000000D+00  0.000000D+00 -0.500303D+01
     10  0.350748D+01  0.970426D-03  0.666181D-01  0.000000D+00  0.000000D+00
                6             7             8             9            10 
      6 -0.135557D+02
      7  0.685394D-01 -0.655420D+01
      8  0.000000D+00  0.000000D+00 -0.610523D+01
      9  0.000000D+00  0.000000D+00  0.000000D+00 -0.610523D+01
     10 -0.504704D+01  0.191428D+00  0.000000D+00  0.000000D+00 -0.626338D+01
 SVDSVc IOpt=   1 NormSV=T IR=1
 SVDSVc V= 2.07D+00 1.50D+00 1.06D+00 7.10D-01 4.96D-01 1.71D-01
 SVDSVc IOpt=   1 NormSV=T IR=3
 SVDSVc V= 1.46D+00 5.38D-01
 SVDSVc IOpt=   1 NormSV=T IR=4
 SVDSVc V= 1.46D+00 5.38D-01
 TstOVc:  Largest diagonal error= 1.78D-15 IB=1 I=    6.
 TstOVc:  Largest same sym error= 6.66D-16 IB=1 I=    6 J=    3.
 TstOVc:  Largest diff sym error= 0.00D+00 IB=0 JB=0 I=    0 J=    0.
 Orthogonalized basis functions: 
                 1             2             3             4             5 
      1   0.419673D+00 -0.437027D-01 -0.233370D+00  0.467015D+00 -0.101381D+00
      2   0.800612D-01  0.240292D+00  0.788971D+00  0.432842D+00 -0.466627D+00
      3   0.245096D+00  0.409767D+00  0.206136D+00 -0.474646D+00  0.906471D+00
      4   0.000000D+00  0.000000D+00  0.000000D+00  0.000000D+00  0.000000D+00
      5   0.000000D+00  0.000000D+00  0.000000D+00  0.000000D+00  0.000000D+00
      6  -0.197996D+00  0.396597D+00 -0.304507D+00  0.792175D+00  0.463684D+00
      7   0.324002D+00  0.329667D+00 -0.347842D+00 -0.192687D+00 -0.676459D+00
      8   0.000000D+00  0.000000D+00  0.000000D+00  0.000000D+00  0.000000D+00
      9   0.000000D+00  0.000000D+00  0.000000D+00  0.000000D+00  0.000000D+00
     10  -0.312011D+00  0.415427D+00 -0.117497D+00 -0.336415D+00 -0.540734D+00
                 6             7             8             9            10 
      1   0.155990D+01  0.000000D+00  0.000000D+00  0.000000D+00  0.000000D+00
      2  -0.982238D-01  0.000000D+00  0.000000D+00  0.000000D+00  0.000000D+00
      3   0.255827D+00  0.000000D+00  0.000000D+00  0.000000D+00  0.000000D+00
      4   0.000000D+00  0.584852D+00  0.963829D+00  0.000000D+00  0.000000D+00
      5   0.000000D+00  0.000000D+00  0.000000D+00  0.584852D+00  0.963829D+00
      6  -0.437724D+00  0.000000D+00  0.000000D+00  0.000000D+00  0.000000D+00
      7  -0.118190D+01  0.000000D+00  0.000000D+00  0.000000D+00  0.000000D+00
      8   0.000000D+00  0.584852D+00 -0.963829D+00  0.000000D+00  0.000000D+00
      9   0.000000D+00  0.000000D+00  0.000000D+00  0.584852D+00 -0.963829D+00
     10   0.132437D+01  0.000000D+00  0.000000D+00  0.000000D+00  0.000000D+00
 NBasis=    10 RedAO= T EigKep=  1.71D-01  NBF=     6     0     2     2
 NBsUse=    10 1.00D-06 EigRej= -1.00D+00 NBFU=     6     0     2     2
 Leave Link  302 at Mon Mar 28 14:18:24 2022, MaxMem=  9663676416 cpu:               3.5 elap:               0.1
 (Enter /nopt/nrel/apps/gaussian/g16C_1/g16/l303.exe)
 DipDrv will not compute anything.
 Fermi contact integrals: 
                 1             2 
      1   0.628247D+00  0.583158D-01
      2   0.000000D+00  0.157243D+02
      3   0.911802D-02  0.620346D+00
      4   0.000000D+00  0.000000D+00
      5   0.000000D+00  0.000000D+00
      6  -0.202732D-01  0.000000D+00
      7   0.949264D-01  0.363373D-01
      8   0.000000D+00  0.000000D+00
      9   0.000000D+00  0.000000D+00
     10  -0.167894D+00  0.000000D+00
 Leave Link  303 at Mon Mar 28 14:18:24 2022, MaxMem=  9663676416 cpu:               0.9 elap:               0.0
 (Enter /nopt/nrel/apps/gaussian/g16C_1/g16/l401.exe)
 ExpMin= 1.61D-01 ExpMax= 2.51D+02 ExpMxC= 2.51D+02 IAcc=3 IRadAn=         5 AccDes= 0.00D+00
 Harris functional with IExCor=  205 and IRadAn=       5 diagonalized for initial guess.
 HarFok:  IExCor=  205 AccDes= 0.00D+00 IRadAn=         5 IDoV= 1 UseB2=F ITyADJ=14
 ICtDFT=  3500011 ScaDFX=  1.000000  1.000000  1.000000  1.000000
 FoFCou: FMM=F IPFlag=           0 FMFlag=      100000 FMFlg1=           0
         NFxFlg=           0 DoJE=T BraDBF=F KetDBF=T FulRan=T
         wScrn=  0.000000 ICntrl=       500 IOpCl=  0 I1Cent=   200000004 NGrid=           0
         NMat0=    1 NMatS0=      1 NMatT0=    0 NMatD0=    1 NMtDS0=    0 NMtDT0=    0
 Petite list used in FoFCou.
 Harris En= -160.083701264317    
 JPrj=0 DoOrth=F DoCkMO=F.
 Initial guess orbital symmetries:
       Occupied  (SG) (SG) (SG) (PI) (PI) (SG)
       Virtual   (SG) (PI) (PI) (SG)
 The electronic state of the initial guess is 1-SG.
 Leave Link  401 at Mon Mar 28 14:18:24 2022, MaxMem=  9663676416 cpu:               3.9 elap:               0.1
 (Enter /nopt/nrel/apps/gaussian/g16C_1/g16/l502.exe)
 Keep R1 ints in memory in symmetry-blocked form, NReq=7209078.
 FoFCou: FMM=F IPFlag=           0 FMFlag=           0 FMFlg1=           0
         NFxFlg=           0 DoJE=F BraDBF=F KetDBF=F FulRan=T
         wScrn=  0.000000 ICntrl=       600 IOpCl=  0 I1Cent=           0 NGrid=           0
         NMat0=    1 NMatS0=     55 NMatT0=    0 NMatD0=    1 NMtDS0=    0 NMtDT0=    0
 Petite list used in FoFCou.
 Closed shell SCF:
 Using DIIS extrapolation, IDIIS=  1040.
 NGot=  9663676416 LenX=  9663673310 LenY=  9663672428
 Requested convergence on RMS density matrix=1.00D-08 within 128 cycles.
 Requested convergence on MAX density matrix=1.00D-06.
 Requested convergence on             energy=1.00D-06.
 No special actions if energy rises.

 Cycle   1  Pass 1  IDiag  1:
 E= -160.086969996569    
 DIIS: error= 6.91D-02 at cycle   1 NSaved=   1.
 NSaved= 1 IEnMin= 1 EnMin= -160.086969996569     IErMin= 1 ErrMin= 6.91D-02
 ErrMax= 6.91D-02  0.00D+00 EMaxC= 1.00D-01 BMatC= 6.72D-02 BMatP= 6.72D-02
 IDIUse=3 WtCom= 3.09D-01 WtEn= 6.91D-01
 Coeff-Com:  0.100D+01
 Coeff-En:   0.100D+01
 Coeff:      0.100D+01
 Gap=     0.602 Goal=   None    Shift=    0.000
 GapD=    0.602 DampG=2.000 DampE=0.500 DampFc=1.0000 IDamp=-1.
 RMSDP=4.17D-02 MaxDP=2.42D-01              OVMax= 0.00D+00

 Cycle   2  Pass 1  IDiag  1:
 E= -160.140479794756     Delta-E=       -0.053509798187 Rises=F Damp=F
 DIIS: error= 1.37D-02 at cycle   2 NSaved=   2.
 NSaved= 2 IEnMin= 2 EnMin= -160.140479794756     IErMin= 2 ErrMin= 1.37D-02
 ErrMax= 1.37D-02  0.00D+00 EMaxC= 1.00D-01 BMatC= 2.73D-03 BMatP= 6.72D-02
 IDIUse=3 WtCom= 8.63D-01 WtEn= 1.37D-01
 Coeff-Com:  0.134D+00 0.866D+00
 Coeff-En:   0.000D+00 0.100D+01
 Coeff:      0.116D+00 0.884D+00
 Gap=     0.641 Goal=   None    Shift=    0.000
 RMSDP=5.55D-03 MaxDP=1.94D-02 DE=-5.35D-02 OVMax= 0.00D+00

 Cycle   3  Pass 1  IDiag  1:
 E= -160.143387744081     Delta-E=       -0.002907949325 Rises=F Damp=F
 DIIS: error= 2.97D-03 at cycle   3 NSaved=   3.
 NSaved= 3 IEnMin= 3 EnMin= -160.143387744081     IErMin= 3 ErrMin= 2.97D-03
 ErrMax= 2.97D-03  0.00D+00 EMaxC= 1.00D-01 BMatC= 7.21D-05 BMatP= 2.73D-03
 IDIUse=3 WtCom= 9.70D-01 WtEn= 2.97D-02
 Coeff-Com: -0.385D-01-0.120D+00 0.116D+01
 Coeff-En:   0.000D+00 0.000D+00 0.100D+01
 Coeff:     -0.374D-01-0.116D+00 0.115D+01
 Gap=     0.655 Goal=   None    Shift=    0.000
 RMSDP=2.66D-03 MaxDP=1.13D-02 DE=-2.91D-03 OVMax= 0.00D+00

 Cycle   4  Pass 1  IDiag  1:
 E= -160.143598010670     Delta-E=       -0.000210266588 Rises=F Damp=F
 DIIS: error= 5.89D-04 at cycle   4 NSaved=   4.
 NSaved= 4 IEnMin= 4 EnMin= -160.143598010670     IErMin= 4 ErrMin= 5.89D-04
 ErrMax= 5.89D-04  0.00D+00 EMaxC= 1.00D-01 BMatC= 2.90D-06 BMatP= 7.21D-05
 IDIUse=3 WtCom= 9.94D-01 WtEn= 5.89D-03
 Coeff-Com:  0.919D-02 0.211D-01-0.346D+00 0.132D+01
 Coeff-En:   0.000D+00 0.000D+00 0.000D+00 0.100D+01
 Coeff:      0.914D-02 0.210D-01-0.344D+00 0.131D+01
 Gap=     0.656 Goal=   None    Shift=    0.000
 RMSDP=5.41D-04 MaxDP=1.82D-03 DE=-2.10D-04 OVMax= 0.00D+00

 Cycle   5  Pass 1  IDiag  1:
 E= -160.143607280334     Delta-E=       -0.000009269664 Rises=F Damp=F
 DIIS: error= 5.13D-05 at cycle   5 NSaved=   5.
 NSaved= 5 IEnMin= 5 EnMin= -160.143607280334     IErMin= 5 ErrMin= 5.13D-05
 ErrMax= 5.13D-05  0.00D+00 EMaxC= 1.00D-01 BMatC= 4.70D-08 BMatP= 2.90D-06
 IDIUse=1 WtCom= 1.00D+00 WtEn= 0.00D+00
 Coeff-Com: -0.485D-03 0.322D-03 0.265D-01-0.219D+00 0.119D+01
 Coeff:     -0.485D-03 0.322D-03 0.265D-01-0.219D+00 0.119D+01
 Gap=     0.656 Goal=   None    Shift=    0.000
 RMSDP=6.17D-05 MaxDP=2.49D-04 DE=-9.27D-06 OVMax= 0.00D+00

 Cycle   6  Pass 1  IDiag  1:
 E= -160.143607393996     Delta-E=       -0.000000113662 Rises=F Damp=F
 DIIS: error= 3.96D-06 at cycle   6 NSaved=   6.
 NSaved= 6 IEnMin= 6 EnMin= -160.143607393996     IErMin= 6 ErrMin= 3.96D-06
 ErrMax= 3.96D-06  0.00D+00 EMaxC= 1.00D-01 BMatC= 3.61D-10 BMatP= 4.70D-08
 IDIUse=1 WtCom= 1.00D+00 WtEn= 0.00D+00
 Coeff-Com:  0.709D-04-0.274D-03-0.453D-02 0.465D-01-0.301D+00 0.126D+01
 Coeff:      0.709D-04-0.274D-03-0.453D-02 0.465D-01-0.301D+00 0.126D+01
 Gap=     0.657 Goal=   None    Shift=    0.000
 RMSDP=2.87D-06 MaxDP=1.26D-05 DE=-1.14D-07 OVMax= 0.00D+00

 Cycle   7  Pass 1  IDiag  1:
 E= -160.143607394418     Delta-E=       -0.000000000423 Rises=F Damp=F
 DIIS: error= 3.24D-07 at cycle   7 NSaved=   7.
 NSaved= 7 IEnMin= 7 EnMin= -160.143607394418     IErMin= 7 ErrMin= 3.24D-07
 ErrMax= 3.24D-07  0.00D+00 EMaxC= 1.00D-01 BMatC= 1.06D-12 BMatP= 3.61D-10
 IDIUse=1 WtCom= 1.00D+00 WtEn= 0.00D+00
 Coeff-Com: -0.142D-04 0.512D-04 0.852D-03-0.856D-02 0.570D-01-0.257D+00
 Coeff-Com:  0.121D+01
 Coeff:     -0.142D-04 0.512D-04 0.852D-03-0.856D-02 0.570D-01-0.257D+00
 Coeff:      0.121D+01
 Gap=     0.657 Goal=   None    Shift=    0.000
 RMSDP=2.48D-07 MaxDP=9.43D-07 DE=-4.23D-10 OVMax= 0.00D+00

 Cycle   8  Pass 1  IDiag  1:
 E= -160.143607394421     Delta-E=       -0.000000000003 Rises=F Damp=F
 DIIS: error= 2.76D-08 at cycle   8 NSaved=   8.
 NSaved= 8 IEnMin= 8 EnMin= -160.143607394421     IErMin= 8 ErrMin= 2.76D-08
 ErrMax= 2.76D-08  0.00D+00 EMaxC= 1.00D-01 BMatC= 1.18D-14 BMatP= 1.06D-12
 IDIUse=1 WtCom= 1.00D+00 WtEn= 0.00D+00
 Coeff-Com:  0.834D-06-0.238D-05-0.468D-04 0.451D-03-0.316D-02 0.162D-01
 Coeff-Com: -0.174D+00 0.116D+01
 Coeff:      0.834D-06-0.238D-05-0.468D-04 0.451D-03-0.316D-02 0.162D-01
 Coeff:     -0.174D+00 0.116D+01
 Gap=     0.657 Goal=   None    Shift=    0.000
 RMSDP=2.30D-08 MaxDP=8.85D-08 DE=-2.73D-12 OVMax= 0.00D+00

 Cycle   9  Pass 1  IDiag  1:
 E= -160.143607394421     Delta-E=       -0.000000000000 Rises=F Damp=F
 DIIS: error= 2.16D-09 at cycle   9 NSaved=   9.
 NSaved= 9 IEnMin= 9 EnMin= -160.143607394421     IErMin= 9 ErrMin= 2.16D-09
 ErrMax= 2.16D-09  0.00D+00 EMaxC= 1.00D-01 BMatC= 4.72D-17 BMatP= 1.18D-14
 IDIUse=1 WtCom= 1.00D+00 WtEn= 0.00D+00
 Coeff-Com: -0.180D-07-0.290D-07 0.675D-06-0.637D-05 0.722D-04-0.682D-03
 Coeff-Com:  0.198D-01-0.177D+00 0.116D+01
 Coeff:     -0.180D-07-0.290D-07 0.675D-06-0.637D-05 0.722D-04-0.682D-03
 Coeff:      0.198D-01-0.177D+00 0.116D+01
 Gap=     0.657 Goal=   None    Shift=    0.000
 RMSDP=1.27D-09 MaxDP=5.69D-09 DE=-5.68D-14 OVMax= 0.00D+00

 SCF Done:  E(RHF) =  -160.143607394     A.U. after    9 cycles
            NFock=  9  Conv=0.13D-08     -V/T= 2.0137
 KE= 1.579839829329D+02 PE=-3.952008046769D+02 EE= 7.178144224038D+01
 Leave Link  502 at Mon Mar 28 14:18:25 2022, MaxMem=  9663676416 cpu:               3.5 elap:               0.1
 (Enter /nopt/nrel/apps/gaussian/g16C_1/g16/l801.exe)
 Windowed orbitals will be sorted by symmetry type.
 ExpMin= 1.61D-01 ExpMax= 2.51D+02 ExpMxC= 2.51D+02 IAcc=3 IRadAn=         5 AccDes= 0.00D+00
 HarFok:  IExCor=  205 AccDes= 0.00D+00 IRadAn=         5 IDoV=-2 UseB2=F ITyADJ=14
 ICtDFT= 12500011 ScaDFX=  1.000000  1.000000  1.000000  1.000000
 Largest valence mixing into a core orbital is  1.06D-03
 Largest core mixing into a valence orbital is  6.76D-04
 Range of M.O.s used for correlation:     6    10
 NBasis=    10 NAE=     6 NBE=     6 NFC=     5 NFV=     0
 NROrb=      5 NOA=     1 NOB=     1 NVA=     4 NVB=     4
 Leave Link  801 at Mon Mar 28 14:18:25 2022, MaxMem=  9663676416 cpu:               2.3 elap:               0.1
 (Enter /nopt/nrel/apps/gaussian/g16C_1/g16/l804.exe)
 Closed-shell transformation, MDV=  9663676416 ITran=4 ISComp=2.
 Unit  1 TFree=          4870 TCopy=          1211.
 Semi-Direct transformation.
 ModeAB=           2 MOrb=             1 LenV=    9663556715
 LASXX=           12 LTotXX=          12 LenRXX=          12
 LTotAB=          28 MaxLAS=         275 LenRXY=         275
 NonZer=         335 LenScr=      785920 LnRSAI=           0
 LnScr1=           0 LExtra=      218701 Total=      1004908
 MaxDsk= 34359738368 SrtSym=           F ITran=            4
 DoSDTr:  NPSUse= 36
 JobTyp=0 Pass  1:  I=   1 to   1.
 (rs|ai) integrals will be sorted in core.
 Complete sort for first half transformation.
 First half transformation complete.
 Complete sort for second half transformation.
 Second half transformation complete.
 Spin components of T(2) and E(2):
     alpha-alpha T2 =       0.0000000000D+00 E2=      0.0000000000D+00
     alpha-beta  T2 =       0.4826800349D-02 E2=     -0.9175294820D-02
     beta-beta   T2 =       0.0000000000D+00 E2=      0.0000000000D+00
 ANorm=    0.1002410495D+01
 E2 =    -0.9175294820D-02 EUMP2 =    -0.16015278268924D+03
 Leave Link  804 at Mon Mar 28 14:18:25 2022, MaxMem=  9663676416 cpu:               1.4 elap:               0.1
 (Enter /nopt/nrel/apps/gaussian/g16C_1/g16/l913.exe)
 CIDS:  MDV=  9663676416.
 Frozen-core window:  NFC=   5 NFV=   0.
 IFCWin=0 IBDFC=1 NFBD=     0     0 NFCmp=     0     0 NFFFC=     0     0
 Using DD3R+UMP44R for 1st iteration.
 Using DD4RQ for 2nd and later iterations.
 Keep R2 and R3 ints in memory in symmetry-blocked form, NReq=7211452.
 FoFCou: FMM=F IPFlag=           0 FMFlag=           0 FMFlg1=           0
         NFxFlg=           0 DoJE=F BraDBF=F KetDBF=F FulRan=T
         wScrn=  0.000000 ICntrl=       600 IOpCl=  0 I1Cent=           0 NGrid=           0
         NMat0=    1 NMatS0=     55 NMatT0=    0 NMatD0=    1 NMtDS0=    0 NMtDT0=    0
 Petite list used in FoFCou.
 CIDS: In Core Option IDoMem=           1.
 Coupled Cluster theory with single and double substitutions
 ===========================================================
 Iterations= 200 Convergence= 0.100D-06
 Produce multiple copies of IABC intergrals
 Iteration Nr.   1
 **********************
 DD1Dir will call FoFMem   1 times, MxPair=         2
 NAB=     1 NAA=     0 NBB=     0.
 MP4(R+Q)=  0.44287316D-04
 Maximum subspace dimension=  5
 A-vector RMS=  1.5994696D-02 Max=  1.0862915D-02 conv= 1.00D-05.
 RLE energy=       -0.0126005596
 E3=       -0.25469758D-02        EUMP3=      -0.16015532967D+03
 E4(DQ)=   -0.78460925D-03        UMP4(DQ)=   -0.16015611427D+03
 E4(SDQ)=  -0.94671132D-03        UMP4(SDQ)=  -0.16015627638D+03
 VARIATIONAL ENERGIES WITH THE FIRST-ORDER WAVEFUNCTION:
 DE(Corr)= -0.11669466E-01 E(Corr)=     -160.15527686    
 NORM(A)=   0.10047631D+01
 Iteration Nr.   2
 **********************
 DD1Dir will call FoFMem   1 times, MxPair=         2
 NAB=     1 NAA=     0 NBB=     0.
 A-vector RMS=  6.1573810D-03 Max=  4.8678222D-03 conv= 1.00D-05.
 RLE energy=       -0.0133206905
 DE(Corr)= -0.12974812E-01 E(CORR)=     -160.15658221     Delta=-1.31D-03
 NORM(A)=   0.10057340D+01
 Iteration Nr.   3
 **********************
 DD1Dir will call FoFMem   1 times, MxPair=         2
 NAB=     1 NAA=     0 NBB=     0.
 A-vector RMS=  1.8955233D-03 Max=  1.5389042D-03 conv= 1.00D-05.
 RLE energy=       -0.0133872799
 DE(Corr)= -0.13323815E-01 E(CORR)=     -160.15693121     Delta=-3.49D-04
 NORM(A)=   0.10060097D+01
 Iteration Nr.   4
 **********************
 DD1Dir will call FoFMem   1 times, MxPair=         2
 NAB=     1 NAA=     0 NBB=     0.
 A-vector RMS=  2.2683183D-04 Max=  1.5033750D-04 conv= 1.00D-05.
 RLE energy=       -0.0133914014
 DE(Corr)= -0.13387753E-01 E(CORR)=     -160.15699515     Delta=-6.39D-05
 NORM(A)=   0.10060370D+01
 Iteration Nr.   5
 **********************
 DD1Dir will call FoFMem   1 times, MxPair=         2
 NAB=     1 NAA=     0 NBB=     0.
 A-vector RMS=  8.0435120D-06 Max=  5.5554335D-06 conv= 1.00D-05.
 RLE energy=       -0.0133910241
 DE(Corr)= -0.13391209E-01 E(CORR)=     -160.15699860     Delta=-3.46D-06
 NORM(A)=   0.10060368D+01
 Iteration Nr.   6
 **********************
 DD1Dir will call FoFMem   1 times, MxPair=         2
 NAB=     1 NAA=     0 NBB=     0.
 A-vector RMS=  5.6511436D-07 Max=  4.0621486D-07 conv= 1.00D-05.
 RLE energy=       -0.0133911232
 DE(Corr)= -0.13391086E-01 E(CORR)=     -160.15699848     Delta= 1.23D-07
 NORM(A)=   0.10060369D+01
 Iteration Nr.   7
 **********************
 DD1Dir will call FoFMem   1 times, MxPair=         2
 NAB=     1 NAA=     0 NBB=     0.
 A-vector RMS=  6.8468594D-08 Max=  5.1672480D-08 conv= 1.00D-05.
 RLE energy=       -0.0133911212
 DE(Corr)= -0.13391122E-01 E(CORR)=     -160.15699852     Delta=-3.61D-08
 NORM(A)=   0.10060369D+01
 CI/CC converged in    7 iterations to DelEn=-3.61D-08 Conv= 1.00D-07 ErrA1= 6.85D-08 Conv= 1.00D-05
 Wavefunction amplitudes converged. E(Corr)=     -160.15699852    
 Largest amplitude= 6.58D-02
 Discarding MO integrals.
 Leave Link  913 at Mon Mar 28 14:18:25 2022, MaxMem=  9663676416 cpu:               3.7 elap:               0.1
 (Enter /nopt/nrel/apps/gaussian/g16C_1/g16/l601.exe)
 Copying SCF densities to generalized density rwf, IOpCl= 0 IROHF=0.

 **********************************************************************

            Population analysis using the SCF Density.

 **********************************************************************

 Orbital symmetries:
       Occupied  (SG) (SG) (SG) (PI) (PI) (SG)
       Virtual   (SG) (PI) (PI) (SG)
 The electronic state is 1-SG.
 Alpha  occ. eigenvalues --  -40.07062  -2.67905  -1.34038  -1.31587  -1.31587
 Alpha  occ. eigenvalues --   -0.10517
 Alpha virt. eigenvalues --    0.55133   0.77126   0.77126   1.27865
          Condensed to atoms (all electrons):
               1          2
     1  H    1.347741   0.154718
     2  Na   0.154718  10.342824
 Mulliken charges:
               1
     1  H   -0.502459
     2  Na   0.502459
 Sum of Mulliken charges =   0.00000
 Mulliken charges with hydrogens summed into heavy atoms:
               1
     2  Na   0.000000
 N-N= 5.291772109200D+00 E-N=-3.952008046622D+02  KE= 1.579839829329D+02
 Symmetry A1   KE= 1.375817865697D+02
 Symmetry A2   KE= 0.000000000000D+00
 Symmetry B1   KE= 1.020109818160D+01
 Symmetry B2   KE= 1.020109818160D+01

 Atomic contributions to Alpha molecular orbitals:
 Alpha occ 1 OE=-40.071 is Na2-s=0.9999
 Alpha occ 2 OE=-2.679 is Na2-s=0.9970
 Alpha occ 3 OE=-1.340 is Na2-p=0.9843
 Alpha occ 4 OE=-1.316 is Na2-p=1.0000
 Alpha occ 5 OE=-1.316 is Na2-p=1.0000
 Alpha occ 6 OE=-0.105 is H1-s=0.7329 Na2-s=0.2227
 Alpha vir 7 OE=0.551 is Na2-s=0.5908 Na2-p=0.3291
 Alpha vir 8 OE=0.771 is Na2-p=1.0000
 Alpha vir 9 OE=0.771 is Na2-p=1.0000
 Alpha vir 10 OE=1.279 is Na2-p=0.6418 Na2-s=0.1896 H1-s=0.1687
 
 Leave Link  601 at Mon Mar 28 14:18:25 2022, MaxMem=  9663676416 cpu:               0.7 elap:               0.0
 (Enter /nopt/nrel/apps/gaussian/g16C_1/g16/l9999.exe)

 Test job not archived.
 1\1\GINC-R102U34\SP\RCCSD-FC\Gen\H1Na1\USER\28-Mar-2022\0\\#P CCSD
 (MaxCyc=200,SaveAmplitudes,ReadAmplitudes)/GEN sp pop=AllOrbitals iop(
 3/33=1,3/36=-1)\\test\\0,1\H,0,0.,0.,0.\Na,0,0.,0.,1.1\\Version=ES64L-
 G16RevC.01\State=1-SG\HF=-160.1436074\MP2=-160.1527827\MP3=-160.155329
 7\MP4D=-160.1561586\MP4DQ=-160.1561143\MP4SDQ=-160.1562764\CCSD=-160.1
 569985\RMSD=1.269e-09\PG=C*V [C*(H1Na1)]\\@


 THERE IS NO CURE FOR BIRTH AND DEATH SAVE TO ENJOY THE INTERVAL.

                               -- GEORGE SANTAYANA
 Job cpu time:       0 days  0 hours  0 minutes 30.2 seconds.
 Elapsed time:       0 days  0 hours  0 minutes  1.2 seconds.
 File lengths (MBytes):  RWF=     13 Int=      0 D2E=      0 Chk=      1 Scr=      1
 Normal termination of Gaussian 16 at Mon Mar 28 14:18:25 2022.
