 Entering Gaussian System, Link 0=g16
 Initial command:
 /nopt/nrel/apps/gaussian/g16C_1/g16/l1.exe "/lustre/eaglefs/scratch/user/qc/kh-dissc/kh-3-ccsd-2.9-321g/Gau-28308.inp" -scrdir="/lustre/eaglefs/scratch/user/qc/kh-dissc/kh-3-ccsd-2.9-321g/"
 Default is to use a total of  36 processors:
                               36 via shared-memory
                                1 via Linda
 Entering Link 1 = /nopt/nrel/apps/gaussian/g16C_1/g16/l1.exe PID=     28309.
  
 Copyright (c) 1988-2019, Gaussian, Inc.  All Rights Reserved.
  
 This is part of the Gaussian(R) 16 program.  It is based on
 the Gaussian(R) 09 system (copyright 2009, Gaussian, Inc.),
 the Gaussian(R) 03 system (copyright 2003, Gaussian, Inc.),
 the Gaussian(R) 98 system (copyright 1998, Gaussian, Inc.),
 the Gaussian(R) 94 system (copyright 1995, Gaussian, Inc.),
 the Gaussian 92(TM) system (copyright 1992, Gaussian, Inc.),
 the Gaussian 90(TM) system (copyright 1990, Gaussian, Inc.),
 the Gaussian 88(TM) system (copyright 1988, Gaussian, Inc.),
 the Gaussian 86(TM) system (copyright 1986, Carnegie Mellon
 University), and the Gaussian 82(TM) system (copyright 1983,
 Carnegie Mellon University). Gaussian is a federally registered
 trademark of Gaussian, Inc.
  
 This software contains proprietary and confidential information,
 including trade secrets, belonging to Gaussian, Inc.
  
 This software is provided under written license and may be
 used, copied, transmitted, or stored only in accord with that
 written license.
  
 The following legend is applicable only to US Government
 contracts under FAR:
  
                    RESTRICTED RIGHTS LEGEND
  
 Use, reproduction and disclosure by the US Government is
 subject to restrictions as set forth in subparagraphs (a)
 and (c) of the Commercial Computer Software - Restricted
 Rights clause in FAR 52.227-19.
  
 Gaussian, Inc.
 340 Quinnipiac St., Bldg. 40, Wallingford CT 06492
  
  
 ---------------------------------------------------------------
 Warning -- This program may not be used in any manner that
 competes with the business of Gaussian, Inc. or will provide
 assistance to any competitor of Gaussian, Inc.  The licensee
 of this program is prohibited from giving any competitor of
 Gaussian, Inc. access to this program.  By using this program,
 the user acknowledges that Gaussian, Inc. is engaged in the
 business of creating and licensing software in the field of
 computational chemistry and represents and warrants to the
 licensee that it is not a competitor of Gaussian, Inc. and that
 it will not use this program in any manner prohibited above.
 ---------------------------------------------------------------
  

 Cite this work as:
 Gaussian 16, Revision C.01,
 M. J. Frisch, G. W. Trucks, H. B. Schlegel, G. E. Scuseria, 
 M. A. Robb, J. R. Cheeseman, G. Scalmani, V. Barone, 
 G. A. Petersson, H. Nakatsuji, X. Li, M. Caricato, A. V. Marenich, 
 J. Bloino, B. G. Janesko, R. Gomperts, B. Mennucci, H. P. Hratchian, 
 J. V. Ortiz, A. F. Izmaylov, J. L. Sonnenberg, D. Williams-Young, 
 F. Ding, F. Lipparini, F. Egidi, J. Goings, B. Peng, A. Petrone, 
 T. Henderson, D. Ranasinghe, V. G. Zakrzewski, J. Gao, N. Rega, 
 G. Zheng, W. Liang, M. Hada, M. Ehara, K. Toyota, R. Fukuda, 
 J. Hasegawa, M. Ishida, T. Nakajima, Y. Honda, O. Kitao, H. Nakai, 
 T. Vreven, K. Throssell, J. A. Montgomery, Jr., J. E. Peralta, 
 F. Ogliaro, M. J. Bearpark, J. J. Heyd, E. N. Brothers, K. N. Kudin, 
 V. N. Staroverov, T. A. Keith, R. Kobayashi, J. Normand, 
 K. Raghavachari, A. P. Rendell, J. C. Burant, S. S. Iyengar, 
 J. Tomasi, M. Cossi, J. M. Millam, M. Klene, C. Adamo, R. Cammi, 
 J. W. Ochterski, R. L. Martin, K. Morokuma, O. Farkas, 
 J. B. Foresman, and D. J. Fox, Gaussian, Inc., Wallingford CT, 2019.
 
 ******************************************
 Gaussian 16:  ES64L-G16RevC.01  3-Jul-2019
                28-Mar-2022 
 ******************************************
 %chk=molecule
 Default route: CacheSize=180224 MaxDisk=256GB
 ----------------------------------------------------------------------
 #P CCSD(MaxCyc=200,SaveAmplitudes,ReadAmplitudes)/GEN sp pop=AllOrbita
 ls iop(3/33=1,3/36=-1)
 ----------------------------------------------------------------------
 1/4=180224,38=1,172=1/1;
 2/4=180224,12=2,17=6,18=5,40=1/2;
 3/4=180224,5=7,11=9,25=1,30=1,33=1,36=-1/1,2,3;
 4/4=180224/1;
 5/4=180224,5=2,38=5/2;
 8/4=180224,6=4,9=120000,10=1,24=1/1,4;
 9/4=180224,5=7,6=200,77=1/13;
 6/4=180224,7=2,8=2,9=2,10=2,96=-1/1;
 99/4=180224,5=1,9=1/99;
 Leave Link    1 at Mon Mar 28 14:39:03 2022, MaxMem=           0 cpu:               2.8 elap:               0.1
 (Enter /nopt/nrel/apps/gaussian/g16C_1/g16/l101.exe)
 ----
 test
 ----
 Symbolic Z-matrix:
 Charge =  0 Multiplicity = 3
 H                     0.        0.        0. 
 K                     0.        0.        2.9 
 
 ITRead=  0  0
 MicOpt= -1 -1
 NAtoms=      2 NQM=        2 NQMF=       0 NMMI=      0 NMMIF=      0
                NMic=       0 NMicF=      0.
                    Isotopes and Nuclear Properties:
 (Nuclear quadrupole moments (NQMom) in fm**2, nuclear magnetic moments (NMagM)
  in nuclear magnetons)

  Atom         1           2
 IAtWgt=           1          39
 AtmWgt=   1.0078250  38.9637079
 NucSpn=           1           3
 AtZEff=  -0.0000000  -0.0000000
 NQMom=    0.0000000   5.8500000
 NMagM=    2.7928460   0.3914660
 AtZNuc=   1.0000000  19.0000000
 Leave Link  101 at Mon Mar 28 14:39:03 2022, MaxMem=  9663676416 cpu:               3.0 elap:               0.1
 (Enter /nopt/nrel/apps/gaussian/g16C_1/g16/l202.exe)
                          Input orientation:                          
 ---------------------------------------------------------------------
 Center     Atomic      Atomic             Coordinates (Angstroms)
 Number     Number       Type             X           Y           Z
 ---------------------------------------------------------------------
      1          1           0        0.000000    0.000000    0.000000
      2         19           0        0.000000    0.000000    2.900000
 ---------------------------------------------------------------------
 Stoichiometry    HK(3)
 Framework group  C*V[C*(HK)]
 Deg. of freedom     1
 Full point group                 C*V     NOp   4
 Largest Abelian subgroup         C2V     NOp   4
 Largest concise Abelian subgroup C1      NOp   1
                         Standard orientation:                         
 ---------------------------------------------------------------------
 Center     Atomic      Atomic             Coordinates (Angstroms)
 Number     Number       Type             X           Y           Z
 ---------------------------------------------------------------------
      1          1           0        0.000000    0.000000   -2.755000
      2         19           0        0.000000    0.000000    0.145000
 ---------------------------------------------------------------------
 Rotational constants (GHZ):           0.0000000          61.1683247          61.1683247
 Leave Link  202 at Mon Mar 28 14:39:03 2022, MaxMem=  9663676416 cpu:               0.9 elap:               0.0
 (Enter /nopt/nrel/apps/gaussian/g16C_1/g16/l301.exe)
 General basis read from cards:  (5D, 7F)
                         Coordinates in L301:                         
 ---------------------------------------------------------------------
 Center     Atomic      Atomic             Coordinates (Angstroms)
 Number     Number       Type             X           Y           Z
 ---------------------------------------------------------------------
      1          1           0        0.000000    0.000000   -2.755000
      2         19           0        0.000000    0.000000    0.145000
 ---------------------------------------------------------------------
 Centers:       1
 STO-3G
 ****
 Centers:       2
 3-21G
 ****
 FixB: optimizing general contractions.
 Ernie: Thresh=  0.10000D-02 Tol=  0.10000D-05 Strict=F.
 IA=     1 ShT= 0 ShC= 0 NL=   1 NS=   0.
 IA=     1 L=0 SC=0 ISt=    0 NBk=    0 NP=    0 IndPr=    0.
 IA=     2 ShT= 0 ShC= 0 NL=   1 NS=   0.
 IA=     2 L=0 SC=0 ISt=    0 NBk=    0 NP=    0 IndPr=    0.
 IA=     2 ShT= 1 ShC= 0 NL=   4 NS=   1.
 IA=     2 L=1 SC=0 ISt=    1 NBk=    3 NP=    8 IndPr=    0.
 DoElim1:  L=1 select primitive    1 from    2 using    1 C=-1.09D-01
 DoElim1:  L=1 select primitive    1 from    3 using    1 C=-1.09D-01
 DoElim1:  L=1 select primitive    4 from    3 using    2 C=-2.70D-01
 DoElim2:  L=1 select primitive    8 from    2 using    3 C= 1.13D+00
 DoElim2:  L=1 select primitive    8 from    1 using    3 C= 1.13D+00
 DoElim2:  L=1 select primitive    6 from    1 using    2 C= 8.11D-01
 DoElim1:  L=1 select primitive    1 from    2 using    1 C= 1.34D-01
 DoElim1:  L=1 select primitive    1 from    3 using    1 C= 1.34D-01
 DoElim1:  L=1 select primitive    4 from    3 using    2 C= 1.99D-02
 DoElim2:  L=1 select primitive    8 from    2 using    3 C= 1.00D+00
 DoElim2:  L=1 select primitive    8 from    1 using    3 C= 1.00D+00
 DoElim2:  L=1 select primitive    6 from    1 using    2 C= 6.45D-01
 Delete L=1 primitive    6 from    3 C=  0.00D+00.
 Delete L=1 primitive    5 from    3 C=  0.00D+00.
 Delete L=1 primitive    4 from    3 C=  0.00D+00.
 Delete L=1 primitive    3 from    3 C=  0.00D+00.
 Delete L=1 primitive    2 from    3 C=  0.00D+00.
 Delete L=1 primitive    1 from    3 C=  0.00D+00.
 Delete L=1 primitive    8 from    2 C=  0.00D+00.
 Delete L=1 primitive    7 from    2 C=  0.00D+00.
 Delete L=1 primitive    3 from    2 C=  0.00D+00.
 Delete L=1 primitive    2 from    2 C=  0.00D+00.
 Delete L=1 primitive    1 from    2 C=  0.00D+00.
 Delete L=1 primitive    8 from    1 C=  0.00D+00.
 Delete L=1 primitive    7 from    1 C=  0.00D+00.
 Delete L=1 primitive    6 from    1 C=  0.00D+00.
 Delete L=1 primitive    5 from    1 C=  0.00D+00.
 Delete L=1 primitive    4 from    1 C=  0.00D+00.
 IA=     2 L=1 SC=0 ISt=    0 NBk=    0 NP=    0 IndPr=    8.
 LdAtmC:  AtmChg=     1.000000    19.000000
 AtZEff=     -1.0000000    -22.4200000
 NEqShl: 
              1            2            3            4
     1            1            1            1            1
     2            2            2            2            2
     3            3            3            3            3
     4            4            4            4            4
     5            5            5            5            5
     6            6            6            6            6
 NEqBas: 
              1            2            3            4
     1            1            1            1            1
     2            2            2            2            2
     3            3            3            3            3
     4            4           -4           -4            4
     5            5           -5            5           -5
     6            6            6            6            6
     7            7            7            7            7
     8            8           -8           -8            8
     9            9           -9            9           -9
    10           10           10           10           10
    11           11           11           11           11
    12           12          -12          -12           12
    13           13          -13           13          -13
    14           14           14           14           14
    15           15           15           15           15
    16           16          -16          -16           16
    17           17          -17           17          -17
    18           18           18           18           18
 There are    10 symmetry adapted cartesian basis functions of A1  symmetry.
   1         1   1   1   1
   2         2   2   2   2
   3         3   3   3   3
   4         6   6   6   6
   5         7   7   7   7
   6        10  10  10  10
   7        11  11  11  11
   8        14  14  14  14
   9        15  15  15  15
  10        18  18  18  18
 There are     0 symmetry adapted cartesian basis functions of A2  symmetry.
 There are     4 symmetry adapted cartesian basis functions of B1  symmetry.
  11         4   4   4   4
  12         8   8   8   8
  13        12  12  12  12
  14        16  16  16  16
 There are     4 symmetry adapted cartesian basis functions of B2  symmetry.
  15         5   5   5   5
  16         9   9   9   9
  17        13  13  13  13
  18        17  17  17  17
 Order= 1 2 4 3
 Reordered character table:
              1            2            3            4            5
     1            1            1            1            1            1
     2            2            1            1           -1           -1
     3            4            1           -1           -1            1
     4            3            1           -1            1           -1
 NEqShl: 
              1            2            3            4
     1            1            1            1            1
     2            2            2            2            2
     3            3            3            3            3
     4            4            4            4            4
     5            5            5            5            5
     6            6            6            6            6
 NEqBas: 
              1            2            3            4
     1            1            1            1            1
     2            2            2            2            2
     3            3            3            3            3
     4            4           -4           -4            4
     5            5           -5            5           -5
     6            6            6            6            6
     7            7            7            7            7
     8            8           -8           -8            8
     9            9           -9            9           -9
    10           10           10           10           10
    11           11           11           11           11
    12           12          -12          -12           12
    13           13          -13           13          -13
    14           14           14           14           14
    15           15           15           15           15
    16           16          -16          -16           16
    17           17          -17           17          -17
    18           18           18           18           18
 There are    10 symmetry adapted basis functions of A1  symmetry.
   1         1   1   1   1
   2         2   2   2   2
   3         3   3   3   3
   4         6   6   6   6
   5         7   7   7   7
   6        10  10  10  10
   7        11  11  11  11
   8        14  14  14  14
   9        15  15  15  15
  10        18  18  18  18
 There are     0 symmetry adapted basis functions of A2  symmetry.
 There are     4 symmetry adapted basis functions of B1  symmetry.
  11         4   4   4   4
  12         8   8   8   8
  13        12  12  12  12
  14        16  16  16  16
 There are     4 symmetry adapted basis functions of B2  symmetry.
  15         5   5   5   5
  16         9   9   9   9
  17        13  13  13  13
  18        17  17  17  17
 Order= 1 2 4 3
 Reordered character table:
              1            2            3            4            5
     1            1            1            1            1            1
     2            2            1            1           -1           -1
     3            4            1           -1           -1            1
     4            3            1           -1            1           -1
    18 basis functions,    42 primitive gaussians,    18 cartesian basis functions
    11 alpha electrons        9 beta electrons
       nuclear repulsion energy         3.4670231060 Hartrees.
 IS=     1 IAt=     1 ISR=     1 T=0 IP=      1 IndIP=      1 IndIPD=      0 C=  2.769344D-01  0.000000D+00                             NZ=T
 IS=     1 IAt=     1 ISR=     1 T=0 IP=      2 IndIP=      2 IndIPD=      1 C=  2.678389D-01  0.000000D+00                             NZ=T
 IS=     1 IAt=     1 ISR=     1 T=0 IP=      3 IndIP=      3 IndIPD=      2 C=  8.347367D-02  0.000000D+00                             NZ=T
 IS=     2 IAt=     2 ISR=     1 T=0 IP=      1 IndIP=      4 IndIPD=      0 C=  1.235533D+01  0.000000D+00                             NZ=T
 IS=     2 IAt=     2 ISR=     1 T=0 IP=      2 IndIP=      5 IndIPD=      1 C=  1.757620D+01  0.000000D+00                             NZ=T
 IS=     2 IAt=     2 ISR=     1 T=0 IP=      3 IndIP=      6 IndIPD=      2 C=  9.965255D+00  0.000000D+00                             NZ=T
 IS=     3 IAt=     2 ISR=     2 T=1 IP=      1 IndIP=      7 IndIPD=      0 C= -1.917303D+00  3.974198D+01                             NZ=T
 IS=     3 IAt=     2 ISR=     2 T=1 IP=      2 IndIP=      8 IndIPD=      1 C=  6.276214D-01  2.313166D+01                             NZ=T
 IS=     3 IAt=     2 ISR=     2 T=1 IP=      3 IndIP=      9 IndIPD=      2 C=  2.074825D+00  4.747626D+00                             NZ=T
 IS=     4 IAt=     2 ISR=     3 T=1 IP=      1 IndIP=     10 IndIPD=      0 C= -5.565498D-01  1.669766D-01                             NZ=T
 IS=     4 IAt=     2 ISR=     3 T=1 IP=      2 IndIP=     11 IndIPD=      1 C=  2.958337D-01  7.678126D-01                             NZ=T
 IS=     4 IAt=     2 ISR=     3 T=1 IP=      3 IndIP=     12 IndIPD=      2 C=  2.772726D-01  2.705395D-01                             NZ=T
 IS=     5 IAt=     2 ISR=     4 T=1 IP=      1 IndIP=     13 IndIPD=      0 C= -6.663323D-02  7.553623D-05                             NZ=T
 IS=     5 IAt=     2 ISR=     4 T=1 IP=      2 IndIP=     14 IndIPD=      1 C=  7.057644D-02  2.467884D-02                             NZ=T
 IS=     6 IAt=     2 ISR=     5 T=1 IP=      1 IndIP=     15 IndIPD=      0 C=  3.215666D-02  8.150947D-03                             NZ=T
 IExCor=    0 DFT=F Ex=HF Corr=None ExCW=0 ScaHFX=  1.000000
 ScaDFX=  1.000000  1.000000  1.000000  1.000000 ScalE2=  1.000000  1.000000
 IRadAn=      5 IRanWt=     -1 IRanGd=            0 ICorTp=0 IEmpDi=  4
 NAtoms=    2 NActive=    2 NUniq=    2 SFac= 1.00D+00 NAtFMM=   60 NAOKFM=F Big=F
 Integral buffers will be    131072 words long.
 Raffenetti 2 integral format.
 Two-electron integral symmetry is turned on.
 Leave Link  301 at Mon Mar 28 14:39:03 2022, MaxMem=  9663676416 cpu:               1.9 elap:               0.1
 (Enter /nopt/nrel/apps/gaussian/g16C_1/g16/l302.exe)
 NPDir=0 NMtPBC=     1 NCelOv=     1 NCel=       1 NClECP=     1 NCelD=      1
         NCelK=      1 NCelE2=     1 NClLst=     1 CellRange=     0.0.
 One-electron integrals computed using PRISM.
 One-electron integral symmetry used in STVInt
 Entering OneElI...
 Calculate overlap and kinetic energy integrals
    NBasis =  18  MinDer = 0  MaxDer = 0
 Requested accuracy = 0.1000D-12
 Symmetry will be used
 PrmmSu-InSpLW:  IPartL=    0 NPrtUS=   36 NPrtUL=    1 DoSpLW=F IThBeg=    0 IThEnd=   35 NThAct=   36.
 PrSmSu:  IncTry=   512 NBBP=             21 NTPThr=   100 NPartT=   36 Incr=           1 LDynOK=F GPUOK=F.
 PrsmSu:  NPrtUS=  36 ThrOK=T IAlg=1 LenDen=           0 ISkipM=0 DoSpLW=F IThBeg=    0 IThEnd=   35.
 Prism:   IPart=     0 DynPar=F LinDyn=F Incr=           1.
 PRISM was handed   268433277 working-precision words and    21 shell-pairs
 PRISM was handed   268433277 working-precision words and    21 shell-pairs
 PRISM was handed   268433277 working-precision words and    21 shell-pairs
 PRISM was handed   268433277 working-precision words and    21 shell-pairs
 PRISM was handed   268433277 working-precision words and    21 shell-pairs
 PRISM was handed   268433277 working-precision words and    21 shell-pairs
 PRISM was handed   268433277 working-precision words and    21 shell-pairs
 PRISM was handed   268433277 working-precision words and    21 shell-pairs
 PRISM was handed   268433277 working-precision words and    21 shell-pairs
 PRISM was handed   268433277 working-precision words and    21 shell-pairs
 PRISM was handed   268433277 working-precision words and    21 shell-pairs
 IPart= 20 NShTot=           0 NBatch=           0 AvBLen=         0.0
 IPart=  8 NShTot=           0 NBatch=           0 AvBLen=         0.0
 IPart= 14 NShTot=           0 NBatch=           0 AvBLen=         0.0
 IPart=  3 NShTot=           0 NBatch=           0 AvBLen=         0.0
 IPart= 28 NShTot=           0 NBatch=           0 AvBLen=         0.0
 PRISM was handed   268433277 working-precision words and    21 shell-pairs
 IPart= 12 NShTot=           0 NBatch=           0 AvBLen=         0.0
 PRISM was handed   268433277 working-precision words and    21 shell-pairs
 IPart= 21 NShTot=           0 NBatch=           0 AvBLen=         0.0
 IPart= 34 NShTot=           0 NBatch=           0 AvBLen=         0.0
 IPart= 35 NShTot=           0 NBatch=           0 AvBLen=         0.0
 IPart= 32 NShTot=           0 NBatch=           0 AvBLen=         0.0
 PRISM was handed   268433277 working-precision words and    21 shell-pairs
 IPart=  2 NShTot=           2 NBatch=           2 AvBLen=         1.0
 PRISM was handed   268433277 working-precision words and    21 shell-pairs
 PRISM was handed   268433277 working-precision words and    21 shell-pairs
 PRISM was handed   268433277 working-precision words and    21 shell-pairs
 PRISM was handed   268433277 working-precision words and    21 shell-pairs
 PRISM was handed   268433277 working-precision words and    21 shell-pairs
 IPart=  1 NShTot=           7 NBatch=           7 AvBLen=         1.0
 PRISM was handed   268433277 working-precision words and    21 shell-pairs
 PRISM was handed   268433277 working-precision words and    21 shell-pairs
 IPart= 29 NShTot=           0 NBatch=           0 AvBLen=         0.0
 IPart= 26 NShTot=           0 NBatch=           0 AvBLen=         0.0
 IPart= 27 NShTot=           0 NBatch=           0 AvBLen=         0.0
 PRISM was handed   268433277 working-precision words and    21 shell-pairs
 PRISM was handed   268433277 working-precision words and    21 shell-pairs
 IPart= 33 NShTot=           0 NBatch=           0 AvBLen=         0.0
 PRISM was handed   268433277 working-precision words and    21 shell-pairs
 IPart= 25 NShTot=           0 NBatch=           0 AvBLen=         0.0
 IPart= 15 NShTot=           0 NBatch=           0 AvBLen=         0.0
 IPart= 18 NShTot=           0 NBatch=           0 AvBLen=         0.0
 IPart= 13 NShTot=           0 NBatch=           0 AvBLen=         0.0
 PRISM was handed   268433277 working-precision words and    21 shell-pairs
 IPart=  7 NShTot=           0 NBatch=           0 AvBLen=         0.0
 IPart= 16 NShTot=           0 NBatch=           0 AvBLen=         0.0
 IPart=  9 NShTot=           0 NBatch=           0 AvBLen=         0.0
 PRISM was handed   268433277 working-precision words and    21 shell-pairs
 IPart= 10 NShTot=           0 NBatch=           0 AvBLen=         0.0
 PRISM was handed   268433277 working-precision words and    21 shell-pairs
 PRISM was handed   268433277 working-precision words and    21 shell-pairs
 PRISM was handed   268433277 working-precision words and    21 shell-pairs
 IPart= 24 NShTot=           0 NBatch=           0 AvBLen=         0.0
 IPart= 17 NShTot=           0 NBatch=           0 AvBLen=         0.0
 PRISM was handed   268433277 working-precision words and    21 shell-pairs
 IPart=  6 NShTot=           0 NBatch=           0 AvBLen=         0.0
 IPart=  4 NShTot=           0 NBatch=           0 AvBLen=         0.0
 PRISM was handed   268433277 working-precision words and    21 shell-pairs
 PRISM was handed   268433277 working-precision words and    21 shell-pairs
 IPart=  5 NShTot=           0 NBatch=           0 AvBLen=         0.0
 PRISM was handed   268433277 working-precision words and    21 shell-pairs
 PRISM was handed   268433277 working-precision words and    21 shell-pairs
 PRISM was handed   268433277 working-precision words and    21 shell-pairs
 PRISM was handed   268433277 working-precision words and    21 shell-pairs
 IPart= 31 NShTot=           0 NBatch=           0 AvBLen=         0.0
 IPart= 19 NShTot=           0 NBatch=           0 AvBLen=         0.0
 IPart= 23 NShTot=           0 NBatch=           0 AvBLen=         0.0
 IPart= 11 NShTot=           0 NBatch=           0 AvBLen=         0.0
 IPart= 22 NShTot=           0 NBatch=           0 AvBLen=         0.0
 IPart= 30 NShTot=           0 NBatch=           0 AvBLen=         0.0
 IPart=  0 NShTot=          12 NBatch=          12 AvBLen=         1.0
 PrSmSu:  NxtVal=             37.
 *** Overlap *** 
                1             2             3             4             5 
      1  0.100000D+01
      2  0.817018D-04  0.100000D+01
      3  0.749352D-03  0.255104D+00  0.100000D+01
      4  0.000000D+00  0.000000D+00  0.000000D+00  0.100000D+01
      5  0.000000D+00  0.000000D+00  0.000000D+00  0.000000D+00  0.100000D+01
      6 -0.402700D-03  0.000000D+00  0.000000D+00  0.000000D+00  0.000000D+00
      7  0.108656D-01  0.851285D-02  0.305620D+00  0.000000D+00  0.000000D+00
      8  0.000000D+00  0.000000D+00  0.000000D+00  0.282859D+00  0.000000D+00
      9  0.000000D+00  0.000000D+00  0.000000D+00  0.000000D+00  0.282859D+00
     10 -0.191317D-01  0.000000D+00  0.000000D+00  0.000000D+00  0.000000D+00
     11  0.197457D+00  0.657633D-03  0.101668D-01  0.000000D+00  0.000000D+00
     12  0.000000D+00  0.000000D+00  0.000000D+00  0.931227D-02  0.000000D+00
     13  0.000000D+00  0.000000D+00  0.000000D+00  0.000000D+00  0.931227D-02
     14 -0.335261D+00  0.000000D+00  0.000000D+00  0.000000D+00  0.000000D+00
     15  0.184332D+00  0.496746D-02  0.403235D-01  0.000000D+00  0.000000D+00
     16  0.000000D+00  0.000000D+00  0.000000D+00  0.310109D-02  0.000000D+00
     17  0.000000D+00  0.000000D+00  0.000000D+00  0.000000D+00  0.310109D-02
     18 -0.239384D+00  0.000000D+00  0.000000D+00  0.000000D+00  0.000000D+00
                6             7             8             9            10 
      6  0.100000D+01
      7  0.000000D+00  0.100000D+01
      8  0.000000D+00  0.000000D+00  0.100000D+01
      9  0.000000D+00  0.000000D+00  0.000000D+00  0.100000D+01
     10  0.282859D+00  0.000000D+00  0.000000D+00  0.000000D+00  0.100000D+01
     11  0.000000D+00  0.215867D+00  0.000000D+00  0.000000D+00  0.000000D+00
     12  0.000000D+00  0.000000D+00  0.200079D+00  0.000000D+00  0.000000D+00
     13  0.000000D+00  0.000000D+00  0.000000D+00  0.200079D+00  0.000000D+00
     14  0.931227D-02  0.000000D+00  0.000000D+00  0.000000D+00  0.200079D+00
     15  0.000000D+00  0.230714D+00  0.000000D+00  0.000000D+00  0.000000D+00
     16  0.000000D+00  0.000000D+00  0.749696D-01  0.000000D+00  0.000000D+00
     17  0.000000D+00  0.000000D+00  0.000000D+00  0.749696D-01  0.000000D+00
     18  0.310109D-02  0.000000D+00  0.000000D+00  0.000000D+00  0.749696D-01
               11            12            13            14            15 
     11  0.100000D+01
     12  0.000000D+00  0.100000D+01
     13  0.000000D+00  0.000000D+00  0.100000D+01
     14  0.000000D+00  0.000000D+00  0.000000D+00  0.100000D+01
     15  0.889160D+00  0.000000D+00  0.000000D+00  0.000000D+00  0.100000D+01
     16  0.000000D+00  0.788263D+00  0.000000D+00  0.000000D+00  0.000000D+00
     17  0.000000D+00  0.000000D+00  0.788263D+00  0.000000D+00  0.000000D+00
     18  0.000000D+00  0.000000D+00  0.000000D+00  0.788263D+00  0.000000D+00
               16            17            18 
     16  0.100000D+01
     17  0.000000D+00  0.100000D+01
     18  0.000000D+00  0.000000D+00  0.100000D+01
 *** Kinetic Energy *** 
                1             2             3             4             5 
      1  0.760032D+00
      2 -0.979209D-04  0.176298D+03
      3 -0.827571D-03 -0.620687D+01  0.781415D+01
      4  0.000000D+00  0.000000D+00  0.000000D+00  0.280311D+02
      5  0.000000D+00  0.000000D+00  0.000000D+00  0.000000D+00  0.280311D+02
      6  0.317840D-03  0.000000D+00  0.000000D+00  0.000000D+00  0.000000D+00
      7 -0.612410D-02 -0.709406D+00 -0.685499D+00  0.000000D+00  0.000000D+00
      8  0.000000D+00  0.000000D+00  0.000000D+00  0.125035D+01  0.000000D+00
      9  0.000000D+00  0.000000D+00  0.000000D+00  0.000000D+00  0.125035D+01
     10  0.745331D-02  0.000000D+00  0.000000D+00  0.000000D+00  0.000000D+00
     11  0.929443D-02 -0.621117D-02 -0.439131D-01  0.000000D+00  0.000000D+00
     12  0.000000D+00  0.000000D+00  0.000000D+00  0.182620D-02  0.000000D+00
     13  0.000000D+00  0.000000D+00  0.000000D+00  0.000000D+00  0.182620D-02
     14 -0.334612D-01  0.000000D+00  0.000000D+00  0.000000D+00  0.000000D+00
     15  0.580482D-02  0.239311D-03  0.193628D-02  0.000000D+00  0.000000D+00
     16  0.000000D+00  0.000000D+00  0.000000D+00  0.248286D-03  0.000000D+00
     17  0.000000D+00  0.000000D+00  0.000000D+00  0.000000D+00  0.248286D-03
     18 -0.147400D-01  0.000000D+00  0.000000D+00  0.000000D+00  0.000000D+00
                6             7             8             9            10 
      6  0.280311D+02
      7  0.000000D+00  0.856984D+00
      8  0.000000D+00  0.000000D+00  0.155517D+01
      9  0.000000D+00  0.000000D+00  0.000000D+00  0.155517D+01
     10  0.125035D+01  0.000000D+00  0.000000D+00  0.000000D+00  0.155517D+01
     11  0.000000D+00 -0.669248D-01  0.000000D+00  0.000000D+00  0.000000D+00
     12  0.000000D+00  0.000000D+00  0.358731D-01  0.000000D+00  0.000000D+00
     13  0.000000D+00  0.000000D+00  0.000000D+00  0.358731D-01  0.000000D+00
     14  0.182620D-02  0.000000D+00  0.000000D+00  0.000000D+00  0.358731D-01
     15  0.000000D+00  0.106939D-01  0.000000D+00  0.000000D+00  0.000000D+00
     16  0.000000D+00  0.000000D+00  0.579876D-02  0.000000D+00  0.000000D+00
     17  0.000000D+00  0.000000D+00  0.000000D+00  0.579876D-02  0.000000D+00
     18  0.248286D-03  0.000000D+00  0.000000D+00  0.000000D+00  0.579876D-02
               11            12            13            14            15 
     11  0.660420D-01
     12  0.000000D+00  0.974466D-01
     13  0.000000D+00  0.000000D+00  0.974466D-01
     14  0.000000D+00  0.000000D+00  0.000000D+00  0.974466D-01
     15  0.293463D-01  0.000000D+00  0.000000D+00  0.000000D+00  0.240938D-01
     16  0.000000D+00  0.448313D-01  0.000000D+00  0.000000D+00  0.000000D+00
     17  0.000000D+00  0.000000D+00  0.448313D-01  0.000000D+00  0.000000D+00
     18  0.000000D+00  0.000000D+00  0.000000D+00  0.448313D-01  0.000000D+00
               16            17            18 
     16  0.401564D-01
     17  0.000000D+00  0.401564D-01
     18  0.000000D+00  0.000000D+00  0.401564D-01
 Entering OneElI...
 Calculate potential energy integrals
    NBasis =  18  MinDer = 0  MaxDer = 0
 Requested accuracy = 0.1000D-12
 Symmetry will be used
 PrmmSu-InSpLW:  IPartL=    0 NPrtUS=   36 NPrtUL=    1 DoSpLW=F IThBeg=    0 IThEnd=   35 NThAct=   36.
 PrSmSu:  IncTry=   512 NBBP=             42 NTPThr=   100 NPartT=   36 Incr=           1 LDynOK=F GPUOK=F.
 PrsmSu:  NPrtUS=  36 ThrOK=T IAlg=1 LenDen=           0 ISkipM=0 DoSpLW=F IThBeg=    0 IThEnd=   35.
 Prism:   IPart=     0 DynPar=F LinDyn=F Incr=           1.
 PRISM was handed   268433431 working-precision words and    21 shell-pairs
 PRISM was handed   268433431 working-precision words and    21 shell-pairs
 PRISM was handed   268433431 working-precision words and    21 shell-pairs
 PRISM was handed   268433431 working-precision words and    21 shell-pairs
 PRISM was handed   268433431 working-precision words and    21 shell-pairs
 PRISM was handed   268433431 working-precision words and    21 shell-pairs
 PRISM was handed   268433431 working-precision words and    21 shell-pairs
 PRISM was handed   268433431 working-precision words and    21 shell-pairs
 PRISM was handed   268433431 working-precision words and    21 shell-pairs
 PRISM was handed   268433431 working-precision words and    21 shell-pairs
 PRISM was handed   268433431 working-precision words and    21 shell-pairs
 PRISM was handed   268433431 working-precision words and    21 shell-pairs
 PRISM was handed   268433431 working-precision words and    21 shell-pairs
 PRISM was handed   268433431 working-precision words and    21 shell-pairs
 PRISM was handed   268433431 working-precision words and    21 shell-pairs
 PRISM was handed   268433431 working-precision words and    21 shell-pairs
 PRISM was handed   268433431 working-precision words and    21 shell-pairs
 PRISM was handed   268433431 working-precision words and    21 shell-pairs
 PRISM was handed   268433431 working-precision words and    21 shell-pairs
 PRISM was handed   268433431 working-precision words and    21 shell-pairs
 PRISM was handed   268433431 working-precision words and    21 shell-pairs
 PRISM was handed   268433431 working-precision words and    21 shell-pairs
 PRISM was handed   268433431 working-precision words and    21 shell-pairs
 PRISM was handed   268433431 working-precision words and    21 shell-pairs
 PRISM was handed   268433431 working-precision words and    21 shell-pairs
 PRISM was handed   268433431 working-precision words and    21 shell-pairs
 PRISM was handed   268433431 working-precision words and    21 shell-pairs
 PRISM was handed   268433431 working-precision words and    21 shell-pairs
 PRISM was handed   268433431 working-precision words and    21 shell-pairs
 PRISM was handed   268433431 working-precision words and    21 shell-pairs
 PRISM was handed   268433431 working-precision words and    21 shell-pairs
 PRISM was handed   268433431 working-precision words and    21 shell-pairs
 PRISM was handed   268433431 working-precision words and    21 shell-pairs
 PRISM was handed   268433431 working-precision words and    21 shell-pairs
 PRISM was handed   268433431 working-precision words and    21 shell-pairs
 PRISM was handed   268433431 working-precision words and    21 shell-pairs
 IPart= 14 NShTot=           0 NBatch=           0 AvBLen=         0.0
 IPart= 34 NShTot=           0 NBatch=           0 AvBLen=         0.0
 IPart= 20 NShTot=           0 NBatch=           0 AvBLen=         0.0
 IPart= 12 NShTot=           0 NBatch=           0 AvBLen=         0.0
 IPart= 19 NShTot=           0 NBatch=           0 AvBLen=         0.0
 IPart= 23 NShTot=           0 NBatch=           0 AvBLen=         0.0
 IPart= 28 NShTot=           0 NBatch=           0 AvBLen=         0.0
 IPart= 22 NShTot=           0 NBatch=           0 AvBLen=         0.0
 IPart= 24 NShTot=           0 NBatch=           0 AvBLen=         0.0
 IPart= 18 NShTot=           0 NBatch=           0 AvBLen=         0.0
 IPart= 21 NShTot=           0 NBatch=           0 AvBLen=         0.0
 IPart= 35 NShTot=           0 NBatch=           0 AvBLen=         0.0
 IPart=  4 NShTot=           0 NBatch=           0 AvBLen=         0.0
 IPart=  8 NShTot=           0 NBatch=           0 AvBLen=         0.0
 IPart=  5 NShTot=           0 NBatch=           0 AvBLen=         0.0
 IPart=  6 NShTot=           0 NBatch=           0 AvBLen=         0.0
 IPart= 30 NShTot=           0 NBatch=           0 AvBLen=         0.0
 IPart= 27 NShTot=           0 NBatch=           0 AvBLen=         0.0
 IPart= 26 NShTot=           0 NBatch=           0 AvBLen=         0.0
 IPart=  9 NShTot=           0 NBatch=           0 AvBLen=         0.0
 IPart= 29 NShTot=           0 NBatch=           0 AvBLen=         0.0
 IPart= 17 NShTot=           0 NBatch=           0 AvBLen=         0.0
 IPart= 15 NShTot=           0 NBatch=           0 AvBLen=         0.0
 IPart= 13 NShTot=           0 NBatch=           0 AvBLen=         0.0
 IPart=  7 NShTot=           0 NBatch=           0 AvBLen=         0.0
 IPart= 10 NShTot=           0 NBatch=           0 AvBLen=         0.0
 IPart= 16 NShTot=           0 NBatch=           0 AvBLen=         0.0
 IPart= 33 NShTot=           0 NBatch=           0 AvBLen=         0.0
 IPart= 32 NShTot=           0 NBatch=           0 AvBLen=         0.0
 IPart=  3 NShTot=           0 NBatch=           0 AvBLen=         0.0
 IPart= 11 NShTot=           0 NBatch=           0 AvBLen=         0.0
 IPart=  2 NShTot=           4 NBatch=           2 AvBLen=         2.0
 IPart=  1 NShTot=          14 NBatch=           7 AvBLen=         2.0
 IPart=  0 NShTot=          24 NBatch=          12 AvBLen=         2.0
 IPart= 25 NShTot=           0 NBatch=           0 AvBLen=         0.0
 IPart= 31 NShTot=           0 NBatch=           0 AvBLen=         0.0
 PrSmSu:  NxtVal=             37.
 ***** Potential Energy ***** 
                1             2             3             4             5 
      1  0.469363D+01
      2  0.157805D-01  0.355855D+03
      3  0.327095D-01  0.428487D+02  0.620175D+02
      4  0.000000D+00  0.000000D+00  0.000000D+00  0.710885D+02
      5  0.000000D+00  0.000000D+00  0.000000D+00  0.000000D+00  0.710885D+02
      6 -0.140650D-01 -0.902078D-03 -0.681668D-02  0.000000D+00  0.000000D+00
      7  0.116943D+00  0.118121D+01  0.115024D+02  0.000000D+00  0.000000D+00
      8  0.000000D+00  0.000000D+00  0.000000D+00  0.114861D+02  0.000000D+00
      9  0.000000D+00  0.000000D+00  0.000000D+00  0.000000D+00  0.114861D+02
     10 -0.169768D+00 -0.452523D-04 -0.314418D-02  0.000000D+00  0.000000D+00
     11  0.906815D+00  0.123592D+00  0.387669D+00  0.000000D+00  0.000000D+00
     12  0.000000D+00  0.000000D+00  0.000000D+00  0.333945D+00  0.000000D+00
     13  0.000000D+00  0.000000D+00  0.000000D+00  0.000000D+00  0.333945D+00
     14 -0.147064D+01  0.000000D+00 -0.111405D-03  0.000000D+00  0.000000D+00
     15  0.803788D+00  0.963348D+00  0.183412D+01  0.000000D+00  0.000000D+00
     16  0.000000D+00  0.000000D+00  0.000000D+00  0.110855D+00  0.000000D+00
     17  0.000000D+00  0.000000D+00  0.000000D+00  0.000000D+00  0.110855D+00
     18 -0.978812D+00  0.000000D+00 -0.371598D-04  0.000000D+00  0.000000D+00
                6             7             8             9            10 
      6  0.710891D+02
      7 -0.339222D-02  0.182023D+02
      8  0.000000D+00  0.000000D+00  0.168024D+02
      9  0.000000D+00  0.000000D+00  0.000000D+00  0.168024D+02
     10  0.114865D+02 -0.246921D-01  0.000000D+00  0.000000D+00  0.168104D+02
     11 -0.125778D-03  0.239281D+01  0.000000D+00  0.000000D+00 -0.115571D-01
     12  0.000000D+00  0.000000D+00  0.209360D+01  0.000000D+00  0.000000D+00
     13  0.000000D+00  0.000000D+00  0.000000D+00  0.209360D+01  0.000000D+00
     14  0.333961D+00 -0.610616D-02  0.000000D+00  0.000000D+00  0.209753D+01
     15 -0.407365D-03  0.318558D+01  0.000000D+00  0.000000D+00 -0.984787D-02
     16  0.000000D+00  0.000000D+00  0.759751D+00  0.000000D+00  0.000000D+00
     17  0.000000D+00  0.000000D+00  0.000000D+00  0.759751D+00  0.000000D+00
     18  0.110861D+00 -0.230957D-02  0.000000D+00  0.000000D+00  0.761320D+00
               11            12            13            14            15 
     11  0.492816D+01
     12  0.000000D+00  0.413680D+01
     13  0.000000D+00  0.000000D+00  0.413680D+01
     14 -0.729297D-01  0.000000D+00  0.000000D+00  0.420041D+01
     15  0.409151D+01  0.000000D+00  0.000000D+00 -0.676337D-01  0.399505D+01
     16  0.000000D+00  0.274873D+01  0.000000D+00  0.000000D+00  0.000000D+00
     17  0.000000D+00  0.000000D+00  0.274873D+01  0.000000D+00  0.000000D+00
     18 -0.475725D-01  0.000000D+00  0.000000D+00  0.279403D+01 -0.542333D-01
               16            17            18 
     16  0.267513D+01
     17  0.000000D+00  0.267513D+01
     18  0.000000D+00  0.000000D+00  0.271519D+01
 ****** Core Hamiltonian ****** 
                1             2             3             4             5 
      1 -0.393360D+01
      2 -0.158784D-01 -0.179557D+03
      3 -0.335371D-01 -0.490556D+02 -0.542033D+02
      4  0.000000D+00  0.000000D+00  0.000000D+00 -0.430575D+02
      5  0.000000D+00  0.000000D+00  0.000000D+00  0.000000D+00 -0.430575D+02
      6  0.143828D-01  0.902078D-03  0.681668D-02  0.000000D+00  0.000000D+00
      7 -0.123067D+00 -0.189061D+01 -0.121879D+02  0.000000D+00  0.000000D+00
      8  0.000000D+00  0.000000D+00  0.000000D+00 -0.102357D+02  0.000000D+00
      9  0.000000D+00  0.000000D+00  0.000000D+00  0.000000D+00 -0.102357D+02
     10  0.177222D+00  0.452523D-04  0.314418D-02  0.000000D+00  0.000000D+00
     11 -0.897521D+00 -0.129803D+00 -0.431582D+00  0.000000D+00  0.000000D+00
     12  0.000000D+00  0.000000D+00  0.000000D+00 -0.332119D+00  0.000000D+00
     13  0.000000D+00  0.000000D+00  0.000000D+00  0.000000D+00 -0.332119D+00
     14  0.143717D+01  0.000000D+00  0.111405D-03  0.000000D+00  0.000000D+00
     15 -0.797983D+00 -0.963109D+00 -0.183218D+01  0.000000D+00  0.000000D+00
     16  0.000000D+00  0.000000D+00  0.000000D+00 -0.110607D+00  0.000000D+00
     17  0.000000D+00  0.000000D+00  0.000000D+00  0.000000D+00 -0.110607D+00
     18  0.964072D+00  0.000000D+00  0.371598D-04  0.000000D+00  0.000000D+00
                6             7             8             9            10 
      6 -0.430580D+02
      7  0.339222D-02 -0.173453D+02
      8  0.000000D+00  0.000000D+00 -0.152472D+02
      9  0.000000D+00  0.000000D+00  0.000000D+00 -0.152472D+02
     10 -0.102361D+02  0.246921D-01  0.000000D+00  0.000000D+00 -0.152552D+02
     11  0.125778D-03 -0.245974D+01  0.000000D+00  0.000000D+00  0.115571D-01
     12  0.000000D+00  0.000000D+00 -0.205773D+01  0.000000D+00  0.000000D+00
     13  0.000000D+00  0.000000D+00  0.000000D+00 -0.205773D+01  0.000000D+00
     14 -0.332135D+00  0.610616D-02  0.000000D+00  0.000000D+00 -0.206166D+01
     15  0.407365D-03 -0.317489D+01  0.000000D+00  0.000000D+00  0.984787D-02
     16  0.000000D+00  0.000000D+00 -0.753952D+00  0.000000D+00  0.000000D+00
     17  0.000000D+00  0.000000D+00  0.000000D+00 -0.753952D+00  0.000000D+00
     18 -0.110612D+00  0.230957D-02  0.000000D+00  0.000000D+00 -0.755522D+00
               11            12            13            14            15 
     11 -0.486212D+01
     12  0.000000D+00 -0.403936D+01
     13  0.000000D+00  0.000000D+00 -0.403936D+01
     14  0.729297D-01  0.000000D+00  0.000000D+00 -0.410296D+01
     15 -0.406216D+01  0.000000D+00  0.000000D+00  0.676337D-01 -0.397096D+01
     16  0.000000D+00 -0.270390D+01  0.000000D+00  0.000000D+00  0.000000D+00
     17  0.000000D+00  0.000000D+00 -0.270390D+01  0.000000D+00  0.000000D+00
     18  0.475725D-01  0.000000D+00  0.000000D+00 -0.274920D+01  0.542333D-01
               16            17            18 
     16 -0.263497D+01
     17  0.000000D+00 -0.263497D+01
     18  0.000000D+00  0.000000D+00 -0.267503D+01
 SVDSVc IOpt=   1 NormSV=T IR=1
 SVDSVc V= 2.13D+00 1.93D+00 1.35D+00 1.26D+00 9.60D-01 7.83D-01 7.00D-01 5.84D-01 1.93D-01 1.10D-01
 SVDSVc IOpt=   1 NormSV=T IR=3
 SVDSVc V= 1.84D+00 1.25D+00 7.08D-01 2.01D-01
 SVDSVc IOpt=   1 NormSV=T IR=4
 SVDSVc V= 1.84D+00 1.25D+00 7.08D-01 2.01D-01
 TstOVc:  Largest diagonal error= 2.00D-15 IB=1 I=    6.
 TstOVc:  Largest same sym error= 2.18D-15 IB=1 I=    8 J=    7.
 TstOVc:  Largest diff sym error= 0.00D+00 IB=0 JB=0 I=    0 J=    0.
 Orthogonalized basis functions: 
                 1             2             3             4             5 
      1   0.247339D+00 -0.129032D+00 -0.852669D-01  0.109944D+00  0.220693D+00
      2   0.176591D-01  0.226313D-01  0.442884D+00  0.573701D-01  0.744804D+00
      3   0.644926D-01  0.714549D-01  0.602722D+00  0.591772D-01 -0.994966D-01
      4   0.000000D+00  0.000000D+00  0.000000D+00  0.000000D+00  0.000000D+00
      5   0.000000D+00  0.000000D+00  0.000000D+00  0.000000D+00  0.000000D+00
      6  -0.199633D-01  0.454809D-01 -0.540782D-01  0.634211D+00 -0.536029D-01
      7   0.162774D+00  0.153687D+00  0.347824D+00  0.877585D-02 -0.625790D+00
      8   0.000000D+00  0.000000D+00  0.000000D+00  0.000000D+00  0.000000D+00
      9   0.000000D+00  0.000000D+00  0.000000D+00  0.000000D+00  0.000000D+00
     10  -0.684572D-01  0.132325D+00 -0.659150D-01  0.588602D+00  0.494685D-02
     11   0.359617D+00  0.272535D+00 -0.155579D+00 -0.394652D-01  0.112500D+00
     12   0.000000D+00  0.000000D+00  0.000000D+00  0.000000D+00  0.000000D+00
     13   0.000000D+00  0.000000D+00  0.000000D+00  0.000000D+00  0.000000D+00
     14  -0.247129D+00  0.396921D+00 -0.347957D-01 -0.690830D-01  0.621404D-01
     15   0.360208D+00  0.275956D+00 -0.134336D+00 -0.388399D-01  0.983858D-01
     16   0.000000D+00  0.000000D+00  0.000000D+00  0.000000D+00  0.000000D+00
     17   0.000000D+00  0.000000D+00  0.000000D+00  0.000000D+00  0.000000D+00
     18  -0.230202D+00  0.379935D+00 -0.344385D-01 -0.132986D+00  0.900532D-01
                 6             7             8             9            10 
      1   0.922955D+00 -0.321819D+00 -0.158840D+00  0.243661D+00 -0.391864D-01
      2  -0.210310D+00  0.655019D-01 -0.521895D+00  0.127523D-02 -0.102589D-01
      3   0.179980D+00 -0.785184D-01  0.873921D+00 -0.363759D-02  0.713720D-01
      4   0.000000D+00  0.000000D+00  0.000000D+00  0.000000D+00  0.000000D+00
      5   0.000000D+00  0.000000D+00  0.000000D+00  0.000000D+00  0.000000D+00
      6  -0.326510D+00 -0.752200D+00 -0.140363D-01  0.902079D-01 -0.128494D-02
      7   0.754733D-01  0.146172D-01 -0.778564D+00  0.146394D-01  0.106532D-01
      8   0.000000D+00  0.000000D+00  0.000000D+00  0.000000D+00  0.000000D+00
      9   0.000000D+00  0.000000D+00  0.000000D+00  0.000000D+00  0.000000D+00
     10   0.242590D+00  0.802035D+00  0.216634D-01 -0.294857D+00  0.476757D-02
     11  -0.173294D+00  0.484370D-01  0.125178D+00 -0.104974D-01  0.213114D+01
     12   0.000000D+00  0.000000D+00  0.000000D+00  0.000000D+00  0.000000D+00
     13   0.000000D+00  0.000000D+00  0.000000D+00  0.000000D+00  0.000000D+00
     14   0.180007D+00 -0.525342D-01 -0.163116D-01  0.165287D+01 -0.284919D-01
     15  -0.182921D+00  0.524339D-01  0.156105D+00 -0.480948D-01 -0.212740D+01
     16   0.000000D+00  0.000000D+00  0.000000D+00  0.000000D+00  0.000000D+00
     17   0.000000D+00  0.000000D+00  0.000000D+00  0.000000D+00  0.000000D+00
     18   0.285307D+00 -0.311580D+00 -0.642798D-01 -0.151497D+01  0.143009D-01
                11            12            13            14            15 
      1   0.000000D+00  0.000000D+00  0.000000D+00  0.000000D+00  0.000000D+00
      2   0.000000D+00  0.000000D+00  0.000000D+00  0.000000D+00  0.000000D+00
      3   0.000000D+00  0.000000D+00  0.000000D+00  0.000000D+00  0.000000D+00
      4   0.709850D-01  0.645112D+00 -0.813656D+00  0.880868D-01  0.000000D+00
      5   0.000000D+00  0.000000D+00  0.000000D+00  0.000000D+00  0.709850D-01
      6   0.000000D+00  0.000000D+00  0.000000D+00  0.000000D+00  0.000000D+00
      7   0.000000D+00  0.000000D+00  0.000000D+00  0.000000D+00  0.000000D+00
      8   0.188890D+00  0.576969D+00  0.841851D+00 -0.284389D+00  0.000000D+00
      9   0.000000D+00  0.000000D+00  0.000000D+00  0.000000D+00  0.188890D+00
     10   0.000000D+00  0.000000D+00  0.000000D+00  0.000000D+00  0.000000D+00
     11   0.000000D+00  0.000000D+00  0.000000D+00  0.000000D+00  0.000000D+00
     12   0.508568D+00 -0.118274D+00 -0.151283D-02  0.158900D+01  0.000000D+00
     13   0.000000D+00  0.000000D+00  0.000000D+00  0.000000D+00  0.508568D+00
     14   0.000000D+00  0.000000D+00  0.000000D+00  0.000000D+00  0.000000D+00
     15   0.000000D+00  0.000000D+00  0.000000D+00  0.000000D+00  0.000000D+00
     16   0.493792D+00 -0.191632D+00 -0.203508D+00 -0.154043D+01  0.000000D+00
     17   0.000000D+00  0.000000D+00  0.000000D+00  0.000000D+00  0.493792D+00
     18   0.000000D+00  0.000000D+00  0.000000D+00  0.000000D+00  0.000000D+00
                16            17            18 
      1   0.000000D+00  0.000000D+00  0.000000D+00
      2   0.000000D+00  0.000000D+00  0.000000D+00
      3   0.000000D+00  0.000000D+00  0.000000D+00
      4   0.000000D+00  0.000000D+00  0.000000D+00
      5   0.645112D+00 -0.813656D+00  0.880868D-01
      6   0.000000D+00  0.000000D+00  0.000000D+00
      7   0.000000D+00  0.000000D+00  0.000000D+00
      8   0.000000D+00  0.000000D+00  0.000000D+00
      9   0.576969D+00  0.841851D+00 -0.284389D+00
     10   0.000000D+00  0.000000D+00  0.000000D+00
     11   0.000000D+00  0.000000D+00  0.000000D+00
     12   0.000000D+00  0.000000D+00  0.000000D+00
     13  -0.118274D+00 -0.151283D-02  0.158900D+01
     14   0.000000D+00  0.000000D+00  0.000000D+00
     15   0.000000D+00  0.000000D+00  0.000000D+00
     16   0.000000D+00  0.000000D+00  0.000000D+00
     17  -0.191632D+00 -0.203508D+00 -0.154043D+01
     18   0.000000D+00  0.000000D+00  0.000000D+00
 NBasis=    18 RedAO= T EigKep=  1.10D-01  NBF=    10     0     4     4
 NBsUse=    18 1.00D-06 EigRej= -1.00D+00 NBFU=    10     0     4     4
 Leave Link  302 at Mon Mar 28 14:39:03 2022, MaxMem=  9663676416 cpu:               5.5 elap:               0.2
 (Enter /nopt/nrel/apps/gaussian/g16C_1/g16/l303.exe)
 DipDrv will not compute anything.
 Fermi contact integrals: 
                 1             2 
      1   0.628247D+00  0.523802D-03
      2   0.000000D+00  0.398968D+02
      3   0.000000D+00  0.785144D+00
      4   0.000000D+00  0.000000D+00
      5   0.000000D+00  0.000000D+00
      6   0.000000D+00  0.000000D+00
      7   0.349130D-05  0.165565D-01
      8   0.000000D+00  0.000000D+00
      9   0.000000D+00  0.000000D+00
     10  -0.186684D-04  0.000000D+00
     11   0.218523D-01  0.394321D-02
     12   0.000000D+00  0.000000D+00
     13   0.000000D+00  0.000000D+00
     14  -0.419580D-01  0.000000D+00
     15   0.198503D-01  0.321567D-01
     16   0.000000D+00  0.000000D+00
     17   0.000000D+00  0.000000D+00
     18  -0.275741D-01  0.000000D+00
 Leave Link  303 at Mon Mar 28 14:39:03 2022, MaxMem=  9663676416 cpu:               1.3 elap:               0.1
 (Enter /nopt/nrel/apps/gaussian/g16C_1/g16/l401.exe)
 ExpMin= 1.61D-02 ExpMax= 1.72D+03 ExpMxC= 1.72D+03 IAcc=3 IRadAn=         5 AccDes= 0.00D+00
 Harris functional with IExCor=  205 and IRadAn=       5 diagonalized for initial guess.
 HarFok:  IExCor=  205 AccDes= 0.00D+00 IRadAn=         5 IDoV= 1 UseB2=F ITyADJ=14
 ICtDFT=  3500011 ScaDFX=  1.000000  1.000000  1.000000  1.000000
 FoFCou: FMM=F IPFlag=           0 FMFlag=      100000 FMFlg1=           0
         NFxFlg=           0 DoJE=T BraDBF=F KetDBF=T FulRan=T
         wScrn=  0.000000 ICntrl=       500 IOpCl=  0 I1Cent=   200000004 NGrid=           0
         NMat0=    1 NMatS0=      1 NMatT0=    0 NMatD0=    1 NMtDS0=    0 NMtDT0=    0
 Petite list used in FoFCou.
 Harris En= -595.913935673909    
 JPrj=0 DoOrth=F DoCkMO=F.
 Initial guess orbital symmetries:
 Alpha Orbitals:
       Occupied  (SG) (SG) (SG) (PI) (PI) (SG) (SG) (PI) (PI) (SG)
                 (SG)
       Virtual   (PI) (PI) (SG) (SG) (PI) (PI) (SG)
 Beta  Orbitals:
       Occupied  (SG) (SG) (SG) (PI) (PI) (SG) (SG) (PI) (PI)
       Virtual   (SG) (SG) (PI) (PI) (SG) (SG) (PI) (PI) (SG)
 The electronic state of the initial guess is 3-SG.
 Initial guess <Sx>= 0.0000 <Sy>= 0.0000 <Sz>= 1.0000 <S**2>= 2.0000 S= 1.0000
 Leave Link  401 at Mon Mar 28 14:39:03 2022, MaxMem=  9663676416 cpu:               3.3 elap:               0.1
 (Enter /nopt/nrel/apps/gaussian/g16C_1/g16/l502.exe)
 Keep R1 and R2 ints in memory in symmetry-blocked form, NReq=7225781.
 FoFCou: FMM=F IPFlag=           0 FMFlag=           0 FMFlg1=           0
         NFxFlg=           0 DoJE=F BraDBF=F KetDBF=F FulRan=T
         wScrn=  0.000000 ICntrl=       600 IOpCl=  0 I1Cent=           0 NGrid=           0
         NMat0=    1 NMatS0=    171 NMatT0=    0 NMatD0=    1 NMtDS0=    0 NMtDT0=    0
 Petite list used in FoFCou.
 UHF open shell SCF:
 Using DIIS extrapolation, IDIIS=  1040.
 NGot=  9663676416 LenX=  9663664010 LenY=  9663663128
 Requested convergence on RMS density matrix=1.00D-08 within 128 cycles.
 Requested convergence on MAX density matrix=1.00D-06.
 Requested convergence on             energy=1.00D-06.
 No special actions if energy rises.

 Cycle   1  Pass 1  IDiag  1:
 E= -596.595162795794    
 DIIS: error= 2.53D-02 at cycle   1 NSaved=   1.
 NSaved= 1 IEnMin= 1 EnMin= -596.595162795794     IErMin= 1 ErrMin= 2.53D-02
 ErrMax= 2.53D-02  0.00D+00 EMaxC= 1.00D-01 BMatC= 3.84D-02 BMatP= 3.84D-02
 IDIUse=3 WtCom= 7.47D-01 WtEn= 2.53D-01
 Coeff-Com:  0.100D+01
 Coeff-En:   0.100D+01
 Coeff:      0.100D+01
 Gap=     0.168 Goal=   None    Shift=    0.000
 Gap=     0.993 Goal=   None    Shift=    0.000
 GapD=    0.168 DampG=1.000 DampE=0.500 DampFc=0.5000 IDamp=-1.
 Damping current iteration by 5.00D-01
 RMSDP=1.29D-02 MaxDP=1.55D-01              OVMax= 0.00D+00

 Cycle   2  Pass 1  IDiag  1:
 E= -596.604461736287     Delta-E=       -0.009298940494 Rises=F Damp=T
 DIIS: error= 1.70D-02 at cycle   2 NSaved=   2.
 NSaved= 2 IEnMin= 2 EnMin= -596.604461736287     IErMin= 2 ErrMin= 1.70D-02
 ErrMax= 1.70D-02  0.00D+00 EMaxC= 1.00D-01 BMatC= 1.31D-02 BMatP= 3.84D-02
 IDIUse=3 WtCom= 8.30D-01 WtEn= 1.70D-01
 Coeff-Com: -0.130D+01 0.230D+01
 Coeff-En:   0.000D+00 0.100D+01
 Coeff:     -0.108D+01 0.208D+01
 Gap=     0.152 Goal=   None    Shift=    0.000
 Gap=     0.934 Goal=   None    Shift=    0.000
 RMSDP=1.16D-02 MaxDP=1.67D-01 DE=-9.30D-03 OVMax= 0.00D+00

 Cycle   3  Pass 1  IDiag  1:
 E= -596.618130896075     Delta-E=       -0.013669159787 Rises=F Damp=F
 DIIS: error= 2.58D-03 at cycle   3 NSaved=   3.
 NSaved= 3 IEnMin= 3 EnMin= -596.618130896075     IErMin= 3 ErrMin= 2.58D-03
 ErrMax= 2.58D-03  0.00D+00 EMaxC= 1.00D-01 BMatC= 1.68D-04 BMatP= 1.31D-02
 IDIUse=3 WtCom= 9.74D-01 WtEn= 2.58D-02
 Coeff-Com:  0.463D+00-0.909D+00 0.145D+01
 Coeff-En:   0.000D+00 0.000D+00 0.100D+01
 Coeff:      0.452D+00-0.885D+00 0.143D+01
 Gap=     0.151 Goal=   None    Shift=    0.000
 Gap=     0.937 Goal=   None    Shift=    0.000
 RMSDP=3.61D-03 MaxDP=6.24D-02 DE=-1.37D-02 OVMax= 0.00D+00

 Cycle   4  Pass 1  IDiag  1:
 E= -596.618408154910     Delta-E=       -0.000277258835 Rises=F Damp=F
 DIIS: error= 4.36D-04 at cycle   4 NSaved=   4.
 NSaved= 4 IEnMin= 4 EnMin= -596.618408154910     IErMin= 4 ErrMin= 4.36D-04
 ErrMax= 4.36D-04  0.00D+00 EMaxC= 1.00D-01 BMatC= 3.02D-06 BMatP= 1.68D-04
 IDIUse=3 WtCom= 9.96D-01 WtEn= 4.36D-03
 Coeff-Com: -0.212D+00 0.416D+00-0.705D+00 0.150D+01
 Coeff-En:   0.000D+00 0.000D+00 0.000D+00 0.100D+01
 Coeff:     -0.211D+00 0.414D+00-0.702D+00 0.150D+01
 Gap=     0.150 Goal=   None    Shift=    0.000
 Gap=     0.939 Goal=   None    Shift=    0.000
 RMSDP=1.21D-03 MaxDP=2.11D-02 DE=-2.77D-04 OVMax= 0.00D+00

 Cycle   5  Pass 1  IDiag  1:
 E= -596.618421931122     Delta-E=       -0.000013776212 Rises=F Damp=F
 DIIS: error= 1.33D-04 at cycle   5 NSaved=   5.
 NSaved= 5 IEnMin= 5 EnMin= -596.618421931122     IErMin= 5 ErrMin= 1.33D-04
 ErrMax= 1.33D-04  0.00D+00 EMaxC= 1.00D-01 BMatC= 3.09D-07 BMatP= 3.02D-06
 IDIUse=3 WtCom= 9.99D-01 WtEn= 1.33D-03
 Coeff-Com:  0.716D-01-0.141D+00 0.253D+00-0.854D+00 0.167D+01
 Coeff-En:   0.000D+00 0.000D+00 0.000D+00 0.000D+00 0.100D+01
 Coeff:      0.715D-01-0.141D+00 0.252D+00-0.853D+00 0.167D+01
 Gap=     0.150 Goal=   None    Shift=    0.000
 Gap=     0.939 Goal=   None    Shift=    0.000
 RMSDP=5.05D-04 MaxDP=8.62D-03 DE=-1.38D-05 OVMax= 0.00D+00

 Cycle   6  Pass 1  IDiag  1:
 E= -596.618423323953     Delta-E=       -0.000001392831 Rises=F Damp=F
 DIIS: error= 4.23D-06 at cycle   6 NSaved=   6.
 NSaved= 6 IEnMin= 6 EnMin= -596.618423323953     IErMin= 6 ErrMin= 4.23D-06
 ErrMax= 4.23D-06  0.00D+00 EMaxC= 1.00D-01 BMatC= 9.22D-10 BMatP= 3.09D-07
 IDIUse=1 WtCom= 1.00D+00 WtEn= 0.00D+00
 Coeff-Com: -0.122D-01 0.242D-01-0.431D-01 0.150D+00-0.309D+00 0.119D+01
 Coeff:     -0.122D-01 0.242D-01-0.431D-01 0.150D+00-0.309D+00 0.119D+01
 Gap=     0.150 Goal=   None    Shift=    0.000
 Gap=     0.939 Goal=   None    Shift=    0.000
 RMSDP=9.44D-06 MaxDP=9.55D-05 DE=-1.39D-06 OVMax= 0.00D+00

 Cycle   7  Pass 1  IDiag  1:
 E= -596.618423327287     Delta-E=       -0.000000003333 Rises=F Damp=F
 DIIS: error= 2.18D-06 at cycle   7 NSaved=   7.
 NSaved= 7 IEnMin= 7 EnMin= -596.618423327287     IErMin= 7 ErrMin= 2.18D-06
 ErrMax= 2.18D-06  0.00D+00 EMaxC= 1.00D-01 BMatC= 1.33D-10 BMatP= 9.22D-10
 IDIUse=1 WtCom= 1.00D+00 WtEn= 0.00D+00
 Coeff-Com:  0.168D-04-0.454D-04 0.170D-03-0.483D-02 0.172D-01-0.463D+00
 Coeff-Com:  0.145D+01
 Coeff:      0.168D-04-0.454D-04 0.170D-03-0.483D-02 0.172D-01-0.463D+00
 Coeff:      0.145D+01
 Gap=     0.150 Goal=   None    Shift=    0.000
 Gap=     0.939 Goal=   None    Shift=    0.000
 RMSDP=4.52D-06 MaxDP=4.81D-05 DE=-3.33D-09 OVMax= 0.00D+00

 Cycle   8  Pass 1  IDiag  1:
 E= -596.618423328054     Delta-E=       -0.000000000767 Rises=F Damp=F
 DIIS: error= 7.07D-07 at cycle   8 NSaved=   8.
 NSaved= 8 IEnMin= 8 EnMin= -596.618423328054     IErMin= 8 ErrMin= 7.07D-07
 ErrMax= 7.07D-07  0.00D+00 EMaxC= 1.00D-01 BMatC= 1.34D-11 BMatP= 1.33D-10
 IDIUse=1 WtCom= 1.00D+00 WtEn= 0.00D+00
 Coeff-Com: -0.625D-03 0.124D-02-0.219D-02 0.843D-02-0.180D-01 0.215D+00
 Coeff-Com: -0.876D+00 0.167D+01
 Coeff:     -0.625D-03 0.124D-02-0.219D-02 0.843D-02-0.180D-01 0.215D+00
 Coeff:     -0.876D+00 0.167D+01
 Gap=     0.150 Goal=   None    Shift=    0.000
 Gap=     0.939 Goal=   None    Shift=    0.000
 RMSDP=1.77D-06 MaxDP=1.85D-05 DE=-7.67D-10 OVMax= 0.00D+00

 Cycle   9  Pass 1  IDiag  1:
 E= -596.618423328134     Delta-E=       -0.000000000080 Rises=F Damp=F
 DIIS: error= 7.74D-08 at cycle   9 NSaved=   9.
 NSaved= 9 IEnMin= 9 EnMin= -596.618423328134     IErMin= 9 ErrMin= 7.74D-08
 ErrMax= 7.74D-08  0.00D+00 EMaxC= 1.00D-01 BMatC= 2.07D-13 BMatP= 1.34D-11
 IDIUse=1 WtCom= 1.00D+00 WtEn= 0.00D+00
 Coeff-Com: -0.902D-04 0.178D-03-0.320D-03 0.902D-03-0.171D-02-0.253D-01
 Coeff-Com:  0.158D+00-0.422D+00 0.129D+01
 Coeff:     -0.902D-04 0.178D-03-0.320D-03 0.902D-03-0.171D-02-0.253D-01
 Coeff:      0.158D+00-0.422D+00 0.129D+01
 Gap=     0.150 Goal=   None    Shift=    0.000
 Gap=     0.939 Goal=   None    Shift=    0.000
 RMSDP=1.13D-07 MaxDP=8.77D-07 DE=-7.96D-11 OVMax= 0.00D+00

 Cycle  10  Pass 1  IDiag  1:
 E= -596.618423328135     Delta-E=       -0.000000000001 Rises=F Damp=F
 DIIS: error= 2.35D-08 at cycle  10 NSaved=  10.
 NSaved=10 IEnMin=10 EnMin= -596.618423328135     IErMin=10 ErrMin= 2.35D-08
 ErrMax= 2.35D-08  0.00D+00 EMaxC= 1.00D-01 BMatC= 1.30D-14 BMatP= 2.07D-13
 IDIUse=1 WtCom= 1.00D+00 WtEn= 0.00D+00
 Coeff-Com: -0.170D-04 0.339D-04-0.574D-04 0.303D-03-0.672D-03 0.217D-01
 Coeff-Com: -0.107D+00 0.267D+00-0.892D+00 0.171D+01
 Coeff:     -0.170D-04 0.339D-04-0.574D-04 0.303D-03-0.672D-03 0.217D-01
 Coeff:     -0.107D+00 0.267D+00-0.892D+00 0.171D+01
 Gap=     0.150 Goal=   None    Shift=    0.000
 Gap=     0.939 Goal=   None    Shift=    0.000
 RMSDP=4.59D-08 MaxDP=3.97D-07 DE=-1.02D-12 OVMax= 0.00D+00

 Cycle  11  Pass 1  IDiag  1:
 E= -596.618423328135     Delta-E=       -0.000000000000 Rises=F Damp=F
 DIIS: error= 1.39D-09 at cycle  11 NSaved=  11.
 NSaved=11 IEnMin=11 EnMin= -596.618423328135     IErMin=11 ErrMin= 1.39D-09
 ErrMax= 1.39D-09  0.00D+00 EMaxC= 1.00D-01 BMatC= 7.15D-17 BMatP= 1.30D-14
 IDIUse=1 WtCom= 1.00D+00 WtEn= 0.00D+00
 Coeff-Com:  0.631D-06-0.127D-05 0.196D-05-0.166D-04 0.380D-04-0.190D-02
 Coeff-Com:  0.945D-02-0.250D-01 0.857D-01-0.225D+00 0.116D+01
 Coeff:      0.631D-06-0.127D-05 0.196D-05-0.166D-04 0.380D-04-0.190D-02
 Coeff:      0.945D-02-0.250D-01 0.857D-01-0.225D+00 0.116D+01
 Gap=     0.150 Goal=   None    Shift=    0.000
 Gap=     0.939 Goal=   None    Shift=    0.000
 RMSDP=2.80D-09 MaxDP=2.55D-08 DE=-3.41D-13 OVMax= 0.00D+00

 SCF Done:  E(UHF) =  -596.618423328     A.U. after   11 cycles
            NFock= 11  Conv=0.28D-08     -V/T= 2.0002
 <Sx>= 0.0000 <Sy>= 0.0000 <Sz>= 1.0000 <S**2>= 2.0001 S= 1.0000
 <L.S>= 0.000000000000E+00
 KE= 5.964963882702D+02 PE=-1.424130021924D+03 EE= 2.275481872193D+02
 Annihilation of the first spin contaminant:
 S**2 before annihilation     2.0001,   after     2.0000
 Leave Link  502 at Mon Mar 28 14:39:03 2022, MaxMem=  9663676416 cpu:               6.2 elap:               0.2
 (Enter /nopt/nrel/apps/gaussian/g16C_1/g16/l801.exe)
 Windowed orbitals will be sorted by symmetry type.
 ExpMin= 1.61D-02 ExpMax= 1.72D+03 ExpMxC= 1.72D+03 IAcc=3 IRadAn=         5 AccDes= 0.00D+00
 HarFok:  IExCor=  205 AccDes= 0.00D+00 IRadAn=         5 IDoV=-2 UseB2=F ITyADJ=14
 ICtDFT= 12500011 ScaDFX=  1.000000  1.000000  1.000000  1.000000
 Largest valence mixing into a core orbital is  7.32D-04
 Largest core mixing into a valence orbital is  5.31D-04
 Range of M.O.s used for correlation:    10    18
 NBasis=    18 NAE=    11 NBE=     9 NFC=     9 NFV=     0
 NROrb=      9 NOA=     2 NOB=     0 NVA=     7 NVB=     9
 Leave Link  801 at Mon Mar 28 14:39:04 2022, MaxMem=  9663676416 cpu:               2.9 elap:               0.1
 (Enter /nopt/nrel/apps/gaussian/g16C_1/g16/l804.exe)
 Open-shell transformation, MDV=  9663676416 ITran=4 ISComp=2.
 Unit  1 TFree=         22650 TCopy=          3942.
 Semi-Direct transformation.
 ModeAB=           2 MOrb=             2 LenV=    9663554215
 LASXX=          158 LTotXX=         158 LenRXX=         158
 LTotAB=         269 MaxLAS=        3078 LenRXY=        3078
 NonZer=        3510 LenScr=      785920 LnRSAI=           0
 LnScr1=           0 LExtra=      223048 Total=      1012204
 MaxDsk= 34359738368 SrtSym=           F ITran=            4
 DoSDTr:  NPSUse= 36
 JobTyp=1 Pass  1:  I=   1 to   2.
 (rs|ai) integrals will be sorted in core.
 Complete sort for first half transformation.
 First half transformation complete.
 Complete sort for second half transformation.
 Second half transformation complete.
 Spin components of T(2) and E(2):
     alpha-alpha T2 =       0.9576705242D-05 E2=     -0.8106162228D-05
     alpha-beta  T2 =       0.0000000000D+00 E2=      0.0000000000D+00
     beta-beta   T2 =       0.0000000000D+00 E2=      0.0000000000D+00
 ANorm=    0.1000004788D+01
 E2 =    -0.8106162228D-05 EUMP2 =    -0.59661843143430D+03
 Leave Link  804 at Mon Mar 28 14:39:04 2022, MaxMem=  9663676416 cpu:               1.6 elap:               0.1
 (Enter /nopt/nrel/apps/gaussian/g16C_1/g16/l913.exe)
 CIDS:  MDV=  9663676416.
 Frozen-core window:  NFC=   9 NFV=   0.
 IFCWin=0 IBDFC=1 NFBD=     0     0 NFCmp=     0     0 NFFFC=     0     0
 Using original routines for 1st iteration.
 Using DD4UQ or CC4UQ for 2nd and later iterations.
 Keep R2 and R3 ints in memory in symmetry-blocked form, NReq=7228199.
 FoFCou: FMM=F IPFlag=           0 FMFlag=           0 FMFlg1=           0
         NFxFlg=           0 DoJE=F BraDBF=F KetDBF=F FulRan=T
         wScrn=  0.000000 ICntrl=       600 IOpCl=  0 I1Cent=           0 NGrid=           0
         NMat0=    1 NMatS0=    171 NMatT0=    0 NMatD0=    1 NMtDS0=    0 NMtDT0=    0
 Petite list used in FoFCou.
 CIDS: In Core Option IDoMem=           1.
 Coupled Cluster theory with single and double substitutions
 ===========================================================
 Iterations= 200 Convergence= 0.100D-06
 Produce multiple copies of IABC intergrals
 Iteration Nr.   1
 **********************
 DD1Dir will call FoFMem   1 times, MxPair=         2
 NAB=     0 NAA=     1 NBB=     0.
 MP4(R+Q)=  0.77630326D-10
 Maximum subspace dimension=  5
 A-vector RMS=  3.0706102D-04 Max=  7.3886806D-04 conv= 1.00D-05.
 RLE energy=       -0.0000124734
 E3=       -0.28381898D-05        EUMP3=      -0.59661843427D+03
 E4(DQ)=   -0.10034496D-05        UMP4(DQ)=   -0.59661843528D+03
 E4(SDQ)=  -0.10385809D-05        UMP4(SDQ)=  -0.59661843531D+03
 VARIATIONAL ENERGIES WITH THE FIRST-ORDER WAVEFUNCTION:
 DE(Corr)= -0.10944304E-04 E(Corr)=     -596.61843427    
 NORM(A)=   0.10000114D+01
 Iteration Nr.   2
 **********************
 DD1Dir will call FoFMem   1 times, MxPair=         2
 NAB=     0 NAA=     1 NBB=     0.
 A-vector RMS=  4.6787296D-05 Max=  9.4911297D-05 conv= 1.00D-05.
 RLE energy=       -0.0000126135
 DE(Corr)= -0.12542412E-04 E(CORR)=     -596.61843587     Delta=-1.60D-06
 NORM(A)=   0.10000118D+01
 Iteration Nr.   3
 **********************
 DD1Dir will call FoFMem   1 times, MxPair=         2
 NAB=     0 NAA=     1 NBB=     0.
 A-vector RMS=  1.4385969D-05 Max=  4.1621740D-05 conv= 1.00D-05.
 RLE energy=       -0.0000126185
 DE(Corr)= -0.12613473E-04 E(CORR)=     -596.61843594     Delta=-7.11D-08
 NORM(A)=   0.10000118D+01
 Iteration Nr.   4
 **********************
 DD1Dir will call FoFMem   1 times, MxPair=         2
 NAB=     0 NAA=     1 NBB=     0.
 A-vector RMS=  3.2270803D-06 Max=  1.0044456D-05 conv= 1.00D-05.
 RLE energy=       -0.0000126187
 DE(Corr)= -0.12618509E-04 E(CORR)=     -596.61843595     Delta=-5.04D-09
 NORM(A)=   0.10000118D+01
 Iteration Nr.   5
 **********************
 DD1Dir will call FoFMem   1 times, MxPair=         2
 NAB=     0 NAA=     1 NBB=     0.
 A-vector RMS=  4.0549709D-07 Max=  9.4622646D-07 conv= 1.00D-05.
 RLE energy=       -0.0000126187
 DE(Corr)= -0.12618710E-04 E(CORR)=     -596.61843595     Delta=-2.01D-10
 NORM(A)=   0.10000118D+01
 CI/CC converged in    5 iterations to DelEn=-2.01D-10 Conv= 1.00D-07 ErrA1= 4.05D-07 Conv= 1.00D-05
 Wavefunction amplitudes converged. E(Corr)=     -596.61843595    
 Largest amplitude= 3.34D-03
 Discarding MO integrals.
 Leave Link  913 at Mon Mar 28 14:39:04 2022, MaxMem=  9663676416 cpu:               4.2 elap:               0.2
 (Enter /nopt/nrel/apps/gaussian/g16C_1/g16/l601.exe)
 Copying SCF densities to generalized density rwf, IOpCl= 1 IROHF=0.

 **********************************************************************

            Population analysis using the SCF Density.

 **********************************************************************

 Orbital symmetries:
 Alpha Orbitals:
       Occupied  (SG) (SG) (SG) (PI) (PI) (SG) (SG) (PI) (PI) (SG)
                 (SG)
       Virtual   (PI) (PI) (SG) (SG) (PI) (PI) (SG)
 Beta  Orbitals:
       Occupied  (SG) (SG) (PI) (PI) (SG) (SG) (PI) (PI) (SG)
       Virtual   (SG) (PI) (PI) (SG) (SG) (PI) (PI) (SG) (SG)
 The electronic state is 3-SG.
 Alpha  occ. eigenvalues -- -132.62040 -14.41881 -11.43384 -11.43367 -11.43367
 Alpha  occ. eigenvalues --   -1.74926  -0.95193  -0.95086  -0.95086  -0.53146
 Alpha  occ. eigenvalues --   -0.13598
 Alpha virt. eigenvalues --    0.01420   0.01420   0.03492   0.07749   0.10351
 Alpha virt. eigenvalues --    0.10351   0.13776
  Beta  occ. eigenvalues -- -132.61949 -14.41723 -11.43317 -11.43317 -11.43292
  Beta  occ. eigenvalues --   -1.74432  -0.94897  -0.94897  -0.94828
  Beta virt. eigenvalues --   -0.00928   0.03202   0.03202   0.03880   0.08269
  Beta virt. eigenvalues --    0.12732   0.12732   0.12808   0.33625
          Condensed to atoms (all electrons):
               1          2
     1  H    0.881612   0.042702
     2  K    0.042702  19.032983
          Atomic-Atomic Spin Densities.
               1          2
     1  H    0.881603   0.042802
     2  K    0.042802   1.032793
 Mulliken charges and spin densities:
               1          2
     1  H    0.075686   0.924405
     2  K   -0.075686   1.075595
 Sum of Mulliken charges =  -0.00000   2.00000
 Mulliken charges and spin densities with hydrogens summed into heavy atoms:
               1          2
     2  K   -0.000000   2.000000
 N-N= 3.467023106028D+00 E-N=-1.424130021896D+03  KE= 5.964963882702D+02
 Symmetry A1   KE= 4.713237256920D+02
 Symmetry A2   KE= 0.000000000000D+00
 Symmetry B1   KE= 6.258633128908D+01
 Symmetry B2   KE= 6.258633128908D+01
 Symmetry A1   SP= 2.000000000000D+00
 Symmetry A2   SP= 0.000000000000D+00
 Symmetry B1   SP= 4.696648728371D-15
 Symmetry B2   SP= 1.728422687296D-16

 Atomic contributions to Alpha molecular orbitals:
 Alpha occ 1 OE=-132.620 is K2-s=1.0000
 Alpha occ 2 OE=-14.419 is K2-s=1.0000
 Alpha occ 3 OE=-11.434 is K2-p=1.0000
 Alpha occ 4 OE=-11.434 is K2-p=1.0000
 Alpha occ 5 OE=-11.434 is K2-p=1.0000
 Alpha occ 6 OE=-1.749 is K2-s=0.9998
 Alpha occ 7 OE=-0.952 is K2-p=0.9991
 Alpha occ 8 OE=-0.951 is K2-p=1.0000
 Alpha occ 9 OE=-0.951 is K2-p=1.0000
 Alpha occ 10 OE=-0.531 is H1-s=0.9143
 Alpha occ 11 OE=-0.136 is K2-s=0.8817 K2-p=0.1090
 Alpha vir 12 OE=0.014 is K2-p=1.0000
 Alpha vir 13 OE=0.014 is K2-p=1.0000
 Alpha vir 14 OE=0.035 is K2-p=0.8270 K2-s=0.1544
 Alpha vir 15 OE=0.077 is K2-s=0.8935 K2-p=0.1024
 Alpha vir 16 OE=0.104 is K2-p=1.0000
 Alpha vir 17 OE=0.104 is K2-p=1.0000
 Alpha vir 18 OE=0.138 is K2-p=0.9083

 Atomic contributions to Beta  molecular orbitals:
 Beta  occ 1 OE=-132.619 is K2-s=1.0000
 Beta  occ 2 OE=-14.417 is K2-s=1.0000
 Beta  occ 3 OE=-11.433 is K2-p=1.0000
 Beta  occ 4 OE=-11.433 is K2-p=1.0000
 Beta  occ 5 OE=-11.433 is K2-p=1.0000
 Beta  occ 6 OE=-1.744 is K2-s=0.9998
 Beta  occ 7 OE=-0.949 is K2-p=1.0000
 Beta  occ 8 OE=-0.949 is K2-p=1.0000
 Beta  occ 9 OE=-0.948 is K2-p=0.9998
 Beta  vir 10 OE=-0.009 is K2-s=0.6559 K2-p=0.2684
 Beta  vir 11 OE=0.032 is K2-p=1.0000
 Beta  vir 12 OE=0.032 is K2-p=1.0000
 Beta  vir 13 OE=0.039 is K2-p=0.7138 K2-s=0.2803
 Beta  vir 14 OE=0.083 is K2-s=0.6401 K2-p=0.2954
 Beta  vir 15 OE=0.127 is K2-p=1.0000
 Beta  vir 16 OE=0.127 is K2-p=1.0000
 Beta  vir 17 OE=0.128 is K2-p=0.5564 K2-s=0.4016
 Beta  vir 18 OE=0.336 is H1-s=0.8119 K2-p=0.1660
 
 Leave Link  601 at Mon Mar 28 14:39:04 2022, MaxMem=  9663676416 cpu:               0.7 elap:               0.0
 (Enter /nopt/nrel/apps/gaussian/g16C_1/g16/l9999.exe)

 Test job not archived.
 1\1\GINC-R102U34\SP\UCCSD-FC\Gen\H1K1(3)\USER\28-Mar-2022\0\\#P CC
 SD(MaxCyc=200,SaveAmplitudes,ReadAmplitudes)/GEN sp pop=AllOrbitals io
 p(3/33=1,3/36=-1)\\test\\0,3\H,0,0.,0.,0.\K,0,0.,0.,2.9\\Version=ES64L
 -G16RevC.01\State=3-SG\HF=-596.6184233\MP2=-596.6184314\MP3=-596.61843
 43\MP4D=-596.6184353\MP4DQ=-596.6184353\MP4SDQ=-596.6184353\CCSD=-596.
 6184359\S2=2.000095\S2-1=0.\S2A=2.\RMSD=2.800e-09\PG=C*V [C*(H1K1)]\\@


 THERE'S A SUCKER BORN EVERY MINUTE

              -- PHINEAS TAYLOR (P.T.) BARNUM
 Job cpu time:       0 days  0 hours  0 minutes 35.9 seconds.
 Elapsed time:       0 days  0 hours  0 minutes  1.4 seconds.
 File lengths (MBytes):  RWF=     13 Int=      0 D2E=      0 Chk=      1 Scr=      1
 Normal termination of Gaussian 16 at Mon Mar 28 14:39:04 2022.
