 Entering Gaussian System, Link 0=g16
 Initial command:
 /nopt/nrel/apps/gaussian/g16C_1/g16/l1.exe "/lustre/eaglefs/scratch/user/qc/tih-dissc-sto3g/tih-2-ccsd-1.4-321g/Gau-219641.inp" -scrdir="/lustre/eaglefs/scratch/user/qc/tih-dissc-sto3g/tih-2-ccsd-1.4-321g/"
 Default is to use a total of  36 processors:
                               36 via shared-memory
                                1 via Linda
 Entering Link 1 = /nopt/nrel/apps/gaussian/g16C_1/g16/l1.exe PID=    219642.
  
 Copyright (c) 1988-2019, Gaussian, Inc.  All Rights Reserved.
  
 This is part of the Gaussian(R) 16 program.  It is based on
 the Gaussian(R) 09 system (copyright 2009, Gaussian, Inc.),
 the Gaussian(R) 03 system (copyright 2003, Gaussian, Inc.),
 the Gaussian(R) 98 system (copyright 1998, Gaussian, Inc.),
 the Gaussian(R) 94 system (copyright 1995, Gaussian, Inc.),
 the Gaussian 92(TM) system (copyright 1992, Gaussian, Inc.),
 the Gaussian 90(TM) system (copyright 1990, Gaussian, Inc.),
 the Gaussian 88(TM) system (copyright 1988, Gaussian, Inc.),
 the Gaussian 86(TM) system (copyright 1986, Carnegie Mellon
 University), and the Gaussian 82(TM) system (copyright 1983,
 Carnegie Mellon University). Gaussian is a federally registered
 trademark of Gaussian, Inc.
  
 This software contains proprietary and confidential information,
 including trade secrets, belonging to Gaussian, Inc.
  
 This software is provided under written license and may be
 used, copied, transmitted, or stored only in accord with that
 written license.
  
 The following legend is applicable only to US Government
 contracts under FAR:
  
                    RESTRICTED RIGHTS LEGEND
  
 Use, reproduction and disclosure by the US Government is
 subject to restrictions as set forth in subparagraphs (a)
 and (c) of the Commercial Computer Software - Restricted
 Rights clause in FAR 52.227-19.
  
 Gaussian, Inc.
 340 Quinnipiac St., Bldg. 40, Wallingford CT 06492
  
  
 ---------------------------------------------------------------
 Warning -- This program may not be used in any manner that
 competes with the business of Gaussian, Inc. or will provide
 assistance to any competitor of Gaussian, Inc.  The licensee
 of this program is prohibited from giving any competitor of
 Gaussian, Inc. access to this program.  By using this program,
 the user acknowledges that Gaussian, Inc. is engaged in the
 business of creating and licensing software in the field of
 computational chemistry and represents and warrants to the
 licensee that it is not a competitor of Gaussian, Inc. and that
 it will not use this program in any manner prohibited above.
 ---------------------------------------------------------------
  

 Cite this work as:
 Gaussian 16, Revision C.01,
 M. J. Frisch, G. W. Trucks, H. B. Schlegel, G. E. Scuseria, 
 M. A. Robb, J. R. Cheeseman, G. Scalmani, V. Barone, 
 G. A. Petersson, H. Nakatsuji, X. Li, M. Caricato, A. V. Marenich, 
 J. Bloino, B. G. Janesko, R. Gomperts, B. Mennucci, H. P. Hratchian, 
 J. V. Ortiz, A. F. Izmaylov, J. L. Sonnenberg, D. Williams-Young, 
 F. Ding, F. Lipparini, F. Egidi, J. Goings, B. Peng, A. Petrone, 
 T. Henderson, D. Ranasinghe, V. G. Zakrzewski, J. Gao, N. Rega, 
 G. Zheng, W. Liang, M. Hada, M. Ehara, K. Toyota, R. Fukuda, 
 J. Hasegawa, M. Ishida, T. Nakajima, Y. Honda, O. Kitao, H. Nakai, 
 T. Vreven, K. Throssell, J. A. Montgomery, Jr., J. E. Peralta, 
 F. Ogliaro, M. J. Bearpark, J. J. Heyd, E. N. Brothers, K. N. Kudin, 
 V. N. Staroverov, T. A. Keith, R. Kobayashi, J. Normand, 
 K. Raghavachari, A. P. Rendell, J. C. Burant, S. S. Iyengar, 
 J. Tomasi, M. Cossi, J. M. Millam, M. Klene, C. Adamo, R. Cammi, 
 J. W. Ochterski, R. L. Martin, K. Morokuma, O. Farkas, 
 J. B. Foresman, and D. J. Fox, Gaussian, Inc., Wallingford CT, 2019.
 
 ******************************************
 Gaussian 16:  ES64L-G16RevC.01  3-Jul-2019
                25-Mar-2022 
 ******************************************
 %chk=molecule
 Default route: CacheSize=180224 MaxDisk=256GB
 --------------------------------------------------------------
 #P CCSD(MaxCyc=200)/GEN sp pop=AllOrbitals iop(3/33=1,3/36=-1)
 --------------------------------------------------------------
 1/4=180224,38=1,172=1/1;
 2/4=180224,12=2,17=6,18=5,40=1/2;
 3/4=180224,5=7,11=9,25=1,30=1,33=1,36=-1/1,2,3;
 4/4=180224/1;
 5/4=180224,5=2,38=5/2;
 8/4=180224,6=4,9=120000,10=1/1,4;
 9/4=180224,5=7,6=200/13;
 6/4=180224,7=2,8=2,9=2,10=2,96=-1/1;
 99/4=180224,5=1,9=1/99;
 Leave Link    1 at Fri Mar 25 14:58:01 2022, MaxMem=           0 cpu:               4.9 elap:               0.1
 (Enter /nopt/nrel/apps/gaussian/g16C_1/g16/l101.exe)
 ----
 test
 ----
 Symbolic Z-matrix:
 Charge =  0 Multiplicity = 2
 H                     0.        0.        0. 
 Ti                    0.        0.        1.4 
 
 ITRead=  0  0
 MicOpt= -1 -1
 NAtoms=      2 NQM=        2 NQMF=       0 NMMI=      0 NMMIF=      0
                NMic=       0 NMicF=      0.
                    Isotopes and Nuclear Properties:
 (Nuclear quadrupole moments (NQMom) in fm**2, nuclear magnetic moments (NMagM)
  in nuclear magnetons)

  Atom         1           2
 IAtWgt=           1          48
 AtmWgt=   1.0078250  47.9479467
 NucSpn=           1           0
 AtZEff=  -0.0000000  -0.0000000
 NQMom=    0.0000000   0.0000000
 NMagM=    2.7928460   0.0000000
 AtZNuc=   1.0000000  22.0000000
 Leave Link  101 at Fri Mar 25 14:58:01 2022, MaxMem=  9663676416 cpu:               3.3 elap:               0.1
 (Enter /nopt/nrel/apps/gaussian/g16C_1/g16/l202.exe)
                          Input orientation:                          
 ---------------------------------------------------------------------
 Center     Atomic      Atomic             Coordinates (Angstroms)
 Number     Number       Type             X           Y           Z
 ---------------------------------------------------------------------
      1          1           0        0.000000    0.000000    0.000000
      2         22           0        0.000000    0.000000    1.400000
 ---------------------------------------------------------------------
 Stoichiometry    HTi(2)
 Framework group  C*V[C*(HTi)]
 Deg. of freedom     1
 Full point group                 C*V     NOp   4
 Largest Abelian subgroup         C2V     NOp   4
 Largest concise Abelian subgroup C1      NOp   1
                         Standard orientation:                         
 ---------------------------------------------------------------------
 Center     Atomic      Atomic             Coordinates (Angstroms)
 Number     Number       Type             X           Y           Z
 ---------------------------------------------------------------------
      1          1           0        0.000000    0.000000   -1.339130
      2         22           0        0.000000    0.000000    0.060870
 ---------------------------------------------------------------------
 Rotational constants (GHZ):           0.0000000         261.2220735         261.2220735
 Leave Link  202 at Fri Mar 25 14:58:01 2022, MaxMem=  9663676416 cpu:               0.7 elap:               0.0
 (Enter /nopt/nrel/apps/gaussian/g16C_1/g16/l301.exe)
 General basis read from cards:  (5D, 7F)
                         Coordinates in L301:                         
 ---------------------------------------------------------------------
 Center     Atomic      Atomic             Coordinates (Angstroms)
 Number     Number       Type             X           Y           Z
 ---------------------------------------------------------------------
      1          1           0        0.000000    0.000000   -1.339130
      2         22           0        0.000000    0.000000    0.060870
 ---------------------------------------------------------------------
 Centers:       1
 STO-3G
 ****
 Centers:       2
 3-21G
 ****
 FixB: optimizing general contractions.
 Ernie: Thresh=  0.10000D-02 Tol=  0.10000D-05 Strict=F.
 IA=     1 ShT= 0 ShC= 0 NL=   1 NS=   0.
 IA=     1 L=0 SC=0 ISt=    0 NBk=    0 NP=    0 IndPr=    0.
 IA=     2 ShT= 0 ShC= 0 NL=   1 NS=   0.
 IA=     2 L=0 SC=0 ISt=    0 NBk=    0 NP=    0 IndPr=    0.
 IA=     2 ShT= 1 ShC= 0 NL=   4 NS=   1.
 IA=     2 L=1 SC=0 ISt=    1 NBk=    3 NP=    8 IndPr=    0.
 DoElim1:  L=1 select primitive    1 from    2 using    1 C=-1.09D-01
 DoElim1:  L=1 select primitive    1 from    3 using    1 C=-1.09D-01
 DoElim1:  L=1 select primitive    4 from    3 using    2 C=-2.86D-01
 DoElim2:  L=1 select primitive    8 from    2 using    3 C= 1.10D+00
 DoElim2:  L=1 select primitive    8 from    1 using    3 C= 1.10D+00
 DoElim2:  L=1 select primitive    6 from    1 using    2 C= 8.60D-01
 DoElim1:  L=1 select primitive    1 from    2 using    1 C= 1.37D-01
 DoElim1:  L=1 select primitive    1 from    3 using    1 C= 1.37D-01
 DoElim1:  L=1 select primitive    4 from    3 using    2 C= 1.92D-02
 DoElim2:  L=1 select primitive    8 from    2 using    3 C= 1.00D+00
 DoElim2:  L=1 select primitive    8 from    1 using    3 C= 1.00D+00
 DoElim2:  L=1 select primitive    6 from    1 using    2 C= 6.36D-01
 Delete L=1 primitive    6 from    3 C=  0.00D+00.
 Delete L=1 primitive    5 from    3 C=  0.00D+00.
 Delete L=1 primitive    4 from    3 C=  0.00D+00.
 Delete L=1 primitive    3 from    3 C=  0.00D+00.
 Delete L=1 primitive    2 from    3 C=  0.00D+00.
 Delete L=1 primitive    1 from    3 C=  0.00D+00.
 Delete L=1 primitive    8 from    2 C=  0.00D+00.
 Delete L=1 primitive    7 from    2 C=  0.00D+00.
 Delete L=1 primitive    3 from    2 C=  0.00D+00.
 Delete L=1 primitive    2 from    2 C=  0.00D+00.
 Delete L=1 primitive    1 from    2 C=  0.00D+00.
 Delete L=1 primitive    8 from    1 C=  0.00D+00.
 Delete L=1 primitive    7 from    1 C=  0.00D+00.
 Delete L=1 primitive    6 from    1 C=  0.00D+00.
 Delete L=1 primitive    5 from    1 C=  0.00D+00.
 Delete L=1 primitive    4 from    1 C=  0.00D+00.
 IA=     2 L=1 SC=0 ISt=    0 NBk=    0 NP=    0 IndPr=    8.
 IA=     2 ShT= 2 ShC= 2 NL=   2 NS=   1.
 IA=     2 L=2 SC=2 ISt=    0 NBk=    0 NP=    0 IndPr=    0.
 LdAtmC:  AtmChg=     1.000000    22.000000
 AtZEff=     -1.0000000    -23.9800000
 NEqShl: 
              1            2            3            4
     1            1            1            1            1
     2            2            2            2            2
     3            3            3            3            3
     4            4            4            4            4
     5            5            5            5            5
     6            6            6            6            6
     7            7            7            7            7
     8            8            8            8            8
 NEqBas: 
              1            2            3            4
     1            1            1            1            1
     2            2            2            2            2
     3            3            3            3            3
     4            4           -4           -4            4
     5            5           -5            5           -5
     6            6            6            6            6
     7            7            7            7            7
     8            8           -8           -8            8
     9            9           -9            9           -9
    10           10           10           10           10
    11           11           11           11           11
    12           12          -12          -12           12
    13           13          -13           13          -13
    14           14           14           14           14
    15           15           15           15           15
    16           16          -16          -16           16
    17           17          -17           17          -17
    18           18           18           18           18
    19           19           19           19           19
    20           20           20           20           20
    21           21           21           21           21
    22           22           22          -22          -22
    23           23          -23          -23           23
    24           24          -24           24          -24
    25           25           25           25           25
    26           26           26           26           26
    27           27           27           27           27
    28           28           28          -28          -28
    29           29          -29          -29           29
    30           30          -30           30          -30
 There are    16 symmetry adapted cartesian basis functions of A1  symmetry.
   1         1   1   1   1
   2         2   2   2   2
   3         3   3   3   3
   4         6   6   6   6
   5         7   7   7   7
   6        10  10  10  10
   7        11  11  11  11
   8        14  14  14  14
   9        15  15  15  15
  10        18  18  18  18
  11        19  19  19  19
  12        20  20  20  20
  13        21  21  21  21
  14        25  25  25  25
  15        26  26  26  26
  16        27  27  27  27
 There are     2 symmetry adapted cartesian basis functions of A2  symmetry.
  17        22  22  22  22
  18        28  28  28  28
 There are     6 symmetry adapted cartesian basis functions of B1  symmetry.
  19         4   4   4   4
  20         8   8   8   8
  21        12  12  12  12
  22        16  16  16  16
  23        23  23  23  23
  24        29  29  29  29
 There are     6 symmetry adapted cartesian basis functions of B2  symmetry.
  25         5   5   5   5
  26         9   9   9   9
  27        13  13  13  13
  28        17  17  17  17
  29        24  24  24  24
  30        30  30  30  30
 Order= 1 2 4 3
 Reordered character table:
              1            2            3            4            5
     1            1            1            1            1            1
     2            2            1            1           -1           -1
     3            4            1           -1           -1            1
     4            3            1           -1            1           -1
 NEqShl: 
              1            2            3            4
     1            1            1            1            1
     2            2            2            2            2
     3            3            3            3            3
     4            4            4            4            4
     5            5            5            5            5
     6            6            6            6            6
     7            7            7            7            7
     8            8            8            8            8
 NEqBas: 
              1            2            3            4
     1            1            1            1            1
     2            2            2            2            2
     3            3            3            3            3
     4            4           -4           -4            4
     5            5           -5            5           -5
     6            6            6            6            6
     7            7            7            7            7
     8            8           -8           -8            8
     9            9           -9            9           -9
    10           10           10           10           10
    11           11           11           11           11
    12           12          -12          -12           12
    13           13          -13           13          -13
    14           14           14           14           14
    15           15           15           15           15
    16           16          -16          -16           16
    17           17          -17           17          -17
    18           18           18           18           18
    19           19           19           19           19
    20           20          -20          -20           20
    21           21          -21           21          -21
    22           22           22           22           22
    23           23           23          -23          -23
    24           24           24           24           24
    25           25          -25          -25           25
    26           26          -26           26          -26
    27           27           27           27           27
    28           28           28          -28          -28
 There are    14 symmetry adapted basis functions of A1  symmetry.
   1         1   1   1   1
   2         2   2   2   2
   3         3   3   3   3
   4         6   6   6   6
   5         7   7   7   7
   6        10  10  10  10
   7        11  11  11  11
   8        14  14  14  14
   9        15  15  15  15
  10        18  18  18  18
  11        19  19  19  19
  12        22  22  22  22
  13        24  24  24  24
  14        27  27  27  27
 There are     2 symmetry adapted basis functions of A2  symmetry.
  15        23  23  23  23
  16        28  28  28  28
 There are     6 symmetry adapted basis functions of B1  symmetry.
  17         4   4   4   4
  18         8   8   8   8
  19        12  12  12  12
  20        16  16  16  16
  21        20  20  20  20
  22        25  25  25  25
 There are     6 symmetry adapted basis functions of B2  symmetry.
  23         5   5   5   5
  24         9   9   9   9
  25        13  13  13  13
  26        17  17  17  17
  27        21  21  21  21
  28        26  26  26  26
 Order= 1 2 4 3
 Reordered character table:
              1            2            3            4            5
     1            1            1            1            1            1
     2            2            1            1           -1           -1
     3            4            1           -1           -1            1
     4            3            1           -1            1           -1
    28 basis functions,    60 primitive gaussians,    30 cartesian basis functions
    12 alpha electrons       11 beta electrons
       nuclear repulsion energy         8.3156418859 Hartrees.
 IS=     1 IAt=     1 ISR=     1 T=0 IP=      1 IndIP=      1 IndIPD=      0 C=  2.769344D-01  0.000000D+00                             NZ=T
 IS=     1 IAt=     1 ISR=     1 T=0 IP=      2 IndIP=      2 IndIPD=      1 C=  2.678389D-01  0.000000D+00                             NZ=T
 IS=     1 IAt=     1 ISR=     1 T=0 IP=      3 IndIP=      3 IndIPD=      2 C=  8.347367D-02  0.000000D+00                             NZ=T
 IS=     2 IAt=     2 ISR=     1 T=0 IP=      1 IndIP=      4 IndIPD=      0 C=  1.537359D+01  0.000000D+00                             NZ=T
 IS=     2 IAt=     2 ISR=     1 T=0 IP=      2 IndIP=      5 IndIPD=      1 C=  2.196579D+01  0.000000D+00                             NZ=T
 IS=     2 IAt=     2 ISR=     1 T=0 IP=      3 IndIP=      6 IndIPD=      2 C=  1.259884D+01  0.000000D+00                             NZ=T
 IS=     3 IAt=     2 ISR=     2 T=1 IP=      1 IndIP=      7 IndIPD=      0 C= -2.459358D+00  6.155759D+01                             NZ=T
 IS=     3 IAt=     2 ISR=     2 T=1 IP=      2 IndIP=      8 IndIPD=      1 C=  7.266107D-01  3.612099D+01                             NZ=T
 IS=     3 IAt=     2 ISR=     2 T=1 IP=      3 IndIP=      9 IndIPD=      2 C=  2.742121D+00  7.115701D+00                             NZ=T
 IS=     4 IAt=     2 ISR=     3 T=1 IP=      1 IndIP=     10 IndIPD=      0 C= -8.049761D-01  2.703339D-01                             NZ=T
 IS=     4 IAt=     2 ISR=     3 T=1 IP=      2 IndIP=     11 IndIPD=      1 C=  3.851869D-01  1.489563D+00                             NZ=T
 IS=     4 IAt=     2 ISR=     3 T=1 IP=      3 IndIP=     12 IndIPD=      2 C=  4.416753D-01  5.252178D-01                             NZ=T
 IS=     5 IAt=     2 ISR=     4 T=1 IP=      1 IndIP=     13 IndIPD=      0 C= -1.138440D-01  2.076393D-04                             NZ=T
 IS=     5 IAt=     2 ISR=     4 T=1 IP=      2 IndIP=     14 IndIPD=      1 C=  1.102445D-01  5.419267D-02                             NZ=T
 IS=     6 IAt=     2 ISR=     5 T=1 IP=      1 IndIP=     15 IndIPD=      0 C=  4.686088D-02  1.526772D-02                             NZ=T
 IS=     7 IAt=     2 ISR=     6 T=2 IP=      1 IndIP=     16 IndIPD=      1 C=  0.000000D+00  0.000000D+00  1.331025D+01  0.000000D+00 NZ=T
 IS=     7 IAt=     2 ISR=     6 T=2 IP=      2 IndIP=     17 IndIPD=      2 C=  0.000000D+00  0.000000D+00  3.600378D+00  0.000000D+00 NZ=T
 IS=     8 IAt=     2 ISR=     7 T=2 IP=      1 IndIP=     18 IndIPD=      3 C=  0.000000D+00  0.000000D+00  3.518721D-01  0.000000D+00 NZ=T
 IExCor=    0 DFT=F Ex=HF Corr=None ExCW=0 ScaHFX=  1.000000
 ScaDFX=  1.000000  1.000000  1.000000  1.000000 ScalE2=  1.000000  1.000000
 IRadAn=      5 IRanWt=     -1 IRanGd=            0 ICorTp=0 IEmpDi=  4
 NAtoms=    2 NActive=    2 NUniq=    2 SFac= 1.00D+00 NAtFMM=   60 NAOKFM=F Big=F
 Integral buffers will be    131072 words long.
 Raffenetti 2 integral format.
 Two-electron integral symmetry is turned on.
 Leave Link  301 at Fri Mar 25 14:58:02 2022, MaxMem=  9663676416 cpu:               1.9 elap:               0.1
 (Enter /nopt/nrel/apps/gaussian/g16C_1/g16/l302.exe)
 NPDir=0 NMtPBC=     1 NCelOv=     1 NCel=       1 NClECP=     1 NCelD=      1
         NCelK=      1 NCelE2=     1 NClLst=     1 CellRange=     0.0.
 One-electron integrals computed using PRISM.
 One-electron integral symmetry used in STVInt
 Entering OneElI...
 Calculate overlap and kinetic energy integrals
    NBasis =  28  MinDer = 0  MaxDer = 0
 Requested accuracy = 0.1000D-12
 Symmetry will be used
 PrmmSu-InSpLW:  IPartL=    0 NPrtUS=   36 NPrtUL=    1 DoSpLW=F IThBeg=    0 IThEnd=   35 NThAct=   36.
 PrSmSu:  IncTry=   512 NBBP=             36 NTPThr=   100 NPartT=   36 Incr=           1 LDynOK=F GPUOK=F.
 PrsmSu:  NPrtUS=  36 ThrOK=T IAlg=1 LenDen=           0 ISkipM=0 DoSpLW=F IThBeg=    0 IThEnd=   35.
 Prism:   IPart=     0 DynPar=F LinDyn=F Incr=           1.
 PRISM was handed   268432135 working-precision words and    36 shell-pairs
 PRISM was handed   268432135 working-precision words and    36 shell-pairs
 PRISM was handed   268432135 working-precision words and    36 shell-pairs
 PRISM was handed   268432135 working-precision words and    36 shell-pairs
 PRISM was handed   268432135 working-precision words and    36 shell-pairs
 PRISM was handed   268432135 working-precision words and    36 shell-pairs
 PRISM was handed   268432135 working-precision words and    36 shell-pairs
 IPart= 10 NShTot=           0 NBatch=           0 AvBLen=         0.0
 IPart= 31 NShTot=           0 NBatch=           0 AvBLen=         0.0
 IPart= 28 NShTot=           0 NBatch=           0 AvBLen=         0.0
 IPart= 27 NShTot=           0 NBatch=           0 AvBLen=         0.0
 IPart= 16 NShTot=           0 NBatch=           0 AvBLen=         0.0
 PRISM was handed   268432135 working-precision words and    36 shell-pairs
 IPart= 25 NShTot=           0 NBatch=           0 AvBLen=         0.0
 PRISM was handed   268432135 working-precision words and    36 shell-pairs
 PRISM was handed   268432135 working-precision words and    36 shell-pairs
 PRISM was handed   268432135 working-precision words and    36 shell-pairs
 PRISM was handed   268432135 working-precision words and    36 shell-pairs
 PRISM was handed   268432135 working-precision words and    36 shell-pairs
 PRISM was handed   268432135 working-precision words and    36 shell-pairs
 PRISM was handed   268432135 working-precision words and    36 shell-pairs
 IPart= 22 NShTot=           0 NBatch=           0 AvBLen=         0.0
 PRISM was handed   268432135 working-precision words and    36 shell-pairs
 PRISM was handed   268432135 working-precision words and    36 shell-pairs
 PRISM was handed   268432135 working-precision words and    36 shell-pairs
 IPart= 20 NShTot=           0 NBatch=           0 AvBLen=         0.0
 IPart= 30 NShTot=           0 NBatch=           0 AvBLen=         0.0
 PRISM was handed   268432135 working-precision words and    36 shell-pairs
 IPart=  9 NShTot=           0 NBatch=           0 AvBLen=         0.0
 IPart= 29 NShTot=           0 NBatch=           0 AvBLen=         0.0
 IPart=  5 NShTot=           0 NBatch=           0 AvBLen=         0.0
 IPart= 34 NShTot=           0 NBatch=           0 AvBLen=         0.0
 IPart=  4 NShTot=           0 NBatch=           0 AvBLen=         0.0
 IPart= 24 NShTot=           0 NBatch=           0 AvBLen=         0.0
 IPart= 17 NShTot=           0 NBatch=           0 AvBLen=         0.0
 IPart=  8 NShTot=           0 NBatch=           0 AvBLen=         0.0
 PRISM was handed   268432135 working-precision words and    36 shell-pairs
 PRISM was handed   268432135 working-precision words and    36 shell-pairs
 PRISM was handed   268432135 working-precision words and    36 shell-pairs
 PRISM was handed   268432135 working-precision words and    36 shell-pairs
 PRISM was handed   268432135 working-precision words and    36 shell-pairs
 PRISM was handed   268432135 working-precision words and    36 shell-pairs
 PRISM was handed   268432135 working-precision words and    36 shell-pairs
 PRISM was handed   268432135 working-precision words and    36 shell-pairs
 PRISM was handed   268432135 working-precision words and    36 shell-pairs
 PRISM was handed   268432135 working-precision words and    36 shell-pairs
 PRISM was handed   268432135 working-precision words and    36 shell-pairs
 PRISM was handed   268432135 working-precision words and    36 shell-pairs
 PRISM was handed   268432135 working-precision words and    36 shell-pairs
 PRISM was handed   268432135 working-precision words and    36 shell-pairs
 PRISM was handed   268432135 working-precision words and    36 shell-pairs
 IPart=  3 NShTot=           1 NBatch=           1 AvBLen=         1.0
 PRISM was handed   268432135 working-precision words and    36 shell-pairs
 PRISM was handed   268432135 working-precision words and    36 shell-pairs
 IPart=  1 NShTot=          12 NBatch=          12 AvBLen=         1.0
 IPart=  7 NShTot=           0 NBatch=           0 AvBLen=         0.0
 IPart= 33 NShTot=           0 NBatch=           0 AvBLen=         0.0
 IPart= 15 NShTot=           0 NBatch=           0 AvBLen=         0.0
 IPart= 26 NShTot=           0 NBatch=           0 AvBLen=         0.0
 IPart= 19 NShTot=           0 NBatch=           0 AvBLen=         0.0
 IPart= 35 NShTot=           0 NBatch=           0 AvBLen=         0.0
 IPart= 32 NShTot=           0 NBatch=           0 AvBLen=         0.0
 IPart= 13 NShTot=           0 NBatch=           0 AvBLen=         0.0
 IPart=  6 NShTot=           0 NBatch=           0 AvBLen=         0.0
 IPart=  2 NShTot=           3 NBatch=           3 AvBLen=         1.0
 IPart= 11 NShTot=           0 NBatch=           0 AvBLen=         0.0
 IPart= 18 NShTot=           0 NBatch=           0 AvBLen=         0.0
 IPart= 12 NShTot=           0 NBatch=           0 AvBLen=         0.0
 IPart= 23 NShTot=           0 NBatch=           0 AvBLen=         0.0
 IPart=  0 NShTot=          20 NBatch=          20 AvBLen=         1.0
 IPart= 14 NShTot=           0 NBatch=           0 AvBLen=         0.0
 IPart= 21 NShTot=           0 NBatch=           0 AvBLen=         0.0
 PrSmSu:  NxtVal=             37.
 *** Overlap *** 
                1             2             3             4             5 
      1  0.100000D+01
      2  0.357101D-02  0.100000D+01
      3  0.287331D-01  0.261907D+00  0.100000D+01
      4  0.000000D+00  0.000000D+00  0.000000D+00  0.100000D+01
      5  0.000000D+00  0.000000D+00  0.000000D+00  0.000000D+00  0.100000D+01
      6 -0.835985D-02  0.000000D+00  0.000000D+00  0.000000D+00  0.000000D+00
      7  0.176145D+00  0.101215D-01  0.334950D+00  0.000000D+00  0.000000D+00
      8  0.000000D+00  0.000000D+00  0.000000D+00  0.320730D+00  0.000000D+00
      9  0.000000D+00  0.000000D+00  0.000000D+00  0.000000D+00  0.320730D+00
     10 -0.180320D+00  0.000000D+00  0.000000D+00  0.000000D+00  0.000000D+00
     11  0.445719D+00 -0.323625D-03  0.781293D-02  0.000000D+00  0.000000D+00
     12  0.000000D+00  0.000000D+00  0.000000D+00  0.126594D-01  0.000000D+00
     13  0.000000D+00  0.000000D+00  0.000000D+00  0.000000D+00  0.126594D-01
     14 -0.501501D+00  0.000000D+00  0.000000D+00  0.000000D+00  0.000000D+00
     15  0.335641D+00  0.575699D-02  0.450232D-01  0.000000D+00  0.000000D+00
     16  0.000000D+00  0.000000D+00  0.000000D+00  0.361007D-02  0.000000D+00
     17  0.000000D+00  0.000000D+00  0.000000D+00  0.000000D+00  0.361007D-02
     18 -0.260184D+00  0.000000D+00  0.000000D+00  0.000000D+00  0.000000D+00
     19  0.449347D-01  0.000000D+00  0.000000D+00  0.000000D+00  0.000000D+00
     20  0.000000D+00  0.000000D+00  0.000000D+00  0.000000D+00  0.000000D+00
     21  0.000000D+00  0.000000D+00  0.000000D+00  0.000000D+00  0.000000D+00
     22  0.000000D+00  0.000000D+00  0.000000D+00  0.000000D+00  0.000000D+00
     23  0.000000D+00  0.000000D+00  0.000000D+00  0.000000D+00  0.000000D+00
     24  0.343198D+00  0.000000D+00  0.000000D+00  0.000000D+00  0.000000D+00
     25  0.000000D+00  0.000000D+00  0.000000D+00  0.000000D+00  0.000000D+00
     26  0.000000D+00  0.000000D+00  0.000000D+00  0.000000D+00  0.000000D+00
     27  0.000000D+00  0.000000D+00  0.000000D+00  0.000000D+00  0.000000D+00
     28  0.000000D+00  0.000000D+00  0.000000D+00  0.000000D+00  0.000000D+00
                6             7             8             9            10 
      6  0.100000D+01
      7  0.000000D+00  0.100000D+01
      8  0.000000D+00  0.000000D+00  0.100000D+01
      9  0.000000D+00  0.000000D+00  0.000000D+00  0.100000D+01
     10  0.320730D+00  0.000000D+00  0.000000D+00  0.000000D+00  0.100000D+01
     11  0.000000D+00  0.254017D+00  0.000000D+00  0.000000D+00  0.000000D+00
     12  0.000000D+00  0.000000D+00  0.217564D+00  0.000000D+00  0.000000D+00
     13  0.000000D+00  0.000000D+00  0.000000D+00  0.217564D+00  0.000000D+00
     14  0.126594D-01  0.000000D+00  0.000000D+00  0.000000D+00  0.217564D+00
     15  0.000000D+00  0.230277D+00  0.000000D+00  0.000000D+00  0.000000D+00
     16  0.000000D+00  0.000000D+00  0.710789D-01  0.000000D+00  0.000000D+00
     17  0.000000D+00  0.000000D+00  0.000000D+00  0.710789D-01  0.000000D+00
     18  0.361007D-02  0.000000D+00  0.000000D+00  0.000000D+00  0.710789D-01
     19  0.000000D+00  0.000000D+00  0.000000D+00  0.000000D+00  0.000000D+00
     20  0.000000D+00  0.000000D+00  0.000000D+00  0.000000D+00  0.000000D+00
     21  0.000000D+00  0.000000D+00  0.000000D+00  0.000000D+00  0.000000D+00
     22  0.000000D+00  0.000000D+00  0.000000D+00  0.000000D+00  0.000000D+00
     23  0.000000D+00  0.000000D+00  0.000000D+00  0.000000D+00  0.000000D+00
     24  0.000000D+00  0.000000D+00  0.000000D+00  0.000000D+00  0.000000D+00
     25  0.000000D+00  0.000000D+00  0.000000D+00  0.000000D+00  0.000000D+00
     26  0.000000D+00  0.000000D+00  0.000000D+00  0.000000D+00  0.000000D+00
     27  0.000000D+00  0.000000D+00  0.000000D+00  0.000000D+00  0.000000D+00
     28  0.000000D+00  0.000000D+00  0.000000D+00  0.000000D+00  0.000000D+00
               11            12            13            14            15 
     11  0.100000D+01
     12  0.000000D+00  0.100000D+01
     13  0.000000D+00  0.000000D+00  0.100000D+01
     14  0.000000D+00  0.000000D+00  0.000000D+00  0.100000D+01
     15  0.850437D+00  0.000000D+00  0.000000D+00  0.000000D+00  0.100000D+01
     16  0.000000D+00  0.734775D+00  0.000000D+00  0.000000D+00  0.000000D+00
     17  0.000000D+00  0.000000D+00  0.734775D+00  0.000000D+00  0.000000D+00
     18  0.000000D+00  0.000000D+00  0.000000D+00  0.734775D+00  0.000000D+00
     19  0.000000D+00  0.000000D+00  0.000000D+00  0.000000D+00  0.000000D+00
     20  0.000000D+00  0.000000D+00  0.000000D+00  0.000000D+00  0.000000D+00
     21  0.000000D+00  0.000000D+00  0.000000D+00  0.000000D+00  0.000000D+00
     22  0.000000D+00  0.000000D+00  0.000000D+00  0.000000D+00  0.000000D+00
     23  0.000000D+00  0.000000D+00  0.000000D+00  0.000000D+00  0.000000D+00
     24  0.000000D+00  0.000000D+00  0.000000D+00  0.000000D+00  0.000000D+00
     25  0.000000D+00  0.000000D+00  0.000000D+00  0.000000D+00  0.000000D+00
     26  0.000000D+00  0.000000D+00  0.000000D+00  0.000000D+00  0.000000D+00
     27  0.000000D+00  0.000000D+00  0.000000D+00  0.000000D+00  0.000000D+00
     28  0.000000D+00  0.000000D+00  0.000000D+00  0.000000D+00  0.000000D+00
               16            17            18            19            20 
     16  0.100000D+01
     17  0.000000D+00  0.100000D+01
     18  0.000000D+00  0.000000D+00  0.100000D+01
     19  0.000000D+00  0.000000D+00  0.000000D+00  0.100000D+01
     20  0.000000D+00  0.000000D+00  0.000000D+00  0.000000D+00  0.100000D+01
     21  0.000000D+00  0.000000D+00  0.000000D+00  0.000000D+00  0.000000D+00
     22  0.000000D+00  0.000000D+00  0.000000D+00  0.000000D+00  0.000000D+00
     23  0.000000D+00  0.000000D+00  0.000000D+00  0.000000D+00  0.000000D+00
     24  0.000000D+00  0.000000D+00  0.000000D+00  0.395959D+00  0.000000D+00
     25  0.000000D+00  0.000000D+00  0.000000D+00  0.000000D+00  0.395959D+00
     26  0.000000D+00  0.000000D+00  0.000000D+00  0.000000D+00  0.000000D+00
     27  0.000000D+00  0.000000D+00  0.000000D+00  0.000000D+00  0.000000D+00
     28  0.000000D+00  0.000000D+00  0.000000D+00  0.000000D+00  0.000000D+00
               21            22            23            24            25 
     21  0.100000D+01
     22  0.000000D+00  0.100000D+01
     23  0.000000D+00  0.000000D+00  0.100000D+01
     24  0.000000D+00  0.000000D+00  0.000000D+00  0.100000D+01
     25  0.000000D+00  0.000000D+00  0.000000D+00  0.000000D+00  0.100000D+01
     26  0.395959D+00  0.000000D+00  0.000000D+00  0.000000D+00  0.000000D+00
     27  0.000000D+00  0.395959D+00  0.000000D+00  0.000000D+00  0.000000D+00
     28  0.000000D+00  0.000000D+00  0.395959D+00  0.000000D+00  0.000000D+00
               26            27            28 
     26  0.100000D+01
     27  0.000000D+00  0.100000D+01
     28  0.000000D+00  0.000000D+00  0.100000D+01
 *** Kinetic Energy *** 
                1             2             3             4             5 
      1  0.760032D+00
      2 -0.115828D-02  0.238140D+03
      3 -0.906281D-02 -0.849715D+01  0.110812D+02
      4  0.000000D+00  0.000000D+00  0.000000D+00  0.405624D+02
      5  0.000000D+00  0.000000D+00  0.000000D+00  0.000000D+00  0.405624D+02
      6  0.305514D-02  0.000000D+00  0.000000D+00  0.000000D+00  0.000000D+00
      7 -0.144853D-01 -0.119187D+01 -0.935732D+00  0.000000D+00  0.000000D+00
      8  0.000000D+00  0.000000D+00  0.000000D+00  0.225504D+01  0.000000D+00
      9  0.000000D+00  0.000000D+00  0.000000D+00  0.000000D+00  0.225504D+01
     10 -0.329424D-01  0.000000D+00  0.000000D+00  0.000000D+00  0.000000D+00
     11  0.636658D-01 -0.207112D-01 -0.130608D+00  0.000000D+00  0.000000D+00
     12  0.000000D+00  0.000000D+00  0.000000D+00  0.467897D-02  0.000000D+00
     13  0.000000D+00  0.000000D+00  0.000000D+00  0.000000D+00  0.467897D-02
     14 -0.121136D+00  0.000000D+00  0.000000D+00  0.000000D+00  0.000000D+00
     15  0.213478D-01  0.458197D-03  0.356994D-02  0.000000D+00  0.000000D+00
     16  0.000000D+00  0.000000D+00  0.000000D+00  0.477331D-03  0.000000D+00
     17  0.000000D+00  0.000000D+00  0.000000D+00  0.000000D+00  0.477331D-03
     18 -0.290413D-01  0.000000D+00  0.000000D+00  0.000000D+00  0.000000D+00
     19  0.124411D-01  0.000000D+00  0.000000D+00  0.000000D+00  0.000000D+00
     20  0.000000D+00  0.000000D+00  0.000000D+00  0.000000D+00  0.000000D+00
     21  0.000000D+00  0.000000D+00  0.000000D+00  0.000000D+00  0.000000D+00
     22  0.000000D+00  0.000000D+00  0.000000D+00  0.000000D+00  0.000000D+00
     23  0.000000D+00  0.000000D+00  0.000000D+00  0.000000D+00  0.000000D+00
     24  0.272210D+00  0.000000D+00  0.000000D+00  0.000000D+00  0.000000D+00
     25  0.000000D+00  0.000000D+00  0.000000D+00  0.000000D+00  0.000000D+00
     26  0.000000D+00  0.000000D+00  0.000000D+00  0.000000D+00  0.000000D+00
     27  0.000000D+00  0.000000D+00  0.000000D+00  0.000000D+00  0.000000D+00
     28  0.000000D+00  0.000000D+00  0.000000D+00  0.000000D+00  0.000000D+00
                6             7             8             9            10 
      6  0.405624D+02
      7  0.000000D+00  0.139068D+01
      8  0.000000D+00  0.000000D+00  0.266954D+01
      9  0.000000D+00  0.000000D+00  0.000000D+00  0.266954D+01
     10  0.225504D+01  0.000000D+00  0.000000D+00  0.000000D+00  0.266954D+01
     11  0.000000D+00 -0.125868D+00  0.000000D+00  0.000000D+00  0.000000D+00
     12  0.000000D+00  0.000000D+00  0.727335D-01  0.000000D+00  0.000000D+00
     13  0.000000D+00  0.000000D+00  0.000000D+00  0.727335D-01  0.000000D+00
     14  0.467897D-02  0.000000D+00  0.000000D+00  0.000000D+00  0.727335D-01
     15  0.000000D+00  0.176460D-01  0.000000D+00  0.000000D+00  0.000000D+00
     16  0.000000D+00  0.000000D+00  0.909809D-02  0.000000D+00  0.000000D+00
     17  0.000000D+00  0.000000D+00  0.000000D+00  0.909809D-02  0.000000D+00
     18  0.477331D-03  0.000000D+00  0.000000D+00  0.000000D+00  0.909809D-02
     19  0.000000D+00  0.000000D+00  0.000000D+00  0.000000D+00  0.000000D+00
     20  0.000000D+00  0.000000D+00  0.000000D+00  0.000000D+00  0.000000D+00
     21  0.000000D+00  0.000000D+00  0.000000D+00  0.000000D+00  0.000000D+00
     22  0.000000D+00  0.000000D+00  0.000000D+00  0.000000D+00  0.000000D+00
     23  0.000000D+00  0.000000D+00  0.000000D+00  0.000000D+00  0.000000D+00
     24  0.000000D+00  0.000000D+00  0.000000D+00  0.000000D+00  0.000000D+00
     25  0.000000D+00  0.000000D+00  0.000000D+00  0.000000D+00  0.000000D+00
     26  0.000000D+00  0.000000D+00  0.000000D+00  0.000000D+00  0.000000D+00
     27  0.000000D+00  0.000000D+00  0.000000D+00  0.000000D+00  0.000000D+00
     28  0.000000D+00  0.000000D+00  0.000000D+00  0.000000D+00  0.000000D+00
               11            12            13            14            15 
     11  0.130956D+00
     12  0.000000D+00  0.182825D+00
     13  0.000000D+00  0.000000D+00  0.182825D+00
     14  0.000000D+00  0.000000D+00  0.000000D+00  0.182825D+00
     15  0.485464D-01  0.000000D+00  0.000000D+00  0.000000D+00  0.398069D-01
     16  0.000000D+00  0.715354D-01  0.000000D+00  0.000000D+00  0.000000D+00
     17  0.000000D+00  0.000000D+00  0.715354D-01  0.000000D+00  0.000000D+00
     18  0.000000D+00  0.000000D+00  0.000000D+00  0.715354D-01  0.000000D+00
     19  0.000000D+00  0.000000D+00  0.000000D+00  0.000000D+00  0.000000D+00
     20  0.000000D+00  0.000000D+00  0.000000D+00  0.000000D+00  0.000000D+00
     21  0.000000D+00  0.000000D+00  0.000000D+00  0.000000D+00  0.000000D+00
     22  0.000000D+00  0.000000D+00  0.000000D+00  0.000000D+00  0.000000D+00
     23  0.000000D+00  0.000000D+00  0.000000D+00  0.000000D+00  0.000000D+00
     24  0.000000D+00  0.000000D+00  0.000000D+00  0.000000D+00  0.000000D+00
     25  0.000000D+00  0.000000D+00  0.000000D+00  0.000000D+00  0.000000D+00
     26  0.000000D+00  0.000000D+00  0.000000D+00  0.000000D+00  0.000000D+00
     27  0.000000D+00  0.000000D+00  0.000000D+00  0.000000D+00  0.000000D+00
     28  0.000000D+00  0.000000D+00  0.000000D+00  0.000000D+00  0.000000D+00
               16            17            18            19            20 
     16  0.663448D-01
     17  0.000000D+00  0.663448D-01
     18  0.000000D+00  0.000000D+00  0.663448D-01
     19  0.000000D+00  0.000000D+00  0.000000D+00  0.800995D+01
     20  0.000000D+00  0.000000D+00  0.000000D+00  0.000000D+00  0.800995D+01
     21  0.000000D+00  0.000000D+00  0.000000D+00  0.000000D+00  0.000000D+00
     22  0.000000D+00  0.000000D+00  0.000000D+00  0.000000D+00  0.000000D+00
     23  0.000000D+00  0.000000D+00  0.000000D+00  0.000000D+00  0.000000D+00
     24  0.000000D+00  0.000000D+00  0.000000D+00  0.930872D+00  0.000000D+00
     25  0.000000D+00  0.000000D+00  0.000000D+00  0.000000D+00  0.930872D+00
     26  0.000000D+00  0.000000D+00  0.000000D+00  0.000000D+00  0.000000D+00
     27  0.000000D+00  0.000000D+00  0.000000D+00  0.000000D+00  0.000000D+00
     28  0.000000D+00  0.000000D+00  0.000000D+00  0.000000D+00  0.000000D+00
               21            22            23            24            25 
     21  0.800995D+01
     22  0.000000D+00  0.800995D+01
     23  0.000000D+00  0.000000D+00  0.800995D+01
     24  0.000000D+00  0.000000D+00  0.000000D+00  0.144943D+01
     25  0.000000D+00  0.000000D+00  0.000000D+00  0.000000D+00  0.144943D+01
     26  0.930872D+00  0.000000D+00  0.000000D+00  0.000000D+00  0.000000D+00
     27  0.000000D+00  0.930872D+00  0.000000D+00  0.000000D+00  0.000000D+00
     28  0.000000D+00  0.000000D+00  0.930872D+00  0.000000D+00  0.000000D+00
               26            27            28 
     26  0.144943D+01
     27  0.000000D+00  0.144943D+01
     28  0.000000D+00  0.000000D+00  0.144943D+01
 Entering OneElI...
 Calculate potential energy integrals
    NBasis =  28  MinDer = 0  MaxDer = 0
 Requested accuracy = 0.1000D-12
 Symmetry will be used
 PrmmSu-InSpLW:  IPartL=    0 NPrtUS=   36 NPrtUL=    1 DoSpLW=F IThBeg=    0 IThEnd=   35 NThAct=   36.
 PrSmSu:  IncTry=   512 NBBP=             72 NTPThr=   100 NPartT=   36 Incr=           1 LDynOK=F GPUOK=F.
 PrsmSu:  NPrtUS=  36 ThrOK=T IAlg=1 LenDen=           0 ISkipM=0 DoSpLW=F IThBeg=    0 IThEnd=   35.
 Prism:   IPart=     0 DynPar=F LinDyn=F Incr=           1.
 PRISM was handed   268432575 working-precision words and    36 shell-pairs
 PRISM was handed   268432575 working-precision words and    36 shell-pairs
 PRISM was handed   268432575 working-precision words and    36 shell-pairs
 PRISM was handed   268432575 working-precision words and    36 shell-pairs
 PRISM was handed   268432575 working-precision words and    36 shell-pairs
 PRISM was handed   268432575 working-precision words and    36 shell-pairs
 PRISM was handed   268432575 working-precision words and    36 shell-pairs
 PRISM was handed   268432575 working-precision words and    36 shell-pairs
 PRISM was handed   268432575 working-precision words and    36 shell-pairs
 PRISM was handed   268432575 working-precision words and    36 shell-pairs
 PRISM was handed   268432575 working-precision words and    36 shell-pairs
 PRISM was handed   268432575 working-precision words and    36 shell-pairs
 PRISM was handed   268432575 working-precision words and    36 shell-pairs
 PRISM was handed   268432575 working-precision words and    36 shell-pairs
 PRISM was handed   268432575 working-precision words and    36 shell-pairs
 PRISM was handed   268432575 working-precision words and    36 shell-pairs
 PRISM was handed   268432575 working-precision words and    36 shell-pairs
 PRISM was handed   268432575 working-precision words and    36 shell-pairs
 PRISM was handed   268432575 working-precision words and    36 shell-pairs
 PRISM was handed   268432575 working-precision words and    36 shell-pairs
 PRISM was handed   268432575 working-precision words and    36 shell-pairs
 PRISM was handed   268432575 working-precision words and    36 shell-pairs
 PRISM was handed   268432575 working-precision words and    36 shell-pairs
 PRISM was handed   268432575 working-precision words and    36 shell-pairs
 PRISM was handed   268432575 working-precision words and    36 shell-pairs
 PRISM was handed   268432575 working-precision words and    36 shell-pairs
 PRISM was handed   268432575 working-precision words and    36 shell-pairs
 PRISM was handed   268432575 working-precision words and    36 shell-pairs
 PRISM was handed   268432575 working-precision words and    36 shell-pairs
 PRISM was handed   268432575 working-precision words and    36 shell-pairs
 PRISM was handed   268432575 working-precision words and    36 shell-pairs
 PRISM was handed   268432575 working-precision words and    36 shell-pairs
 PRISM was handed   268432575 working-precision words and    36 shell-pairs
 PRISM was handed   268432575 working-precision words and    36 shell-pairs
 PRISM was handed   268432575 working-precision words and    36 shell-pairs
 PRISM was handed   268432575 working-precision words and    36 shell-pairs
 IPart= 10 NShTot=           0 NBatch=           0 AvBLen=         0.0
 IPart= 20 NShTot=           0 NBatch=           0 AvBLen=         0.0
 IPart= 25 NShTot=           0 NBatch=           0 AvBLen=         0.0
 IPart= 28 NShTot=           0 NBatch=           0 AvBLen=         0.0
 IPart= 35 NShTot=           0 NBatch=           0 AvBLen=         0.0
 IPart= 24 NShTot=           0 NBatch=           0 AvBLen=         0.0
 IPart=  7 NShTot=           0 NBatch=           0 AvBLen=         0.0
 IPart= 18 NShTot=           0 NBatch=           0 AvBLen=         0.0
 IPart=  5 NShTot=           0 NBatch=           0 AvBLen=         0.0
 IPart= 33 NShTot=           0 NBatch=           0 AvBLen=         0.0
 IPart=  6 NShTot=           0 NBatch=           0 AvBLen=         0.0
 IPart= 21 NShTot=           0 NBatch=           0 AvBLen=         0.0
 IPart= 13 NShTot=           0 NBatch=           0 AvBLen=         0.0
 IPart= 22 NShTot=           0 NBatch=           0 AvBLen=         0.0
 IPart=  0 NShTot=          40 NBatch=          20 AvBLen=         2.0
 IPart=  8 NShTot=           0 NBatch=           0 AvBLen=         0.0
 IPart= 29 NShTot=           0 NBatch=           0 AvBLen=         0.0
 IPart= 27 NShTot=           0 NBatch=           0 AvBLen=         0.0
 IPart= 23 NShTot=           0 NBatch=           0 AvBLen=         0.0
 IPart= 15 NShTot=           0 NBatch=           0 AvBLen=         0.0
 IPart= 34 NShTot=           0 NBatch=           0 AvBLen=         0.0
 IPart=  4 NShTot=           0 NBatch=           0 AvBLen=         0.0
 IPart=  1 NShTot=          24 NBatch=          12 AvBLen=         2.0
 IPart= 12 NShTot=           0 NBatch=           0 AvBLen=         0.0
 IPart= 32 NShTot=           0 NBatch=           0 AvBLen=         0.0
 IPart= 11 NShTot=           0 NBatch=           0 AvBLen=         0.0
 IPart=  2 NShTot=           6 NBatch=           3 AvBLen=         2.0
 IPart=  9 NShTot=           0 NBatch=           0 AvBLen=         0.0
 IPart= 30 NShTot=           0 NBatch=           0 AvBLen=         0.0
 IPart= 26 NShTot=           0 NBatch=           0 AvBLen=         0.0
 IPart= 14 NShTot=           0 NBatch=           0 AvBLen=         0.0
 IPart= 31 NShTot=           0 NBatch=           0 AvBLen=         0.0
 IPart= 16 NShTot=           0 NBatch=           0 AvBLen=         0.0
 IPart= 17 NShTot=           0 NBatch=           0 AvBLen=         0.0
 IPart= 19 NShTot=           0 NBatch=           0 AvBLen=         0.0
 IPart=  3 NShTot=           2 NBatch=           1 AvBLen=         2.0
 PrSmSu:  NxtVal=             37.
 ***** Potential Energy ***** 
                1             2             3             4             5 
      1  0.949085D+01
      2  0.933585D+00  0.479015D+03
      3  0.179083D+01  0.594457D+02  0.853255D+02
      4  0.000000D+00  0.000000D+00  0.000000D+00  0.991870D+02
      5  0.000000D+00  0.000000D+00  0.000000D+00  0.000000D+00  0.991870D+02
      6 -0.416267D+00 -0.344638D-02 -0.243576D-01  0.000000D+00  0.000000D+00
      7  0.347848D+01  0.186242D+01  0.176137D+02  0.000000D+00  0.000000D+00
      8  0.000000D+00  0.000000D+00  0.000000D+00  0.184901D+02  0.000000D+00
      9  0.000000D+00  0.000000D+00  0.000000D+00  0.000000D+00  0.184901D+02
     10 -0.285940D+01 -0.213638D-03 -0.129873D-01  0.000000D+00  0.000000D+00
     11  0.408286D+01 -0.976546D-01  0.274372D+00  0.000000D+00  0.000000D+00
     12  0.000000D+00  0.000000D+00  0.000000D+00  0.637566D+00  0.000000D+00
     13  0.000000D+00  0.000000D+00  0.000000D+00  0.000000D+00  0.637566D+00
     14 -0.417645D+01 -0.542166D-05 -0.559950D-03  0.000000D+00  0.000000D+00
     15  0.301912D+01  0.150652D+01  0.283315D+01  0.000000D+00  0.000000D+00
     16  0.000000D+00  0.000000D+00  0.000000D+00  0.180995D+00  0.000000D+00
     17  0.000000D+00  0.000000D+00  0.000000D+00  0.000000D+00  0.180995D+00
     18 -0.193026D+01 -0.152394D-05 -0.160089D-03  0.000000D+00  0.000000D+00
     19  0.842387D+00  0.937542D-05  0.239464D-02  0.000000D+00  0.000000D+00
     20  0.000000D+00  0.000000D+00  0.000000D+00 -0.112481D-01  0.000000D+00
     21  0.000000D+00  0.000000D+00  0.000000D+00  0.000000D+00 -0.112481D-01
     22  0.000000D+00  0.000000D+00  0.000000D+00  0.000000D+00  0.000000D+00
     23  0.000000D+00  0.000000D+00  0.000000D+00  0.000000D+00  0.000000D+00
     24  0.379680D+01  0.000000D+00  0.262738D-03  0.000000D+00  0.000000D+00
     25  0.000000D+00  0.000000D+00  0.000000D+00 -0.109243D-02  0.000000D+00
     26  0.000000D+00  0.000000D+00  0.000000D+00  0.000000D+00 -0.109243D-02
     27  0.000000D+00  0.000000D+00  0.000000D+00  0.000000D+00  0.000000D+00
     28  0.000000D+00  0.000000D+00  0.000000D+00  0.000000D+00  0.000000D+00
                6             7             8             9            10 
      6  0.991902D+02
      7 -0.127296D-01  0.266611D+02
      8  0.000000D+00  0.000000D+00  0.255507D+02
      9  0.000000D+00  0.000000D+00  0.000000D+00  0.255507D+02
     10  0.184927D+02 -0.824626D-01  0.000000D+00  0.000000D+00  0.255918D+02
     11 -0.431910D-03  0.414460D+01  0.000000D+00  0.000000D+00 -0.412751D-01
     12  0.000000D+00  0.000000D+00  0.349884D+01  0.000000D+00  0.000000D+00
     13  0.000000D+00  0.000000D+00  0.000000D+00  0.349884D+01  0.000000D+00
     14  0.637700D+00 -0.224845D-01  0.000000D+00  0.000000D+00  0.351911D+01
     15 -0.158306D-02  0.473905D+01  0.000000D+00  0.000000D+00 -0.305319D-01
     16  0.000000D+00  0.000000D+00  0.110100D+01  0.000000D+00  0.000000D+00
     17  0.000000D+00  0.000000D+00  0.000000D+00  0.110100D+01  0.000000D+00
     18  0.181034D+00 -0.739605D-02  0.000000D+00  0.000000D+00  0.110799D+01
     19 -0.136419D-01  0.218592D-01  0.000000D+00  0.000000D+00 -0.725726D-01
     20  0.000000D+00  0.000000D+00 -0.524149D-01  0.000000D+00  0.000000D+00
     21  0.000000D+00  0.000000D+00  0.000000D+00 -0.524149D-01  0.000000D+00
     22  0.000000D+00  0.000000D+00  0.000000D+00  0.000000D+00  0.000000D+00
     23  0.000000D+00  0.000000D+00  0.000000D+00  0.000000D+00  0.000000D+00
     24 -0.135787D-02  0.295335D-01  0.000000D+00  0.000000D+00 -0.877541D-01
     25  0.000000D+00  0.000000D+00 -0.489685D-01  0.000000D+00  0.000000D+00
     26  0.000000D+00  0.000000D+00  0.000000D+00 -0.489685D-01  0.000000D+00
     27  0.000000D+00  0.000000D+00  0.000000D+00  0.000000D+00  0.000000D+00
     28  0.000000D+00  0.000000D+00  0.000000D+00  0.000000D+00  0.000000D+00
               11            12            13            14            15 
     11  0.799146D+01
     12  0.000000D+00  0.656967D+01
     13  0.000000D+00  0.000000D+00  0.656967D+01
     14 -0.120004D+00  0.000000D+00  0.000000D+00  0.665687D+01
     15  0.617575D+01  0.000000D+00  0.000000D+00 -0.945154D-01  0.595014D+01
     16  0.000000D+00  0.399241D+01  0.000000D+00  0.000000D+00  0.000000D+00
     17  0.000000D+00  0.000000D+00  0.399241D+01  0.000000D+00  0.000000D+00
     18 -0.602498D-01  0.000000D+00  0.000000D+00  0.403730D+01 -0.600546D-01
     19  0.675142D-02  0.000000D+00  0.000000D+00 -0.124322D-01  0.566381D-02
     20  0.000000D+00 -0.807616D-02  0.000000D+00  0.000000D+00  0.000000D+00
     21  0.000000D+00  0.000000D+00 -0.807616D-02  0.000000D+00  0.000000D+00
     22  0.000000D+00  0.000000D+00  0.000000D+00  0.000000D+00  0.000000D+00
     23  0.000000D+00  0.000000D+00  0.000000D+00  0.000000D+00  0.000000D+00
     24  0.736779D-01  0.000000D+00  0.000000D+00 -0.112075D+00  0.464729D-01
     25  0.000000D+00 -0.476455D-01  0.000000D+00  0.000000D+00  0.000000D+00
     26  0.000000D+00  0.000000D+00 -0.476455D-01  0.000000D+00  0.000000D+00
     27  0.000000D+00  0.000000D+00  0.000000D+00  0.000000D+00  0.000000D+00
     28  0.000000D+00  0.000000D+00  0.000000D+00  0.000000D+00  0.000000D+00
               16            17            18            19            20 
     16  0.397411D+01
     17  0.000000D+00  0.397411D+01
     18  0.000000D+00  0.000000D+00  0.400383D+01
     19  0.000000D+00  0.000000D+00 -0.384523D-02  0.295615D+02
     20 -0.247799D-02  0.000000D+00  0.000000D+00  0.000000D+00  0.295512D+02
     21  0.000000D+00 -0.247799D-02  0.000000D+00  0.000000D+00  0.000000D+00
     22  0.000000D+00  0.000000D+00  0.000000D+00  0.000000D+00  0.000000D+00
     23  0.000000D+00  0.000000D+00  0.000000D+00  0.000000D+00  0.000000D+00
     24  0.000000D+00  0.000000D+00 -0.426793D-01  0.808949D+01  0.000000D+00
     25 -0.179552D-01  0.000000D+00  0.000000D+00  0.000000D+00  0.807973D+01
     26  0.000000D+00 -0.179552D-01  0.000000D+00  0.000000D+00  0.000000D+00
     27  0.000000D+00  0.000000D+00  0.000000D+00  0.000000D+00  0.000000D+00
     28  0.000000D+00  0.000000D+00  0.000000D+00  0.000000D+00  0.000000D+00
               21            22            23            24            25 
     21  0.295512D+02
     22  0.000000D+00  0.295335D+02
     23  0.000000D+00  0.000000D+00  0.295335D+02
     24  0.000000D+00  0.000000D+00  0.000000D+00  0.125207D+02
     25  0.000000D+00  0.000000D+00  0.000000D+00  0.000000D+00  0.124268D+02
     26  0.807973D+01  0.000000D+00  0.000000D+00  0.000000D+00  0.000000D+00
     27  0.000000D+00  0.806753D+01  0.000000D+00  0.000000D+00  0.000000D+00
     28  0.000000D+00  0.000000D+00  0.806753D+01  0.000000D+00  0.000000D+00
               26            27            28 
     26  0.124268D+02
     27  0.000000D+00  0.123703D+02
     28  0.000000D+00  0.000000D+00  0.123703D+02
 ****** Core Hamiltonian ****** 
                1             2             3             4             5 
      1 -0.873082D+01
      2 -0.934743D+00 -0.240875D+03
      3 -0.179989D+01 -0.679428D+02 -0.742444D+02
      4  0.000000D+00  0.000000D+00  0.000000D+00 -0.586247D+02
      5  0.000000D+00  0.000000D+00  0.000000D+00  0.000000D+00 -0.586247D+02
      6  0.419323D+00  0.344638D-02  0.243576D-01  0.000000D+00  0.000000D+00
      7 -0.349296D+01 -0.305429D+01 -0.185495D+02  0.000000D+00  0.000000D+00
      8  0.000000D+00  0.000000D+00  0.000000D+00 -0.162351D+02  0.000000D+00
      9  0.000000D+00  0.000000D+00  0.000000D+00  0.000000D+00 -0.162351D+02
     10  0.282646D+01  0.213638D-03  0.129873D-01  0.000000D+00  0.000000D+00
     11 -0.401919D+01  0.769434D-01 -0.404980D+00  0.000000D+00  0.000000D+00
     12  0.000000D+00  0.000000D+00  0.000000D+00 -0.632887D+00  0.000000D+00
     13  0.000000D+00  0.000000D+00  0.000000D+00  0.000000D+00 -0.632887D+00
     14  0.405532D+01  0.542166D-05  0.559950D-03  0.000000D+00  0.000000D+00
     15 -0.299778D+01 -0.150606D+01 -0.282958D+01  0.000000D+00  0.000000D+00
     16  0.000000D+00  0.000000D+00  0.000000D+00 -0.180518D+00  0.000000D+00
     17  0.000000D+00  0.000000D+00  0.000000D+00  0.000000D+00 -0.180518D+00
     18  0.190122D+01  0.152394D-05  0.160089D-03  0.000000D+00  0.000000D+00
     19 -0.829946D+00 -0.937542D-05 -0.239464D-02  0.000000D+00  0.000000D+00
     20  0.000000D+00  0.000000D+00  0.000000D+00  0.112481D-01  0.000000D+00
     21  0.000000D+00  0.000000D+00  0.000000D+00  0.000000D+00  0.112481D-01
     22  0.000000D+00  0.000000D+00  0.000000D+00  0.000000D+00  0.000000D+00
     23  0.000000D+00  0.000000D+00  0.000000D+00  0.000000D+00  0.000000D+00
     24 -0.352459D+01  0.000000D+00 -0.262738D-03  0.000000D+00  0.000000D+00
     25  0.000000D+00  0.000000D+00  0.000000D+00  0.109243D-02  0.000000D+00
     26  0.000000D+00  0.000000D+00  0.000000D+00  0.000000D+00  0.109243D-02
     27  0.000000D+00  0.000000D+00  0.000000D+00  0.000000D+00  0.000000D+00
     28  0.000000D+00  0.000000D+00  0.000000D+00  0.000000D+00  0.000000D+00
                6             7             8             9            10 
      6 -0.586278D+02
      7  0.127296D-01 -0.252704D+02
      8  0.000000D+00  0.000000D+00 -0.228811D+02
      9  0.000000D+00  0.000000D+00  0.000000D+00 -0.228811D+02
     10 -0.162377D+02  0.824626D-01  0.000000D+00  0.000000D+00 -0.229223D+02
     11  0.431910D-03 -0.427047D+01  0.000000D+00  0.000000D+00  0.412751D-01
     12  0.000000D+00  0.000000D+00 -0.342610D+01  0.000000D+00  0.000000D+00
     13  0.000000D+00  0.000000D+00  0.000000D+00 -0.342610D+01  0.000000D+00
     14 -0.633021D+00  0.224845D-01  0.000000D+00  0.000000D+00 -0.344637D+01
     15  0.158306D-02 -0.472141D+01  0.000000D+00  0.000000D+00  0.305319D-01
     16  0.000000D+00  0.000000D+00 -0.109190D+01  0.000000D+00  0.000000D+00
     17  0.000000D+00  0.000000D+00  0.000000D+00 -0.109190D+01  0.000000D+00
     18 -0.180557D+00  0.739605D-02  0.000000D+00  0.000000D+00 -0.109890D+01
     19  0.136419D-01 -0.218592D-01  0.000000D+00  0.000000D+00  0.725726D-01
     20  0.000000D+00  0.000000D+00  0.524149D-01  0.000000D+00  0.000000D+00
     21  0.000000D+00  0.000000D+00  0.000000D+00  0.524149D-01  0.000000D+00
     22  0.000000D+00  0.000000D+00  0.000000D+00  0.000000D+00  0.000000D+00
     23  0.000000D+00  0.000000D+00  0.000000D+00  0.000000D+00  0.000000D+00
     24  0.135787D-02 -0.295335D-01  0.000000D+00  0.000000D+00  0.877541D-01
     25  0.000000D+00  0.000000D+00  0.489685D-01  0.000000D+00  0.000000D+00
     26  0.000000D+00  0.000000D+00  0.000000D+00  0.489685D-01  0.000000D+00
     27  0.000000D+00  0.000000D+00  0.000000D+00  0.000000D+00  0.000000D+00
     28  0.000000D+00  0.000000D+00  0.000000D+00  0.000000D+00  0.000000D+00
               11            12            13            14            15 
     11 -0.786050D+01
     12  0.000000D+00 -0.638684D+01
     13  0.000000D+00  0.000000D+00 -0.638684D+01
     14  0.120004D+00  0.000000D+00  0.000000D+00 -0.647404D+01
     15 -0.612720D+01  0.000000D+00  0.000000D+00  0.945154D-01 -0.591033D+01
     16  0.000000D+00 -0.392088D+01  0.000000D+00  0.000000D+00  0.000000D+00
     17  0.000000D+00  0.000000D+00 -0.392088D+01  0.000000D+00  0.000000D+00
     18  0.602498D-01  0.000000D+00  0.000000D+00 -0.396576D+01  0.600546D-01
     19 -0.675142D-02  0.000000D+00  0.000000D+00  0.124322D-01 -0.566381D-02
     20  0.000000D+00  0.807616D-02  0.000000D+00  0.000000D+00  0.000000D+00
     21  0.000000D+00  0.000000D+00  0.807616D-02  0.000000D+00  0.000000D+00
     22  0.000000D+00  0.000000D+00  0.000000D+00  0.000000D+00  0.000000D+00
     23  0.000000D+00  0.000000D+00  0.000000D+00  0.000000D+00  0.000000D+00
     24 -0.736779D-01  0.000000D+00  0.000000D+00  0.112075D+00 -0.464729D-01
     25  0.000000D+00  0.476455D-01  0.000000D+00  0.000000D+00  0.000000D+00
     26  0.000000D+00  0.000000D+00  0.476455D-01  0.000000D+00  0.000000D+00
     27  0.000000D+00  0.000000D+00  0.000000D+00  0.000000D+00  0.000000D+00
     28  0.000000D+00  0.000000D+00  0.000000D+00  0.000000D+00  0.000000D+00
               16            17            18            19            20 
     16 -0.390776D+01
     17  0.000000D+00 -0.390776D+01
     18  0.000000D+00  0.000000D+00 -0.393748D+01
     19  0.000000D+00  0.000000D+00  0.384523D-02 -0.215515D+02
     20  0.247799D-02  0.000000D+00  0.000000D+00  0.000000D+00 -0.215412D+02
     21  0.000000D+00  0.247799D-02  0.000000D+00  0.000000D+00  0.000000D+00
     22  0.000000D+00  0.000000D+00  0.000000D+00  0.000000D+00  0.000000D+00
     23  0.000000D+00  0.000000D+00  0.000000D+00  0.000000D+00  0.000000D+00
     24  0.000000D+00  0.000000D+00  0.426793D-01 -0.715861D+01  0.000000D+00
     25  0.179552D-01  0.000000D+00  0.000000D+00  0.000000D+00 -0.714886D+01
     26  0.000000D+00  0.179552D-01  0.000000D+00  0.000000D+00  0.000000D+00
     27  0.000000D+00  0.000000D+00  0.000000D+00  0.000000D+00  0.000000D+00
     28  0.000000D+00  0.000000D+00  0.000000D+00  0.000000D+00  0.000000D+00
               21            22            23            24            25 
     21 -0.215412D+02
     22  0.000000D+00 -0.215235D+02
     23  0.000000D+00  0.000000D+00 -0.215235D+02
     24  0.000000D+00  0.000000D+00  0.000000D+00 -0.110713D+02
     25  0.000000D+00  0.000000D+00  0.000000D+00  0.000000D+00 -0.109774D+02
     26 -0.714886D+01  0.000000D+00  0.000000D+00  0.000000D+00  0.000000D+00
     27  0.000000D+00 -0.713666D+01  0.000000D+00  0.000000D+00  0.000000D+00
     28  0.000000D+00  0.000000D+00 -0.713666D+01  0.000000D+00  0.000000D+00
               26            27            28 
     26 -0.109774D+02
     27  0.000000D+00 -0.109209D+02
     28  0.000000D+00  0.000000D+00 -0.109209D+02
 SVDSVc IOpt=   1 NormSV=T IR=1
 SVDSVc V= 2.42D+00 1.89D+00 1.44D+00 1.40D+00 1.36D+00 1.28D+00 9.42D-01 7.48D-01 6.61D-01 6.04D-01
 SVDSVc V= 5.58D-01 4.02D-01 1.88D-01 1.16D-01
 SVDSVc IOpt=   1 NormSV=T IR=2
 SVDSVc V= 1.40D+00 6.04D-01
 SVDSVc IOpt=   1 NormSV=T IR=3
 SVDSVc V= 1.80D+00 1.40D+00 1.28D+00 6.73D-01 6.04D-01 2.48D-01
 SVDSVc IOpt=   1 NormSV=T IR=4
 SVDSVc V= 1.80D+00 1.40D+00 1.28D+00 6.73D-01 6.04D-01 2.48D-01
 TstOVc:  Largest diagonal error= 3.55D-15 IB=1 I=    5.
 TstOVc:  Largest same sym error= 3.50D-15 IB=1 I=    6 J=    4.
 TstOVc:  Largest diff sym error= 0.00D+00 IB=0 JB=0 I=    0 J=    0.
 Orthogonalized basis functions: 
                 1             2             3             4             5 
      1   0.330693D+00 -0.864100D-01  0.123110D+00  0.000000D+00 -0.209600D-01
      2   0.134591D-01  0.296666D-01 -0.700153D-01  0.000000D+00  0.440522D+00
      3   0.565515D-01  0.889817D-01 -0.114157D+00  0.000000D+00  0.594302D+00
      4   0.000000D+00  0.000000D+00  0.000000D+00  0.000000D+00  0.000000D+00
      5   0.000000D+00  0.000000D+00  0.000000D+00  0.000000D+00  0.000000D+00
      6  -0.249916D-01  0.678380D-01  0.499247D-01  0.000000D+00 -0.106837D-01
      7   0.155268D+00  0.174271D+00 -0.966024D-01  0.000000D+00  0.320126D+00
      8   0.000000D+00  0.000000D+00  0.000000D+00  0.000000D+00  0.000000D+00
      9   0.000000D+00  0.000000D+00  0.000000D+00  0.000000D+00  0.000000D+00
     10  -0.911436D-01  0.166175D+00  0.654702D-01  0.000000D+00 -0.116922D-01
     11   0.303660D+00  0.286406D+00 -0.461155D-01  0.000000D+00 -0.183333D+00
     12   0.000000D+00  0.000000D+00  0.000000D+00  0.000000D+00  0.000000D+00
     13   0.000000D+00  0.000000D+00  0.000000D+00  0.000000D+00  0.000000D+00
     14  -0.224830D+00  0.388858D+00  0.116954D+00  0.000000D+00 -0.150118D-01
     15   0.286969D+00  0.291506D+00 -0.584682D-01  0.000000D+00 -0.167203D+00
     16   0.000000D+00  0.000000D+00  0.000000D+00  0.000000D+00  0.000000D+00
     17   0.000000D+00  0.000000D+00  0.000000D+00  0.000000D+00  0.000000D+00
     18  -0.181502D+00  0.360631D+00  0.133704D+00  0.000000D+00 -0.179833D-01
     19   0.354930D-01 -0.240407D-01  0.529160D+00  0.000000D+00  0.112648D+00
     20   0.000000D+00  0.000000D+00  0.000000D+00  0.000000D+00  0.000000D+00
     21   0.000000D+00  0.000000D+00  0.000000D+00  0.000000D+00  0.000000D+00
     22   0.000000D+00  0.000000D+00  0.000000D+00  0.598479D+00  0.000000D+00
     23   0.000000D+00  0.000000D+00  0.000000D+00  0.000000D+00  0.000000D+00
     24   0.897954D-01 -0.441128D-01  0.573121D+00  0.000000D+00  0.104361D+00
     25   0.000000D+00  0.000000D+00  0.000000D+00  0.000000D+00  0.000000D+00
     26   0.000000D+00  0.000000D+00  0.000000D+00  0.000000D+00  0.000000D+00
     27   0.000000D+00  0.000000D+00  0.000000D+00  0.598479D+00  0.000000D+00
     28   0.000000D+00  0.000000D+00  0.000000D+00  0.000000D+00  0.000000D+00
                 6             7             8             9            10 
      1   0.133363D-01  0.300350D-01 -0.511428D+00  0.158451D+00  0.000000D+00
      2   0.791228D-02  0.783130D+00 -0.485016D-02  0.784608D-02  0.000000D+00
      3   0.841040D-02 -0.153497D+00  0.646661D-02 -0.108757D-01  0.000000D+00
      4   0.000000D+00  0.000000D+00  0.000000D+00  0.000000D+00  0.000000D+00
      5   0.000000D+00  0.000000D+00  0.000000D+00  0.000000D+00  0.000000D+00
      6   0.633815D+00  0.645137D-02 -0.380898D+00 -0.725354D+00  0.000000D+00
      7   0.131809D-02 -0.613142D+00  0.933233D-02  0.142724D-02  0.000000D+00
      8   0.000000D+00  0.000000D+00  0.000000D+00  0.000000D+00  0.000000D+00
      9   0.000000D+00  0.000000D+00  0.000000D+00  0.000000D+00  0.000000D+00
     10   0.559069D+00 -0.968706D-03  0.292843D+00  0.769778D+00  0.000000D+00
     11  -0.959479D-02  0.146139D+00  0.132095D+00 -0.347025D-01  0.000000D+00
     12   0.000000D+00  0.000000D+00  0.000000D+00  0.000000D+00  0.000000D+00
     13   0.000000D+00  0.000000D+00  0.000000D+00  0.000000D+00  0.000000D+00
     14  -0.135470D+00  0.912187D-02 -0.685826D-01  0.440059D-01  0.000000D+00
     15  -0.106028D-01  0.159137D+00  0.226101D+00 -0.695487D-01  0.000000D+00
     16   0.000000D+00  0.000000D+00  0.000000D+00  0.000000D+00  0.000000D+00
     17   0.000000D+00  0.000000D+00  0.000000D+00  0.000000D+00  0.000000D+00
     18  -0.218754D+00  0.199551D-01 -0.405717D+00 -0.127567D+00  0.000000D+00
     19  -0.250343D-01 -0.260937D-01  0.681894D+00 -0.454401D+00  0.000000D+00
     20   0.000000D+00  0.000000D+00  0.000000D+00  0.000000D+00  0.000000D+00
     21   0.000000D+00  0.000000D+00  0.000000D+00  0.000000D+00  0.000000D+00
     22   0.000000D+00  0.000000D+00  0.000000D+00  0.000000D+00  0.909812D+00
     23   0.000000D+00  0.000000D+00  0.000000D+00  0.000000D+00  0.000000D+00
     24  -0.191391D-01  0.414594D-03 -0.375395D+00  0.370686D+00  0.000000D+00
     25   0.000000D+00  0.000000D+00  0.000000D+00  0.000000D+00  0.000000D+00
     26   0.000000D+00  0.000000D+00  0.000000D+00  0.000000D+00  0.000000D+00
     27   0.000000D+00  0.000000D+00  0.000000D+00  0.000000D+00 -0.909812D+00
     28   0.000000D+00  0.000000D+00  0.000000D+00  0.000000D+00  0.000000D+00
                11            12            13            14            15 
      1  -0.191066D-01  0.830758D+00  0.682831D+00 -0.101921D+01  0.000000D+00
      2  -0.516722D+00 -0.313585D-01 -0.207199D-01 -0.142377D-01  0.000000D+00
      3   0.900177D+00  0.733743D-01  0.833092D-01  0.968938D-01  0.000000D+00
      4   0.000000D+00  0.000000D+00  0.000000D+00  0.000000D+00  0.000000D+00
      5   0.000000D+00  0.000000D+00  0.000000D+00  0.000000D+00  0.000000D+00
      6   0.906830D-02 -0.194961D+00  0.499318D-01  0.683726D-03  0.000000D+00
      7  -0.812616D+00 -0.126660D+00 -0.122500D+00 -0.441632D-02  0.000000D+00
      8   0.000000D+00  0.000000D+00  0.000000D+00  0.000000D+00  0.000000D+00
      9   0.000000D+00  0.000000D+00  0.000000D+00  0.000000D+00  0.000000D+00
     10  -0.129064D-01  0.390278D+00 -0.152065D+00  0.701489D-02  0.000000D+00
     11   0.772443D-01 -0.339069D-01  0.747397D+00  0.192955D+01  0.000000D+00
     12   0.000000D+00  0.000000D+00  0.000000D+00  0.000000D+00  0.000000D+00
     13   0.000000D+00  0.000000D+00  0.000000D+00  0.000000D+00  0.000000D+00
     14   0.131295D-03 -0.334650D+00  0.139699D+01 -0.106524D+01  0.000000D+00
     15   0.204081D+00 -0.374410D+00 -0.103530D+01 -0.147220D+01  0.000000D+00
     16   0.000000D+00  0.000000D+00  0.000000D+00  0.000000D+00  0.000000D+00
     17   0.000000D+00  0.000000D+00  0.000000D+00  0.000000D+00  0.000000D+00
     18  -0.945448D-02  0.727240D+00 -0.103279D+01  0.584556D+00  0.000000D+00
     19  -0.568761D-01  0.450543D+00  0.135275D+00 -0.156660D+00  0.000000D+00
     20   0.000000D+00  0.000000D+00  0.000000D+00  0.000000D+00  0.000000D+00
     21   0.000000D+00  0.000000D+00  0.000000D+00  0.000000D+00  0.000000D+00
     22   0.000000D+00  0.000000D+00  0.000000D+00  0.000000D+00  0.000000D+00
     23   0.000000D+00  0.000000D+00  0.000000D+00  0.000000D+00  0.598479D+00
     24   0.657214D-01 -0.774895D+00 -0.354755D+00  0.465608D+00  0.000000D+00
     25   0.000000D+00  0.000000D+00  0.000000D+00  0.000000D+00  0.000000D+00
     26   0.000000D+00  0.000000D+00  0.000000D+00  0.000000D+00  0.000000D+00
     27   0.000000D+00  0.000000D+00  0.000000D+00  0.000000D+00  0.000000D+00
     28   0.000000D+00  0.000000D+00  0.000000D+00  0.000000D+00  0.598479D+00
                16            17            18            19            20 
      1   0.000000D+00  0.000000D+00  0.000000D+00  0.000000D+00  0.000000D+00
      2   0.000000D+00  0.000000D+00  0.000000D+00  0.000000D+00  0.000000D+00
      3   0.000000D+00  0.000000D+00  0.000000D+00  0.000000D+00  0.000000D+00
      4   0.000000D+00  0.989007D-01  0.000000D+00  0.631613D+00 -0.834101D+00
      5   0.000000D+00  0.000000D+00  0.000000D+00  0.000000D+00  0.000000D+00
      6   0.000000D+00  0.000000D+00  0.000000D+00  0.000000D+00  0.000000D+00
      7   0.000000D+00  0.000000D+00  0.000000D+00  0.000000D+00  0.000000D+00
      8   0.000000D+00  0.221260D+00  0.000000D+00  0.556385D+00  0.851114D+00
      9   0.000000D+00  0.000000D+00  0.000000D+00  0.000000D+00  0.000000D+00
     10   0.000000D+00  0.000000D+00  0.000000D+00  0.000000D+00  0.000000D+00
     11   0.000000D+00  0.000000D+00  0.000000D+00  0.000000D+00  0.000000D+00
     12   0.000000D+00  0.509061D+00  0.000000D+00 -0.144130D+00  0.341821D-01
     13   0.000000D+00  0.000000D+00  0.000000D+00  0.000000D+00  0.000000D+00
     14   0.000000D+00  0.000000D+00  0.000000D+00  0.000000D+00  0.000000D+00
     15   0.000000D+00  0.000000D+00  0.000000D+00  0.000000D+00  0.000000D+00
     16   0.000000D+00  0.487367D+00  0.000000D+00 -0.230220D+00 -0.252838D+00
     17   0.000000D+00  0.000000D+00  0.000000D+00  0.000000D+00  0.000000D+00
     18   0.000000D+00  0.000000D+00  0.000000D+00  0.000000D+00  0.000000D+00
     19   0.000000D+00  0.000000D+00  0.000000D+00  0.000000D+00  0.000000D+00
     20   0.000000D+00  0.000000D+00  0.598479D+00  0.000000D+00  0.000000D+00
     21   0.000000D+00  0.000000D+00  0.000000D+00  0.000000D+00  0.000000D+00
     22   0.000000D+00  0.000000D+00  0.000000D+00  0.000000D+00  0.000000D+00
     23   0.909812D+00  0.000000D+00  0.000000D+00  0.000000D+00  0.000000D+00
     24   0.000000D+00  0.000000D+00  0.000000D+00  0.000000D+00  0.000000D+00
     25   0.000000D+00  0.000000D+00  0.598479D+00  0.000000D+00  0.000000D+00
     26   0.000000D+00  0.000000D+00  0.000000D+00  0.000000D+00  0.000000D+00
     27   0.000000D+00  0.000000D+00  0.000000D+00  0.000000D+00  0.000000D+00
     28  -0.909812D+00  0.000000D+00  0.000000D+00  0.000000D+00  0.000000D+00
                21            22            23            24            25 
      1   0.000000D+00  0.000000D+00  0.000000D+00  0.000000D+00  0.000000D+00
      2   0.000000D+00  0.000000D+00  0.000000D+00  0.000000D+00  0.000000D+00
      3   0.000000D+00  0.000000D+00  0.000000D+00  0.000000D+00  0.000000D+00
      4   0.000000D+00  0.126826D+00  0.000000D+00  0.000000D+00  0.000000D+00
      5   0.000000D+00  0.000000D+00  0.989007D-01  0.000000D+00  0.631613D+00
      6   0.000000D+00  0.000000D+00  0.000000D+00  0.000000D+00  0.000000D+00
      7   0.000000D+00  0.000000D+00  0.000000D+00  0.000000D+00  0.000000D+00
      8   0.000000D+00 -0.338446D+00  0.000000D+00  0.000000D+00  0.000000D+00
      9   0.000000D+00  0.000000D+00  0.221260D+00  0.000000D+00  0.556385D+00
     10   0.000000D+00  0.000000D+00  0.000000D+00  0.000000D+00  0.000000D+00
     11   0.000000D+00  0.000000D+00  0.000000D+00  0.000000D+00  0.000000D+00
     12   0.000000D+00  0.142883D+01  0.000000D+00  0.000000D+00  0.000000D+00
     13   0.000000D+00  0.000000D+00  0.509061D+00  0.000000D+00 -0.144130D+00
     14   0.000000D+00  0.000000D+00  0.000000D+00  0.000000D+00  0.000000D+00
     15   0.000000D+00  0.000000D+00  0.000000D+00  0.000000D+00  0.000000D+00
     16   0.000000D+00 -0.136452D+01  0.000000D+00  0.000000D+00  0.000000D+00
     17   0.000000D+00  0.000000D+00  0.487367D+00  0.000000D+00 -0.230220D+00
     18   0.000000D+00  0.000000D+00  0.000000D+00  0.000000D+00  0.000000D+00
     19   0.000000D+00  0.000000D+00  0.000000D+00  0.000000D+00  0.000000D+00
     20   0.909812D+00  0.000000D+00  0.000000D+00  0.000000D+00  0.000000D+00
     21   0.000000D+00  0.000000D+00  0.000000D+00  0.598479D+00  0.000000D+00
     22   0.000000D+00  0.000000D+00  0.000000D+00  0.000000D+00  0.000000D+00
     23   0.000000D+00  0.000000D+00  0.000000D+00  0.000000D+00  0.000000D+00
     24   0.000000D+00  0.000000D+00  0.000000D+00  0.000000D+00  0.000000D+00
     25  -0.909812D+00  0.000000D+00  0.000000D+00  0.000000D+00  0.000000D+00
     26   0.000000D+00  0.000000D+00  0.000000D+00  0.598479D+00  0.000000D+00
     27   0.000000D+00  0.000000D+00  0.000000D+00  0.000000D+00  0.000000D+00
     28   0.000000D+00  0.000000D+00  0.000000D+00  0.000000D+00  0.000000D+00
                26            27            28 
      1   0.000000D+00  0.000000D+00  0.000000D+00
      2   0.000000D+00  0.000000D+00  0.000000D+00
      3   0.000000D+00  0.000000D+00  0.000000D+00
      4   0.000000D+00  0.000000D+00  0.000000D+00
      5  -0.834101D+00  0.000000D+00  0.126826D+00
      6   0.000000D+00  0.000000D+00  0.000000D+00
      7   0.000000D+00  0.000000D+00  0.000000D+00
      8   0.000000D+00  0.000000D+00  0.000000D+00
      9   0.851114D+00  0.000000D+00 -0.338446D+00
     10   0.000000D+00  0.000000D+00  0.000000D+00
     11   0.000000D+00  0.000000D+00  0.000000D+00
     12   0.000000D+00  0.000000D+00  0.000000D+00
     13   0.341821D-01  0.000000D+00  0.142883D+01
     14   0.000000D+00  0.000000D+00  0.000000D+00
     15   0.000000D+00  0.000000D+00  0.000000D+00
     16   0.000000D+00  0.000000D+00  0.000000D+00
     17  -0.252838D+00  0.000000D+00 -0.136452D+01
     18   0.000000D+00  0.000000D+00  0.000000D+00
     19   0.000000D+00  0.000000D+00  0.000000D+00
     20   0.000000D+00  0.000000D+00  0.000000D+00
     21   0.000000D+00  0.909812D+00  0.000000D+00
     22   0.000000D+00  0.000000D+00  0.000000D+00
     23   0.000000D+00  0.000000D+00  0.000000D+00
     24   0.000000D+00  0.000000D+00  0.000000D+00
     25   0.000000D+00  0.000000D+00  0.000000D+00
     26   0.000000D+00 -0.909812D+00  0.000000D+00
     27   0.000000D+00  0.000000D+00  0.000000D+00
     28   0.000000D+00  0.000000D+00  0.000000D+00
 NBasis=    28 RedAO= T EigKep=  1.16D-01  NBF=    14     2     6     6
 NBsUse=    28 1.00D-06 EigRej= -1.00D+00 NBFU=    14     2     6     6
 Leave Link  302 at Fri Mar 25 14:58:02 2022, MaxMem=  9663676416 cpu:               5.9 elap:               0.2
 (Enter /nopt/nrel/apps/gaussian/g16C_1/g16/l303.exe)
 DipDrv will not compute anything.
 Fermi contact integrals: 
                 1             2 
      1   0.628247D+00  0.290007D-01
      2   0.000000D+00  0.499382D+02
      3   0.000000D+00  0.100937D+01
      4   0.000000D+00  0.000000D+00
      5   0.000000D+00  0.000000D+00
      6   0.000000D+00  0.000000D+00
      7   0.478591D-02  0.218861D-01
      8   0.000000D+00  0.000000D+00
      9   0.000000D+00  0.000000D+00
     10  -0.150590D-01  0.000000D+00
     11   0.640243D-01 -0.359953D-02
     12   0.000000D+00  0.000000D+00
     13   0.000000D+00  0.000000D+00
     14  -0.859514D-01  0.000000D+00
     15   0.389172D-01  0.468609D-01
     16   0.000000D+00  0.000000D+00
     17   0.000000D+00  0.000000D+00
     18  -0.335453D-01  0.000000D+00
     19   0.160154D-03  0.000000D+00
     20   0.000000D+00  0.000000D+00
     21   0.000000D+00  0.000000D+00
     22   0.000000D+00  0.000000D+00
     23   0.000000D+00  0.000000D+00
     24   0.135709D+00  0.000000D+00
     25   0.000000D+00  0.000000D+00
     26   0.000000D+00  0.000000D+00
     27   0.000000D+00  0.000000D+00
     28   0.000000D+00  0.000000D+00
 Leave Link  303 at Fri Mar 25 14:58:02 2022, MaxMem=  9663676416 cpu:               2.0 elap:               0.1
 (Enter /nopt/nrel/apps/gaussian/g16C_1/g16/l401.exe)
 ExpMin= 2.65D-02 ExpMax= 2.34D+03 ExpMxC= 2.34D+03 IAcc=3 IRadAn=         5 AccDes= 0.00D+00
 Harris functional with IExCor=  205 and IRadAn=       5 diagonalized for initial guess.
 HarFok:  IExCor=  205 AccDes= 0.00D+00 IRadAn=         5 IDoV= 1 UseB2=F ITyADJ=14
 ICtDFT=  3500011 ScaDFX=  1.000000  1.000000  1.000000  1.000000
 FoFCou: FMM=F IPFlag=           0 FMFlag=      100000 FMFlg1=           0
         NFxFlg=           0 DoJE=T BraDBF=F KetDBF=T FulRan=T
         wScrn=  0.000000 ICntrl=       500 IOpCl=  0 I1Cent=   200000004 NGrid=           0
         NMat0=    1 NMatS0=      1 NMatT0=    0 NMatD0=    1 NMtDS0=    0 NMtDT0=    0
 Petite list used in FoFCou.
 Harris En= -844.115423691067    
 JPrj=0 DoOrth=F DoCkMO=F.
 Initial guess orbital symmetries:
 Alpha Orbitals:
       Occupied  (SG) (SG) (SG) (PI) (PI) (SG) (SG) (PI) (PI) (SG)
                 (SG) (PI)
       Virtual   (PI) (DLTA) (DLTA) (SG) (PI) (PI) (SG) (SG) (PI)
                 (PI) (SG) (PI) (PI) (DLTA) (DLTA) (SG)
 Beta  Orbitals:
       Occupied  (SG) (SG) (SG) (PI) (PI) (SG) (SG) (PI) (PI) (SG)
                 (SG)
       Virtual   (PI) (PI) (DLTA) (DLTA) (SG) (PI) (PI) (SG) (SG)
                 (PI) (PI) (SG) (PI) (PI) (DLTA) (DLTA) (SG)
 Initial guess <Sx>= 0.0000 <Sy>= 0.0000 <Sz>= 0.5000 <S**2>= 0.7500 S= 0.5000
 Leave Link  401 at Fri Mar 25 14:58:02 2022, MaxMem=  9663676416 cpu:               3.9 elap:               0.1
 (Enter /nopt/nrel/apps/gaussian/g16C_1/g16/l502.exe)
 Keep R1 and R2 ints in memory in symmetry-blocked form, NReq=7478675.
 FoFCou: FMM=F IPFlag=           0 FMFlag=           0 FMFlg1=           0
         NFxFlg=           0 DoJE=F BraDBF=F KetDBF=F FulRan=T
         wScrn=  0.000000 ICntrl=       600 IOpCl=  0 I1Cent=           0 NGrid=           0
         NMat0=    1 NMatS0=    406 NMatT0=    0 NMatD0=    1 NMtDS0=    0 NMtDT0=    0
 Petite list used in FoFCou.
 UHF open shell SCF:
 Using DIIS extrapolation, IDIIS=  1040.
 NGot=  9663676416 LenX=  9663625622 LenY=  9663624281
 Requested convergence on RMS density matrix=1.00D-08 within 128 cycles.
 Requested convergence on MAX density matrix=1.00D-06.
 Requested convergence on             energy=1.00D-06.
 No special actions if energy rises.

 Cycle   1  Pass 1  IDiag  1:
 E= -844.636732194772    
 DIIS: error= 2.36D-02 at cycle   1 NSaved=   1.
 NSaved= 1 IEnMin= 1 EnMin= -844.636732194772     IErMin= 1 ErrMin= 2.36D-02
 ErrMax= 2.36D-02  0.00D+00 EMaxC= 1.00D-01 BMatC= 9.01D-02 BMatP= 9.01D-02
 IDIUse=3 WtCom= 7.64D-01 WtEn= 2.36D-01
 Coeff-Com:  0.100D+01
 Coeff-En:   0.100D+01
 Coeff:      0.100D+01
 Gap=     0.273 Goal=   None    Shift=    0.000
 Gap=     0.446 Goal=   None    Shift=    0.000
 GapD=    0.273 DampG=1.000 DampE=0.250 DampFc=0.2500 IDamp=-1.
 Damping current iteration by 2.50D-01
 RMSDP=1.07D-02 MaxDP=1.63D-01              OVMax= 1.57D-02

 Cycle   2  Pass 1  IDiag  1:
 E= -844.644878651546     Delta-E=       -0.008146456774 Rises=F Damp=T
 DIIS: error= 1.88D-02 at cycle   2 NSaved=   2.
 NSaved= 2 IEnMin= 2 EnMin= -844.644878651546     IErMin= 2 ErrMin= 1.88D-02
 ErrMax= 1.88D-02  0.00D+00 EMaxC= 1.00D-01 BMatC= 5.14D-02 BMatP= 9.01D-02
 IDIUse=3 WtCom= 8.12D-01 WtEn= 1.88D-01
 Coeff-Com: -0.280D+01 0.380D+01
 Coeff-En:   0.000D+00 0.100D+01
 Coeff:     -0.228D+01 0.328D+01
 Gap=     0.250 Goal=   None    Shift=    0.000
 Gap=     0.240 Goal=   None    Shift=    0.000
 RMSDP=9.27D-03 MaxDP=1.18D-01 DE=-8.15D-03 OVMax= 1.87D-03

 Cycle   3  Pass 1  IDiag  1:
 E= -844.674159238605     Delta-E=       -0.029280587059 Rises=F Damp=F
 DIIS: error= 5.59D-03 at cycle   3 NSaved=   3.
 NSaved= 3 IEnMin= 3 EnMin= -844.674159238605     IErMin= 3 ErrMin= 5.59D-03
 ErrMax= 5.59D-03  0.00D+00 EMaxC= 1.00D-01 BMatC= 1.27D-03 BMatP= 5.14D-02
 IDIUse=3 WtCom= 9.44D-01 WtEn= 5.59D-02
 Coeff-Com:  0.766D+00-0.106D+01 0.129D+01
 Coeff-En:   0.000D+00 0.000D+00 0.100D+01
 Coeff:      0.723D+00-0.100D+01 0.128D+01
 Gap=     0.255 Goal=   None    Shift=    0.000
 Gap=     0.242 Goal=   None    Shift=    0.000
 RMSDP=1.79D-03 MaxDP=1.57D-02 DE=-2.93D-02 OVMax= 2.32D-03

 Cycle   4  Pass 1  IDiag  1:
 E= -844.676013378315     Delta-E=       -0.001854139710 Rises=F Damp=F
 DIIS: error= 2.87D-03 at cycle   4 NSaved=   4.
[...]
 Complete sort for second half transformation.
 Second half transformation complete.
 Spin components of T(2) and E(2):
     alpha-alpha T2 =       0.1774921483D-02 E2=     -0.3554833063D-02
     alpha-beta  T2 =       0.3417110355D-01 E2=     -0.3697197938D-01
     beta-beta   T2 =       0.8984567996D-03 E2=     -0.1005577813D-02
 ANorm=    0.1018255607D+01
 E2 =    -0.4153239025D-01 EUMP2 =    -0.84471787681639D+03
 (S**2,0)=  0.77723D+00           (S**2,1)=  0.77470D+00
 E(PUHF)=      -0.84467654116D+03        E(PMP2)=      -0.84471806444D+03
 Leave Link  804 at Fri Mar 25 14:58:03 2022, MaxMem=  9663676416 cpu:              14.3 elap:               0.4
 (Enter /nopt/nrel/apps/gaussian/g16C_1/g16/l913.exe)
 CIDS:  MDV=  9663676416.
 Frozen-core window:  NFC=   9 NFV=   0.
 IFCWin=0 IBDFC=1 NFBD=     0     0 NFCmp=     0     0 NFFFC=     0     0
 Using original routines for 1st iteration.
 Using DD4UQ or CC4UQ for 2nd and later iterations.
 Keep R2 and R3 ints in memory in symmetry-blocked form, NReq=7481257.
 FoFCou: FMM=F IPFlag=           0 FMFlag=           0 FMFlg1=           0
         NFxFlg=           0 DoJE=F BraDBF=F KetDBF=F FulRan=T
         wScrn=  0.000000 ICntrl=       600 IOpCl=  0 I1Cent=           0 NGrid=           0
         NMat0=    1 NMatS0=    406 NMatT0=    0 NMatD0=    1 NMtDS0=    0 NMtDT0=    0
 Petite list used in FoFCou.
 CIDS: In Core Option IDoMem=           1.
 Coupled Cluster theory with single and double substitutions
 ===========================================================
 Iterations= 200 Convergence= 0.100D-06
 Produce multiple copies of IABC intergrals
 Iteration Nr.   1
 **********************
 DD1Dir will call FoFMem   1 times, MxPair=        16
 NAB=     6 NAA=     3 NBB=     1.
 E(PMP3)=      -0.84473255842D+03
 MP4(R+Q)=  0.92107741D-03
 Maximum subspace dimension=  5
 A-vector RMS=  9.9613918D-03 Max=  2.7291645D-02 conv= 1.00D-05.
 RLE energy=       -0.0617113015
 E3=       -0.14518790D-01        EUMP3=      -0.84473239561D+03
 E4(DQ)=   -0.59178129D-02        UMP4(DQ)=   -0.84473831342D+03
 E4(SDQ)=  -0.65169065D-02        UMP4(SDQ)=  -0.84473891251D+03
 VARIATIONAL ENERGIES WITH THE FIRST-ORDER WAVEFUNCTION:
 DE(Corr)= -0.55113032E-01 E(Corr)=     -844.73145746    
 NORM(A)=   0.10483611D+01
 Iteration Nr.   2
 **********************
 DD1Dir will call FoFMem   1 times, MxPair=        16
 NAB=     6 NAA=     3 NBB=     1.
 A-vector RMS=  6.0666649D-03 Max=  1.3544358D-02 conv= 1.00D-05.
 RLE energy=       -0.0680439358
 DE(Corr)= -0.64255260E-01 E(CORR)=     -844.74059969     Delta=-9.14D-03
 NORM(A)=   0.10675505D+01
 Iteration Nr.   3
 **********************
 DD1Dir will call FoFMem   1 times, MxPair=        16
 NAB=     6 NAA=     3 NBB=     1.
 A-vector RMS=  4.7903858D-03 Max=  1.0389562D-02 conv= 1.00D-05.
 RLE energy=       -0.0701774948
 DE(Corr)= -0.68186488E-01 E(CORR)=     -844.74453091     Delta=-3.93D-03
 NORM(A)=   0.10818597D+01
 Iteration Nr.   4
 **********************
 DD1Dir will call FoFMem   1 times, MxPair=        16
 NAB=     6 NAA=     3 NBB=     1.
 A-vector RMS=  3.6204904D-03 Max=  7.4609289D-03 conv= 1.00D-05.
 RLE energy=       -0.0715212311
 DE(Corr)= -0.70183406E-01 E(CORR)=     -844.74652783     Delta=-2.00D-03
 NORM(A)=   0.10980603D+01
 Iteration Nr.   5
 **********************
 DD1Dir will call FoFMem   1 times, MxPair=        16
 NAB=     6 NAA=     3 NBB=     1.
 A-vector RMS=  2.0777566D-03 Max=  5.5670860D-03 conv= 1.00D-05.
 RLE energy=       -0.0716742124
 DE(Corr)= -0.71442391E-01 E(CORR)=     -844.74778682     Delta=-1.26D-03
 NORM(A)=   0.11066141D+01
 Iteration Nr.   6
 **********************
 DD1Dir will call FoFMem   1 times, MxPair=        16
 NAB=     6 NAA=     3 NBB=     1.
 A-vector RMS=  1.1567108D-03 Max=  4.9121776D-03 conv= 1.00D-05.
 RLE energy=       -0.0720868143
 DE(Corr)= -0.71743553E-01 E(CORR)=     -844.74808798     Delta=-3.01D-04
 NORM(A)=   0.11125499D+01
 Iteration Nr.   7
 **********************
 DD1Dir will call FoFMem   1 times, MxPair=        16
 NAB=     6 NAA=     3 NBB=     1.
 A-vector RMS=  1.0248105D-03 Max=  3.6899946D-03 conv= 1.00D-05.
 RLE energy=       -0.0720071203
 DE(Corr)= -0.72018526E-01 E(CORR)=     -844.74836295     Delta=-2.75D-04
 NORM(A)=   0.11139848D+01
 Iteration Nr.   8
 **********************
 DD1Dir will call FoFMem   1 times, MxPair=        16
 NAB=     6 NAA=     3 NBB=     1.
 A-vector RMS=  7.3770163D-04 Max=  2.2637472D-03 conv= 1.00D-05.
 RLE energy=       -0.0721249854
 DE(Corr)= -0.72008071E-01 E(CORR)=     -844.74835250     Delta= 1.05D-05
 NORM(A)=   0.11164858D+01
 Iteration Nr.   9
 **********************
 DD1Dir will call FoFMem   1 times, MxPair=        16
 NAB=     6 NAA=     3 NBB=     1.
 A-vector RMS=  4.6988542D-04 Max=  1.1752302D-03 conv= 1.00D-05.
 RLE energy=       -0.0721383118
 DE(Corr)= -0.72109108E-01 E(CORR)=     -844.74845353     Delta=-1.01D-04
 NORM(A)=   0.11179731D+01
 Iteration Nr.  10
 **********************
 DD1Dir will call FoFMem   1 times, MxPair=        16
 NAB=     6 NAA=     3 NBB=     1.
 A-vector RMS=  2.7948498D-04 Max=  6.7902426D-04 conv= 1.00D-05.
 RLE energy=       -0.0721390766
 DE(Corr)= -0.72143008E-01 E(CORR)=     -844.74848743     Delta=-3.39D-05
 NORM(A)=   0.11188637D+01
 Iteration Nr.  11
 **********************
 DD1Dir will call FoFMem   1 times, MxPair=        16
 NAB=     6 NAA=     3 NBB=     1.
 A-vector RMS=  1.8321140D-04 Max=  6.3379364D-04 conv= 1.00D-05.
 RLE energy=       -0.0721328517
 DE(Corr)= -0.72149700E-01 E(CORR)=     -844.74849413     Delta=-6.69D-06
 NORM(A)=   0.11194965D+01
 Iteration Nr.  12
 **********************
 DD1Dir will call FoFMem   1 times, MxPair=        16
 NAB=     6 NAA=     3 NBB=     1.
 A-vector RMS=  1.0876478D-04 Max=  4.9947954D-04 conv= 1.00D-05.
 RLE energy=       -0.0721220950
 DE(Corr)= -0.72140558E-01 E(CORR)=     -844.74848498     Delta= 9.14D-06
 NORM(A)=   0.11197490D+01
 Iteration Nr.  13
 **********************
 DD1Dir will call FoFMem   1 times, MxPair=        16
 NAB=     6 NAA=     3 NBB=     1.
 A-vector RMS=  1.0226637D-04 Max=  3.7007595D-04 conv= 1.00D-05.
 RLE energy=       -0.0721222821
 DE(Corr)= -0.72131439E-01 E(CORR)=     -844.74847587     Delta= 9.12D-06
 NORM(A)=   0.11199368D+01
 Iteration Nr.  14
 **********************
 DD1Dir will call FoFMem   1 times, MxPair=        16
 NAB=     6 NAA=     3 NBB=     1.
 A-vector RMS=  7.8509560D-05 Max=  2.0754009D-04 conv= 1.00D-05.
 RLE energy=       -0.0721230223
 DE(Corr)= -0.72128675E-01 E(CORR)=     -844.74847310     Delta= 2.76D-06
 NORM(A)=   0.11199754D+01
 Iteration Nr.  15
 **********************
 DD1Dir will call FoFMem   1 times, MxPair=        16
 NAB=     6 NAA=     3 NBB=     1.
 A-vector RMS=  5.6054805D-05 Max=  1.0434995D-04 conv= 1.00D-05.
 RLE energy=       -0.0721211812
 DE(Corr)= -0.72126525E-01 E(CORR)=     -844.74847095     Delta= 2.15D-06
 NORM(A)=   0.11199884D+01
 Iteration Nr.  16
 **********************
 DD1Dir will call FoFMem   1 times, MxPair=        16
 NAB=     6 NAA=     3 NBB=     1.
 A-vector RMS=  4.6297556D-05 Max=  9.2492288D-05 conv= 1.00D-05.
 RLE energy=       -0.0721193506
 DE(Corr)= -0.72123248E-01 E(CORR)=     -844.74846767     Delta= 3.28D-06
 NORM(A)=   0.11200411D+01
 Iteration Nr.  17
 **********************
 DD1Dir will call FoFMem   1 times, MxPair=        16
 NAB=     6 NAA=     3 NBB=     1.
 A-vector RMS=  3.6194355D-05 Max=  7.9131069D-05 conv= 1.00D-05.
 RLE energy=       -0.0721186861
 DE(Corr)= -0.72120330E-01 E(CORR)=     -844.74846476     Delta= 2.92D-06
 NORM(A)=   0.11201357D+01
 Iteration Nr.  18
 **********************
 DD1Dir will call FoFMem   1 times, MxPair=        16
 NAB=     6 NAA=     3 NBB=     1.
 A-vector RMS=  3.1004035D-05 Max=  6.2057511D-05 conv= 1.00D-05.
 RLE energy=       -0.0721223665
 DE(Corr)= -0.72119988E-01 E(CORR)=     -844.74846441     Delta= 3.42D-07
 NORM(A)=   0.11202625D+01
 Iteration Nr.  19
 **********************
 DD1Dir will call FoFMem   1 times, MxPair=        16
 NAB=     6 NAA=     3 NBB=     1.
 A-vector RMS=  2.4638984D-05 Max=  6.4567241D-05 conv= 1.00D-05.
 RLE energy=       -0.0721230278
 DE(Corr)= -0.72122865E-01 E(CORR)=     -844.74846729     Delta=-2.88D-06
 NORM(A)=   0.11203270D+01
 Iteration Nr.  20
 **********************
 DD1Dir will call FoFMem   1 times, MxPair=        16
 NAB=     6 NAA=     3 NBB=     1.
 A-vector RMS=  2.2515124D-05 Max=  7.0704529D-05 conv= 1.00D-05.
 RLE energy=       -0.0721227576
 DE(Corr)= -0.72123567E-01 E(CORR)=     -844.74846799     Delta=-7.02D-07
 NORM(A)=   0.11203531D+01
 Iteration Nr.  21
 **********************
 DD1Dir will call FoFMem   1 times, MxPair=        16
 NAB=     6 NAA=     3 NBB=     1.
 A-vector RMS=  1.9429497D-05 Max=  6.6314247D-05 conv= 1.00D-05.
 RLE energy=       -0.0721211997
 DE(Corr)= -0.72122599E-01 E(CORR)=     -844.74846703     Delta= 9.67D-07
 NORM(A)=   0.11203590D+01
 Iteration Nr.  22
 **********************
 DD1Dir will call FoFMem   1 times, MxPair=        16
 NAB=     6 NAA=     3 NBB=     1.
 A-vector RMS=  1.6664554D-05 Max=  5.5344655D-05 conv= 1.00D-05.
 RLE energy=       -0.0721218629
 DE(Corr)= -0.72121170E-01 E(CORR)=     -844.74846560     Delta= 1.43D-06
 NORM(A)=   0.11203768D+01
 Iteration Nr.  23
 **********************
 DD1Dir will call FoFMem   1 times, MxPair=        16
 NAB=     6 NAA=     3 NBB=     1.
 A-vector RMS=  1.3904352D-05 Max=  4.1336945D-05 conv= 1.00D-05.
 RLE energy=       -0.0721232916
 DE(Corr)= -0.72121694E-01 E(CORR)=     -844.74846612     Delta=-5.24D-07
 NORM(A)=   0.11203979D+01
 Iteration Nr.  24
 **********************
 DD1Dir will call FoFMem   1 times, MxPair=        16
 NAB=     6 NAA=     3 NBB=     1.
 A-vector RMS=  9.1642083D-06 Max=  2.9751909D-05 conv= 1.00D-05.
 RLE energy=       -0.0721243840
 DE(Corr)= -0.72123216E-01 E(CORR)=     -844.74846764     Delta=-1.52D-06
 NORM(A)=   0.11204104D+01
 Iteration Nr.  25
 **********************
 DD1Dir will call FoFMem   1 times, MxPair=        16
 NAB=     6 NAA=     3 NBB=     1.
 A-vector RMS=  5.2172387D-06 Max=  2.1376648D-05 conv= 1.00D-05.
 RLE energy=       -0.0721243800
 DE(Corr)= -0.72124250E-01 E(CORR)=     -844.74846868     Delta=-1.03D-06
 NORM(A)=   0.11204120D+01
 Iteration Nr.  26
 **********************
 DD1Dir will call FoFMem   1 times, MxPair=        16
 NAB=     6 NAA=     3 NBB=     1.
 A-vector RMS=  5.2019771D-06 Max=  1.5595668D-05 conv= 1.00D-05.
 RLE energy=       -0.0721243824
 DE(Corr)= -0.72124365E-01 E(CORR)=     -844.74846879     Delta=-1.16D-07
 NORM(A)=   0.11204108D+01
 Iteration Nr.  27
 **********************
 DD1Dir will call FoFMem   1 times, MxPair=        16
 NAB=     6 NAA=     3 NBB=     1.
 A-vector RMS=  4.6021699D-06 Max=  1.1488818D-05 conv= 1.00D-05.
 RLE energy=       -0.0721244168
 DE(Corr)= -0.72124352E-01 E(CORR)=     -844.74846878     Delta= 1.31D-08
 NORM(A)=   0.11204080D+01
 Iteration Nr.  28
 **********************
 DD1Dir will call FoFMem   1 times, MxPair=        16
 NAB=     6 NAA=     3 NBB=     1.
 A-vector RMS=  3.7951562D-06 Max=  1.1149589D-05 conv= 1.00D-05.
 RLE energy=       -0.0721247680
 DE(Corr)= -0.72124458E-01 E(CORR)=     -844.74846888     Delta=-1.06D-07
 NORM(A)=   0.11204041D+01
 Iteration Nr.  29
 **********************
 DD1Dir will call FoFMem   1 times, MxPair=        16
 NAB=     6 NAA=     3 NBB=     1.
 A-vector RMS=  3.6557525D-06 Max=  8.1042124D-06 conv= 1.00D-05.
 RLE energy=       -0.0721248874
 DE(Corr)= -0.72124780E-01 E(CORR)=     -844.74846921     Delta=-3.22D-07
 NORM(A)=   0.11203984D+01
 Iteration Nr.  30
 **********************
 DD1Dir will call FoFMem   1 times, MxPair=        16
 NAB=     6 NAA=     3 NBB=     1.
 A-vector RMS=  3.2656013D-06 Max=  6.9962823D-06 conv= 1.00D-05.
 RLE energy=       -0.0721248957
 DE(Corr)= -0.72124909E-01 E(CORR)=     -844.74846934     Delta=-1.30D-07
 NORM(A)=   0.11203905D+01
 Iteration Nr.  31
 **********************
 DD1Dir will call FoFMem   1 times, MxPair=        16
 NAB=     6 NAA=     3 NBB=     1.
 A-vector RMS=  2.8237814D-06 Max=  7.7324758D-06 conv= 1.00D-05.
 RLE energy=       -0.0721247631
 DE(Corr)= -0.72124891E-01 E(CORR)=     -844.74846932     Delta= 1.84D-08
 NORM(A)=   0.11203817D+01
 CI/CC converged in   31 iterations to DelEn= 1.84D-08 Conv= 1.00D-07 ErrA1= 2.82D-06 Conv= 1.00D-05
 Wavefunction amplitudes converged. E(Corr)=     -844.74846932    
 Dominant configurations:
 ***********************
 Spin Case        I    J    A    B          Value
    AA           12        15           -0.139761D+00
    AA           12        17           -0.134020D+00
    BB           11        14            0.106200D+00
   ABAB          12   11   15   14      -0.144522D+00
   ABAB          12   11   17   14      -0.114514D+00
   ABAB          12   11   13   12      -0.101023D+00
 Largest amplitude= 1.45D-01

 S**2, projected HF & approx projected MPn energies after annihilation of
 unwanted spin states (see manual for definitions):

 spins       (S**2,0) (S**2,1)    PUHF        PMP2        PMP3        PMP4
 annihilated
 s+1         0.74999  0.75001 -844.676541 -844.718064 -844.732558
 s+1,s+2     0.75000  0.75000 -844.676540 -844.718064 -844.732558

 Discarding MO integrals.
 Leave Link  913 at Fri Mar 25 14:58:03 2022, MaxMem=  9663676416 cpu:               9.8 elap:               0.3
 (Enter /nopt/nrel/apps/gaussian/g16C_1/g16/l601.exe)
 Copying SCF densities to generalized density rwf, IOpCl= 1 IROHF=0.

 **********************************************************************

            Population analysis using the SCF Density.

 **********************************************************************

 Orbital symmetries:
 Alpha Orbitals:
       Occupied  (SG) (SG) (PI) (PI) (SG) (SG) (PI) (SG) (PI) (?A)
                 (?B) (?A)
       Virtual   (PI) (PI) (?A) (?A) (?A) (?B) (?B) (?A) (?A) (?B)
                 (?A) (?B) (?C) (?C) (?B) (?C)
 Beta  Orbitals:
       Occupied  (SG) (SG) (PI) (PI) (SG) (SG) (PI) (SG) (PI) (?A)
                 (?A)
       Virtual   (PI) (PI) (?A) (?A) (PI) (?A) (PI) (?A) (?A) (PI)
                 (PI) (?A) (?B) (?B) (PI) (PI) (?B)
 Unable to determine electronic state:  an orbital has unidentified symmetry.
 Alpha  occ. eigenvalues -- -182.10823 -21.39751 -17.74739 -17.74619 -17.73340
 Alpha  occ. eigenvalues --   -2.93897  -1.87515  -1.87470  -1.82835  -0.43947
 Alpha  occ. eigenvalues --   -0.41894  -0.22368
 Alpha virt. eigenvalues --    0.02630   0.02716   0.04238   0.10139   0.14789
 Alpha virt. eigenvalues --    0.15418   0.15545   0.17688   0.18324   0.19934
 Alpha virt. eigenvalues --    0.60741   1.66449   1.75493   1.75804   1.77274
 Alpha virt. eigenvalues --    1.97967
  Beta  occ. eigenvalues -- -182.10799 -21.38264 -17.74481 -17.72524 -17.71342
  Beta  occ. eigenvalues --   -2.87888  -1.81909  -1.77474  -1.76192  -0.43252
  Beta  occ. eigenvalues --   -0.22458
  Beta virt. eigenvalues --    0.02740   0.02921   0.04162   0.10105   0.15559
  Beta virt. eigenvalues --    0.16022   0.16127   0.20002   0.20198   0.22413
  Beta virt. eigenvalues --    0.26498   0.60844   1.77102   1.77262   1.78838
  Beta virt. eigenvalues --    1.82643   1.98052
          Condensed to atoms (all electrons):
               1          2
     1  H    0.778113   0.291045
     2  Ti   0.291045  21.639797
          Atomic-Atomic Spin Densities.
               1          2
     1  H    0.010384   0.001057
     2  Ti   0.001057   0.987503
 Mulliken charges and spin densities:
               1          2
     1  H   -0.069158   0.011440
     2  Ti   0.069158   0.988560
 Sum of Mulliken charges =  -0.00000   1.00000
 Mulliken charges and spin densities with hydrogens summed into heavy atoms:
               1          2
     2  Ti  -0.000000   1.000000
 N-N= 8.315641885886D+00 E-N=-2.018680537695D+03  KE= 8.445943722862D+02
 Symmetry A1   KE= 6.548641258560D+02
 Symmetry A2   KE= 4.058720127146D-33
 Symmetry B1   KE= 9.287532844613D+01
 Symmetry B2   KE= 9.685491798408D+01
 Symmetry A1   SP= 4.892288453012D-14
 Symmetry A2   SP= 2.159503971938D-34
 Symmetry B1   SP=-8.765212282186D-15
 Symmetry B2   SP= 1.000000000000D+00

 Atomic contributions to Alpha molecular orbitals:
 Alpha occ 1 OE=-182.108 is Ti2-s=1.0000
 Alpha occ 2 OE=-21.398 is Ti2-s=1.0000
 Alpha occ 3 OE=-17.747 is Ti2-p=1.0000
 Alpha occ 4 OE=-17.746 is Ti2-p=1.0000
 Alpha occ 5 OE=-17.733 is Ti2-p=1.0000
 Alpha occ 6 OE=-2.939 is Ti2-s=0.9975
 Alpha occ 7 OE=-1.875 is Ti2-p=1.0000
 Alpha occ 8 OE=-1.875 is Ti2-p=0.9855
 Alpha occ 9 OE=-1.828 is Ti2-p=0.9999
 Alpha occ 10 OE=-0.439 is H1-s=0.5283 Ti2-d=0.2534 Ti2-s=0.1280
 Alpha occ 11 OE=-0.419 is Ti2-d=0.9999
 Alpha occ 12 OE=-0.224 is Ti2-s=0.7564 Ti2-d=0.1822
 Alpha vir 13 OE=0.026 is Ti2-p=0.9999
 Alpha vir 14 OE=0.027 is Ti2-p=1.0000
 Alpha vir 15 OE=0.042 is Ti2-p=0.8453 Ti2-d=0.1594
 Alpha vir 16 OE=0.101 is Ti2-s=0.8876
 Alpha vir 17 OE=0.148 is Ti2-p=0.6594 Ti2-d=0.2408
 Alpha vir 18 OE=0.154 is Ti2-p=0.9972
 Alpha vir 19 OE=0.155 is Ti2-p=1.0000
 Alpha vir 20 OE=0.177 is Ti2-d=1.0000
 Alpha vir 21 OE=0.183 is Ti2-d=0.8762 Ti2-p=0.1166
 Alpha vir 22 OE=0.199 is Ti2-d=0.9971
 Alpha vir 23 OE=0.607 is H1-s=0.4431 Ti2-d=0.2310 Ti2-p=0.2029 Ti2-s=0.1230
 Alpha vir 24 OE=1.664 is Ti2-d=1.0000
 Alpha vir 25 OE=1.755 is Ti2-d=0.9998
 Alpha vir 26 OE=1.758 is Ti2-d=1.0000
 Alpha vir 27 OE=1.773 is Ti2-d=1.0000
 Alpha vir 28 OE=1.980 is Ti2-d=0.9809

 Atomic contributions to Beta  molecular orbitals:
 Beta  occ 1 OE=-182.108 is Ti2-s=1.0000
 Beta  occ 2 OE=-21.383 is Ti2-s=1.0000
 Beta  occ 3 OE=-17.745 is Ti2-p=1.0000
 Beta  occ 4 OE=-17.725 is Ti2-p=1.0000
 Beta  occ 5 OE=-17.713 is Ti2-p=1.0000
 Beta  occ 6 OE=-2.879 is Ti2-s=0.9970
 Beta  occ 7 OE=-1.819 is Ti2-p=0.9999
 Beta  occ 8 OE=-1.775 is Ti2-p=0.9828
 Beta  occ 9 OE=-1.762 is Ti2-p=0.9999
 Beta  occ 10 OE=-0.433 is H1-s=0.5176 Ti2-d=0.2851 Ti2-s=0.1047
 Beta  occ 11 OE=-0.225 is Ti2-s=0.7550 Ti2-d=0.2403
 Beta  vir 12 OE=0.027 is Ti2-p=1.0000
 Beta  vir 13 OE=0.029 is Ti2-p=1.0000
 Beta  vir 14 OE=0.042 is Ti2-p=0.8721 Ti2-d=0.1164
 Beta  vir 15 OE=0.101 is Ti2-s=0.8570
 Beta  vir 16 OE=0.156 is Ti2-p=0.9999
 Beta  vir 17 OE=0.160 is Ti2-p=0.7219 Ti2-d=0.1390 Ti2-s=0.1337
 Beta  vir 18 OE=0.161 is Ti2-p=1.0000
 Beta  vir 19 OE=0.200 is Ti2-d=1.0000
 Beta  vir 20 OE=0.202 is Ti2-d=0.9640
 Beta  vir 21 OE=0.224 is Ti2-d=0.9999
 Beta  vir 22 OE=0.265 is Ti2-d=0.9999
 Beta  vir 23 OE=0.608 is H1-s=0.4487 Ti2-d=0.2155 Ti2-p=0.2089 Ti2-s=0.1269
 Beta  vir 24 OE=1.771 is Ti2-d=0.9998
 Beta  vir 25 OE=1.773 is Ti2-d=1.0000
 Beta  vir 26 OE=1.788 is Ti2-d=1.0000
 Beta  vir 27 OE=1.826 is Ti2-d=1.0000
 Beta  vir 28 OE=1.981 is Ti2-d=0.9808
 
 Leave Link  601 at Fri Mar 25 14:58:03 2022, MaxMem=  9663676416 cpu:               2.6 elap:               0.1
 (Enter /nopt/nrel/apps/gaussian/g16C_1/g16/l9999.exe)

 Test job not archived.
 1\1\GINC-R1I7N35\SP\UCCSD-FC\Gen\H1Ti1(2)\USER\25-Mar-2022\0\\#P C
 CSD(MaxCyc=200)/GEN sp pop=AllOrbitals iop(3/33=1,3/36=-1)\\test\\0,2\
 H,0,0.,0.,0.\Ti,0,0.,0.,1.4\\Version=ES64L-G16RevC.01\HF=-844.6763444\
 MP2=-844.7178768\MP3=-844.7323956\MP4D=-844.7392345\MP4DQ=-844.7383134
 \PUHF=-844.6765412\PMP2-0=-844.7180644\PMP3-0=-844.7325584\MP4SDQ=-844
 .7389125\CCSD=-844.7484693\S2=0.777227\S2-1=0.774703\S2A=0.750058\RMSD
 =7.007e-09\PG=C*V [C*(H1Ti1)]\\@


 AND HERE I AM, FOR ALL MY LORE,
 THE WRETCHED FOOL I WAS BEFORE.
 CALLED MASTER OF ARTS, AND DOCTOR TO BOOT,
 FOR TEN YEARS ALMOST I CONFUTE
 AND UP AND DOWN, WHEREVER IT GOES
 I DRAG MY STUDENTS BY THE NOSE --
 AND SEE THAT FOR ALL OUR SCIENCE AND ART
 WE CAN KNOW NOTHING.  IT BURNS MY HEART.

                                       -- FAUST
 Job cpu time:       0 days  0 hours  0 minutes 59.3 seconds.
 Elapsed time:       0 days  0 hours  0 minutes  2.0 seconds.
 File lengths (MBytes):  RWF=     13 Int=      0 D2E=      0 Chk=      1 Scr=      1
 Normal termination of Gaussian 16 at Fri Mar 25 14:58:03 2022.
