 Entering Gaussian System, Link 0=g16
 Initial command:
 /nopt/nrel/apps/gaussian/g16C_1/g16/l1.exe "/lustre/eaglefs/scratch/user/qc/tih-dissc-sto3g/tih-2-ccsd-2.9-321g/Gau-226851.inp" -scrdir="/lustre/eaglefs/scratch/user/qc/tih-dissc-sto3g/tih-2-ccsd-2.9-321g/"
 Default is to use a total of  36 processors:
                               36 via shared-memory
                                1 via Linda
 Entering Link 1 = /nopt/nrel/apps/gaussian/g16C_1/g16/l1.exe PID=    226852.
  
 Copyright (c) 1988-2019, Gaussian, Inc.  All Rights Reserved.
  
 This is part of the Gaussian(R) 16 program.  It is based on
 the Gaussian(R) 09 system (copyright 2009, Gaussian, Inc.),
 the Gaussian(R) 03 system (copyright 2003, Gaussian, Inc.),
 the Gaussian(R) 98 system (copyright 1998, Gaussian, Inc.),
 the Gaussian(R) 94 system (copyright 1995, Gaussian, Inc.),
 the Gaussian 92(TM) system (copyright 1992, Gaussian, Inc.),
 the Gaussian 90(TM) system (copyright 1990, Gaussian, Inc.),
 the Gaussian 88(TM) system (copyright 1988, Gaussian, Inc.),
 the Gaussian 86(TM) system (copyright 1986, Carnegie Mellon
 University), and the Gaussian 82(TM) system (copyright 1983,
 Carnegie Mellon University). Gaussian is a federally registered
 trademark of Gaussian, Inc.
  
 This software contains proprietary and confidential information,
 including trade secrets, belonging to Gaussian, Inc.
  
 This software is provided under written license and may be
 used, copied, transmitted, or stored only in accord with that
 written license.
  
 The following legend is applicable only to US Government
 contracts under FAR:
  
                    RESTRICTED RIGHTS LEGEND
  
 Use, reproduction and disclosure by the US Government is
 subject to restrictions as set forth in subparagraphs (a)
 and (c) of the Commercial Computer Software - Restricted
 Rights clause in FAR 52.227-19.
  
 Gaussian, Inc.
 340 Quinnipiac St., Bldg. 40, Wallingford CT 06492
  
  
 ---------------------------------------------------------------
 Warning -- This program may not be used in any manner that
 competes with the business of Gaussian, Inc. or will provide
 assistance to any competitor of Gaussian, Inc.  The licensee
 of this program is prohibited from giving any competitor of
 Gaussian, Inc. access to this program.  By using this program,
 the user acknowledges that Gaussian, Inc. is engaged in the
 business of creating and licensing software in the field of
 computational chemistry and represents and warrants to the
 licensee that it is not a competitor of Gaussian, Inc. and that
 it will not use this program in any manner prohibited above.
 ---------------------------------------------------------------
  

 Cite this work as:
 Gaussian 16, Revision C.01,
 M. J. Frisch, G. W. Trucks, H. B. Schlegel, G. E. Scuseria, 
 M. A. Robb, J. R. Cheeseman, G. Scalmani, V. Barone, 
 G. A. Petersson, H. Nakatsuji, X. Li, M. Caricato, A. V. Marenich, 
 J. Bloino, B. G. Janesko, R. Gomperts, B. Mennucci, H. P. Hratchian, 
 J. V. Ortiz, A. F. Izmaylov, J. L. Sonnenberg, D. Williams-Young, 
 F. Ding, F. Lipparini, F. Egidi, J. Goings, B. Peng, A. Petrone, 
 T. Henderson, D. Ranasinghe, V. G. Zakrzewski, J. Gao, N. Rega, 
 G. Zheng, W. Liang, M. Hada, M. Ehara, K. Toyota, R. Fukuda, 
 J. Hasegawa, M. Ishida, T. Nakajima, Y. Honda, O. Kitao, H. Nakai, 
 T. Vreven, K. Throssell, J. A. Montgomery, Jr., J. E. Peralta, 
 F. Ogliaro, M. J. Bearpark, J. J. Heyd, E. N. Brothers, K. N. Kudin, 
 V. N. Staroverov, T. A. Keith, R. Kobayashi, J. Normand, 
 K. Raghavachari, A. P. Rendell, J. C. Burant, S. S. Iyengar, 
 J. Tomasi, M. Cossi, J. M. Millam, M. Klene, C. Adamo, R. Cammi, 
 J. W. Ochterski, R. L. Martin, K. Morokuma, O. Farkas, 
 J. B. Foresman, and D. J. Fox, Gaussian, Inc., Wallingford CT, 2019.
 
 ******************************************
 Gaussian 16:  ES64L-G16RevC.01  3-Jul-2019
                25-Mar-2022 
 ******************************************
 %chk=molecule
 Default route: CacheSize=180224 MaxDisk=256GB
 --------------------------------------------------------------
 #P CCSD(MaxCyc=200)/GEN sp pop=AllOrbitals iop(3/33=1,3/36=-1)
 --------------------------------------------------------------
 1/4=180224,38=1,172=1/1;
 2/4=180224,12=2,17=6,18=5,40=1/2;
 3/4=180224,5=7,11=9,25=1,30=1,33=1,36=-1/1,2,3;
 4/4=180224/1;
 5/4=180224,5=2,38=5/2;
 8/4=180224,6=4,9=120000,10=1/1,4;
 9/4=180224,5=7,6=200/13;
 6/4=180224,7=2,8=2,9=2,10=2,96=-1/1;
 99/4=180224,5=1,9=1/99;
 Leave Link    1 at Fri Mar 25 14:58:36 2022, MaxMem=           0 cpu:               3.0 elap:               0.1
 (Enter /nopt/nrel/apps/gaussian/g16C_1/g16/l101.exe)
 ----
 test
 ----
 Symbolic Z-matrix:
 Charge =  0 Multiplicity = 2
 H                     0.        0.        0. 
 Ti                    0.        0.        2.9 
 
 ITRead=  0  0
 MicOpt= -1 -1
 NAtoms=      2 NQM=        2 NQMF=       0 NMMI=      0 NMMIF=      0
                NMic=       0 NMicF=      0.
                    Isotopes and Nuclear Properties:
 (Nuclear quadrupole moments (NQMom) in fm**2, nuclear magnetic moments (NMagM)
  in nuclear magnetons)

  Atom         1           2
 IAtWgt=           1          48
 AtmWgt=   1.0078250  47.9479467
 NucSpn=           1           0
 AtZEff=  -0.0000000  -0.0000000
 NQMom=    0.0000000   0.0000000
 NMagM=    2.7928460   0.0000000
 AtZNuc=   1.0000000  22.0000000
 Leave Link  101 at Fri Mar 25 14:58:37 2022, MaxMem=  9663676416 cpu:               3.3 elap:               0.1
 (Enter /nopt/nrel/apps/gaussian/g16C_1/g16/l202.exe)
                          Input orientation:                          
 ---------------------------------------------------------------------
 Center     Atomic      Atomic             Coordinates (Angstroms)
 Number     Number       Type             X           Y           Z
 ---------------------------------------------------------------------
      1          1           0        0.000000    0.000000    0.000000
      2         22           0        0.000000    0.000000    2.900000
 ---------------------------------------------------------------------
 Stoichiometry    HTi(2)
 Framework group  C*V[C*(HTi)]
 Deg. of freedom     1
 Full point group                 C*V     NOp   4
 Largest Abelian subgroup         C2V     NOp   4
 Largest concise Abelian subgroup C1      NOp   1
                         Standard orientation:                         
 ---------------------------------------------------------------------
 Center     Atomic      Atomic             Coordinates (Angstroms)
 Number     Number       Type             X           Y           Z
 ---------------------------------------------------------------------
      1          1           0        0.000000    0.000000   -2.773913
      2         22           0        0.000000    0.000000    0.126087
 ---------------------------------------------------------------------
 Rotational constants (GHZ):           0.0000000          60.8793417          60.8793417
 Leave Link  202 at Fri Mar 25 14:58:37 2022, MaxMem=  9663676416 cpu:               1.1 elap:               0.1
 (Enter /nopt/nrel/apps/gaussian/g16C_1/g16/l301.exe)
 General basis read from cards:  (5D, 7F)
                         Coordinates in L301:                         
 ---------------------------------------------------------------------
 Center     Atomic      Atomic             Coordinates (Angstroms)
 Number     Number       Type             X           Y           Z
 ---------------------------------------------------------------------
      1          1           0        0.000000    0.000000   -2.773913
      2         22           0        0.000000    0.000000    0.126087
 ---------------------------------------------------------------------
 Centers:       1
 STO-3G
 ****
 Centers:       2
 3-21G
 ****
 FixB: optimizing general contractions.
 Ernie: Thresh=  0.10000D-02 Tol=  0.10000D-05 Strict=F.
 IA=     1 ShT= 0 ShC= 0 NL=   1 NS=   0.
 IA=     1 L=0 SC=0 ISt=    0 NBk=    0 NP=    0 IndPr=    0.
 IA=     2 ShT= 0 ShC= 0 NL=   1 NS=   0.
 IA=     2 L=0 SC=0 ISt=    0 NBk=    0 NP=    0 IndPr=    0.
 IA=     2 ShT= 1 ShC= 0 NL=   4 NS=   1.
 IA=     2 L=1 SC=0 ISt=    1 NBk=    3 NP=    8 IndPr=    0.
 DoElim1:  L=1 select primitive    1 from    2 using    1 C=-1.09D-01
 DoElim1:  L=1 select primitive    1 from    3 using    1 C=-1.09D-01
 DoElim1:  L=1 select primitive    4 from    3 using    2 C=-2.86D-01
 DoElim2:  L=1 select primitive    8 from    2 using    3 C= 1.10D+00
 DoElim2:  L=1 select primitive    8 from    1 using    3 C= 1.10D+00
 DoElim2:  L=1 select primitive    6 from    1 using    2 C= 8.60D-01
 DoElim1:  L=1 select primitive    1 from    2 using    1 C= 1.37D-01
 DoElim1:  L=1 select primitive    1 from    3 using    1 C= 1.37D-01
 DoElim1:  L=1 select primitive    4 from    3 using    2 C= 1.92D-02
 DoElim2:  L=1 select primitive    8 from    2 using    3 C= 1.00D+00
 DoElim2:  L=1 select primitive    8 from    1 using    3 C= 1.00D+00
 DoElim2:  L=1 select primitive    6 from    1 using    2 C= 6.36D-01
 Delete L=1 primitive    6 from    3 C=  0.00D+00.
 Delete L=1 primitive    5 from    3 C=  0.00D+00.
 Delete L=1 primitive    4 from    3 C=  0.00D+00.
 Delete L=1 primitive    3 from    3 C=  0.00D+00.
 Delete L=1 primitive    2 from    3 C=  0.00D+00.
 Delete L=1 primitive    1 from    3 C=  0.00D+00.
 Delete L=1 primitive    8 from    2 C=  0.00D+00.
 Delete L=1 primitive    7 from    2 C=  0.00D+00.
 Delete L=1 primitive    3 from    2 C=  0.00D+00.
 Delete L=1 primitive    2 from    2 C=  0.00D+00.
 Delete L=1 primitive    1 from    2 C=  0.00D+00.
 Delete L=1 primitive    8 from    1 C=  0.00D+00.
 Delete L=1 primitive    7 from    1 C=  0.00D+00.
 Delete L=1 primitive    6 from    1 C=  0.00D+00.
 Delete L=1 primitive    5 from    1 C=  0.00D+00.
 Delete L=1 primitive    4 from    1 C=  0.00D+00.
 IA=     2 L=1 SC=0 ISt=    0 NBk=    0 NP=    0 IndPr=    8.
 IA=     2 ShT= 2 ShC= 2 NL=   2 NS=   1.
 IA=     2 L=2 SC=2 ISt=    0 NBk=    0 NP=    0 IndPr=    0.
 LdAtmC:  AtmChg=     1.000000    22.000000
 AtZEff=     -1.0000000    -23.9800000
 NEqShl: 
              1            2            3            4
     1            1            1            1            1
     2            2            2            2            2
     3            3            3            3            3
     4            4            4            4            4
     5            5            5            5            5
     6            6            6            6            6
     7            7            7            7            7
     8            8            8            8            8
 NEqBas: 
              1            2            3            4
     1            1            1            1            1
     2            2            2            2            2
     3            3            3            3            3
     4            4           -4           -4            4
     5            5           -5            5           -5
     6            6            6            6            6
     7            7            7            7            7
     8            8           -8           -8            8
     9            9           -9            9           -9
    10           10           10           10           10
    11           11           11           11           11
    12           12          -12          -12           12
    13           13          -13           13          -13
    14           14           14           14           14
    15           15           15           15           15
    16           16          -16          -16           16
    17           17          -17           17          -17
    18           18           18           18           18
    19           19           19           19           19
    20           20           20           20           20
    21           21           21           21           21
    22           22           22          -22          -22
    23           23          -23          -23           23
    24           24          -24           24          -24
    25           25           25           25           25
    26           26           26           26           26
    27           27           27           27           27
    28           28           28          -28          -28
    29           29          -29          -29           29
    30           30          -30           30          -30
 There are    16 symmetry adapted cartesian basis functions of A1  symmetry.
   1         1   1   1   1
   2         2   2   2   2
   3         3   3   3   3
   4         6   6   6   6
   5         7   7   7   7
   6        10  10  10  10
   7        11  11  11  11
   8        14  14  14  14
   9        15  15  15  15
  10        18  18  18  18
  11        19  19  19  19
  12        20  20  20  20
  13        21  21  21  21
  14        25  25  25  25
  15        26  26  26  26
  16        27  27  27  27
 There are     2 symmetry adapted cartesian basis functions of A2  symmetry.
  17        22  22  22  22
  18        28  28  28  28
 There are     6 symmetry adapted cartesian basis functions of B1  symmetry.
  19         4   4   4   4
  20         8   8   8   8
  21        12  12  12  12
  22        16  16  16  16
  23        23  23  23  23
  24        29  29  29  29
 There are     6 symmetry adapted cartesian basis functions of B2  symmetry.
  25         5   5   5   5
  26         9   9   9   9
  27        13  13  13  13
  28        17  17  17  17
  29        24  24  24  24
  30        30  30  30  30
 Order= 1 2 4 3
 Reordered character table:
              1            2            3            4            5
     1            1            1            1            1            1
     2            2            1            1           -1           -1
     3            4            1           -1           -1            1
     4            3            1           -1            1           -1
 NEqShl: 
              1            2            3            4
     1            1            1            1            1
     2            2            2            2            2
     3            3            3            3            3
     4            4            4            4            4
     5            5            5            5            5
     6            6            6            6            6
     7            7            7            7            7
     8            8            8            8            8
 NEqBas: 
              1            2            3            4
     1            1            1            1            1
     2            2            2            2            2
     3            3            3            3            3
     4            4           -4           -4            4
     5            5           -5            5           -5
     6            6            6            6            6
     7            7            7            7            7
     8            8           -8           -8            8
     9            9           -9            9           -9
    10           10           10           10           10
    11           11           11           11           11
    12           12          -12          -12           12
    13           13          -13           13          -13
    14           14           14           14           14
    15           15           15           15           15
    16           16          -16          -16           16
    17           17          -17           17          -17
    18           18           18           18           18
    19           19           19           19           19
    20           20          -20          -20           20
    21           21          -21           21          -21
    22           22           22           22           22
    23           23           23          -23          -23
    24           24           24           24           24
    25           25          -25          -25           25
    26           26          -26           26          -26
    27           27           27           27           27
    28           28           28          -28          -28
 There are    14 symmetry adapted basis functions of A1  symmetry.
   1         1   1   1   1
   2         2   2   2   2
   3         3   3   3   3
   4         6   6   6   6
   5         7   7   7   7
   6        10  10  10  10
   7        11  11  11  11
   8        14  14  14  14
   9        15  15  15  15
  10        18  18  18  18
  11        19  19  19  19
  12        22  22  22  22
  13        24  24  24  24
  14        27  27  27  27
 There are     2 symmetry adapted basis functions of A2  symmetry.
  15        23  23  23  23
  16        28  28  28  28
 There are     6 symmetry adapted basis functions of B1  symmetry.
  17         4   4   4   4
  18         8   8   8   8
  19        12  12  12  12
  20        16  16  16  16
  21        20  20  20  20
  22        25  25  25  25
 There are     6 symmetry adapted basis functions of B2  symmetry.
  23         5   5   5   5
  24         9   9   9   9
  25        13  13  13  13
  26        17  17  17  17
  27        21  21  21  21
  28        26  26  26  26
 Order= 1 2 4 3
 Reordered character table:
              1            2            3            4            5
     1            1            1            1            1            1
     2            2            1            1           -1           -1
     3            4            1           -1           -1            1
     4            3            1           -1            1           -1
    28 basis functions,    60 primitive gaussians,    30 cartesian basis functions
    12 alpha electrons       11 beta electrons
       nuclear repulsion energy         4.0144478070 Hartrees.
 IS=     1 IAt=     1 ISR=     1 T=0 IP=      1 IndIP=      1 IndIPD=      0 C=  2.769344D-01  0.000000D+00                             NZ=T
 IS=     1 IAt=     1 ISR=     1 T=0 IP=      2 IndIP=      2 IndIPD=      1 C=  2.678389D-01  0.000000D+00                             NZ=T
 IS=     1 IAt=     1 ISR=     1 T=0 IP=      3 IndIP=      3 IndIPD=      2 C=  8.347367D-02  0.000000D+00                             NZ=T
 IS=     2 IAt=     2 ISR=     1 T=0 IP=      1 IndIP=      4 IndIPD=      0 C=  1.537359D+01  0.000000D+00                             NZ=T
 IS=     2 IAt=     2 ISR=     1 T=0 IP=      2 IndIP=      5 IndIPD=      1 C=  2.196579D+01  0.000000D+00                             NZ=T
 IS=     2 IAt=     2 ISR=     1 T=0 IP=      3 IndIP=      6 IndIPD=      2 C=  1.259884D+01  0.000000D+00                             NZ=T
 IS=     3 IAt=     2 ISR=     2 T=1 IP=      1 IndIP=      7 IndIPD=      0 C= -2.459358D+00  6.155759D+01                             NZ=T
 IS=     3 IAt=     2 ISR=     2 T=1 IP=      2 IndIP=      8 IndIPD=      1 C=  7.266107D-01  3.612099D+01                             NZ=T
 IS=     3 IAt=     2 ISR=     2 T=1 IP=      3 IndIP=      9 IndIPD=      2 C=  2.742121D+00  7.115701D+00                             NZ=T
 IS=     4 IAt=     2 ISR=     3 T=1 IP=      1 IndIP=     10 IndIPD=      0 C= -8.049761D-01  2.703339D-01                             NZ=T
 IS=     4 IAt=     2 ISR=     3 T=1 IP=      2 IndIP=     11 IndIPD=      1 C=  3.851869D-01  1.489563D+00                             NZ=T
 IS=     4 IAt=     2 ISR=     3 T=1 IP=      3 IndIP=     12 IndIPD=      2 C=  4.416753D-01  5.252178D-01                             NZ=T
 IS=     5 IAt=     2 ISR=     4 T=1 IP=      1 IndIP=     13 IndIPD=      0 C= -1.138440D-01  2.076393D-04                             NZ=T
 IS=     5 IAt=     2 ISR=     4 T=1 IP=      2 IndIP=     14 IndIPD=      1 C=  1.102445D-01  5.419267D-02                             NZ=T
 IS=     6 IAt=     2 ISR=     5 T=1 IP=      1 IndIP=     15 IndIPD=      0 C=  4.686088D-02  1.526772D-02                             NZ=T
 IS=     7 IAt=     2 ISR=     6 T=2 IP=      1 IndIP=     16 IndIPD=      1 C=  0.000000D+00  0.000000D+00  1.331025D+01  0.000000D+00 NZ=T
 IS=     7 IAt=     2 ISR=     6 T=2 IP=      2 IndIP=     17 IndIPD=      2 C=  0.000000D+00  0.000000D+00  3.600378D+00  0.000000D+00 NZ=T
 IS=     8 IAt=     2 ISR=     7 T=2 IP=      1 IndIP=     18 IndIPD=      3 C=  0.000000D+00  0.000000D+00  3.518721D-01  0.000000D+00 NZ=T
 IExCor=    0 DFT=F Ex=HF Corr=None ExCW=0 ScaHFX=  1.000000
 ScaDFX=  1.000000  1.000000  1.000000  1.000000 ScalE2=  1.000000  1.000000
 IRadAn=      5 IRanWt=     -1 IRanGd=            0 ICorTp=0 IEmpDi=  4
 NAtoms=    2 NActive=    2 NUniq=    2 SFac= 1.00D+00 NAtFMM=   60 NAOKFM=F Big=F
 Integral buffers will be    131072 words long.
 Raffenetti 2 integral format.
 Two-electron integral symmetry is turned on.
 Leave Link  301 at Fri Mar 25 14:58:37 2022, MaxMem=  9663676416 cpu:               1.9 elap:               0.1
 (Enter /nopt/nrel/apps/gaussian/g16C_1/g16/l302.exe)
 NPDir=0 NMtPBC=     1 NCelOv=     1 NCel=       1 NClECP=     1 NCelD=      1
         NCelK=      1 NCelE2=     1 NClLst=     1 CellRange=     0.0.
 One-electron integrals computed using PRISM.
 One-electron integral symmetry used in STVInt
 Entering OneElI...
 Calculate overlap and kinetic energy integrals
    NBasis =  28  MinDer = 0  MaxDer = 0
 Requested accuracy = 0.1000D-12
 Symmetry will be used
 PrmmSu-InSpLW:  IPartL=    0 NPrtUS=   36 NPrtUL=    1 DoSpLW=F IThBeg=    0 IThEnd=   35 NThAct=   36.
 PrSmSu:  IncTry=   512 NBBP=             36 NTPThr=   100 NPartT=   36 Incr=           1 LDynOK=F GPUOK=F.
 PrsmSu:  NPrtUS=  36 ThrOK=T IAlg=1 LenDen=           0 ISkipM=0 DoSpLW=F IThBeg=    0 IThEnd=   35.
 Prism:   IPart=     0 DynPar=F LinDyn=F Incr=           1.
 PRISM was handed   268432204 working-precision words and    36 shell-pairs
 PRISM was handed   268432204 working-precision words and    36 shell-pairs
 PRISM was handed   268432204 working-precision words and    36 shell-pairs
 PRISM was handed   268432204 working-precision words and    36 shell-pairs
 PRISM was handed   268432204 working-precision words and    36 shell-pairs
 PRISM was handed   268432204 working-precision words and    36 shell-pairs
 PRISM was handed   268432204 working-precision words and    36 shell-pairs
 PRISM was handed   268432204 working-precision words and    36 shell-pairs
 PRISM was handed   268432204 working-precision words and    36 shell-pairs
 PRISM was handed   268432204 working-precision words and    36 shell-pairs
 PRISM was handed   268432204 working-precision words and    36 shell-pairs
 PRISM was handed   268432204 working-precision words and    36 shell-pairs
 PRISM was handed   268432204 working-precision words and    36 shell-pairs
 PRISM was handed   268432204 working-precision words and    36 shell-pairs
 PRISM was handed   268432204 working-precision words and    36 shell-pairs
 PRISM was handed   268432204 working-precision words and    36 shell-pairs
 PRISM was handed   268432204 working-precision words and    36 shell-pairs
 IPart= 30 NShTot=           0 NBatch=           0 AvBLen=         0.0
 IPart= 33 NShTot=           0 NBatch=           0 AvBLen=         0.0
 IPart= 29 NShTot=           0 NBatch=           0 AvBLen=         0.0
 IPart=  4 NShTot=           0 NBatch=           0 AvBLen=         0.0
 IPart= 28 NShTot=           0 NBatch=           0 AvBLen=         0.0
 IPart=  9 NShTot=           0 NBatch=           0 AvBLen=         0.0
 PRISM was handed   268432204 working-precision words and    36 shell-pairs
 IPart= 11 NShTot=           0 NBatch=           0 AvBLen=         0.0
 IPart= 10 NShTot=           0 NBatch=           0 AvBLen=         0.0
 IPart= 13 NShTot=           0 NBatch=           0 AvBLen=         0.0
 IPart= 24 NShTot=           0 NBatch=           0 AvBLen=         0.0
 IPart=  6 NShTot=           0 NBatch=           0 AvBLen=         0.0
 IPart=  8 NShTot=           0 NBatch=           0 AvBLen=         0.0
 IPart= 17 NShTot=           0 NBatch=           0 AvBLen=         0.0
 IPart=  2 NShTot=           2 NBatch=           2 AvBLen=         1.0
 IPart=  1 NShTot=          11 NBatch=          11 AvBLen=         1.0
 PRISM was handed   268432204 working-precision words and    36 shell-pairs
 IPart= 15 NShTot=           0 NBatch=           0 AvBLen=         0.0
 IPart= 20 NShTot=           0 NBatch=           0 AvBLen=         0.0
 IPart=  0 NShTot=          23 NBatch=          23 AvBLen=         1.0
 PRISM was handed   268432204 working-precision words and    36 shell-pairs
 PRISM was handed   268432204 working-precision words and    36 shell-pairs
 PRISM was handed   268432204 working-precision words and    36 shell-pairs
 IPart= 19 NShTot=           0 NBatch=           0 AvBLen=         0.0
 PRISM was handed   268432204 working-precision words and    36 shell-pairs
 IPart= 31 NShTot=           0 NBatch=           0 AvBLen=         0.0
 IPart= 32 NShTot=           0 NBatch=           0 AvBLen=         0.0
 PRISM was handed   268432204 working-precision words and    36 shell-pairs
 PRISM was handed   268432204 working-precision words and    36 shell-pairs
 PRISM was handed   268432204 working-precision words and    36 shell-pairs
 PRISM was handed   268432204 working-precision words and    36 shell-pairs
 IPart= 26 NShTot=           0 NBatch=           0 AvBLen=         0.0
 PRISM was handed   268432204 working-precision words and    36 shell-pairs
 PRISM was handed   268432204 working-precision words and    36 shell-pairs
 PRISM was handed   268432204 working-precision words and    36 shell-pairs
 PRISM was handed   268432204 working-precision words and    36 shell-pairs
 PRISM was handed   268432204 working-precision words and    36 shell-pairs
 IPart=  5 NShTot=           0 NBatch=           0 AvBLen=         0.0
 IPart= 22 NShTot=           0 NBatch=           0 AvBLen=         0.0
 IPart= 21 NShTot=           0 NBatch=           0 AvBLen=         0.0
 IPart= 23 NShTot=           0 NBatch=           0 AvBLen=         0.0
 PRISM was handed   268432204 working-precision words and    36 shell-pairs
 PRISM was handed   268432204 working-precision words and    36 shell-pairs
 PRISM was handed   268432204 working-precision words and    36 shell-pairs
 PRISM was handed   268432204 working-precision words and    36 shell-pairs
 IPart= 35 NShTot=           0 NBatch=           0 AvBLen=         0.0
 IPart= 16 NShTot=           0 NBatch=           0 AvBLen=         0.0
 IPart= 12 NShTot=           0 NBatch=           0 AvBLen=         0.0
 IPart=  3 NShTot=           0 NBatch=           0 AvBLen=         0.0
 IPart= 27 NShTot=           0 NBatch=           0 AvBLen=         0.0
 IPart= 25 NShTot=           0 NBatch=           0 AvBLen=         0.0
 IPart= 34 NShTot=           0 NBatch=           0 AvBLen=         0.0
 IPart=  7 NShTot=           0 NBatch=           0 AvBLen=         0.0
 IPart= 18 NShTot=           0 NBatch=           0 AvBLen=         0.0
 IPart= 14 NShTot=           0 NBatch=           0 AvBLen=         0.0
 PrSmSu:  NxtVal=             37.
 *** Overlap *** 
                1             2             3             4             5 
      1  0.100000D+01
      2  0.648219D-04  0.100000D+01
      3  0.553858D-03  0.261907D+00  0.100000D+01
      4  0.000000D+00  0.000000D+00  0.000000D+00  0.100000D+01
      5  0.000000D+00  0.000000D+00  0.000000D+00  0.000000D+00  0.100000D+01
      6 -0.244583D-03  0.000000D+00  0.000000D+00  0.000000D+00  0.000000D+00
      7  0.539301D-02  0.101215D-01  0.334950D+00  0.000000D+00  0.000000D+00
      8  0.000000D+00  0.000000D+00  0.000000D+00  0.320730D+00  0.000000D+00
      9  0.000000D+00  0.000000D+00  0.000000D+00  0.000000D+00  0.320730D+00
     10 -0.773051D-02  0.000000D+00  0.000000D+00  0.000000D+00  0.000000D+00
     11  0.133934D+00 -0.323625D-03  0.781293D-02  0.000000D+00  0.000000D+00
     12  0.000000D+00  0.000000D+00  0.000000D+00  0.126594D-01  0.000000D+00
     13  0.000000D+00  0.000000D+00  0.000000D+00  0.000000D+00  0.126594D-01
     14 -0.278232D+00  0.000000D+00  0.000000D+00  0.000000D+00  0.000000D+00
     15  0.193783D+00  0.575699D-02  0.450232D-01  0.000000D+00  0.000000D+00
     16  0.000000D+00  0.000000D+00  0.000000D+00  0.361007D-02  0.000000D+00
     17  0.000000D+00  0.000000D+00  0.000000D+00  0.000000D+00  0.361007D-02
     18 -0.310699D+00  0.000000D+00  0.000000D+00  0.000000D+00  0.000000D+00
     19  0.160130D-02  0.000000D+00  0.000000D+00  0.000000D+00  0.000000D+00
     20  0.000000D+00  0.000000D+00  0.000000D+00  0.000000D+00  0.000000D+00
     21  0.000000D+00  0.000000D+00  0.000000D+00  0.000000D+00  0.000000D+00
     22  0.000000D+00  0.000000D+00  0.000000D+00  0.000000D+00  0.000000D+00
     23  0.000000D+00  0.000000D+00  0.000000D+00  0.000000D+00  0.000000D+00
     24  0.283140D-01  0.000000D+00  0.000000D+00  0.000000D+00  0.000000D+00
     25  0.000000D+00  0.000000D+00  0.000000D+00  0.000000D+00  0.000000D+00
     26  0.000000D+00  0.000000D+00  0.000000D+00  0.000000D+00  0.000000D+00
     27  0.000000D+00  0.000000D+00  0.000000D+00  0.000000D+00  0.000000D+00
     28  0.000000D+00  0.000000D+00  0.000000D+00  0.000000D+00  0.000000D+00
                6             7             8             9            10 
      6  0.100000D+01
      7  0.000000D+00  0.100000D+01
      8  0.000000D+00  0.000000D+00  0.100000D+01
      9  0.000000D+00  0.000000D+00  0.000000D+00  0.100000D+01
     10  0.320730D+00  0.000000D+00  0.000000D+00  0.000000D+00  0.100000D+01
     11  0.000000D+00  0.254017D+00  0.000000D+00  0.000000D+00  0.000000D+00
     12  0.000000D+00  0.000000D+00  0.217564D+00  0.000000D+00  0.000000D+00
     13  0.000000D+00  0.000000D+00  0.000000D+00  0.217564D+00  0.000000D+00
     14  0.126594D-01  0.000000D+00  0.000000D+00  0.000000D+00  0.217564D+00
     15  0.000000D+00  0.230277D+00  0.000000D+00  0.000000D+00  0.000000D+00
     16  0.000000D+00  0.000000D+00  0.710789D-01  0.000000D+00  0.000000D+00
     17  0.000000D+00  0.000000D+00  0.000000D+00  0.710789D-01  0.000000D+00
     18  0.361007D-02  0.000000D+00  0.000000D+00  0.000000D+00  0.710789D-01
     19  0.000000D+00  0.000000D+00  0.000000D+00  0.000000D+00  0.000000D+00
     20  0.000000D+00  0.000000D+00  0.000000D+00  0.000000D+00  0.000000D+00
     21  0.000000D+00  0.000000D+00  0.000000D+00  0.000000D+00  0.000000D+00
     22  0.000000D+00  0.000000D+00  0.000000D+00  0.000000D+00  0.000000D+00
     23  0.000000D+00  0.000000D+00  0.000000D+00  0.000000D+00  0.000000D+00
     24  0.000000D+00  0.000000D+00  0.000000D+00  0.000000D+00  0.000000D+00
     25  0.000000D+00  0.000000D+00  0.000000D+00  0.000000D+00  0.000000D+00
     26  0.000000D+00  0.000000D+00  0.000000D+00  0.000000D+00  0.000000D+00
     27  0.000000D+00  0.000000D+00  0.000000D+00  0.000000D+00  0.000000D+00
     28  0.000000D+00  0.000000D+00  0.000000D+00  0.000000D+00  0.000000D+00
               11            12            13            14            15 
     11  0.100000D+01
     12  0.000000D+00  0.100000D+01
     13  0.000000D+00  0.000000D+00  0.100000D+01
     14  0.000000D+00  0.000000D+00  0.000000D+00  0.100000D+01
     15  0.850437D+00  0.000000D+00  0.000000D+00  0.000000D+00  0.100000D+01
     16  0.000000D+00  0.734775D+00  0.000000D+00  0.000000D+00  0.000000D+00
     17  0.000000D+00  0.000000D+00  0.734775D+00  0.000000D+00  0.000000D+00
     18  0.000000D+00  0.000000D+00  0.000000D+00  0.734775D+00  0.000000D+00
     19  0.000000D+00  0.000000D+00  0.000000D+00  0.000000D+00  0.000000D+00
     20  0.000000D+00  0.000000D+00  0.000000D+00  0.000000D+00  0.000000D+00
     21  0.000000D+00  0.000000D+00  0.000000D+00  0.000000D+00  0.000000D+00
     22  0.000000D+00  0.000000D+00  0.000000D+00  0.000000D+00  0.000000D+00
     23  0.000000D+00  0.000000D+00  0.000000D+00  0.000000D+00  0.000000D+00
     24  0.000000D+00  0.000000D+00  0.000000D+00  0.000000D+00  0.000000D+00
     25  0.000000D+00  0.000000D+00  0.000000D+00  0.000000D+00  0.000000D+00
     26  0.000000D+00  0.000000D+00  0.000000D+00  0.000000D+00  0.000000D+00
     27  0.000000D+00  0.000000D+00  0.000000D+00  0.000000D+00  0.000000D+00
     28  0.000000D+00  0.000000D+00  0.000000D+00  0.000000D+00  0.000000D+00
               16            17            18            19            20 
     16  0.100000D+01
     17  0.000000D+00  0.100000D+01
     18  0.000000D+00  0.000000D+00  0.100000D+01
     19  0.000000D+00  0.000000D+00  0.000000D+00  0.100000D+01
     20  0.000000D+00  0.000000D+00  0.000000D+00  0.000000D+00  0.100000D+01
     21  0.000000D+00  0.000000D+00  0.000000D+00  0.000000D+00  0.000000D+00
     22  0.000000D+00  0.000000D+00  0.000000D+00  0.000000D+00  0.000000D+00
     23  0.000000D+00  0.000000D+00  0.000000D+00  0.000000D+00  0.000000D+00
     24  0.000000D+00  0.000000D+00  0.000000D+00  0.395959D+00  0.000000D+00
     25  0.000000D+00  0.000000D+00  0.000000D+00  0.000000D+00  0.395959D+00
     26  0.000000D+00  0.000000D+00  0.000000D+00  0.000000D+00  0.000000D+00
     27  0.000000D+00  0.000000D+00  0.000000D+00  0.000000D+00  0.000000D+00
     28  0.000000D+00  0.000000D+00  0.000000D+00  0.000000D+00  0.000000D+00
               21            22            23            24            25 
     21  0.100000D+01
     22  0.000000D+00  0.100000D+01
     23  0.000000D+00  0.000000D+00  0.100000D+01
     24  0.000000D+00  0.000000D+00  0.000000D+00  0.100000D+01
     25  0.000000D+00  0.000000D+00  0.000000D+00  0.000000D+00  0.100000D+01
     26  0.395959D+00  0.000000D+00  0.000000D+00  0.000000D+00  0.000000D+00
     27  0.000000D+00  0.395959D+00  0.000000D+00  0.000000D+00  0.000000D+00
     28  0.000000D+00  0.000000D+00  0.395959D+00  0.000000D+00  0.000000D+00
               26            27            28 
     26  0.100000D+01
     27  0.000000D+00  0.100000D+01
     28  0.000000D+00  0.000000D+00  0.100000D+01
 *** Kinetic Energy *** 
                1             2             3             4             5 
      1  0.760032D+00
      2 -0.778198D-04  0.238140D+03
      3 -0.627881D-03 -0.849715D+01  0.110812D+02
      4  0.000000D+00  0.000000D+00  0.000000D+00  0.405624D+02
      5  0.000000D+00  0.000000D+00  0.000000D+00  0.000000D+00  0.405624D+02
      6  0.198828D-03  0.000000D+00  0.000000D+00  0.000000D+00  0.000000D+00
      7 -0.387771D-02 -0.119187D+01 -0.935732D+00  0.000000D+00  0.000000D+00
      8  0.000000D+00  0.000000D+00  0.000000D+00  0.225504D+01  0.000000D+00
      9  0.000000D+00  0.000000D+00  0.000000D+00  0.000000D+00  0.225504D+01
     10  0.382256D-02  0.000000D+00  0.000000D+00  0.000000D+00  0.000000D+00
     11 -0.188928D-02 -0.207112D-01 -0.130608D+00  0.000000D+00  0.000000D+00
     12  0.000000D+00  0.000000D+00  0.000000D+00  0.467897D-02  0.000000D+00
     13  0.000000D+00  0.000000D+00  0.000000D+00  0.000000D+00  0.467897D-02
     14 -0.243355D-01  0.000000D+00  0.000000D+00  0.000000D+00  0.000000D+00
     15  0.722589D-02  0.458197D-03  0.356994D-02  0.000000D+00  0.000000D+00
     16  0.000000D+00  0.000000D+00  0.000000D+00  0.477331D-03  0.000000D+00
     17  0.000000D+00  0.000000D+00  0.000000D+00  0.000000D+00  0.477331D-03
     18 -0.264354D-01  0.000000D+00  0.000000D+00  0.000000D+00  0.000000D+00
     19 -0.585792D-03  0.000000D+00  0.000000D+00  0.000000D+00  0.000000D+00
     20  0.000000D+00  0.000000D+00  0.000000D+00  0.000000D+00  0.000000D+00
     21  0.000000D+00  0.000000D+00  0.000000D+00  0.000000D+00  0.000000D+00
     22  0.000000D+00  0.000000D+00  0.000000D+00  0.000000D+00  0.000000D+00
     23  0.000000D+00  0.000000D+00  0.000000D+00  0.000000D+00  0.000000D+00
     24 -0.680607D-02  0.000000D+00  0.000000D+00  0.000000D+00  0.000000D+00
     25  0.000000D+00  0.000000D+00  0.000000D+00  0.000000D+00  0.000000D+00
     26  0.000000D+00  0.000000D+00  0.000000D+00  0.000000D+00  0.000000D+00
     27  0.000000D+00  0.000000D+00  0.000000D+00  0.000000D+00  0.000000D+00
     28  0.000000D+00  0.000000D+00  0.000000D+00  0.000000D+00  0.000000D+00
                6             7             8             9            10 
      6  0.405624D+02
      7  0.000000D+00  0.139068D+01
      8  0.000000D+00  0.000000D+00  0.266954D+01
      9  0.000000D+00  0.000000D+00  0.000000D+00  0.266954D+01
     10  0.225504D+01  0.000000D+00  0.000000D+00  0.000000D+00  0.266954D+01
     11  0.000000D+00 -0.125868D+00  0.000000D+00  0.000000D+00  0.000000D+00
     12  0.000000D+00  0.000000D+00  0.727335D-01  0.000000D+00  0.000000D+00
     13  0.000000D+00  0.000000D+00  0.000000D+00  0.727335D-01  0.000000D+00
     14  0.467897D-02  0.000000D+00  0.000000D+00  0.000000D+00  0.727335D-01
     15  0.000000D+00  0.176460D-01  0.000000D+00  0.000000D+00  0.000000D+00
     16  0.000000D+00  0.000000D+00  0.909809D-02  0.000000D+00  0.000000D+00
     17  0.000000D+00  0.000000D+00  0.000000D+00  0.909809D-02  0.000000D+00
     18  0.477331D-03  0.000000D+00  0.000000D+00  0.000000D+00  0.909809D-02
     19  0.000000D+00  0.000000D+00  0.000000D+00  0.000000D+00  0.000000D+00
     20  0.000000D+00  0.000000D+00  0.000000D+00  0.000000D+00  0.000000D+00
     21  0.000000D+00  0.000000D+00  0.000000D+00  0.000000D+00  0.000000D+00
     22  0.000000D+00  0.000000D+00  0.000000D+00  0.000000D+00  0.000000D+00
     23  0.000000D+00  0.000000D+00  0.000000D+00  0.000000D+00  0.000000D+00
     24  0.000000D+00  0.000000D+00  0.000000D+00  0.000000D+00  0.000000D+00
     25  0.000000D+00  0.000000D+00  0.000000D+00  0.000000D+00  0.000000D+00
     26  0.000000D+00  0.000000D+00  0.000000D+00  0.000000D+00  0.000000D+00
     27  0.000000D+00  0.000000D+00  0.000000D+00  0.000000D+00  0.000000D+00
     28  0.000000D+00  0.000000D+00  0.000000D+00  0.000000D+00  0.000000D+00
               11            12            13            14            15 
     11  0.130956D+00
     12  0.000000D+00  0.182825D+00
     13  0.000000D+00  0.000000D+00  0.182825D+00
     14  0.000000D+00  0.000000D+00  0.000000D+00  0.182825D+00
     15  0.485464D-01  0.000000D+00  0.000000D+00  0.000000D+00  0.398069D-01
     16  0.000000D+00  0.715354D-01  0.000000D+00  0.000000D+00  0.000000D+00
     17  0.000000D+00  0.000000D+00  0.715354D-01  0.000000D+00  0.000000D+00
     18  0.000000D+00  0.000000D+00  0.000000D+00  0.715354D-01  0.000000D+00
     19  0.000000D+00  0.000000D+00  0.000000D+00  0.000000D+00  0.000000D+00
     20  0.000000D+00  0.000000D+00  0.000000D+00  0.000000D+00  0.000000D+00
     21  0.000000D+00  0.000000D+00  0.000000D+00  0.000000D+00  0.000000D+00
     22  0.000000D+00  0.000000D+00  0.000000D+00  0.000000D+00  0.000000D+00
     23  0.000000D+00  0.000000D+00  0.000000D+00  0.000000D+00  0.000000D+00
     24  0.000000D+00  0.000000D+00  0.000000D+00  0.000000D+00  0.000000D+00
     25  0.000000D+00  0.000000D+00  0.000000D+00  0.000000D+00  0.000000D+00
     26  0.000000D+00  0.000000D+00  0.000000D+00  0.000000D+00  0.000000D+00
     27  0.000000D+00  0.000000D+00  0.000000D+00  0.000000D+00  0.000000D+00
     28  0.000000D+00  0.000000D+00  0.000000D+00  0.000000D+00  0.000000D+00
               16            17            18            19            20 
     16  0.663448D-01
     17  0.000000D+00  0.663448D-01
     18  0.000000D+00  0.000000D+00  0.663448D-01
     19  0.000000D+00  0.000000D+00  0.000000D+00  0.800995D+01
     20  0.000000D+00  0.000000D+00  0.000000D+00  0.000000D+00  0.800995D+01
     21  0.000000D+00  0.000000D+00  0.000000D+00  0.000000D+00  0.000000D+00
     22  0.000000D+00  0.000000D+00  0.000000D+00  0.000000D+00  0.000000D+00
     23  0.000000D+00  0.000000D+00  0.000000D+00  0.000000D+00  0.000000D+00
     24  0.000000D+00  0.000000D+00  0.000000D+00  0.930872D+00  0.000000D+00
     25  0.000000D+00  0.000000D+00  0.000000D+00  0.000000D+00  0.930872D+00
     26  0.000000D+00  0.000000D+00  0.000000D+00  0.000000D+00  0.000000D+00
     27  0.000000D+00  0.000000D+00  0.000000D+00  0.000000D+00  0.000000D+00
     28  0.000000D+00  0.000000D+00  0.000000D+00  0.000000D+00  0.000000D+00
               21            22            23            24            25 
     21  0.800995D+01
     22  0.000000D+00  0.800995D+01
     23  0.000000D+00  0.000000D+00  0.800995D+01
     24  0.000000D+00  0.000000D+00  0.000000D+00  0.144943D+01
     25  0.000000D+00  0.000000D+00  0.000000D+00  0.000000D+00  0.144943D+01
     26  0.930872D+00  0.000000D+00  0.000000D+00  0.000000D+00  0.000000D+00
     27  0.000000D+00  0.930872D+00  0.000000D+00  0.000000D+00  0.000000D+00
     28  0.000000D+00  0.000000D+00  0.930872D+00  0.000000D+00  0.000000D+00
               26            27            28 
     26  0.144943D+01
     27  0.000000D+00  0.144943D+01
     28  0.000000D+00  0.000000D+00  0.144943D+01
 Entering OneElI...
 Calculate potential energy integrals
    NBasis =  28  MinDer = 0  MaxDer = 0
 Requested accuracy = 0.1000D-12
 Symmetry will be used
 PrmmSu-InSpLW:  IPartL=    0 NPrtUS=   36 NPrtUL=    1 DoSpLW=F IThBeg=    0 IThEnd=   35 NThAct=   36.
 PrSmSu:  IncTry=   512 NBBP=             72 NTPThr=   100 NPartT=   36 Incr=           1 LDynOK=F GPUOK=F.
 PrsmSu:  NPrtUS=  36 ThrOK=T IAlg=1 LenDen=           0 ISkipM=0 DoSpLW=F IThBeg=    0 IThEnd=   35.
 Prism:   IPart=     0 DynPar=F LinDyn=F Incr=           1.
 PRISM was handed   268432653 working-precision words and    36 shell-pairs
 PRISM was handed   268432653 working-precision words and    36 shell-pairs
 PRISM was handed   268432653 working-precision words and    36 shell-pairs
 PRISM was handed   268432653 working-precision words and    36 shell-pairs
 PRISM was handed   268432653 working-precision words and    36 shell-pairs
 PRISM was handed   268432653 working-precision words and    36 shell-pairs
 PRISM was handed   268432653 working-precision words and    36 shell-pairs
 PRISM was handed   268432653 working-precision words and    36 shell-pairs
 PRISM was handed   268432653 working-precision words and    36 shell-pairs
 PRISM was handed   268432653 working-precision words and    36 shell-pairs
 PRISM was handed   268432653 working-precision words and    36 shell-pairs
 PRISM was handed   268432653 working-precision words and    36 shell-pairs
 PRISM was handed   268432653 working-precision words and    36 shell-pairs
 PRISM was handed   268432653 working-precision words and    36 shell-pairs
 PRISM was handed   268432653 working-precision words and    36 shell-pairs
 PRISM was handed   268432653 working-precision words and    36 shell-pairs
 PRISM was handed   268432653 working-precision words and    36 shell-pairs
 PRISM was handed   268432653 working-precision words and    36 shell-pairs
 PRISM was handed   268432653 working-precision words and    36 shell-pairs
 PRISM was handed   268432653 working-precision words and    36 shell-pairs
 PRISM was handed   268432653 working-precision words and    36 shell-pairs
 PRISM was handed   268432653 working-precision words and    36 shell-pairs
 PRISM was handed   268432653 working-precision words and    36 shell-pairs
 PRISM was handed   268432653 working-precision words and    36 shell-pairs
 PRISM was handed   268432653 working-precision words and    36 shell-pairs
 PRISM was handed   268432653 working-precision words and    36 shell-pairs
 PRISM was handed   268432653 working-precision words and    36 shell-pairs
 PRISM was handed   268432653 working-precision words and    36 shell-pairs
 PRISM was handed   268432653 working-precision words and    36 shell-pairs
 PRISM was handed   268432653 working-precision words and    36 shell-pairs
 PRISM was handed   268432653 working-precision words and    36 shell-pairs
 PRISM was handed   268432653 working-precision words and    36 shell-pairs
 PRISM was handed   268432653 working-precision words and    36 shell-pairs
 PRISM was handed   268432653 working-precision words and    36 shell-pairs
 PRISM was handed   268432653 working-precision words and    36 shell-pairs
 PRISM was handed   268432653 working-precision words and    36 shell-pairs
 IPart=  9 NShTot=           0 NBatch=           0 AvBLen=         0.0
 IPart=  8 NShTot=           0 NBatch=           0 AvBLen=         0.0
 IPart= 11 NShTot=           0 NBatch=           0 AvBLen=         0.0
 IPart= 13 NShTot=           0 NBatch=           0 AvBLen=         0.0
 IPart= 14 NShTot=           0 NBatch=           0 AvBLen=         0.0
 IPart= 10 NShTot=           0 NBatch=           0 AvBLen=         0.0
 IPart= 18 NShTot=           0 NBatch=           0 AvBLen=         0.0
 IPart=  7 NShTot=           0 NBatch=           0 AvBLen=         0.0
 IPart=  6 NShTot=           0 NBatch=           0 AvBLen=         0.0
 IPart= 12 NShTot=           0 NBatch=           0 AvBLen=         0.0
 IPart=  2 NShTot=           4 NBatch=           2 AvBLen=         2.0
 IPart= 15 NShTot=           0 NBatch=           0 AvBLen=         0.0
 IPart=  3 NShTot=           0 NBatch=           0 AvBLen=         0.0
 IPart=  0 NShTot=          46 NBatch=          23 AvBLen=         2.0
 IPart= 16 NShTot=           0 NBatch=           0 AvBLen=         0.0
 IPart=  5 NShTot=           0 NBatch=           0 AvBLen=         0.0
 IPart= 17 NShTot=           0 NBatch=           0 AvBLen=         0.0
 IPart=  1 NShTot=          22 NBatch=          11 AvBLen=         2.0
 IPart=  4 NShTot=           0 NBatch=           0 AvBLen=         0.0
 IPart= 31 NShTot=           0 NBatch=           0 AvBLen=         0.0
 IPart= 28 NShTot=           0 NBatch=           0 AvBLen=         0.0
 IPart= 21 NShTot=           0 NBatch=           0 AvBLen=         0.0
 IPart= 32 NShTot=           0 NBatch=           0 AvBLen=         0.0
 IPart= 27 NShTot=           0 NBatch=           0 AvBLen=         0.0
 IPart= 22 NShTot=           0 NBatch=           0 AvBLen=         0.0
 IPart= 34 NShTot=           0 NBatch=           0 AvBLen=         0.0
 IPart= 19 NShTot=           0 NBatch=           0 AvBLen=         0.0
 IPart= 26 NShTot=           0 NBatch=           0 AvBLen=         0.0
 IPart= 20 NShTot=           0 NBatch=           0 AvBLen=         0.0
 IPart= 30 NShTot=           0 NBatch=           0 AvBLen=         0.0
 IPart= 35 NShTot=           0 NBatch=           0 AvBLen=         0.0
 IPart= 33 NShTot=           0 NBatch=           0 AvBLen=         0.0
 IPart= 23 NShTot=           0 NBatch=           0 AvBLen=         0.0
 IPart= 24 NShTot=           0 NBatch=           0 AvBLen=         0.0
 IPart= 25 NShTot=           0 NBatch=           0 AvBLen=         0.0
 IPart= 29 NShTot=           0 NBatch=           0 AvBLen=         0.0
 PrSmSu:  NxtVal=             37.
 ***** Potential Energy ***** 
                1             2             3             4             5 
      1  0.524106D+01
      2  0.168986D-01  0.478819D+03
      3  0.337136D-01  0.593945D+02  0.851300D+02
      4  0.000000D+00  0.000000D+00  0.000000D+00  0.989925D+02
      5  0.000000D+00  0.000000D+00  0.000000D+00  0.000000D+00  0.989925D+02
      6 -0.120024D-01 -0.803200D-03 -0.567669D-02  0.000000D+00  0.000000D+00
      7  0.911113D-01  0.186044D+01  0.175483D+02  0.000000D+00  0.000000D+00
      8  0.000000D+00  0.000000D+00  0.000000D+00  0.184282D+02  0.000000D+00
      9  0.000000D+00  0.000000D+00  0.000000D+00  0.000000D+00  0.184282D+02
     10 -0.106338D+00 -0.497896D-04 -0.302676D-02  0.000000D+00  0.000000D+00
     11  0.777933D+00 -0.975914D-01  0.272845D+00  0.000000D+00  0.000000D+00
     12  0.000000D+00  0.000000D+00  0.000000D+00  0.635130D+00  0.000000D+00
     13  0.000000D+00  0.000000D+00  0.000000D+00  0.000000D+00  0.635130D+00
     14 -0.150548D+01 -0.126355D-05 -0.130500D-03  0.000000D+00  0.000000D+00
     15  0.994272D+00  0.150539D+01  0.282435D+01  0.000000D+00  0.000000D+00
     16  0.000000D+00  0.000000D+00  0.000000D+00  0.180301D+00  0.000000D+00
     17  0.000000D+00  0.000000D+00  0.000000D+00  0.000000D+00  0.180301D+00
     18 -0.148829D+01  0.000000D+00 -0.373097D-04  0.000000D+00  0.000000D+00
     19  0.283406D-01  0.105483D-05  0.269421D-03  0.000000D+00  0.000000D+00
     20  0.000000D+00  0.000000D+00  0.000000D+00 -0.266192D-02  0.000000D+00
     21  0.000000D+00  0.000000D+00  0.000000D+00  0.000000D+00 -0.266192D-02
     22  0.000000D+00  0.000000D+00  0.000000D+00  0.000000D+00  0.000000D+00
     23  0.000000D+00  0.000000D+00  0.000000D+00  0.000000D+00  0.000000D+00
     24  0.241356D+00  0.000000D+00  0.295605D-04  0.000000D+00  0.000000D+00
     25  0.000000D+00  0.000000D+00  0.000000D+00 -0.260569D-03  0.000000D+00
     26  0.000000D+00  0.000000D+00  0.000000D+00  0.000000D+00 -0.260569D-03
     27  0.000000D+00  0.000000D+00  0.000000D+00  0.000000D+00  0.000000D+00
     28  0.000000D+00  0.000000D+00  0.000000D+00  0.000000D+00  0.000000D+00
                6             7             8             9            10 
      6  0.989928D+02
      7 -0.296672D-02  0.264656D+02
      8  0.000000D+00  0.000000D+00  0.253674D+02
      9  0.000000D+00  0.000000D+00  0.000000D+00  0.253674D+02
     10  0.184285D+02 -0.192231D-01  0.000000D+00  0.000000D+00  0.253720D+02
     11 -0.100659D-03  0.409519D+01  0.000000D+00  0.000000D+00 -0.983646D-02
     12  0.000000D+00  0.000000D+00  0.346272D+01  0.000000D+00  0.000000D+00
     13  0.000000D+00  0.000000D+00  0.000000D+00  0.346272D+01  0.000000D+00
     14  0.635146D+00 -0.533082D-02  0.000000D+00  0.000000D+00  0.346517D+01
     15 -0.368942D-03  0.469420D+01  0.000000D+00  0.000000D+00 -0.726413D-02
     16  0.000000D+00  0.000000D+00  0.108936D+01  0.000000D+00  0.000000D+00
     17  0.000000D+00  0.000000D+00  0.000000D+00  0.108936D+01  0.000000D+00
     18  0.180305D+00 -0.176437D-02  0.000000D+00  0.000000D+00  0.109023D+01
     19 -0.310923D-02  0.245938D-02  0.000000D+00  0.000000D+00 -0.156213D-01
     20  0.000000D+00  0.000000D+00 -0.129617D-01  0.000000D+00  0.000000D+00
     21  0.000000D+00  0.000000D+00  0.000000D+00 -0.129617D-01  0.000000D+00
     22  0.000000D+00  0.000000D+00  0.000000D+00  0.000000D+00  0.000000D+00
     23  0.000000D+00  0.000000D+00  0.000000D+00  0.000000D+00  0.000000D+00
     24 -0.306117D-03  0.335823D-02  0.000000D+00  0.000000D+00 -0.172452D-01
     25  0.000000D+00  0.000000D+00 -0.134126D-01  0.000000D+00  0.000000D+00
     26  0.000000D+00  0.000000D+00  0.000000D+00 -0.134126D-01  0.000000D+00
     27  0.000000D+00  0.000000D+00  0.000000D+00  0.000000D+00  0.000000D+00
     28  0.000000D+00  0.000000D+00  0.000000D+00  0.000000D+00  0.000000D+00
               11            12            13            14            15 
     11  0.786476D+01
     12  0.000000D+00  0.649187D+01
     13  0.000000D+00  0.000000D+00  0.649187D+01
     14 -0.638381D-01  0.000000D+00  0.000000D+00  0.654683D+01
     15  0.608909D+01  0.000000D+00  0.000000D+00 -0.666604D-01  0.588802D+01
     16  0.000000D+00  0.395131D+01  0.000000D+00  0.000000D+00  0.000000D+00
     17  0.000000D+00  0.000000D+00  0.395131D+01  0.000000D+00  0.000000D+00
     18 -0.436018D-01  0.000000D+00  0.000000D+00  0.399783D+01 -0.650455D-01
     19  0.759786D-03  0.000000D+00  0.000000D+00 -0.256452D-02  0.637352D-03
     20  0.000000D+00 -0.207470D-02  0.000000D+00  0.000000D+00  0.000000D+00
     21  0.000000D+00  0.000000D+00 -0.207470D-02  0.000000D+00  0.000000D+00
     22  0.000000D+00  0.000000D+00  0.000000D+00  0.000000D+00  0.000000D+00
     23  0.000000D+00  0.000000D+00  0.000000D+00  0.000000D+00  0.000000D+00
     24  0.111280D-01  0.000000D+00  0.000000D+00 -0.252670D-01  0.736538D-02
     25  0.000000D+00 -0.170228D-01  0.000000D+00  0.000000D+00  0.000000D+00
     26  0.000000D+00  0.000000D+00 -0.170228D-01  0.000000D+00  0.000000D+00
     27  0.000000D+00  0.000000D+00  0.000000D+00  0.000000D+00  0.000000D+00
     28  0.000000D+00  0.000000D+00  0.000000D+00  0.000000D+00  0.000000D+00
               16            17            18            19            20 
     16  0.394523D+01
     17  0.000000D+00  0.394523D+01
     18  0.000000D+00  0.000000D+00  0.400172D+01
     19  0.000000D+00  0.000000D+00 -0.790759D-03  0.293522D+02
     20 -0.638490D-03  0.000000D+00  0.000000D+00  0.000000D+00  0.293514D+02
     21  0.000000D+00 -0.638490D-03  0.000000D+00  0.000000D+00  0.000000D+00
     22  0.000000D+00  0.000000D+00  0.000000D+00  0.000000D+00  0.000000D+00
     23  0.000000D+00  0.000000D+00  0.000000D+00  0.000000D+00  0.000000D+00
     24  0.000000D+00  0.000000D+00 -0.102575D-01  0.800056D+01  0.000000D+00
     25 -0.673260D-02  0.000000D+00  0.000000D+00  0.000000D+00  0.799989D+01
     26  0.000000D+00 -0.673260D-02  0.000000D+00  0.000000D+00  0.000000D+00
     27  0.000000D+00  0.000000D+00  0.000000D+00  0.000000D+00  0.000000D+00
     28  0.000000D+00  0.000000D+00  0.000000D+00  0.000000D+00  0.000000D+00
               21            22            23            24            25 
     21  0.293514D+02
     22  0.000000D+00  0.293492D+02
     23  0.000000D+00  0.000000D+00  0.293492D+02
     24  0.000000D+00  0.000000D+00  0.000000D+00  0.122403D+02
     25  0.000000D+00  0.000000D+00  0.000000D+00  0.000000D+00  0.122344D+02
     26  0.799989D+01  0.000000D+00  0.000000D+00  0.000000D+00  0.000000D+00
     27  0.000000D+00  0.799830D+01  0.000000D+00  0.000000D+00  0.000000D+00
     28  0.000000D+00  0.000000D+00  0.799830D+01  0.000000D+00  0.000000D+00
               26            27            28 
     26  0.122344D+02
     27  0.000000D+00  0.122245D+02
     28  0.000000D+00  0.000000D+00  0.122245D+02
 ****** Core Hamiltonian ****** 
                1             2             3             4             5 
      1 -0.448102D+01
      2 -0.169764D-01 -0.240680D+03
      3 -0.343414D-01 -0.678916D+02 -0.740489D+02
      4  0.000000D+00  0.000000D+00  0.000000D+00 -0.584301D+02
      5  0.000000D+00  0.000000D+00  0.000000D+00  0.000000D+00 -0.584301D+02
      6  0.122012D-01  0.803200D-03  0.567669D-02  0.000000D+00  0.000000D+00
      7 -0.949890D-01 -0.305231D+01 -0.184840D+02  0.000000D+00  0.000000D+00
      8  0.000000D+00  0.000000D+00  0.000000D+00 -0.161731D+02  0.000000D+00
      9  0.000000D+00  0.000000D+00  0.000000D+00  0.000000D+00 -0.161731D+02
     10  0.110160D+00  0.497896D-04  0.302676D-02  0.000000D+00  0.000000D+00
     11 -0.779822D+00  0.768802D-01 -0.403453D+00  0.000000D+00  0.000000D+00
     12  0.000000D+00  0.000000D+00  0.000000D+00 -0.630451D+00  0.000000D+00
     13  0.000000D+00  0.000000D+00  0.000000D+00  0.000000D+00 -0.630451D+00
     14  0.148115D+01  0.126355D-05  0.130500D-03  0.000000D+00  0.000000D+00
     15 -0.987046D+00 -0.150494D+01 -0.282078D+01  0.000000D+00  0.000000D+00
     16  0.000000D+00  0.000000D+00  0.000000D+00 -0.179824D+00  0.000000D+00
     17  0.000000D+00  0.000000D+00  0.000000D+00  0.000000D+00 -0.179824D+00
     18  0.146185D+01  0.000000D+00  0.373097D-04  0.000000D+00  0.000000D+00
     19 -0.289264D-01 -0.105483D-05 -0.269421D-03  0.000000D+00  0.000000D+00
     20  0.000000D+00  0.000000D+00  0.000000D+00  0.266192D-02  0.000000D+00
     21  0.000000D+00  0.000000D+00  0.000000D+00  0.000000D+00  0.266192D-02
     22  0.000000D+00  0.000000D+00  0.000000D+00  0.000000D+00  0.000000D+00
     23  0.000000D+00  0.000000D+00  0.000000D+00  0.000000D+00  0.000000D+00
     24 -0.248162D+00  0.000000D+00 -0.295605D-04  0.000000D+00  0.000000D+00
     25  0.000000D+00  0.000000D+00  0.000000D+00  0.260569D-03  0.000000D+00
     26  0.000000D+00  0.000000D+00  0.000000D+00  0.000000D+00  0.260569D-03
     27  0.000000D+00  0.000000D+00  0.000000D+00  0.000000D+00  0.000000D+00
     28  0.000000D+00  0.000000D+00  0.000000D+00  0.000000D+00  0.000000D+00
                6             7             8             9            10 
      6 -0.584304D+02
      7  0.296672D-02 -0.250749D+02
      8  0.000000D+00  0.000000D+00 -0.226978D+02
      9  0.000000D+00  0.000000D+00  0.000000D+00 -0.226978D+02
     10 -0.161734D+02  0.192231D-01  0.000000D+00  0.000000D+00 -0.227024D+02
     11  0.100659D-03 -0.422106D+01  0.000000D+00  0.000000D+00  0.983646D-02
     12  0.000000D+00  0.000000D+00 -0.338998D+01  0.000000D+00  0.000000D+00
     13  0.000000D+00  0.000000D+00  0.000000D+00 -0.338998D+01  0.000000D+00
     14 -0.630467D+00  0.533082D-02  0.000000D+00  0.000000D+00 -0.339243D+01
     15  0.368942D-03 -0.467655D+01  0.000000D+00  0.000000D+00  0.726413D-02
     16  0.000000D+00  0.000000D+00 -0.108027D+01  0.000000D+00  0.000000D+00
     17  0.000000D+00  0.000000D+00  0.000000D+00 -0.108027D+01  0.000000D+00
     18 -0.179828D+00  0.176437D-02  0.000000D+00  0.000000D+00 -0.108113D+01
     19  0.310923D-02 -0.245938D-02  0.000000D+00  0.000000D+00  0.156213D-01
     20  0.000000D+00  0.000000D+00  0.129617D-01  0.000000D+00  0.000000D+00
     21  0.000000D+00  0.000000D+00  0.000000D+00  0.129617D-01  0.000000D+00
     22  0.000000D+00  0.000000D+00  0.000000D+00  0.000000D+00  0.000000D+00
     23  0.000000D+00  0.000000D+00  0.000000D+00  0.000000D+00  0.000000D+00
     24  0.306117D-03 -0.335823D-02  0.000000D+00  0.000000D+00  0.172452D-01
     25  0.000000D+00  0.000000D+00  0.134126D-01  0.000000D+00  0.000000D+00
     26  0.000000D+00  0.000000D+00  0.000000D+00  0.134126D-01  0.000000D+00
     27  0.000000D+00  0.000000D+00  0.000000D+00  0.000000D+00  0.000000D+00
     28  0.000000D+00  0.000000D+00  0.000000D+00  0.000000D+00  0.000000D+00
               11            12            13            14            15 
     11 -0.773381D+01
     12  0.000000D+00 -0.630905D+01
     13  0.000000D+00  0.000000D+00 -0.630905D+01
     14  0.638381D-01  0.000000D+00  0.000000D+00 -0.636401D+01
     15 -0.604054D+01  0.000000D+00  0.000000D+00  0.666604D-01 -0.584821D+01
     16  0.000000D+00 -0.387977D+01  0.000000D+00  0.000000D+00  0.000000D+00
     17  0.000000D+00  0.000000D+00 -0.387977D+01  0.000000D+00  0.000000D+00
     18  0.436018D-01  0.000000D+00  0.000000D+00 -0.392630D+01  0.650455D-01
     19 -0.759786D-03  0.000000D+00  0.000000D+00  0.256452D-02 -0.637352D-03
     20  0.000000D+00  0.207470D-02  0.000000D+00  0.000000D+00  0.000000D+00
     21  0.000000D+00  0.000000D+00  0.207470D-02  0.000000D+00  0.000000D+00
     22  0.000000D+00  0.000000D+00  0.000000D+00  0.000000D+00  0.000000D+00
     23  0.000000D+00  0.000000D+00  0.000000D+00  0.000000D+00  0.000000D+00
     24 -0.111280D-01  0.000000D+00  0.000000D+00  0.252670D-01 -0.736538D-02
     25  0.000000D+00  0.170228D-01  0.000000D+00  0.000000D+00  0.000000D+00
     26  0.000000D+00  0.000000D+00  0.170228D-01  0.000000D+00  0.000000D+00
     27  0.000000D+00  0.000000D+00  0.000000D+00  0.000000D+00  0.000000D+00
     28  0.000000D+00  0.000000D+00  0.000000D+00  0.000000D+00  0.000000D+00
               16            17            18            19            20 
     16 -0.387889D+01
     17  0.000000D+00 -0.387889D+01
     18  0.000000D+00  0.000000D+00 -0.393538D+01
     19  0.000000D+00  0.000000D+00  0.790759D-03 -0.213422D+02
     20  0.638490D-03  0.000000D+00  0.000000D+00  0.000000D+00 -0.213414D+02
     21  0.000000D+00  0.638490D-03  0.000000D+00  0.000000D+00  0.000000D+00
     22  0.000000D+00  0.000000D+00  0.000000D+00  0.000000D+00  0.000000D+00
     23  0.000000D+00  0.000000D+00  0.000000D+00  0.000000D+00  0.000000D+00
     24  0.000000D+00  0.000000D+00  0.102575D-01 -0.706969D+01  0.000000D+00
     25  0.673260D-02  0.000000D+00  0.000000D+00  0.000000D+00 -0.706901D+01
     26  0.000000D+00  0.673260D-02  0.000000D+00  0.000000D+00  0.000000D+00
     27  0.000000D+00  0.000000D+00  0.000000D+00  0.000000D+00  0.000000D+00
     28  0.000000D+00  0.000000D+00  0.000000D+00  0.000000D+00  0.000000D+00
               21            22            23            24            25 
     21 -0.213414D+02
     22  0.000000D+00 -0.213393D+02
     23  0.000000D+00  0.000000D+00 -0.213393D+02
     24  0.000000D+00  0.000000D+00  0.000000D+00 -0.107908D+02
     25  0.000000D+00  0.000000D+00  0.000000D+00  0.000000D+00 -0.107850D+02
     26 -0.706901D+01  0.000000D+00  0.000000D+00  0.000000D+00  0.000000D+00
     27  0.000000D+00 -0.706743D+01  0.000000D+00  0.000000D+00  0.000000D+00
     28  0.000000D+00  0.000000D+00 -0.706743D+01  0.000000D+00  0.000000D+00
               26            27            28 
     26 -0.107850D+02
     27  0.000000D+00 -0.107751D+02
     28  0.000000D+00  0.000000D+00 -0.107751D+02
 SVDSVc IOpt=   1 NormSV=T IR=1
 SVDSVc V= 2.09D+00 1.91D+00 1.40D+00 1.40D+00 1.36D+00 1.30D+00 9.53D-01 7.86D-01 6.56D-01 6.04D-01
 SVDSVc V= 6.02D-01 5.53D-01 2.48D-01 1.45D-01
 SVDSVc IOpt=   1 NormSV=T IR=2
 SVDSVc V= 1.40D+00 6.04D-01
 SVDSVc IOpt=   1 NormSV=T IR=3
 SVDSVc V= 1.80D+00 1.40D+00 1.28D+00 6.73D-01 6.04D-01 2.48D-01
 SVDSVc IOpt=   1 NormSV=T IR=4
 SVDSVc V= 1.80D+00 1.40D+00 1.28D+00 6.73D-01 6.04D-01 2.48D-01
 TstOVc:  Largest diagonal error= 2.78D-15 IB=1 I=    1.
 TstOVc:  Largest same sym error= 1.40D-15 IB=1 I=    5 J=    3.
 TstOVc:  Largest diff sym error= 0.00D+00 IB=0 JB=0 I=    0 J=    0.
 Orthogonalized basis functions: 
                 1             2             3             4             5 
      1   0.235531D+00 -0.162168D+00  0.295884D-01  0.000000D+00 -0.932770D-01
      2   0.236253D-01  0.271284D-01 -0.252671D-01  0.000000D+00  0.430125D+00
      3   0.828387D-01  0.829115D-01 -0.374108D-01  0.000000D+00  0.588636D+00
      4   0.000000D+00  0.000000D+00  0.000000D+00  0.000000D+00  0.000000D+00
      5   0.000000D+00  0.000000D+00  0.000000D+00  0.000000D+00  0.000000D+00
      6  -0.237381D-01  0.587649D-01  0.240599D-01  0.000000D+00 -0.100623D+00
      7   0.191311D+00  0.164982D+00 -0.254619D-01  0.000000D+00  0.329571D+00
      8   0.000000D+00  0.000000D+00  0.000000D+00  0.000000D+00  0.000000D+00
      9   0.000000D+00  0.000000D+00  0.000000D+00  0.000000D+00  0.000000D+00
     10  -0.687703D-01  0.146933D+00  0.290652D-01  0.000000D+00 -0.112623D+00
     11   0.365718D+00  0.257352D+00  0.489989D-02  0.000000D+00 -0.171626D+00
     12   0.000000D+00  0.000000D+00  0.000000D+00  0.000000D+00  0.000000D+00
     13   0.000000D+00  0.000000D+00  0.000000D+00  0.000000D+00  0.000000D+00
     14  -0.226575D+00  0.397079D+00  0.151873D-01  0.000000D+00 -0.373421D-01
     15   0.372315D+00  0.251466D+00  0.556509D-02  0.000000D+00 -0.162476D+00
     16   0.000000D+00  0.000000D+00  0.000000D+00  0.000000D+00  0.000000D+00
     17   0.000000D+00  0.000000D+00  0.000000D+00  0.000000D+00  0.000000D+00
     18  -0.225124D+00  0.386883D+00  0.103830D-01  0.000000D+00 -0.187449D-01
     19   0.297876D-02 -0.304515D-02  0.595569D+00  0.000000D+00  0.454627D-01
     20   0.000000D+00  0.000000D+00  0.000000D+00  0.000000D+00  0.000000D+00
     21   0.000000D+00  0.000000D+00  0.000000D+00  0.000000D+00  0.000000D+00
     22   0.000000D+00  0.000000D+00  0.000000D+00  0.598479D+00  0.000000D+00
     23   0.000000D+00  0.000000D+00  0.000000D+00  0.000000D+00  0.000000D+00
     24   0.722237D-02 -0.635735D-02  0.596566D+00  0.000000D+00  0.421845D-01
     25   0.000000D+00  0.000000D+00  0.000000D+00  0.000000D+00  0.000000D+00
     26   0.000000D+00  0.000000D+00  0.000000D+00  0.000000D+00  0.000000D+00
     27   0.000000D+00  0.000000D+00  0.000000D+00  0.598479D+00  0.000000D+00
     28   0.000000D+00  0.000000D+00  0.000000D+00  0.000000D+00  0.000000D+00
                 6             7             8             9            10 
      1   0.136582D+00  0.220315D+00  0.889907D+00 -0.380128D+00  0.000000D+00
      2   0.953613D-01  0.760379D+00 -0.216300D+00  0.822589D-01  0.000000D+00
      3   0.108392D+00 -0.117647D+00  0.175627D+00 -0.109926D+00  0.000000D+00
      4   0.000000D+00  0.000000D+00  0.000000D+00  0.000000D+00  0.000000D+00
      5   0.000000D+00  0.000000D+00  0.000000D+00  0.000000D+00  0.000000D+00
      6   0.608550D+00 -0.723638D-01 -0.386223D+00 -0.749049D+00  0.000000D+00
      7   0.304325D-01 -0.599511D+00  0.755687D-01  0.449900D-01  0.000000D+00
      8   0.000000D+00  0.000000D+00  0.000000D+00  0.000000D+00  0.000000D+00
      9   0.000000D+00  0.000000D+00  0.000000D+00  0.000000D+00  0.000000D+00
     10   0.569631D+00  0.654136D-02  0.244114D+00  0.809450D+00  0.000000D+00
     11  -0.647522D-01  0.105405D+00 -0.202543D+00  0.723277D-01  0.000000D+00
     12   0.000000D+00  0.000000D+00  0.000000D+00  0.000000D+00  0.000000D+00
     13   0.000000D+00  0.000000D+00  0.000000D+00  0.000000D+00  0.000000D+00
     14  -0.622517D-01  0.879044D-01  0.301126D+00 -0.792724D-01  0.000000D+00
     15  -0.542464D-01  0.139857D+00 -0.113512D+00  0.182323D-01  0.000000D+00
     16   0.000000D+00  0.000000D+00  0.000000D+00  0.000000D+00  0.000000D+00
     17   0.000000D+00  0.000000D+00  0.000000D+00  0.000000D+00  0.000000D+00
     18  -0.152675D+00  0.770559D-01  0.183752D+00 -0.333622D+00  0.000000D+00
     19  -0.234761D-01 -0.158755D-01 -0.870618D-01  0.104969D+00  0.000000D+00
     20   0.000000D+00  0.000000D+00  0.000000D+00  0.000000D+00  0.000000D+00
     21   0.000000D+00  0.000000D+00  0.000000D+00  0.000000D+00  0.000000D+00
     22   0.000000D+00  0.000000D+00  0.000000D+00  0.000000D+00  0.909812D+00
     23   0.000000D+00  0.000000D+00  0.000000D+00  0.000000D+00  0.000000D+00
     24  -0.182184D-01  0.101229D-02  0.433981D-01 -0.895962D-01  0.000000D+00
     25   0.000000D+00  0.000000D+00  0.000000D+00  0.000000D+00  0.000000D+00
     26   0.000000D+00  0.000000D+00  0.000000D+00  0.000000D+00  0.000000D+00
     27   0.000000D+00  0.000000D+00  0.000000D+00  0.000000D+00 -0.909812D+00
     28   0.000000D+00  0.000000D+00  0.000000D+00  0.000000D+00  0.000000D+00
                11            12            13            14            15 
      1  -0.126736D+00 -0.187253D+00 -0.476220D-01 -0.151279D+00  0.000000D+00
      2   0.448744D-01 -0.501683D+00 -0.826602D-03  0.247431D-01  0.000000D+00
      3  -0.698889D-01  0.884108D+00  0.277233D-02 -0.127570D+00  0.000000D+00
      4   0.000000D+00  0.000000D+00  0.000000D+00  0.000000D+00  0.000000D+00
      5   0.000000D+00  0.000000D+00  0.000000D+00  0.000000D+00  0.000000D+00
      6  -0.523593D-01 -0.407461D-01  0.125319D+00 -0.198400D-02  0.000000D+00
      7   0.481184D-01 -0.818503D+00 -0.488588D-02  0.100763D+00  0.000000D+00
      8   0.000000D+00  0.000000D+00  0.000000D+00  0.000000D+00  0.000000D+00
      9   0.000000D+00  0.000000D+00  0.000000D+00  0.000000D+00  0.000000D+00
     10   0.667170D-01  0.592945D-01 -0.334620D+00  0.614793D-02  0.000000D+00
     11   0.208964D-01  0.112198D+00  0.190135D-01 -0.184631D+01  0.000000D+00
     12   0.000000D+00  0.000000D+00  0.000000D+00  0.000000D+00  0.000000D+00
     13   0.000000D+00  0.000000D+00  0.000000D+00  0.000000D+00  0.000000D+00
     14  -0.333815D-01 -0.497126D-01  0.142026D+01 -0.117857D-01  0.000000D+00
     15  -0.352925D-02  0.206641D+00 -0.788933D-02  0.185064D+01  0.000000D+00
     16   0.000000D+00  0.000000D+00  0.000000D+00  0.000000D+00  0.000000D+00
     17   0.000000D+00  0.000000D+00  0.000000D+00  0.000000D+00  0.000000D+00
     18  -0.487686D-01 -0.574965D-01 -0.137555D+01 -0.453594D-01  0.000000D+00
     19  -0.898794D+00 -0.453766D-01 -0.116393D-02 -0.259463D-02  0.000000D+00
     20   0.000000D+00  0.000000D+00  0.000000D+00  0.000000D+00  0.000000D+00
     21   0.000000D+00  0.000000D+00  0.000000D+00  0.000000D+00  0.000000D+00
     22   0.000000D+00  0.000000D+00  0.000000D+00  0.000000D+00  0.000000D+00
     23   0.000000D+00  0.000000D+00  0.000000D+00  0.000000D+00  0.598479D+00
     24   0.903570D+00  0.520194D-01  0.240445D-02  0.621295D-02  0.000000D+00
     25   0.000000D+00  0.000000D+00  0.000000D+00  0.000000D+00  0.000000D+00
     26   0.000000D+00  0.000000D+00  0.000000D+00  0.000000D+00  0.000000D+00
     27   0.000000D+00  0.000000D+00  0.000000D+00  0.000000D+00  0.000000D+00
     28   0.000000D+00  0.000000D+00  0.000000D+00  0.000000D+00  0.598479D+00
                16            17            18            19            20 
      1   0.000000D+00  0.000000D+00  0.000000D+00  0.000000D+00  0.000000D+00
      2   0.000000D+00  0.000000D+00  0.000000D+00  0.000000D+00  0.000000D+00
      3   0.000000D+00  0.000000D+00  0.000000D+00  0.000000D+00  0.000000D+00
      4   0.000000D+00  0.989007D-01  0.000000D+00  0.631613D+00 -0.834101D+00
      5   0.000000D+00  0.000000D+00  0.000000D+00  0.000000D+00  0.000000D+00
      6   0.000000D+00  0.000000D+00  0.000000D+00  0.000000D+00  0.000000D+00
      7   0.000000D+00  0.000000D+00  0.000000D+00  0.000000D+00  0.000000D+00
      8   0.000000D+00  0.221260D+00  0.000000D+00  0.556385D+00  0.851114D+00
      9   0.000000D+00  0.000000D+00  0.000000D+00  0.000000D+00  0.000000D+00
     10   0.000000D+00  0.000000D+00  0.000000D+00  0.000000D+00  0.000000D+00
     11   0.000000D+00  0.000000D+00  0.000000D+00  0.000000D+00  0.000000D+00
     12   0.000000D+00  0.509061D+00  0.000000D+00 -0.144130D+00  0.341821D-01
     13   0.000000D+00  0.000000D+00  0.000000D+00  0.000000D+00  0.000000D+00
     14   0.000000D+00  0.000000D+00  0.000000D+00  0.000000D+00  0.000000D+00
     15   0.000000D+00  0.000000D+00  0.000000D+00  0.000000D+00  0.000000D+00
     16   0.000000D+00  0.487367D+00  0.000000D+00 -0.230220D+00 -0.252838D+00
     17   0.000000D+00  0.000000D+00  0.000000D+00  0.000000D+00  0.000000D+00
     18   0.000000D+00  0.000000D+00  0.000000D+00  0.000000D+00  0.000000D+00
     19   0.000000D+00  0.000000D+00  0.000000D+00  0.000000D+00  0.000000D+00
     20   0.000000D+00  0.000000D+00  0.598479D+00  0.000000D+00  0.000000D+00
     21   0.000000D+00  0.000000D+00  0.000000D+00  0.000000D+00  0.000000D+00
     22   0.000000D+00  0.000000D+00  0.000000D+00  0.000000D+00  0.000000D+00
     23   0.909812D+00  0.000000D+00  0.000000D+00  0.000000D+00  0.000000D+00
     24   0.000000D+00  0.000000D+00  0.000000D+00  0.000000D+00  0.000000D+00
     25   0.000000D+00  0.000000D+00  0.598479D+00  0.000000D+00  0.000000D+00
     26   0.000000D+00  0.000000D+00  0.000000D+00  0.000000D+00  0.000000D+00
     27   0.000000D+00  0.000000D+00  0.000000D+00  0.000000D+00  0.000000D+00
     28  -0.909812D+00  0.000000D+00  0.000000D+00  0.000000D+00  0.000000D+00
                21            22            23            24            25 
      1   0.000000D+00  0.000000D+00  0.000000D+00  0.000000D+00  0.000000D+00
      2   0.000000D+00  0.000000D+00  0.000000D+00  0.000000D+00  0.000000D+00
      3   0.000000D+00  0.000000D+00  0.000000D+00  0.000000D+00  0.000000D+00
      4   0.000000D+00  0.126826D+00  0.000000D+00  0.000000D+00  0.000000D+00
      5   0.000000D+00  0.000000D+00  0.989007D-01  0.000000D+00  0.631613D+00
      6   0.000000D+00  0.000000D+00  0.000000D+00  0.000000D+00  0.000000D+00
      7   0.000000D+00  0.000000D+00  0.000000D+00  0.000000D+00  0.000000D+00
      8   0.000000D+00 -0.338446D+00  0.000000D+00  0.000000D+00  0.000000D+00
      9   0.000000D+00  0.000000D+00  0.221260D+00  0.000000D+00  0.556385D+00
     10   0.000000D+00  0.000000D+00  0.000000D+00  0.000000D+00  0.000000D+00
     11   0.000000D+00  0.000000D+00  0.000000D+00  0.000000D+00  0.000000D+00
     12   0.000000D+00  0.142883D+01  0.000000D+00  0.000000D+00  0.000000D+00
     13   0.000000D+00  0.000000D+00  0.509061D+00  0.000000D+00 -0.144130D+00
     14   0.000000D+00  0.000000D+00  0.000000D+00  0.000000D+00  0.000000D+00
     15   0.000000D+00  0.000000D+00  0.000000D+00  0.000000D+00  0.000000D+00
     16   0.000000D+00 -0.136452D+01  0.000000D+00  0.000000D+00  0.000000D+00
     17   0.000000D+00  0.000000D+00  0.487367D+00  0.000000D+00 -0.230220D+00
     18   0.000000D+00  0.000000D+00  0.000000D+00  0.000000D+00  0.000000D+00
     19   0.000000D+00  0.000000D+00  0.000000D+00  0.000000D+00  0.000000D+00
     20   0.909812D+00  0.000000D+00  0.000000D+00  0.000000D+00  0.000000D+00
     21   0.000000D+00  0.000000D+00  0.000000D+00  0.598479D+00  0.000000D+00
     22   0.000000D+00  0.000000D+00  0.000000D+00  0.000000D+00  0.000000D+00
     23   0.000000D+00  0.000000D+00  0.000000D+00  0.000000D+00  0.000000D+00
     24   0.000000D+00  0.000000D+00  0.000000D+00  0.000000D+00  0.000000D+00
     25  -0.909812D+00  0.000000D+00  0.000000D+00  0.000000D+00  0.000000D+00
     26   0.000000D+00  0.000000D+00  0.000000D+00  0.598479D+00  0.000000D+00
     27   0.000000D+00  0.000000D+00  0.000000D+00  0.000000D+00  0.000000D+00
     28   0.000000D+00  0.000000D+00  0.000000D+00  0.000000D+00  0.000000D+00
                26            27            28 
      1   0.000000D+00  0.000000D+00  0.000000D+00
      2   0.000000D+00  0.000000D+00  0.000000D+00
      3   0.000000D+00  0.000000D+00  0.000000D+00
      4   0.000000D+00  0.000000D+00  0.000000D+00
      5  -0.834101D+00  0.000000D+00  0.126826D+00
      6   0.000000D+00  0.000000D+00  0.000000D+00
      7   0.000000D+00  0.000000D+00  0.000000D+00
      8   0.000000D+00  0.000000D+00  0.000000D+00
      9   0.851114D+00  0.000000D+00 -0.338446D+00
     10   0.000000D+00  0.000000D+00  0.000000D+00
     11   0.000000D+00  0.000000D+00  0.000000D+00
     12   0.000000D+00  0.000000D+00  0.000000D+00
     13   0.341821D-01  0.000000D+00  0.142883D+01
     14   0.000000D+00  0.000000D+00  0.000000D+00
     15   0.000000D+00  0.000000D+00  0.000000D+00
     16   0.000000D+00  0.000000D+00  0.000000D+00
     17  -0.252838D+00  0.000000D+00 -0.136452D+01
     18   0.000000D+00  0.000000D+00  0.000000D+00
     19   0.000000D+00  0.000000D+00  0.000000D+00
     20   0.000000D+00  0.000000D+00  0.000000D+00
     21   0.000000D+00  0.909812D+00  0.000000D+00
     22   0.000000D+00  0.000000D+00  0.000000D+00
     23   0.000000D+00  0.000000D+00  0.000000D+00
     24   0.000000D+00  0.000000D+00  0.000000D+00
     25   0.000000D+00  0.000000D+00  0.000000D+00
     26   0.000000D+00 -0.909812D+00  0.000000D+00
     27   0.000000D+00  0.000000D+00  0.000000D+00
     28   0.000000D+00  0.000000D+00  0.000000D+00
 NBasis=    28 RedAO= T EigKep=  1.45D-01  NBF=    14     2     6     6
 NBsUse=    28 1.00D-06 EigRej= -1.00D+00 NBFU=    14     2     6     6
 Leave Link  302 at Fri Mar 25 14:58:37 2022, MaxMem=  9663676416 cpu:               3.7 elap:               0.1
 (Enter /nopt/nrel/apps/gaussian/g16C_1/g16/l303.exe)
 DipDrv will not compute anything.
 Fermi contact integrals: 
                 1             2 
      1   0.628247D+00  0.523802D-03
      2   0.000000D+00  0.499382D+02
      3   0.000000D+00  0.100937D+01
      4   0.000000D+00  0.000000D+00
      5   0.000000D+00  0.000000D+00
      6   0.000000D+00  0.000000D+00
      7   0.000000D+00  0.218861D-01
      8   0.000000D+00  0.000000D+00
      9   0.000000D+00  0.000000D+00
     10   0.000000D+00  0.000000D+00
     11   0.122648D-01 -0.359953D-02
     12   0.000000D+00  0.000000D+00
     13   0.000000D+00  0.000000D+00
     14  -0.330400D-01  0.000000D+00
     15   0.211191D-01  0.468609D-01
     16   0.000000D+00  0.000000D+00
     17   0.000000D+00  0.000000D+00
     18  -0.377082D-01  0.000000D+00
     19   0.000000D+00  0.000000D+00
     20   0.000000D+00  0.000000D+00
     21   0.000000D+00  0.000000D+00
     22   0.000000D+00  0.000000D+00
     23   0.000000D+00  0.000000D+00
     24   0.419346D-04  0.000000D+00
     25   0.000000D+00  0.000000D+00
     26   0.000000D+00  0.000000D+00
     27   0.000000D+00  0.000000D+00
     28   0.000000D+00  0.000000D+00
 Leave Link  303 at Fri Mar 25 14:58:37 2022, MaxMem=  9663676416 cpu:               1.0 elap:               0.1
 (Enter /nopt/nrel/apps/gaussian/g16C_1/g16/l401.exe)
 ExpMin= 2.65D-02 ExpMax= 2.34D+03 ExpMxC= 2.34D+03 IAcc=3 IRadAn=         5 AccDes= 0.00D+00
 Harris functional with IExCor=  205 and IRadAn=       5 diagonalized for initial guess.
 HarFok:  IExCor=  205 AccDes= 0.00D+00 IRadAn=         5 IDoV= 1 UseB2=F ITyADJ=14
 ICtDFT=  3500011 ScaDFX=  1.000000  1.000000  1.000000  1.000000
 FoFCou: FMM=F IPFlag=           0 FMFlag=      100000 FMFlg1=           0
         NFxFlg=           0 DoJE=T BraDBF=F KetDBF=T FulRan=T
         wScrn=  0.000000 ICntrl=       500 IOpCl=  0 I1Cent=   200000004 NGrid=           0
         NMat0=    1 NMatS0=      1 NMatT0=    0 NMatD0=    1 NMtDS0=    0 NMtDT0=    0
 Petite list used in FoFCou.
 Harris En= -844.021997756453    
 JPrj=0 DoOrth=F DoCkMO=F.
 Initial guess orbital symmetries:
 Alpha Orbitals:
       Occupied  (SG) (SG) (SG) (PI) (PI) (SG) (SG) (PI) (PI) (SG)
                 (SG) (PI)
       Virtual   (PI) (DLTA) (DLTA) (SG) (PI) (PI) (SG) (SG) (SG)
                 (PI) (PI) (PI) (PI) (DLTA) (DLTA) (SG)
 Beta  Orbitals:
       Occupied  (SG) (SG) (SG) (PI) (PI) (SG) (SG) (PI) (PI) (SG)
                 (SG)
       Virtual   (PI) (PI) (DLTA) (DLTA) (SG) (PI) (PI) (SG) (SG)
                 (SG) (PI) (PI) (PI) (PI) (DLTA) (DLTA) (SG)
 Initial guess <Sx>= 0.0000 <Sy>= 0.0000 <Sz>= 0.5000 <S**2>= 0.7500 S= 0.5000
 Leave Link  401 at Fri Mar 25 14:58:37 2022, MaxMem=  9663676416 cpu:               4.5 elap:               0.2
 (Enter /nopt/nrel/apps/gaussian/g16C_1/g16/l502.exe)
 Keep R1 and R2 ints in memory in symmetry-blocked form, NReq=7478207.
 FoFCou: FMM=F IPFlag=           0 FMFlag=           0 FMFlg1=           0
         NFxFlg=           0 DoJE=F BraDBF=F KetDBF=F FulRan=T
         wScrn=  0.000000 ICntrl=       600 IOpCl=  0 I1Cent=           0 NGrid=           0
         NMat0=    1 NMatS0=    406 NMatT0=    0 NMatD0=    1 NMtDS0=    0 NMtDT0=    0
 Petite list used in FoFCou.
 UHF open shell SCF:
 Using DIIS extrapolation, IDIIS=  1040.
 NGot=  9663676416 LenX=  9663625622 LenY=  9663624281
 Requested convergence on RMS density matrix=1.00D-08 within 128 cycles.
 Requested convergence on MAX density matrix=1.00D-06.
 Requested convergence on             energy=1.00D-06.
 No special actions if energy rises.

 Cycle   1  Pass 1  IDiag  1:
 E= -844.455284250722    
 DIIS: error= 8.65D-02 at cycle   1 NSaved=   1.
 NSaved= 1 IEnMin= 1 EnMin= -844.455284250722     IErMin= 1 ErrMin= 8.65D-02
 ErrMax= 8.65D-02  0.00D+00 EMaxC= 1.00D-01 BMatC= 2.23D-01 BMatP= 2.23D-01
 IDIUse=3 WtCom= 1.35D-01 WtEn= 8.65D-01
 Coeff-Com:  0.100D+01
 Coeff-En:   0.100D+01
 Coeff:      0.100D+01
 Gap=     0.108 Goal=   None    Shift=    0.000
 Gap=     0.130 Goal=   None    Shift=    0.000
 GapD=    0.108 DampG=1.000 DampE=0.250 DampFc=0.2500 IDamp=-1.
 Damping current iteration by 2.50D-01
 RMSDP=2.30D-02 MaxDP=3.52D-01              OVMax= 2.48D-02

 Cycle   2  Pass 1  IDiag  1:
 E= -844.482703196313     Delta-E=       -0.027418945590 Rises=F Damp=T
 DIIS: error= 5.98D-02 at cycle   2 NSaved=   2.
 NSaved= 2 IEnMin= 2 EnMin= -844.482703196313     IErMin= 2 ErrMin= 5.98D-02
 ErrMax= 5.98D-02  0.00D+00 EMaxC= 1.00D-01 BMatC= 1.04D-01 BMatP= 2.23D-01
 IDIUse=3 WtCom= 4.02D-01 WtEn= 5.98D-01
 Coeff-Com: -0.202D+01 0.302D+01
 Coeff-En:   0.000D+00 0.100D+01
 Coeff:     -0.811D+00 0.181D+01
 Gap=     0.169 Goal=   None    Shift=    0.000
 Gap=     0.211 Goal=   None    Shift=    0.000
 RMSDP=1.36D-02 MaxDP=2.10D-01 DE=-2.74D-02 OVMax= 3.56D-03

 Cycle   3  Pass 1  IDiag  1:
 E= -844.562405358558     Delta-E=       -0.079702162245 Rises=F Damp=F
 DIIS: error= 9.59D-03 at cycle   3 NSaved=   3.
 NSaved= 3 IEnMin= 3 EnMin= -844.562405358558     IErMin= 3 ErrMin= 9.59D-03
 ErrMax= 9.59D-03  0.00D+00 EMaxC= 1.00D-01 BMatC= 5.60D-03 BMatP= 1.04D-01
 IDIUse=3 WtCom= 9.04D-01 WtEn= 9.59D-02
 Coeff-Com: -0.202D+00 0.394D+00 0.808D+00
 Coeff-En:   0.000D+00 0.000D+00 0.100D+01
 Coeff:     -0.183D+00 0.357D+00 0.826D+00
 Gap=     0.220 Goal=   None    Shift=    0.000
 Gap=     0.258 Goal=   None    Shift=    0.000
 RMSDP=4.47D-03 MaxDP=7.71D-02 DE=-7.97D-02 OVMax= 2.19D-03

 Cycle   4  Pass 1  IDiag  1:
 E= -844.573752091782     Delta-E=       -0.011346733224 Rises=F Damp=F
 DIIS: error= 1.05D-02 at cycle   4 NSaved=   4.
[...]
 RLE energy=       -0.0337111197
 DE(Corr)= -0.33714044E-01 E(CORR)=     -844.74904947     Delta= 2.55D-06
 NORM(A)=   0.10943263D+01
 Iteration Nr.  55
 **********************
 DD1Dir will call FoFMem   1 times, MxPair=        16
 NAB=     6 NAA=     3 NBB=     1.
 A-vector RMS=  2.2183623D-05 Max=  6.3412921D-05 conv= 1.00D-05.
 RLE energy=       -0.0337099511
 DE(Corr)= -0.33710666E-01 E(CORR)=     -844.74904610     Delta= 3.38D-06
 NORM(A)=   0.10935311D+01
 Iteration Nr.  56
 **********************
 DD1Dir will call FoFMem   1 times, MxPair=        16
 NAB=     6 NAA=     3 NBB=     1.
 A-vector RMS=  1.6638958D-05 Max=  5.8228479D-05 conv= 1.00D-05.
 RLE energy=       -0.0337110491
 DE(Corr)= -0.33709262E-01 E(CORR)=     -844.74904469     Delta= 1.40D-06
 NORM(A)=   0.10929750D+01
 Iteration Nr.  57
 **********************
 DD1Dir will call FoFMem   1 times, MxPair=        16
 NAB=     6 NAA=     3 NBB=     1.
 A-vector RMS=  1.5601020D-05 Max=  5.4382118D-05 conv= 1.00D-05.
 RLE energy=       -0.0337124372
 DE(Corr)= -0.33710436E-01 E(CORR)=     -844.74904587     Delta=-1.17D-06
 NORM(A)=   0.10925514D+01
 Iteration Nr.  58
 **********************
 DD1Dir will call FoFMem   1 times, MxPair=        16
 NAB=     6 NAA=     3 NBB=     1.
 A-vector RMS=  1.5341793D-05 Max=  4.7795591D-05 conv= 1.00D-05.
 RLE energy=       -0.0337131480
 DE(Corr)= -0.33712128E-01 E(CORR)=     -844.74904756     Delta=-1.69D-06
 NORM(A)=   0.10921923D+01
 Iteration Nr.  59
 **********************
 DD1Dir will call FoFMem   1 times, MxPair=        16
 NAB=     6 NAA=     3 NBB=     1.
 A-vector RMS=  1.6509468D-05 Max=  4.2442730D-05 conv= 1.00D-05.
 RLE energy=       -0.0337123685
 DE(Corr)= -0.33712765E-01 E(CORR)=     -844.74904820     Delta=-6.36D-07
 NORM(A)=   0.10918108D+01
 Iteration Nr.  60
 **********************
 DD1Dir will call FoFMem   1 times, MxPair=        16
 NAB=     6 NAA=     3 NBB=     1.
 A-vector RMS=  1.6560940D-05 Max=  3.6334055D-05 conv= 1.00D-05.
 RLE energy=       -0.0337116260
 DE(Corr)= -0.33711762E-01 E(CORR)=     -844.74904719     Delta= 1.00D-06
 NORM(A)=   0.10915155D+01
 Iteration Nr.  61
 **********************
 DD1Dir will call FoFMem   1 times, MxPair=        16
 NAB=     6 NAA=     3 NBB=     1.
 A-vector RMS=  1.2150390D-05 Max=  3.0211722D-05 conv= 1.00D-05.
 RLE energy=       -0.0337114640
 DE(Corr)= -0.33710690E-01 E(CORR)=     -844.74904612     Delta= 1.07D-06
 NORM(A)=   0.10913501D+01
 Iteration Nr.  62
 **********************
 DD1Dir will call FoFMem   1 times, MxPair=        16
 NAB=     6 NAA=     3 NBB=     1.
 A-vector RMS=  8.8409141D-06 Max=  2.5909725D-05 conv= 1.00D-05.
 RLE energy=       -0.0337120786
 DE(Corr)= -0.33710538E-01 E(CORR)=     -844.74904597     Delta= 1.53D-07
 NORM(A)=   0.10912521D+01
 Iteration Nr.  63
 **********************
 DD1Dir will call FoFMem   1 times, MxPair=        16
 NAB=     6 NAA=     3 NBB=     1.
 A-vector RMS=  6.2151300D-06 Max=  2.2267007D-05 conv= 1.00D-05.
 RLE energy=       -0.0337125835
 DE(Corr)= -0.33711224E-01 E(CORR)=     -844.74904665     Delta=-6.87D-07
 NORM(A)=   0.10911971D+01
 Iteration Nr.  64
 **********************
 DD1Dir will call FoFMem   1 times, MxPair=        16
 NAB=     6 NAA=     3 NBB=     1.
 A-vector RMS=  5.9563130D-06 Max=  1.8586552D-05 conv= 1.00D-05.
 RLE energy=       -0.0337128356
 DE(Corr)= -0.33711851E-01 E(CORR)=     -844.74904728     Delta=-6.26D-07
 NORM(A)=   0.10911648D+01
 Iteration Nr.  65
 **********************
 DD1Dir will call FoFMem   1 times, MxPair=        16
 NAB=     6 NAA=     3 NBB=     1.
 A-vector RMS=  6.8541248D-06 Max=  1.5814275D-05 conv= 1.00D-05.
 RLE energy=       -0.0337126522
 DE(Corr)= -0.33712099E-01 E(CORR)=     -844.74904753     Delta=-2.49D-07
 NORM(A)=   0.10911361D+01
 Iteration Nr.  66
 **********************
 DD1Dir will call FoFMem   1 times, MxPair=        16
 NAB=     6 NAA=     3 NBB=     1.
 A-vector RMS=  6.7096467D-06 Max=  1.5798781D-05 conv= 1.00D-05.
 RLE energy=       -0.0337125007
 DE(Corr)= -0.33711885E-01 E(CORR)=     -844.74904732     Delta= 2.14D-07
 NORM(A)=   0.10911220D+01
 Iteration Nr.  67
 **********************
 DD1Dir will call FoFMem   1 times, MxPair=        16
 NAB=     6 NAA=     3 NBB=     1.
 A-vector RMS=  6.3784516D-06 Max=  1.5882447D-05 conv= 1.00D-05.
 RLE energy=       -0.0337125248
 DE(Corr)= -0.33711655E-01 E(CORR)=     -844.74904709     Delta= 2.30D-07
 NORM(A)=   0.10911237D+01
 Iteration Nr.  68
 **********************
 DD1Dir will call FoFMem   1 times, MxPair=        16
 NAB=     6 NAA=     3 NBB=     1.
 A-vector RMS=  5.9181475D-06 Max=  1.5798582D-05 conv= 1.00D-05.
 RLE energy=       -0.0337129376
 DE(Corr)= -0.33711717E-01 E(CORR)=     -844.74904715     Delta=-6.19D-08
 NORM(A)=   0.10911361D+01
 Iteration Nr.  69
 **********************
 DD1Dir will call FoFMem   1 times, MxPair=        16
 NAB=     6 NAA=     3 NBB=     1.
 A-vector RMS=  4.2942197D-06 Max=  1.5657134D-05 conv= 1.00D-05.
 RLE energy=       -0.0337132240
 DE(Corr)= -0.33712190E-01 E(CORR)=     -844.74904762     Delta=-4.73D-07
 NORM(A)=   0.10911490D+01
 Iteration Nr.  70
 **********************
 DD1Dir will call FoFMem   1 times, MxPair=        16
 NAB=     6 NAA=     3 NBB=     1.
 A-vector RMS=  4.2065777D-06 Max=  1.5580897D-05 conv= 1.00D-05.
 RLE energy=       -0.0337133816
 DE(Corr)= -0.33712552E-01 E(CORR)=     -844.74904798     Delta=-3.63D-07
 NORM(A)=   0.10911629D+01
 Iteration Nr.  71
 **********************
 DD1Dir will call FoFMem   1 times, MxPair=        16
 NAB=     6 NAA=     3 NBB=     1.
 A-vector RMS=  4.2463431D-06 Max=  1.5524829D-05 conv= 1.00D-05.
 RLE energy=       -0.0337133315
 DE(Corr)= -0.33712723E-01 E(CORR)=     -844.74904815     Delta=-1.71D-07
 NORM(A)=   0.10911810D+01
 Iteration Nr.  72
 **********************
 DD1Dir will call FoFMem   1 times, MxPair=        16
 NAB=     6 NAA=     3 NBB=     1.
 A-vector RMS=  3.4327045D-06 Max=  1.5425041D-05 conv= 1.00D-05.
 RLE energy=       -0.0337132985
 DE(Corr)= -0.33712679E-01 E(CORR)=     -844.74904811     Delta= 4.38D-08
 NORM(A)=   0.10911984D+01
 Iteration Nr.  73
 **********************
 DD1Dir will call FoFMem   1 times, MxPair=        16
 NAB=     6 NAA=     3 NBB=     1.
 A-vector RMS=  3.5444920D-06 Max=  1.5277753D-05 conv= 1.00D-05.
 RLE energy=       -0.0337133278
 DE(Corr)= -0.33712628E-01 E(CORR)=     -844.74904806     Delta= 5.15D-08
 NORM(A)=   0.10912262D+01
 Iteration Nr.  74
 **********************
 DD1Dir will call FoFMem   1 times, MxPair=        16
 NAB=     6 NAA=     3 NBB=     1.
 A-vector RMS=  3.6781681D-06 Max=  1.5016879D-05 conv= 1.00D-05.
 RLE energy=       -0.0337136567
 DE(Corr)= -0.33712685E-01 E(CORR)=     -844.74904812     Delta=-5.75D-08
 NORM(A)=   0.10912803D+01
 Iteration Nr.  75
 **********************
 DD1Dir will call FoFMem   1 times, MxPair=        16
 NAB=     6 NAA=     3 NBB=     1.
 A-vector RMS=  3.7455750D-06 Max=  1.4545035D-05 conv= 1.00D-05.
 RLE energy=       -0.0337139955
 DE(Corr)= -0.33713069E-01 E(CORR)=     -844.74904850     Delta=-3.84D-07
 NORM(A)=   0.10913492D+01
 Iteration Nr.  76
 **********************
 DD1Dir will call FoFMem   1 times, MxPair=        16
 NAB=     6 NAA=     3 NBB=     1.
 A-vector RMS=  5.6114060D-06 Max=  1.4012056D-05 conv= 1.00D-05.
 RLE energy=       -0.0337143587
 DE(Corr)= -0.33713508E-01 E(CORR)=     -844.74904894     Delta=-4.39D-07
 NORM(A)=   0.10914655D+01
 Iteration Nr.  77
 **********************
 DD1Dir will call FoFMem   1 times, MxPair=        16
 NAB=     6 NAA=     3 NBB=     1.
 A-vector RMS=  6.2679566D-06 Max=  1.3171377D-05 conv= 1.00D-05.
 RLE energy=       -0.0337143600
 DE(Corr)= -0.33713937E-01 E(CORR)=     -844.74904937     Delta=-4.29D-07
 NORM(A)=   0.10916028D+01
 Iteration Nr.  78
 **********************
 DD1Dir will call FoFMem   1 times, MxPair=        16
 NAB=     6 NAA=     3 NBB=     1.
 A-vector RMS=  4.2642809D-06 Max=  1.2155504D-05 conv= 1.00D-05.
 RLE energy=       -0.0337143314
 DE(Corr)= -0.33713996E-01 E(CORR)=     -844.74904943     Delta=-5.88D-08
 NORM(A)=   0.10917273D+01
 Iteration Nr.  79
 **********************
 DD1Dir will call FoFMem   1 times, MxPair=        16
 NAB=     6 NAA=     3 NBB=     1.
 A-vector RMS=  4.5572307D-06 Max=  1.3027544D-05 conv= 1.00D-05.
 RLE energy=       -0.0337143779
 DE(Corr)= -0.33713953E-01 E(CORR)=     -844.74904938     Delta= 4.26D-08
 NORM(A)=   0.10918482D+01
 Iteration Nr.  80
 **********************
 DD1Dir will call FoFMem   1 times, MxPair=        16
 NAB=     6 NAA=     3 NBB=     1.
 A-vector RMS=  4.4875757D-06 Max=  1.4235531D-05 conv= 1.00D-05.
 RLE energy=       -0.0337147739
 DE(Corr)= -0.33714056E-01 E(CORR)=     -844.74904949     Delta=-1.03D-07
 NORM(A)=   0.10919910D+01
 Iteration Nr.  81
 **********************
 DD1Dir will call FoFMem   1 times, MxPair=        16
 NAB=     6 NAA=     3 NBB=     1.
 A-vector RMS=  3.3979386D-06 Max=  1.5095000D-05 conv= 1.00D-05.
 RLE energy=       -0.0337152268
 DE(Corr)= -0.33714524E-01 E(CORR)=     -844.74904995     Delta=-4.68D-07
 NORM(A)=   0.10921758D+01
 Iteration Nr.  82
 **********************
 DD1Dir will call FoFMem   1 times, MxPair=        16
 NAB=     6 NAA=     3 NBB=     1.
 A-vector RMS=  5.8943727D-06 Max=  1.5628421D-05 conv= 1.00D-05.
 RLE energy=       -0.0337156655
 DE(Corr)= -0.33715129E-01 E(CORR)=     -844.74905056     Delta=-6.05D-07
 NORM(A)=   0.10924404D+01
 Iteration Nr.  83
 **********************
 DD1Dir will call FoFMem   1 times, MxPair=        16
 NAB=     6 NAA=     3 NBB=     1.
 A-vector RMS=  6.4155902D-06 Max=  1.7024533D-05 conv= 1.00D-05.
 RLE energy=       -0.0337156230
 DE(Corr)= -0.33715675E-01 E(CORR)=     -844.74905110     Delta=-5.45D-07
 NORM(A)=   0.10927018D+01
 Iteration Nr.  84
 **********************
 DD1Dir will call FoFMem   1 times, MxPair=        16
 NAB=     6 NAA=     3 NBB=     1.
 A-vector RMS=  3.8092450D-06 Max=  1.7275626D-05 conv= 1.00D-05.
 RLE energy=       -0.0337155063
 DE(Corr)= -0.33715712E-01 E(CORR)=     -844.74905114     Delta=-3.69D-08
 NORM(A)=   0.10929163D+01
 Iteration Nr.  85
 **********************
 DD1Dir will call FoFMem   1 times, MxPair=        16
 NAB=     6 NAA=     3 NBB=     1.
 A-vector RMS=  4.7808544D-06 Max=  1.6211708D-05 conv= 1.00D-05.
 RLE energy=       -0.0337154428
 DE(Corr)= -0.33715567E-01 E(CORR)=     -844.74905100     Delta= 1.45D-07
 NORM(A)=   0.10930637D+01
 Iteration Nr.  86
 **********************
 DD1Dir will call FoFMem   1 times, MxPair=        16
 NAB=     6 NAA=     3 NBB=     1.
 A-vector RMS=  4.5509114D-06 Max=  1.5606404D-05 conv= 1.00D-05.
 RLE energy=       -0.0337156913
 DE(Corr)= -0.33715537E-01 E(CORR)=     -844.74905097     Delta= 3.04D-08
 NORM(A)=   0.10932019D+01
 Iteration Nr.  87
 **********************
 DD1Dir will call FoFMem   1 times, MxPair=        16
 NAB=     6 NAA=     3 NBB=     1.
 A-vector RMS=  3.5314867D-06 Max=  1.4000874D-05 conv= 1.00D-05.
 RLE energy=       -0.0337159507
 DE(Corr)= -0.33715822E-01 E(CORR)=     -844.74905125     Delta=-2.85D-07
 NORM(A)=   0.10933508D+01
 Iteration Nr.  88
 **********************
 DD1Dir will call FoFMem   1 times, MxPair=        16
 NAB=     6 NAA=     3 NBB=     1.
 A-vector RMS=  5.0410031D-06 Max=  1.2370998D-05 conv= 1.00D-05.
 RLE energy=       -0.0337160893
 DE(Corr)= -0.33716189E-01 E(CORR)=     -844.74905162     Delta=-3.68D-07
 NORM(A)=   0.10934874D+01
 Iteration Nr.  89
 **********************
 DD1Dir will call FoFMem   1 times, MxPair=        16
 NAB=     6 NAA=     3 NBB=     1.
 A-vector RMS=  4.4118504D-06 Max=  1.0802374D-05 conv= 1.00D-05.
 RLE energy=       -0.0337159263
 DE(Corr)= -0.33716363E-01 E(CORR)=     -844.74905179     Delta=-1.74D-07
 NORM(A)=   0.10935819D+01
 Iteration Nr.  90
 **********************
 DD1Dir will call FoFMem   1 times, MxPair=        16
 NAB=     6 NAA=     3 NBB=     1.
 A-vector RMS=  2.4726065D-06 Max=  9.0540858D-06 conv= 1.00D-05.
 RLE energy=       -0.0337157774
 DE(Corr)= -0.33716209E-01 E(CORR)=     -844.74905164     Delta= 1.54D-07
 NORM(A)=   0.10936366D+01
 Iteration Nr.  91
 **********************
 DD1Dir will call FoFMem   1 times, MxPair=        16
 NAB=     6 NAA=     3 NBB=     1.
 A-vector RMS=  2.0334370D-06 Max=  7.7185223D-06 conv= 1.00D-05.
 RLE energy=       -0.0337156920
 DE(Corr)= -0.33716017E-01 E(CORR)=     -844.74905145     Delta= 1.92D-07
 NORM(A)=   0.10936614D+01
 Iteration Nr.  92
 **********************
 DD1Dir will call FoFMem   1 times, MxPair=        16
 NAB=     6 NAA=     3 NBB=     1.
 A-vector RMS=  1.8372922D-06 Max=  7.0477336D-06 conv= 1.00D-05.
 RLE energy=       -0.0337157299
 DE(Corr)= -0.33715925E-01 E(CORR)=     -844.74905135     Delta= 9.26D-08
 NORM(A)=   0.10936810D+01
 CI/CC converged in   92 iterations to DelEn= 9.26D-08 Conv= 1.00D-07 ErrA1= 1.84D-06 Conv= 1.00D-05
 Wavefunction amplitudes converged. E(Corr)=     -844.74905135    
 Dominant configurations:
 ***********************
 Spin Case        I    J    A    B          Value
    AA           12        23            0.108766D+00
   AAAA          10   11   20   22       0.187993D+00
   ABAB          12   10   23   14      -0.150142D+00
 Largest amplitude= 1.88D-01

 S**2, projected HF & approx projected MPn energies after annihilation of
 unwanted spin states (see manual for definitions):

 spins       (S**2,0) (S**2,1)    PUHF        PMP2        PMP3        PMP4
 annihilated
 s+1         0.17687  0.32572 -844.728682 -844.742455 -844.748910
 s+1,s+2     0.75002  0.75001 -844.720983 -844.734891 -844.741515

 Discarding MO integrals.
 Leave Link  913 at Fri Mar 25 14:58:38 2022, MaxMem=  9663676416 cpu:              23.3 elap:               0.7
 (Enter /nopt/nrel/apps/gaussian/g16C_1/g16/l601.exe)
 Copying SCF densities to generalized density rwf, IOpCl= 1 IROHF=0.

 **********************************************************************

            Population analysis using the SCF Density.

 **********************************************************************

 Orbital symmetries:
 Alpha Orbitals:
       Occupied  (SG) (SG) (PI) (SG) (PI) (SG) (PI) (PI) (SG) (?A)
                 (?B) (SG)
       Virtual   (SG) (PI) (PI) (SG) (?B) (?A) (?B) (?A) (?A) (?B)
                 (?A) (?A) (?B) (?A) (?B) (?A)
 Beta  Orbitals:
       Occupied  (SG) (SG) (SG) (PI) (PI) (SG) (SG) (PI) (PI) (SG)
                 (SG)
       Virtual   (PI) (PI) (SG) (SG) (PI) (PI) (SG) (?A) (PI) (?A)
                 (?A) (PI) (?B) (PI) (?B) (?B) (PI)
 Unable to determine electronic state:  an orbital has unidentified symmetry.
 Alpha  occ. eigenvalues -- -182.04373 -21.33785 -17.68326 -17.68309 -17.68293
 Alpha  occ. eigenvalues --   -2.93171  -1.86570  -1.86402  -1.86129  -0.42463
 Alpha  occ. eigenvalues --   -0.42334  -0.24095
 Alpha virt. eigenvalues --    0.01953   0.02647   0.02669   0.10846   0.15697
 Alpha virt. eigenvalues --    0.15746   0.15761   0.21204   0.21229   0.21305
 Alpha virt. eigenvalues --    0.34329   1.67631   1.67699   1.79972   1.80039
 Alpha virt. eigenvalues --    1.80255
  Beta  occ. eigenvalues -- -182.04360 -21.30644 -17.65310 -17.65268 -17.65189
  Beta  occ. eigenvalues --   -2.80141  -1.70376  -1.70376  -1.70184  -0.45897
  Beta  occ. eigenvalues --   -0.21839
  Beta virt. eigenvalues --    0.02517   0.02525   0.08726   0.12500   0.16422
  Beta virt. eigenvalues --    0.16430   0.16711   0.25604   0.25759   0.25944
  Beta virt. eigenvalues --    0.28582   0.28693   1.82786   1.82840   1.83003
  Beta virt. eigenvalues --    1.85435   1.85508
          Condensed to atoms (all electrons):
               1          2
     1  H    0.837651   0.098024
     2  Ti   0.098024  21.966301
          Atomic-Atomic Spin Densities.
               1          2
     1  H   -0.805545  -0.036287
     2  Ti  -0.036287   1.878120
 Mulliken charges and spin densities:
               1          2
     1  H    0.064325  -0.841833
     2  Ti  -0.064325   1.841833
 Sum of Mulliken charges =   0.00000   1.00000
 Mulliken charges and spin densities with hydrogens summed into heavy atoms:
               1          2
     2  Ti   0.000000   1.000000
 N-N= 4.014447806979D+00 E-N=-2.011371684211D+03  KE= 8.448504556154D+02
 Symmetry A1   KE= 6.552018080289D+02
 Symmetry A2   KE= 9.075261487935D-32
 Symmetry B1   KE= 9.285311856482D+01
 Symmetry B2   KE= 9.679552902161D+01
 Symmetry A1   SP=-2.819780226583D-14
 Symmetry A2   SP= 2.305610437513D-32
 Symmetry B1   SP=-4.936681859199D-15
 Symmetry B2   SP= 1.000000000000D+00

 Atomic contributions to Alpha molecular orbitals:
 Alpha occ 1 OE=-182.044 is Ti2-s=1.0000
 Alpha occ 2 OE=-21.338 is Ti2-s=1.0000
 Alpha occ 3 OE=-17.683 is Ti2-p=1.0000
 Alpha occ 4 OE=-17.683 is Ti2-p=1.0000
 Alpha occ 5 OE=-17.683 is Ti2-p=1.0000
 Alpha occ 6 OE=-2.932 is Ti2-s=1.0000
 Alpha occ 7 OE=-1.866 is Ti2-p=1.0000
 Alpha occ 8 OE=-1.864 is Ti2-p=1.0000
 Alpha occ 9 OE=-1.861 is Ti2-p=1.0000
 Alpha occ 10 OE=-0.425 is Ti2-d=0.9994
 Alpha occ 11 OE=-0.423 is Ti2-d=0.9996
 Alpha occ 12 OE=-0.241 is Ti2-s=0.8444 Ti2-p=0.1086
 Alpha vir 13 OE=0.020 is Ti2-p=0.8134 Ti2-s=0.1232
 Alpha vir 14 OE=0.026 is Ti2-p=0.9997
 Alpha vir 15 OE=0.027 is Ti2-p=0.9998
 Alpha vir 16 OE=0.108 is Ti2-s=0.9579
 Alpha vir 17 OE=0.157 is Ti2-p=0.9957
 Alpha vir 18 OE=0.157 is Ti2-p=0.9098
 Alpha vir 19 OE=0.158 is Ti2-p=0.9998
 Alpha vir 20 OE=0.212 is Ti2-d=1.0000
 Alpha vir 21 OE=0.212 is Ti2-d=0.9651
 Alpha vir 22 OE=0.213 is Ti2-d=0.9954
 Alpha vir 23 OE=0.343 is H1-s=0.8481 Ti2-p=0.1098
 Alpha vir 24 OE=1.676 is Ti2-d=0.9998
 Alpha vir 25 OE=1.677 is Ti2-d=1.0000
 Alpha vir 26 OE=1.800 is Ti2-d=1.0000
 Alpha vir 27 OE=1.800 is Ti2-d=1.0000
 Alpha vir 28 OE=1.803 is Ti2-d=0.9996

 Atomic contributions to Beta  molecular orbitals:
 Beta  occ 1 OE=-182.044 is Ti2-s=1.0000
 Beta  occ 2 OE=-21.306 is Ti2-s=1.0000
 Beta  occ 3 OE=-17.653 is Ti2-p=1.0000
 Beta  occ 4 OE=-17.653 is Ti2-p=1.0000
 Beta  occ 5 OE=-17.652 is Ti2-p=1.0000
 Beta  occ 6 OE=-2.801 is Ti2-s=1.0000
 Beta  occ 7 OE=-1.704 is Ti2-p=1.0000
 Beta  occ 8 OE=-1.704 is Ti2-p=1.0000
 Beta  occ 9 OE=-1.702 is Ti2-p=1.0000
 Beta  occ 10 OE=-0.459 is H1-s=0.8786
 Beta  occ 11 OE=-0.218 is Ti2-s=0.8395 Ti2-p=0.1503
 Beta  vir 12 OE=0.025 is Ti2-p=0.9998
 Beta  vir 13 OE=0.025 is Ti2-p=0.9998
 Beta  vir 14 OE=0.087 is Ti2-p=0.7773 Ti2-s=0.1529
 Beta  vir 15 OE=0.125 is Ti2-s=0.9109
 Beta  vir 16 OE=0.164 is Ti2-p=0.9987
 Beta  vir 17 OE=0.164 is Ti2-p=0.9980
 Beta  vir 18 OE=0.167 is Ti2-p=0.9352
 Beta  vir 19 OE=0.256 is Ti2-d=1.0000
 Beta  vir 20 OE=0.258 is Ti2-d=0.9978
 Beta  vir 21 OE=0.259 is Ti2-d=0.9893
 Beta  vir 22 OE=0.286 is Ti2-d=0.9970
 Beta  vir 23 OE=0.287 is Ti2-d=0.9986
 Beta  vir 24 OE=1.828 is Ti2-d=1.0000
 Beta  vir 25 OE=1.828 is Ti2-d=1.0000
 Beta  vir 26 OE=1.830 is Ti2-d=0.9998
 Beta  vir 27 OE=1.854 is Ti2-d=0.9999
 Beta  vir 28 OE=1.855 is Ti2-d=1.0000
 
 Leave Link  601 at Fri Mar 25 14:58:38 2022, MaxMem=  9663676416 cpu:               1.1 elap:               0.1
 (Enter /nopt/nrel/apps/gaussian/g16C_1/g16/l9999.exe)

 Test job not archived.
 1\1\GINC-R1I7N35\SP\UCCSD-FC\Gen\H1Ti1(2)\USER\25-Mar-2022\0\\#P C
 CSD(MaxCyc=200)/GEN sp pop=AllOrbitals iop(3/33=1,3/36=-1)\\test\\0,2\
 H,0,0.,0.,0.\Ti,0,0.,0.,2.9\\Version=ES64L-G16RevC.01\HF=-844.7153354\
 MP2=-844.7293043\MP3=-844.7360093\MP4D=-844.7396976\MP4DQ=-844.739507\
 PUHF=-844.7286817\PMP2-0=-844.7424549\PMP3-0=-844.7489098\MP4SDQ=-844.
 7398168\CCSD=-844.7490514\S2=1.999927\S2-1=1.946457\S2A=1.552057\RMSD=
 1.618e-09\PG=C*V [C*(H1Ti1)]\\@


 ERWIN WITH HIS PSI CAN DO
 CALCULATIONS QUITE A FEW.
 BUT ONE THING HAS NOT BEEN SEEN
 JUST WHAT DOES PSI REALLY MEAN.
 -- WALTER HUCKEL, TRANS. BY FELIX BLOCH
 Job cpu time:       0 days  0 hours  0 minutes 57.5 seconds.
 Elapsed time:       0 days  0 hours  0 minutes  2.0 seconds.
 File lengths (MBytes):  RWF=     13 Int=      0 D2E=      0 Chk=      1 Scr=      1
 Normal termination of Gaussian 16 at Fri Mar 25 14:58:38 2022.
