 Entering Gaussian System, Link 0=g16
 Initial command:
 /nopt/nrel/apps/gaussian/g16C_1/g16/l1.exe "/lustre/eaglefs/scratch/user/qc/lih-dissc/lih-1-ccsd-0.5-321g/Gau-25606.inp" -scrdir="/lustre/eaglefs/scratch/user/qc/lih-dissc/lih-1-ccsd-0.5-321g/"
 Default is to use a total of  36 processors:
                               36 via shared-memory
                                1 via Linda
 Entering Link 1 = /nopt/nrel/apps/gaussian/g16C_1/g16/l1.exe PID=     25607.
  
 Copyright (c) 1988-2019, Gaussian, Inc.  All Rights Reserved.
  
 This is part of the Gaussian(R) 16 program.  It is based on
 the Gaussian(R) 09 system (copyright 2009, Gaussian, Inc.),
 the Gaussian(R) 03 system (copyright 2003, Gaussian, Inc.),
 the Gaussian(R) 98 system (copyright 1998, Gaussian, Inc.),
 the Gaussian(R) 94 system (copyright 1995, Gaussian, Inc.),
 the Gaussian 92(TM) system (copyright 1992, Gaussian, Inc.),
 the Gaussian 90(TM) system (copyright 1990, Gaussian, Inc.),
 the Gaussian 88(TM) system (copyright 1988, Gaussian, Inc.),
 the Gaussian 86(TM) system (copyright 1986, Carnegie Mellon
 University), and the Gaussian 82(TM) system (copyright 1983,
 Carnegie Mellon University). Gaussian is a federally registered
 trademark of Gaussian, Inc.
  
 This software contains proprietary and confidential information,
 including trade secrets, belonging to Gaussian, Inc.
  
 This software is provided under written license and may be
 used, copied, transmitted, or stored only in accord with that
 written license.
  
 The following legend is applicable only to US Government
 contracts under FAR:
  
                    RESTRICTED RIGHTS LEGEND
  
 Use, reproduction and disclosure by the US Government is
 subject to restrictions as set forth in subparagraphs (a)
 and (c) of the Commercial Computer Software - Restricted
 Rights clause in FAR 52.227-19.
  
 Gaussian, Inc.
 340 Quinnipiac St., Bldg. 40, Wallingford CT 06492
  
  
 ---------------------------------------------------------------
 Warning -- This program may not be used in any manner that
 competes with the business of Gaussian, Inc. or will provide
 assistance to any competitor of Gaussian, Inc.  The licensee
 of this program is prohibited from giving any competitor of
 Gaussian, Inc. access to this program.  By using this program,
 the user acknowledges that Gaussian, Inc. is engaged in the
 business of creating and licensing software in the field of
 computational chemistry and represents and warrants to the
 licensee that it is not a competitor of Gaussian, Inc. and that
 it will not use this program in any manner prohibited above.
 ---------------------------------------------------------------
  

 Cite this work as:
 Gaussian 16, Revision C.01,
 M. J. Frisch, G. W. Trucks, H. B. Schlegel, G. E. Scuseria, 
 M. A. Robb, J. R. Cheeseman, G. Scalmani, V. Barone, 
 G. A. Petersson, H. Nakatsuji, X. Li, M. Caricato, A. V. Marenich, 
 J. Bloino, B. G. Janesko, R. Gomperts, B. Mennucci, H. P. Hratchian, 
 J. V. Ortiz, A. F. Izmaylov, J. L. Sonnenberg, D. Williams-Young, 
 F. Ding, F. Lipparini, F. Egidi, J. Goings, B. Peng, A. Petrone, 
 T. Henderson, D. Ranasinghe, V. G. Zakrzewski, J. Gao, N. Rega, 
 G. Zheng, W. Liang, M. Hada, M. Ehara, K. Toyota, R. Fukuda, 
 J. Hasegawa, M. Ishida, T. Nakajima, Y. Honda, O. Kitao, H. Nakai, 
 T. Vreven, K. Throssell, J. A. Montgomery, Jr., J. E. Peralta, 
 F. Ogliaro, M. J. Bearpark, J. J. Heyd, E. N. Brothers, K. N. Kudin, 
 V. N. Staroverov, T. A. Keith, R. Kobayashi, J. Normand, 
 K. Raghavachari, A. P. Rendell, J. C. Burant, S. S. Iyengar, 
 J. Tomasi, M. Cossi, J. M. Millam, M. Klene, C. Adamo, R. Cammi, 
 J. W. Ochterski, R. L. Martin, K. Morokuma, O. Farkas, 
 J. B. Foresman, and D. J. Fox, Gaussian, Inc., Wallingford CT, 2019.
 
 ******************************************
 Gaussian 16:  ES64L-G16RevC.01  3-Jul-2019
                28-Mar-2022 
 ******************************************
 %chk=molecule
 Default route: CacheSize=180224 MaxDisk=256GB
 ----------------------------------------------------------------------
 #P CCSD(MaxCyc=200,SaveAmplitudes,ReadAmplitudes)/GEN sp pop=AllOrbita
 ls iop(3/33=1,3/36=-1)
 ----------------------------------------------------------------------
 1/4=180224,38=1,172=1/1;
 2/4=180224,12=2,17=6,18=5,40=1/2;
 3/4=180224,5=7,11=9,25=1,30=1,33=1,36=-1/1,2,3;
 4/4=180224/1;
 5/4=180224,5=2,38=5/2;
 8/4=180224,6=4,9=120000,10=1,24=1/1,4;
 9/4=180224,5=7,6=200,77=1/13;
 6/4=180224,7=2,8=2,9=2,10=2,96=-1/1;
 99/4=180224,5=1,9=1/99;
 Leave Link    1 at Mon Mar 28 13:59:46 2022, MaxMem=           0 cpu:               2.3 elap:               0.1
 (Enter /nopt/nrel/apps/gaussian/g16C_1/g16/l101.exe)
 ----
 test
 ----
 Symbolic Z-matrix:
 Charge =  0 Multiplicity = 1
 H                     0.        0.        0. 
 Li                    0.        0.        0.5 
 
 ITRead=  0  0
 MicOpt= -1 -1
 NAtoms=      2 NQM=        2 NQMF=       0 NMMI=      0 NMMIF=      0
                NMic=       0 NMicF=      0.
                    Isotopes and Nuclear Properties:
 (Nuclear quadrupole moments (NQMom) in fm**2, nuclear magnetic moments (NMagM)
  in nuclear magnetons)

  Atom         1           2
 IAtWgt=           1           7
 AtmWgt=   1.0078250   7.0160045
 NucSpn=           1           3
 AtZEff=  -0.0000000  -0.0000000
 NQMom=    0.0000000  -4.0100000
 NMagM=    2.7928460   3.2564240
 AtZNuc=   1.0000000   3.0000000
 Leave Link  101 at Mon Mar 28 13:59:46 2022, MaxMem=  9663676416 cpu:               2.6 elap:               0.1
 (Enter /nopt/nrel/apps/gaussian/g16C_1/g16/l202.exe)
                          Input orientation:                          
 ---------------------------------------------------------------------
 Center     Atomic      Atomic             Coordinates (Angstroms)
 Number     Number       Type             X           Y           Z
 ---------------------------------------------------------------------
      1          1           0        0.000000    0.000000    0.000000
      2          3           0        0.000000    0.000000    0.500000
 ---------------------------------------------------------------------
 Stoichiometry    HLi
 Framework group  C*V[C*(HLi)]
 Deg. of freedom     1
 Full point group                 C*V     NOp   4
 Largest Abelian subgroup         C2V     NOp   4
 Largest concise Abelian subgroup C1      NOp   1
                         Standard orientation:                         
 ---------------------------------------------------------------------
 Center     Atomic      Atomic             Coordinates (Angstroms)
 Number     Number       Type             X           Y           Z
 ---------------------------------------------------------------------
      1          1           0        0.000000    0.000000   -0.375000
      2          3           0        0.000000    0.000000    0.125000
 ---------------------------------------------------------------------
 Rotational constants (GHZ):           0.0000000        2293.9496568        2293.9496568
 Leave Link  202 at Mon Mar 28 13:59:46 2022, MaxMem=  9663676416 cpu:               0.5 elap:               0.0
 (Enter /nopt/nrel/apps/gaussian/g16C_1/g16/l301.exe)
 General basis read from cards:  (5D, 7F)
                         Coordinates in L301:                         
 ---------------------------------------------------------------------
 Center     Atomic      Atomic             Coordinates (Angstroms)
 Number     Number       Type             X           Y           Z
 ---------------------------------------------------------------------
      1          1           0        0.000000    0.000000   -0.375000
      2          3           0        0.000000    0.000000    0.125000
 ---------------------------------------------------------------------
 Centers:       1
 STO-3G
 ****
 Centers:       2
 3-21G
 ****
 FixB: optimizing general contractions.
 Ernie: Thresh=  0.10000D-02 Tol=  0.10000D-05 Strict=F.
 IA=     1 ShT= 0 ShC= 0 NL=   1 NS=   0.
 IA=     1 L=0 SC=0 ISt=    0 NBk=    0 NP=    0 IndPr=    0.
 IA=     2 ShT= 0 ShC= 0 NL=   1 NS=   0.
 IA=     2 L=0 SC=0 ISt=    0 NBk=    0 NP=    0 IndPr=    0.
 IA=     2 ShT= 1 ShC= 0 NL=   2 NS=   1.
 IA=     2 L=1 SC=0 ISt=    0 NBk=    0 NP=    0 IndPr=    0.
 LdAtmC:  AtmChg=     1.000000     3.000000
 AtZEff=     -1.0000000     -1.3500000
 NEqShl: 
              1            2            3            4
     1            1            1            1            1
     2            2            2            2            2
     3            3            3            3            3
     4            4            4            4            4
 NEqBas: 
              1            2            3            4
     1            1            1            1            1
     2            2            2            2            2
     3            3            3            3            3
     4            4           -4           -4            4
     5            5           -5            5           -5
     6            6            6            6            6
     7            7            7            7            7
     8            8           -8           -8            8
     9            9           -9            9           -9
    10           10           10           10           10
 There are     6 symmetry adapted cartesian basis functions of A1  symmetry.
   1         1   1   1   1
   2         2   2   2   2
   3         3   3   3   3
   4         6   6   6   6
   5         7   7   7   7
   6        10  10  10  10
 There are     0 symmetry adapted cartesian basis functions of A2  symmetry.
 There are     2 symmetry adapted cartesian basis functions of B1  symmetry.
   7         4   4   4   4
   8         8   8   8   8
 There are     2 symmetry adapted cartesian basis functions of B2  symmetry.
   9         5   5   5   5
  10         9   9   9   9
 Order= 1 2 4 3
 Reordered character table:
              1            2            3            4            5
     1            1            1            1            1            1
     2            2            1            1           -1           -1
     3            4            1           -1           -1            1
     4            3            1           -1            1           -1
 NEqShl: 
              1            2            3            4
     1            1            1            1            1
     2            2            2            2            2
     3            3            3            3            3
     4            4            4            4            4
 NEqBas: 
              1            2            3            4
     1            1            1            1            1
     2            2            2            2            2
     3            3            3            3            3
     4            4           -4           -4            4
     5            5           -5            5           -5
     6            6            6            6            6
     7            7            7            7            7
     8            8           -8           -8            8
     9            9           -9            9           -9
    10           10           10           10           10
 There are     6 symmetry adapted basis functions of A1  symmetry.
   1         1   1   1   1
   2         2   2   2   2
   3         3   3   3   3
   4         6   6   6   6
   5         7   7   7   7
   6        10  10  10  10
 There are     0 symmetry adapted basis functions of A2  symmetry.
 There are     2 symmetry adapted basis functions of B1  symmetry.
   7         4   4   4   4
   8         8   8   8   8
 There are     2 symmetry adapted basis functions of B2  symmetry.
   9         5   5   5   5
  10         9   9   9   9
 Order= 1 2 4 3
 Reordered character table:
              1            2            3            4            5
     1            1            1            1            1            1
     2            2            1            1           -1           -1
     3            4            1           -1           -1            1
     4            3            1           -1            1           -1
    10 basis functions,    18 primitive gaussians,    10 cartesian basis functions
     2 alpha electrons        2 beta electrons
       nuclear repulsion energy         3.1750632655 Hartrees.
 IS=     1 IAt=     1 ISR=     1 T=0 IP=      1 IndIP=      1 IndIPD=      0 C=  2.769344D-01  0.000000D+00                             NZ=T
 IS=     1 IAt=     1 ISR=     1 T=0 IP=      2 IndIP=      2 IndIPD=      1 C=  2.678389D-01  0.000000D+00                             NZ=T
 IS=     1 IAt=     1 ISR=     1 T=0 IP=      3 IndIP=      3 IndIPD=      2 C=  8.347367D-02  0.000000D+00                             NZ=T
 IS=     2 IAt=     2 ISR=     1 T=0 IP=      1 IndIP=      4 IndIPD=      0 C=  7.424571D-01  0.000000D+00                             NZ=T
 IS=     2 IAt=     2 ISR=     1 T=0 IP=      2 IndIP=      5 IndIPD=      1 C=  9.736824D-01  0.000000D+00                             NZ=T
 IS=     2 IAt=     2 ISR=     1 T=0 IP=      3 IndIP=      6 IndIPD=      2 C=  5.265692D-01  0.000000D+00                             NZ=T
 IS=     3 IAt=     2 ISR=     2 T=1 IP=      1 IndIP=      7 IndIPD=      0 C= -1.181663D-01  1.066435D-01                             NZ=T
 IS=     3 IAt=     2 ISR=     2 T=1 IP=      2 IndIP=      8 IndIPD=      1 C=  1.473557D-01  7.547122D-02                             NZ=T
 IS=     4 IAt=     2 ISR=     3 T=1 IP=      1 IndIP=      9 IndIPD=      0 C=  4.951993D-02  1.673876D-02                             NZ=T
 IExCor=    0 DFT=F Ex=HF Corr=None ExCW=0 ScaHFX=  1.000000
 ScaDFX=  1.000000  1.000000  1.000000  1.000000 ScalE2=  1.000000  1.000000
 IRadAn=      5 IRanWt=     -1 IRanGd=            0 ICorTp=0 IEmpDi=  4
 NAtoms=    2 NActive=    2 NUniq=    2 SFac= 1.00D+00 NAtFMM=   60 NAOKFM=F Big=F
 Integral buffers will be    131072 words long.
 Raffenetti 1 integral format.
 Two-electron integral symmetry is turned on.
 Leave Link  301 at Mon Mar 28 13:59:46 2022, MaxMem=  9663676416 cpu:               1.9 elap:               0.1
 (Enter /nopt/nrel/apps/gaussian/g16C_1/g16/l302.exe)
 NPDir=0 NMtPBC=     1 NCelOv=     1 NCel=       1 NClECP=     1 NCelD=      1
         NCelK=      1 NCelE2=     1 NClLst=     1 CellRange=     0.0.
 One-electron integrals computed using PRISM.
 One-electron integral symmetry used in STVInt
 Entering OneElI...
 Calculate overlap and kinetic energy integrals
    NBasis =  10  MinDer = 0  MaxDer = 0
 Requested accuracy = 0.1000D-12
 Symmetry will be used
 PrmmSu-InSpLW:  IPartL=    0 NPrtUS=   36 NPrtUL=    1 DoSpLW=F IThBeg=    0 IThEnd=   35 NThAct=   36.
 PrSmSu:  IncTry=   512 NBBP=             10 NTPThr=   100 NPartT=   36 Incr=           1 LDynOK=F GPUOK=F.
 PrsmSu:  NPrtUS=  36 ThrOK=T IAlg=1 LenDen=           0 ISkipM=0 DoSpLW=F IThBeg=    0 IThEnd=   35.
 Prism:   IPart=     0 DynPar=F LinDyn=F Incr=           1.
 PRISM was handed   268434300 working-precision words and    10 shell-pairs
 PRISM was handed   268434300 working-precision words and    10 shell-pairs
 PRISM was handed   268434300 working-precision words and    10 shell-pairs
 PRISM was handed   268434300 working-precision words and    10 shell-pairs
 PRISM was handed   268434300 working-precision words and    10 shell-pairs
 PRISM was handed   268434300 working-precision words and    10 shell-pairs
 PRISM was handed   268434300 working-precision words and    10 shell-pairs
 PRISM was handed   268434300 working-precision words and    10 shell-pairs
 PRISM was handed   268434300 working-precision words and    10 shell-pairs
 PRISM was handed   268434300 working-precision words and    10 shell-pairs
 IPart=  8 NShTot=           0 NBatch=           0 AvBLen=         0.0
 IPart= 27 NShTot=           0 NBatch=           0 AvBLen=         0.0
 IPart= 34 NShTot=           0 NBatch=           0 AvBLen=         0.0
 IPart=  3 NShTot=           0 NBatch=           0 AvBLen=         0.0
 IPart= 28 NShTot=           0 NBatch=           0 AvBLen=         0.0
 IPart= 11 NShTot=           0 NBatch=           0 AvBLen=         0.0
 IPart=  6 NShTot=           0 NBatch=           0 AvBLen=         0.0
 IPart= 14 NShTot=           0 NBatch=           0 AvBLen=         0.0
 IPart=  1 NShTot=           3 NBatch=           3 AvBLen=         1.0
 PRISM was handed   268434300 working-precision words and    10 shell-pairs
 PRISM was handed   268434300 working-precision words and    10 shell-pairs
 PRISM was handed   268434300 working-precision words and    10 shell-pairs
 PRISM was handed   268434300 working-precision words and    10 shell-pairs
 PRISM was handed   268434300 working-precision words and    10 shell-pairs
 PRISM was handed   268434300 working-precision words and    10 shell-pairs
 PRISM was handed   268434300 working-precision words and    10 shell-pairs
 PRISM was handed   268434300 working-precision words and    10 shell-pairs
 IPart= 10 NShTot=           0 NBatch=           0 AvBLen=         0.0
 IPart= 24 NShTot=           0 NBatch=           0 AvBLen=         0.0
 IPart= 16 NShTot=           0 NBatch=           0 AvBLen=         0.0
 IPart= 25 NShTot=           0 NBatch=           0 AvBLen=         0.0
 IPart= 15 NShTot=           0 NBatch=           0 AvBLen=         0.0
 IPart= 21 NShTot=           0 NBatch=           0 AvBLen=         0.0
 IPart= 33 NShTot=           0 NBatch=           0 AvBLen=         0.0
 IPart= 20 NShTot=           0 NBatch=           0 AvBLen=         0.0
 PRISM was handed   268434300 working-precision words and    10 shell-pairs
 PRISM was handed   268434300 working-precision words and    10 shell-pairs
 PRISM was handed   268434300 working-precision words and    10 shell-pairs
 PRISM was handed   268434300 working-precision words and    10 shell-pairs
 PRISM was handed   268434300 working-precision words and    10 shell-pairs
 PRISM was handed   268434300 working-precision words and    10 shell-pairs
 PRISM was handed   268434300 working-precision words and    10 shell-pairs
 IPart= 23 NShTot=           0 NBatch=           0 AvBLen=         0.0
 PRISM was handed   268434300 working-precision words and    10 shell-pairs
 IPart= 26 NShTot=           0 NBatch=           0 AvBLen=         0.0
 PRISM was handed   268434300 working-precision words and    10 shell-pairs
 IPart= 31 NShTot=           0 NBatch=           0 AvBLen=         0.0
 IPart= 19 NShTot=           0 NBatch=           0 AvBLen=         0.0
 IPart=  4 NShTot=           0 NBatch=           0 AvBLen=         0.0
 PRISM was handed   268434300 working-precision words and    10 shell-pairs
 IPart= 30 NShTot=           0 NBatch=           0 AvBLen=         0.0
 PRISM was handed   268434300 working-precision words and    10 shell-pairs
 IPart=  2 NShTot=           1 NBatch=           1 AvBLen=         1.0
 IPart=  0 NShTot=           6 NBatch=           6 AvBLen=         1.0
 PRISM was handed   268434300 working-precision words and    10 shell-pairs
 PRISM was handed   268434300 working-precision words and    10 shell-pairs
 IPart= 22 NShTot=           0 NBatch=           0 AvBLen=         0.0
 IPart=  5 NShTot=           0 NBatch=           0 AvBLen=         0.0
 PRISM was handed   268434300 working-precision words and    10 shell-pairs
 PRISM was handed   268434300 working-precision words and    10 shell-pairs
 PRISM was handed   268434300 working-precision words and    10 shell-pairs
 IPart=  7 NShTot=           0 NBatch=           0 AvBLen=         0.0
 IPart= 17 NShTot=           0 NBatch=           0 AvBLen=         0.0
 IPart= 29 NShTot=           0 NBatch=           0 AvBLen=         0.0
 IPart= 13 NShTot=           0 NBatch=           0 AvBLen=         0.0
 PRISM was handed   268434300 working-precision words and    10 shell-pairs
 PRISM was handed   268434300 working-precision words and    10 shell-pairs
 IPart= 12 NShTot=           0 NBatch=           0 AvBLen=         0.0
 IPart= 18 NShTot=           0 NBatch=           0 AvBLen=         0.0
 IPart= 32 NShTot=           0 NBatch=           0 AvBLen=         0.0
 IPart=  9 NShTot=           0 NBatch=           0 AvBLen=         0.0
 IPart= 35 NShTot=           0 NBatch=           0 AvBLen=         0.0
 PrSmSu:  NxtVal=             37.
 *** Overlap *** 
                1             2             3             4             5 
      1  0.100000D+01
      2  0.528072D+00  0.100000D+01
      3  0.612552D+00  0.177215D+00  0.100000D+01
      4  0.000000D+00  0.000000D+00  0.000000D+00  0.100000D+01
      5  0.000000D+00  0.000000D+00  0.000000D+00  0.000000D+00  0.100000D+01
      6 -0.366814D+00  0.000000D+00  0.000000D+00  0.000000D+00  0.000000D+00
      7  0.405095D+00  0.140674D+00  0.782781D+00  0.000000D+00  0.000000D+00
      8  0.000000D+00  0.000000D+00  0.000000D+00  0.588593D+00  0.000000D+00
      9  0.000000D+00  0.000000D+00  0.000000D+00  0.000000D+00  0.588593D+00
     10 -0.115573D+00  0.000000D+00  0.000000D+00  0.000000D+00  0.000000D+00
                6             7             8             9            10 
      6  0.100000D+01
      7  0.000000D+00  0.100000D+01
      8  0.000000D+00  0.000000D+00  0.100000D+01
      9  0.000000D+00  0.000000D+00  0.000000D+00  0.100000D+01
     10  0.588593D+00  0.000000D+00  0.000000D+00  0.000000D+00  0.100000D+01
 *** Kinetic Energy *** 
                1             2             3             4             5 
      1  0.760032D+00
      2  0.394854D+00  0.365490D+01
      3  0.525716D-01 -0.135538D+00  0.159492D+00
      4  0.000000D+00  0.000000D+00  0.000000D+00  0.307817D+00
      5  0.000000D+00  0.000000D+00  0.000000D+00  0.000000D+00  0.307817D+00
      6 -0.204431D+00  0.000000D+00  0.000000D+00  0.000000D+00  0.000000D+00
      7  0.305370D-01  0.117904D-01  0.513380D-01  0.000000D+00  0.000000D+00
      8  0.000000D+00  0.000000D+00  0.000000D+00  0.661980D-01  0.000000D+00
      9  0.000000D+00  0.000000D+00  0.000000D+00  0.000000D+00  0.661980D-01
     10 -0.146560D-01  0.000000D+00  0.000000D+00  0.000000D+00  0.000000D+00
                6             7             8             9            10 
      6  0.307817D+00
      7  0.000000D+00  0.428467D-01
      8  0.000000D+00  0.000000D+00  0.714113D-01
      9  0.000000D+00  0.000000D+00  0.000000D+00  0.714113D-01
     10  0.661980D-01  0.000000D+00  0.000000D+00  0.000000D+00  0.714113D-01
 Entering OneElI...
 Calculate potential energy integrals
    NBasis =  10  MinDer = 0  MaxDer = 0
 Requested accuracy = 0.1000D-12
 Symmetry will be used
 PrmmSu-InSpLW:  IPartL=    0 NPrtUS=   36 NPrtUL=    1 DoSpLW=F IThBeg=    0 IThEnd=   35 NThAct=   36.
 PrSmSu:  IncTry=   512 NBBP=             20 NTPThr=   100 NPartT=   36 Incr=           1 LDynOK=F GPUOK=F.
 PrsmSu:  NPrtUS=  36 ThrOK=T IAlg=1 LenDen=           0 ISkipM=0 DoSpLW=F IThBeg=    0 IThEnd=   35.
 Prism:   IPart=     0 DynPar=F LinDyn=F Incr=           1.
 PRISM was handed   268434341 working-precision words and    10 shell-pairs
 PRISM was handed   268434341 working-precision words and    10 shell-pairs
 PRISM was handed   268434341 working-precision words and    10 shell-pairs
 PRISM was handed   268434341 working-precision words and    10 shell-pairs
 PRISM was handed   268434341 working-precision words and    10 shell-pairs
 PRISM was handed   268434341 working-precision words and    10 shell-pairs
 PRISM was handed   268434341 working-precision words and    10 shell-pairs
 PRISM was handed   268434341 working-precision words and    10 shell-pairs
 PRISM was handed   268434341 working-precision words and    10 shell-pairs
 PRISM was handed   268434341 working-precision words and    10 shell-pairs
 PRISM was handed   268434341 working-precision words and    10 shell-pairs
 PRISM was handed   268434341 working-precision words and    10 shell-pairs
 PRISM was handed   268434341 working-precision words and    10 shell-pairs
 PRISM was handed   268434341 working-precision words and    10 shell-pairs
 PRISM was handed   268434341 working-precision words and    10 shell-pairs
 PRISM was handed   268434341 working-precision words and    10 shell-pairs
 PRISM was handed   268434341 working-precision words and    10 shell-pairs
 PRISM was handed   268434341 working-precision words and    10 shell-pairs
 PRISM was handed   268434341 working-precision words and    10 shell-pairs
 PRISM was handed   268434341 working-precision words and    10 shell-pairs
 PRISM was handed   268434341 working-precision words and    10 shell-pairs
 PRISM was handed   268434341 working-precision words and    10 shell-pairs
 PRISM was handed   268434341 working-precision words and    10 shell-pairs
 PRISM was handed   268434341 working-precision words and    10 shell-pairs
 PRISM was handed   268434341 working-precision words and    10 shell-pairs
 PRISM was handed   268434341 working-precision words and    10 shell-pairs
 PRISM was handed   268434341 working-precision words and    10 shell-pairs
 PRISM was handed   268434341 working-precision words and    10 shell-pairs
 PRISM was handed   268434341 working-precision words and    10 shell-pairs
 PRISM was handed   268434341 working-precision words and    10 shell-pairs
 PRISM was handed   268434341 working-precision words and    10 shell-pairs
 PRISM was handed   268434341 working-precision words and    10 shell-pairs
 PRISM was handed   268434341 working-precision words and    10 shell-pairs
 PRISM was handed   268434341 working-precision words and    10 shell-pairs
 PRISM was handed   268434341 working-precision words and    10 shell-pairs
 PRISM was handed   268434341 working-precision words and    10 shell-pairs
 IPart=  8 NShTot=           0 NBatch=           0 AvBLen=         0.0
 IPart= 11 NShTot=           0 NBatch=           0 AvBLen=         0.0
 IPart= 18 NShTot=           0 NBatch=           0 AvBLen=         0.0
 IPart=  5 NShTot=           0 NBatch=           0 AvBLen=         0.0
 IPart=  2 NShTot=           2 NBatch=           1 AvBLen=         2.0
 IPart= 32 NShTot=           0 NBatch=           0 AvBLen=         0.0
 IPart= 35 NShTot=           0 NBatch=           0 AvBLen=         0.0
 IPart= 16 NShTot=           0 NBatch=           0 AvBLen=         0.0
 IPart= 22 NShTot=           0 NBatch=           0 AvBLen=         0.0
 IPart= 20 NShTot=           0 NBatch=           0 AvBLen=         0.0
 IPart= 34 NShTot=           0 NBatch=           0 AvBLen=         0.0
 IPart= 29 NShTot=           0 NBatch=           0 AvBLen=         0.0
 IPart=  1 NShTot=           6 NBatch=           3 AvBLen=         2.0
 IPart=  7 NShTot=           0 NBatch=           0 AvBLen=         0.0
 IPart= 33 NShTot=           0 NBatch=           0 AvBLen=         0.0
 IPart= 30 NShTot=           0 NBatch=           0 AvBLen=         0.0
 IPart= 23 NShTot=           0 NBatch=           0 AvBLen=         0.0
 IPart=  3 NShTot=           0 NBatch=           0 AvBLen=         0.0
 IPart= 26 NShTot=           0 NBatch=           0 AvBLen=         0.0
 IPart= 15 NShTot=           0 NBatch=           0 AvBLen=         0.0
 IPart= 19 NShTot=           0 NBatch=           0 AvBLen=         0.0
 IPart= 27 NShTot=           0 NBatch=           0 AvBLen=         0.0
 IPart= 10 NShTot=           0 NBatch=           0 AvBLen=         0.0
 IPart= 25 NShTot=           0 NBatch=           0 AvBLen=         0.0
 IPart= 24 NShTot=           0 NBatch=           0 AvBLen=         0.0
 IPart= 12 NShTot=           0 NBatch=           0 AvBLen=         0.0
 IPart= 14 NShTot=           0 NBatch=           0 AvBLen=         0.0
 IPart=  9 NShTot=           0 NBatch=           0 AvBLen=         0.0
 IPart=  6 NShTot=           0 NBatch=           0 AvBLen=         0.0
 IPart= 31 NShTot=           0 NBatch=           0 AvBLen=         0.0
 IPart= 17 NShTot=           0 NBatch=           0 AvBLen=         0.0
 IPart= 21 NShTot=           0 NBatch=           0 AvBLen=         0.0
 IPart= 28 NShTot=           0 NBatch=           0 AvBLen=         0.0
 IPart=  4 NShTot=           0 NBatch=           0 AvBLen=         0.0
 IPart= 13 NShTot=           0 NBatch=           0 AvBLen=         0.0
 IPart=  0 NShTot=          12 NBatch=           6 AvBLen=         2.0
 PrSmSu:  NxtVal=             37.
 ***** Potential Energy ***** 
                1             2             3             4             5 
      1  0.373784D+01
      2  0.324152D+01  0.911700D+01
      3  0.147623D+01  0.783977D+00  0.162774D+01
      4  0.000000D+00  0.000000D+00  0.000000D+00  0.152765D+01
      5  0.000000D+00  0.000000D+00  0.000000D+00  0.000000D+00  0.152765D+01
      6 -0.100898D+01 -0.717940D-01 -0.981978D-01  0.000000D+00  0.000000D+00
      7  0.100123D+01  0.743732D+00  0.113960D+01  0.000000D+00  0.000000D+00
      8  0.000000D+00  0.000000D+00  0.000000D+00  0.660061D+00  0.000000D+00
      9  0.000000D+00  0.000000D+00  0.000000D+00  0.000000D+00  0.660061D+00
     10 -0.230755D+00 -0.929804D-02 -0.296828D-01  0.000000D+00  0.000000D+00
                6             7             8             9            10 
      6  0.157997D+01
      7 -0.664040D-01  0.107429D+01
      8  0.000000D+00  0.000000D+00  0.717390D+00
      9  0.000000D+00  0.000000D+00  0.000000D+00  0.717390D+00
     10  0.672495D+00 -0.278499D-01  0.000000D+00  0.000000D+00  0.722695D+00
 ****** Core Hamiltonian ****** 
                1             2             3             4             5 
      1 -0.297781D+01
      2 -0.284666D+01 -0.546210D+01
      3 -0.142365D+01 -0.919515D+00 -0.146825D+01
      4  0.000000D+00  0.000000D+00  0.000000D+00 -0.121984D+01
      5  0.000000D+00  0.000000D+00  0.000000D+00  0.000000D+00 -0.121984D+01
      6  0.804553D+00  0.717940D-01  0.981978D-01  0.000000D+00  0.000000D+00
      7 -0.970697D+00 -0.731941D+00 -0.108826D+01  0.000000D+00  0.000000D+00
      8  0.000000D+00  0.000000D+00  0.000000D+00 -0.593863D+00  0.000000D+00
      9  0.000000D+00  0.000000D+00  0.000000D+00  0.000000D+00 -0.593863D+00
     10  0.216099D+00  0.929804D-02  0.296828D-01  0.000000D+00  0.000000D+00
                6             7             8             9            10 
      6 -0.127215D+01
      7  0.664040D-01 -0.103144D+01
      8  0.000000D+00  0.000000D+00 -0.645979D+00
      9  0.000000D+00  0.000000D+00  0.000000D+00 -0.645979D+00
     10 -0.606297D+00  0.278499D-01  0.000000D+00  0.000000D+00 -0.651284D+00
 SVDSVc IOpt=   1 NormSV=T IR=1
 SVDSVc V= 2.42D+00 1.62D+00 1.04D+00 5.08D-01 2.88D-01 1.14D-01
 SVDSVc IOpt=   1 NormSV=T IR=3
 SVDSVc V= 1.59D+00 4.11D-01
 SVDSVc IOpt=   1 NormSV=T IR=4
 SVDSVc V= 1.59D+00 4.11D-01
 TstOVc:  Largest diagonal error= 3.22D-15 IB=1 I=    6.
 TstOVc:  Largest same sym error= 1.07D-15 IB=1 I=    6 J=    5.
 TstOVc:  Largest diff sym error= 0.00D+00 IB=0 JB=0 I=    0 J=    0.
 Orthogonalized basis functions: 
                 1             2             3             4             5 
      1   0.355145D+00 -0.706098D-01  0.273540D+00  0.590799D+00 -0.700189D+00
      2   0.206261D+00  0.356335D-01  0.769443D+00 -0.538532D+00  0.482068D+00
      3   0.350865D+00  0.182742D+00 -0.302590D+00  0.804943D-02 -0.717365D+00
      4   0.000000D+00  0.000000D+00  0.000000D+00  0.000000D+00  0.000000D+00
      5   0.000000D+00  0.000000D+00  0.000000D+00  0.000000D+00  0.000000D+00
      6  -0.124581D+00  0.526969D+00  0.668135D-01 -0.634327D+00 -0.841341D+00
      7   0.314078D+00  0.192247D+00 -0.405239D+00 -0.345457D+00  0.109148D+01
      8   0.000000D+00  0.000000D+00  0.000000D+00  0.000000D+00  0.000000D+00
      9   0.000000D+00  0.000000D+00  0.000000D+00  0.000000D+00  0.000000D+00
     10  -0.802666D-01  0.512307D+00  0.175461D+00  0.898130D+00  0.581685D+00
                 6             7             8             9            10 
      1  -0.159543D+01  0.000000D+00  0.000000D+00  0.000000D+00  0.000000D+00
      2   0.740929D+00  0.000000D+00  0.000000D+00  0.000000D+00  0.000000D+00
      3   0.188396D+01  0.000000D+00  0.000000D+00  0.000000D+00  0.000000D+00
      4   0.000000D+00  0.561020D+00  0.110243D+01  0.000000D+00  0.000000D+00
      5   0.000000D+00  0.000000D+00  0.000000D+00  0.561020D+00  0.110243D+01
      6  -0.934156D+00  0.000000D+00  0.000000D+00  0.000000D+00  0.000000D+00
      7  -0.105232D+01  0.000000D+00  0.000000D+00  0.000000D+00  0.000000D+00
      8   0.000000D+00  0.561020D+00 -0.110243D+01  0.000000D+00  0.000000D+00
      9   0.000000D+00  0.000000D+00  0.000000D+00  0.561020D+00 -0.110243D+01
     10   0.412339D+00  0.000000D+00  0.000000D+00  0.000000D+00  0.000000D+00
 NBasis=    10 RedAO= T EigKep=  1.14D-01  NBF=     6     0     2     2
 NBsUse=    10 1.00D-06 EigRej= -1.00D+00 NBFU=     6     0     2     2
 Leave Link  302 at Mon Mar 28 13:59:46 2022, MaxMem=  9663676416 cpu:               3.1 elap:               0.1
 (Enter /nopt/nrel/apps/gaussian/g16C_1/g16/l303.exe)
 DipDrv will not compute anything.
 Fermi contact integrals: 
                 1             2 
      1   0.628247D+00  0.238254D+00
      2   0.202196D+00  0.224271D+01
      3   0.615463D-01  0.291894D-01
      4   0.000000D+00  0.000000D+00
      5   0.000000D+00  0.000000D+00
      6  -0.127297D+00  0.000000D+00
      7   0.482731D-01  0.495199D-01
      8   0.000000D+00  0.000000D+00
      9   0.000000D+00  0.000000D+00
     10  -0.154176D-01  0.000000D+00
 Leave Link  303 at Mon Mar 28 13:59:46 2022, MaxMem=  9663676416 cpu:               1.2 elap:               0.1
 (Enter /nopt/nrel/apps/gaussian/g16C_1/g16/l401.exe)
 ExpMin= 2.86D-02 ExpMax= 3.68D+01 ExpMxC= 3.68D+01 IAcc=3 IRadAn=         5 AccDes= 0.00D+00
 Harris functional with IExCor=  205 and IRadAn=       5 diagonalized for initial guess.
 HarFok:  IExCor=  205 AccDes= 0.00D+00 IRadAn=         5 IDoV= 1 UseB2=F ITyADJ=14
 ICtDFT=  3500011 ScaDFX=  1.000000  1.000000  1.000000  1.000000
 FoFCou: FMM=F IPFlag=           0 FMFlag=      100000 FMFlg1=           0
         NFxFlg=           0 DoJE=T BraDBF=F KetDBF=T FulRan=T
         wScrn=  0.000000 ICntrl=       500 IOpCl=  0 I1Cent=   200000004 NGrid=           0
         NMat0=    1 NMatS0=      1 NMatT0=    0 NMatD0=    1 NMtDS0=    0 NMtDT0=    0
 Petite list used in FoFCou.
 Harris En= -7.14726103862494    
 JPrj=0 DoOrth=F DoCkMO=F.
 Initial guess orbital symmetries:
       Occupied  (SG) (SG)
       Virtual   (SG) (PI) (PI) (SG) (PI) (PI) (SG) (SG)
 The electronic state of the initial guess is 1-SG.
 Leave Link  401 at Mon Mar 28 13:59:46 2022, MaxMem=  9663676416 cpu:               3.2 elap:               0.1
 (Enter /nopt/nrel/apps/gaussian/g16C_1/g16/l502.exe)
 Keep R1 ints in memory in symmetry-blocked form, NReq=7206306.
 FoFCou: FMM=F IPFlag=           0 FMFlag=           0 FMFlg1=           0
         NFxFlg=           0 DoJE=F BraDBF=F KetDBF=F FulRan=T
         wScrn=  0.000000 ICntrl=       600 IOpCl=  0 I1Cent=           0 NGrid=           0
         NMat0=    1 NMatS0=     55 NMatT0=    0 NMatD0=    1 NMtDS0=    0 NMtDT0=    0
 Petite list used in FoFCou.
 Closed shell SCF:
 Using DIIS extrapolation, IDIIS=  1040.
 NGot=  9663676416 LenX=  9663673310 LenY=  9663672428
 Requested convergence on RMS density matrix=1.00D-08 within 128 cycles.
 Requested convergence on MAX density matrix=1.00D-06.
 Requested convergence on             energy=1.00D-06.
 No special actions if energy rises.

 Cycle   1  Pass 1  IDiag  1:
 E= -7.06519198537914    
 DIIS: error= 3.00D-02 at cycle   1 NSaved=   1.
 NSaved= 1 IEnMin= 1 EnMin= -7.06519198537914     IErMin= 1 ErrMin= 3.00D-02
 ErrMax= 3.00D-02  0.00D+00 EMaxC= 1.00D-01 BMatC= 1.33D-02 BMatP= 1.33D-02
 IDIUse=3 WtCom= 7.00D-01 WtEn= 3.00D-01
 Coeff-Com:  0.100D+01
 Coeff-En:   0.100D+01
 Coeff:      0.100D+01
 Gap=     0.269 Goal=   None    Shift=    0.000
 GapD=    0.269 DampG=1.000 DampE=0.500 DampFc=0.5000 IDamp=-1.
 Damping current iteration by 5.00D-01
 RMSDP=1.10D-02 MaxDP=5.60D-02              OVMax= 5.33D-02

 Cycle   2  Pass 1  IDiag  1:
 E= -7.07021633445975     Delta-E=       -0.005024349081 Rises=F Damp=T
 DIIS: error= 1.65D-02 at cycle   2 NSaved=   2.
 NSaved= 2 IEnMin= 2 EnMin= -7.07021633445975     IErMin= 2 ErrMin= 1.65D-02
 ErrMax= 1.65D-02  0.00D+00 EMaxC= 1.00D-01 BMatC= 4.07D-03 BMatP= 1.33D-02
 IDIUse=3 WtCom= 8.35D-01 WtEn= 1.65D-01
 Coeff-Com: -0.122D+01 0.222D+01
 Coeff-En:   0.000D+00 0.100D+01
 Coeff:     -0.102D+01 0.202D+01
 Gap=     0.262 Goal=   None    Shift=    0.000
 RMSDP=8.73D-03 MaxDP=3.70D-02 DE=-5.02D-03 OVMax= 3.08D-02

 Cycle   3  Pass 1  IDiag  1:
 E= -7.07725108919459     Delta-E=       -0.007034754735 Rises=F Damp=F
 DIIS: error= 2.20D-03 at cycle   3 NSaved=   3.
 NSaved= 3 IEnMin= 3 EnMin= -7.07725108919459     IErMin= 3 ErrMin= 2.20D-03
 ErrMax= 2.20D-03  0.00D+00 EMaxC= 1.00D-01 BMatC= 5.14D-05 BMatP= 4.07D-03
 IDIUse=3 WtCom= 9.78D-01 WtEn= 2.20D-02
 Coeff-Com:  0.271D+01-0.498D+01 0.326D+01
 Coeff-En:   0.000D+00 0.000D+00 0.100D+01
 Coeff:      0.265D+01-0.487D+01 0.322D+01
 Gap=     0.272 Goal=   None    Shift=    0.000
 RMSDP=7.30D-03 MaxDP=4.11D-02 DE=-7.03D-03 OVMax= 5.99D-02

 Cycle   4  Pass 1  IDiag  1:
 E= -7.07827988898940     Delta-E=       -0.001028799795 Rises=F Damp=F
 DIIS: error= 3.24D-04 at cycle   4 NSaved=   4.
 NSaved= 4 IEnMin= 4 EnMin= -7.07827988898940     IErMin= 4 ErrMin= 3.24D-04
 ErrMax= 3.24D-04  0.00D+00 EMaxC= 1.00D-01 BMatC= 1.15D-06 BMatP= 5.14D-05
 IDIUse=3 WtCom= 9.97D-01 WtEn= 3.24D-03
 Coeff-Com: -0.592D+00 0.110D+01-0.831D+00 0.133D+01
 Coeff-En:   0.000D+00 0.000D+00 0.000D+00 0.100D+01
 Coeff:     -0.590D+00 0.109D+01-0.828D+00 0.133D+01
 Gap=     0.275 Goal=   None    Shift=    0.000
 RMSDP=8.10D-04 MaxDP=3.66D-03 DE=-1.03D-03 OVMax= 6.31D-03

 Cycle   5  Pass 1  IDiag  1:
 E= -7.07829385163688     Delta-E=       -0.000013962647 Rises=F Damp=F
 DIIS: error= 5.88D-05 at cycle   5 NSaved=   5.
 NSaved= 5 IEnMin= 5 EnMin= -7.07829385163688     IErMin= 5 ErrMin= 5.88D-05
 ErrMax= 5.88D-05  0.00D+00 EMaxC= 1.00D-01 BMatC= 3.33D-08 BMatP= 1.15D-06
 IDIUse=1 WtCom= 1.00D+00 WtEn= 0.00D+00
 Coeff-Com:  0.270D-01-0.533D-01 0.676D-01-0.296D+00 0.125D+01
 Coeff:      0.270D-01-0.533D-01 0.676D-01-0.296D+00 0.125D+01
 Gap=     0.275 Goal=   None    Shift=    0.000
 RMSDP=1.10D-04 MaxDP=2.99D-04 DE=-1.40D-05 OVMax= 5.41D-04

 Cycle   6  Pass 1  IDiag  1:
 E= -7.07829405363417     Delta-E=       -0.000000201997 Rises=F Damp=F
 DIIS: error= 1.09D-05 at cycle   6 NSaved=   6.
 NSaved= 6 IEnMin= 6 EnMin= -7.07829405363417     IErMin= 6 ErrMin= 1.09D-05
 ErrMax= 1.09D-05  0.00D+00 EMaxC= 1.00D-01 BMatC= 8.81D-10 BMatP= 3.33D-08
 IDIUse=1 WtCom= 1.00D+00 WtEn= 0.00D+00
 Coeff-Com: -0.227D-02 0.463D-02-0.957D-02 0.294D-01-0.225D+00 0.120D+01
 Coeff:     -0.227D-02 0.463D-02-0.957D-02 0.294D-01-0.225D+00 0.120D+01
 Gap=     0.275 Goal=   None    Shift=    0.000
 RMSDP=2.68D-05 MaxDP=1.20D-04 DE=-2.02D-07 OVMax= 2.35D-04

 Cycle   7  Pass 1  IDiag  1:
 E= -7.07829406642096     Delta-E=       -0.000000012787 Rises=F Damp=F
 DIIS: error= 9.55D-07 at cycle   7 NSaved=   7.
 NSaved= 7 IEnMin= 7 EnMin= -7.07829406642096     IErMin= 7 ErrMin= 9.55D-07
 ErrMax= 9.55D-07  0.00D+00 EMaxC= 1.00D-01 BMatC= 1.33D-11 BMatP= 8.81D-10
 IDIUse=1 WtCom= 1.00D+00 WtEn= 0.00D+00
 Coeff-Com:  0.403D-02-0.766D-02 0.905D-02-0.212D-01 0.113D+00-0.513D+00
 Coeff-Com:  0.142D+01
 Coeff:      0.403D-02-0.766D-02 0.905D-02-0.212D-01 0.113D+00-0.513D+00
 Coeff:      0.142D+01
 Gap=     0.275 Goal=   None    Shift=    0.000
 RMSDP=4.57D-06 MaxDP=2.27D-05 DE=-1.28D-08 OVMax= 2.75D-05

 Cycle   8  Pass 1  IDiag  1:
 E= -7.07829406649062     Delta-E=       -0.000000000070 Rises=F Damp=F
 DIIS: error= 5.95D-07 at cycle   8 NSaved=   8.
 NSaved= 8 IEnMin= 8 EnMin= -7.07829406649062     IErMin= 8 ErrMin= 5.95D-07
 ErrMax= 5.95D-07  0.00D+00 EMaxC= 1.00D-01 BMatC= 2.70D-12 BMatP= 1.33D-11
 IDIUse=1 WtCom= 1.00D+00 WtEn= 0.00D+00
 Coeff-Com: -0.564D-03 0.103D-02-0.788D-03 0.619D-03 0.578D-02-0.514D-01
 Coeff-Com:  0.858D-02 0.104D+01
 Coeff:     -0.564D-03 0.103D-02-0.788D-03 0.619D-03 0.578D-02-0.514D-01
 Coeff:      0.858D-02 0.104D+01
 Gap=     0.275 Goal=   None    Shift=    0.000
 RMSDP=1.65D-06 MaxDP=8.79D-06 DE=-6.97D-11 OVMax= 1.46D-05

 Cycle   9  Pass 1  IDiag  1:
 E= -7.07829406654002     Delta-E=       -0.000000000049 Rises=F Damp=F
 DIIS: error= 1.94D-08 at cycle   9 NSaved=   9.
 NSaved= 9 IEnMin= 9 EnMin= -7.07829406654002     IErMin= 9 ErrMin= 1.94D-08
 ErrMax= 1.94D-08  0.00D+00 EMaxC= 1.00D-01 BMatC= 4.66D-15 BMatP= 2.70D-12
 IDIUse=1 WtCom= 1.00D+00 WtEn= 0.00D+00
 Coeff-Com:  0.274D-04-0.521D-04 0.767D-04-0.134D-03 0.223D-03 0.168D-03
 Coeff-Com:  0.122D-01-0.966D-01 0.108D+01
 Coeff:      0.274D-04-0.521D-04 0.767D-04-0.134D-03 0.223D-03 0.168D-03
 Coeff:      0.122D-01-0.966D-01 0.108D+01
 Gap=     0.275 Goal=   None    Shift=    0.000
 RMSDP=4.63D-08 MaxDP=2.54D-07 DE=-4.94D-11 OVMax= 3.64D-07

 Cycle  10  Pass 1  IDiag  1:
 E= -7.07829406654002     Delta-E=       -0.000000000000 Rises=F Damp=F
 DIIS: error= 7.73D-09 at cycle  10 NSaved=  10.
 NSaved=10 IEnMin=10 EnMin= -7.07829406654002     IErMin=10 ErrMin= 7.73D-09
 ErrMax= 7.73D-09  0.00D+00 EMaxC= 1.00D-01 BMatC= 4.62D-16 BMatP= 4.66D-15
 IDIUse=1 WtCom= 1.00D+00 WtEn= 0.00D+00
 Coeff-Com: -0.164D-06 0.237D-06-0.692D-06-0.379D-05 0.779D-04-0.518D-03
 Coeff-Com:  0.705D-03-0.432D-02-0.123D+00 0.113D+01
 Coeff:     -0.164D-06 0.237D-06-0.692D-06-0.379D-05 0.779D-04-0.518D-03
 Coeff:      0.705D-03-0.432D-02-0.123D+00 0.113D+01
 Gap=     0.275 Goal=   None    Shift=    0.000
 RMSDP=2.10D-08 MaxDP=1.12D-07 DE=-5.33D-15 OVMax= 1.83D-07

 Cycle  11  Pass 1  IDiag  1:
 E= -7.07829406654003     Delta-E=       -0.000000000000 Rises=F Damp=F
 DIIS: error= 1.73D-10 at cycle  11 NSaved=  11.
 NSaved=11 IEnMin=11 EnMin= -7.07829406654003     IErMin=11 ErrMin= 1.73D-10
 ErrMax= 1.73D-10  0.00D+00 EMaxC= 1.00D-01 BMatC= 2.40D-19 BMatP= 4.62D-16
 IDIUse=1 WtCom= 1.00D+00 WtEn= 0.00D+00
 Coeff-Com: -0.319D-08 0.634D-08 0.171D-08 0.154D-07-0.607D-06 0.506D-05
 Coeff-Com: -0.150D-04 0.102D-03 0.143D-02 0.642D-02 0.992D+00
 Coeff:     -0.319D-08 0.634D-08 0.171D-08 0.154D-07-0.607D-06 0.506D-05
 Coeff:     -0.150D-04 0.102D-03 0.143D-02 0.642D-02 0.992D+00
 Gap=     0.275 Goal=   None    Shift=    0.000
 RMSDP=4.64D-10 MaxDP=2.45D-09 DE=-5.33D-15 OVMax= 4.01D-09

 SCF Done:  E(RHF) =  -7.07829406654     A.U. after   11 cycles
            NFock= 11  Conv=0.46D-09     -V/T= 1.8556
 KE= 8.273304596469D+00 PE=-2.248269107835D+01 EE= 3.956029149822D+00
 Leave Link  502 at Mon Mar 28 13:59:46 2022, MaxMem=  9663676416 cpu:               3.0 elap:               0.1
 (Enter /nopt/nrel/apps/gaussian/g16C_1/g16/l801.exe)
 Windowed orbitals will be sorted by symmetry type.
 ExpMin= 2.86D-02 ExpMax= 3.68D+01 ExpMxC= 3.68D+01 IAcc=3 IRadAn=         5 AccDes= 0.00D+00
 HarFok:  IExCor=  205 AccDes= 0.00D+00 IRadAn=         5 IDoV=-2 UseB2=F ITyADJ=14
 ICtDFT= 12500011 ScaDFX=  1.000000  1.000000  1.000000  1.000000
 Largest valence mixing into a core orbital is  4.60D-03
 Largest core mixing into a valence orbital is  2.02D-06
 Range of M.O.s used for correlation:     2    10
 NBasis=    10 NAE=     2 NBE=     2 NFC=     1 NFV=     0
 NROrb=      9 NOA=     1 NOB=     1 NVA=     8 NVB=     8
 Leave Link  801 at Mon Mar 28 13:59:46 2022, MaxMem=  9663676416 cpu:               2.9 elap:               0.1
 (Enter /nopt/nrel/apps/gaussian/g16C_1/g16/l804.exe)
 Closed-shell transformation, MDV=  9663676416 ITran=4 ISComp=2.
 Unit  1 TFree=          4817 TCopy=        115370.
 Semi-Direct transformation.
 ModeAB=           2 MOrb=             1 LenV=    9663556713
 LASXX=           88 LTotXX=          88 LenRXX=          88
 LTotAB=         141 MaxLAS=         495 LenRXY=         495
 NonZer=         603 LenScr=      785920 LnRSAI=           0
 LnScr1=           0 LExtra=      218791 Total=      1005294
 MaxDsk= 34359738368 SrtSym=           F ITran=            4
 DoSDTr:  NPSUse= 36
 JobTyp=0 Pass  1:  I=   1 to   1.
 (rs|ai) integrals will be sorted in core.
 Complete sort for first half transformation.
 First half transformation complete.
 Complete sort for second half transformation.
 Second half transformation complete.
 Spin components of T(2) and E(2):
     alpha-alpha T2 =       0.0000000000D+00 E2=      0.0000000000D+00
     alpha-beta  T2 =       0.1224056146D-01 E2=     -0.1287655895D-01
     beta-beta   T2 =       0.0000000000D+00 E2=      0.0000000000D+00
 ANorm=    0.1006101666D+01
 E2 =    -0.1287655895D-01 EUMP2 =    -0.70911706254931D+01
 Leave Link  804 at Mon Mar 28 13:59:46 2022, MaxMem=  9663676416 cpu:               1.8 elap:               0.1
 (Enter /nopt/nrel/apps/gaussian/g16C_1/g16/l913.exe)
 CIDS:  MDV=  9663676416.
 Frozen-core window:  NFC=   1 NFV=   0.
 IFCWin=0 IBDFC=1 NFBD=     0     0 NFCmp=     0     0 NFFFC=     0     0
 Using DD3R+UMP44R for 1st iteration.
 Using DD4RQ for 2nd and later iterations.
 Keep R2 and R3 ints in memory in symmetry-blocked form, NReq=7208688.
 FoFCou: FMM=F IPFlag=           0 FMFlag=           0 FMFlg1=           0
         NFxFlg=           0 DoJE=F BraDBF=F KetDBF=F FulRan=T
         wScrn=  0.000000 ICntrl=       600 IOpCl=  0 I1Cent=           0 NGrid=           0
         NMat0=    1 NMatS0=     55 NMatT0=    0 NMatD0=    1 NMtDS0=    0 NMtDT0=    0
 Petite list used in FoFCou.
 CIDS: In Core Option IDoMem=           1.
 Coupled Cluster theory with single and double substitutions
 ===========================================================
 Iterations= 200 Convergence= 0.100D-06
 Produce multiple copies of IABC intergrals
 Iteration Nr.   1
 **********************
 DD1Dir will call FoFMem   1 times, MxPair=         2
 NAB=     1 NAA=     0 NBB=     0.
 MP4(R+Q)=  0.15761631D-03
 Maximum subspace dimension=  5
 A-vector RMS=  1.4727043D-02 Max=  1.4257013D-02 conv= 1.00D-05.
 RLE energy=       -0.0200798285
 E3=       -0.47792656D-02        EUMP3=      -0.70959498911D+01
 E4(DQ)=   -0.18280605D-02        UMP4(DQ)=   -0.70977779516D+01
 E4(SDQ)=  -0.19530313D-02        UMP4(SDQ)=  -0.70979029224D+01
 VARIATIONAL ENERGIES WITH THE FIRST-ORDER WAVEFUNCTION:
 DE(Corr)= -0.17495789E-01 E(Corr)=     -7.0957898551    
 NORM(A)=   0.10162514D+01
 Iteration Nr.   2
 **********************
 DD1Dir will call FoFMem   1 times, MxPair=         2
 NAB=     1 NAA=     0 NBB=     0.
 A-vector RMS=  1.0772356D-02 Max=  1.1877755D-02 conv= 1.00D-05.
 RLE energy=       -0.0210850733
 DE(Corr)= -0.20446713E-01 E(CORR)=     -7.0987407799     Delta=-2.95D-03
 NORM(A)=   0.10207058D+01
 Iteration Nr.   3
 **********************
 DD1Dir will call FoFMem   1 times, MxPair=         2
 NAB=     1 NAA=     0 NBB=     0.
 A-vector RMS=  6.4869652D-03 Max=  7.4795165D-03 conv= 1.00D-05.
 RLE energy=       -0.0216487498
 DE(Corr)= -0.21157861E-01 E(CORR)=     -7.0994519272     Delta=-7.11D-04
 NORM(A)=   0.10258024D+01
 Iteration Nr.   4
 **********************
 DD1Dir will call FoFMem   1 times, MxPair=         2
 NAB=     1 NAA=     0 NBB=     0.
 A-vector RMS=  2.2167654D-03 Max=  3.1429394D-03 conv= 1.00D-05.
 RLE energy=       -0.0216982115
 DE(Corr)= -0.21617941E-01 E(CORR)=     -7.0999120076     Delta=-4.60D-04
 NORM(A)=   0.10278260D+01
 Iteration Nr.   5
 **********************
 DD1Dir will call FoFMem   1 times, MxPair=         2
 NAB=     1 NAA=     0 NBB=     0.
 A-vector RMS=  7.5177907D-04 Max=  6.4763411D-04 conv= 1.00D-05.
 RLE energy=       -0.0216875345
 DE(Corr)= -0.21691895E-01 E(CORR)=     -7.0999859611     Delta=-7.40D-05
 NORM(A)=   0.10281090D+01
 Iteration Nr.   6
 **********************
 DD1Dir will call FoFMem   1 times, MxPair=         2
 NAB=     1 NAA=     0 NBB=     0.
 A-vector RMS=  1.7300855D-04 Max=  1.6889250D-04 conv= 1.00D-05.
 RLE energy=       -0.0217063906
 DE(Corr)= -0.21696205E-01 E(CORR)=     -7.0999902712     Delta=-4.31D-06
 NORM(A)=   0.10282232D+01
 Iteration Nr.   7
 **********************
 DD1Dir will call FoFMem   1 times, MxPair=         2
 NAB=     1 NAA=     0 NBB=     0.
 A-vector RMS=  4.4863649D-05 Max=  4.7931729D-05 conv= 1.00D-05.
 RLE energy=       -0.0217051206
 DE(Corr)= -0.21705733E-01 E(CORR)=     -7.0999997996     Delta=-9.53D-06
 NORM(A)=   0.10282224D+01
 Iteration Nr.   8
 **********************
 DD1Dir will call FoFMem   1 times, MxPair=         2
 NAB=     1 NAA=     0 NBB=     0.
 A-vector RMS=  8.7257965D-06 Max=  9.0662677D-06 conv= 1.00D-05.
 RLE energy=       -0.0217051477
 DE(Corr)= -0.21705180E-01 E(CORR)=     -7.0999992465     Delta= 5.53D-07
 NORM(A)=   0.10282237D+01
 Iteration Nr.   9
 **********************
 DD1Dir will call FoFMem   1 times, MxPair=         2
 NAB=     1 NAA=     0 NBB=     0.
 A-vector RMS=  2.0343464D-06 Max=  2.7055208D-06 conv= 1.00D-05.
 RLE energy=       -0.0217050834
 DE(Corr)= -0.21705131E-01 E(CORR)=     -7.0999991972     Delta= 4.93D-08
 NORM(A)=   0.10282239D+01
 CI/CC converged in    9 iterations to DelEn= 4.93D-08 Conv= 1.00D-07 ErrA1= 2.03D-06 Conv= 1.00D-05
 Wavefunction amplitudes converged. E(Corr)=     -7.0999991972    
 Largest amplitude= 7.46D-02
 Discarding MO integrals.
 Leave Link  913 at Mon Mar 28 13:59:47 2022, MaxMem=  9663676416 cpu:               3.6 elap:               0.1
 (Enter /nopt/nrel/apps/gaussian/g16C_1/g16/l601.exe)
 Copying SCF densities to generalized density rwf, IOpCl= 0 IROHF=0.

 **********************************************************************

            Population analysis using the SCF Density.

 **********************************************************************

 Orbital symmetries:
       Occupied  (SG) (SG)
       Virtual   (SG) (PI) (PI) (SG) (SG) (PI) (PI) (SG)
 The electronic state is 1-SG.
 Alpha  occ. eigenvalues --   -2.87476  -0.27390
 Alpha virt. eigenvalues --    0.00091   0.04606   0.04606   0.10942   0.16010
 Alpha virt. eigenvalues --    0.17757   0.17757   0.97208
          Condensed to atoms (all electrons):
               1          2
     1  H    0.382586   0.341235
     2  Li   0.341235   2.934944
 Mulliken charges:
               1
     1  H    0.276179
     2  Li  -0.276179
 Sum of Mulliken charges =   0.00000
 Mulliken charges with hydrogens summed into heavy atoms:
               1
     2  Li   0.000000
 N-N= 3.175063265520D+00 E-N=-2.248269108034D+01  KE= 8.273304596469D+00
 Symmetry A1   KE= 8.273304596469D+00
 Symmetry A2   KE= 0.000000000000D+00
 Symmetry B1   KE= 0.000000000000D+00
 Symmetry B2   KE= 0.000000000000D+00

 Atomic contributions to Alpha molecular orbitals:
 Alpha occ 1 OE=-2.875 is Li2-s=0.9417
 Alpha occ 2 OE=-0.274 is Li2-s=0.4820 H1-s=0.3033 Li2-p=0.2147
 Alpha vir 3 OE=0.001 is Li2-p=0.5577 Li2-s=0.4240
 Alpha vir 4 OE=0.046 is Li2-p=1.0000
 Alpha vir 5 OE=0.046 is Li2-p=1.0000
 Alpha vir 6 OE=0.109 is Li2-p=0.8055 Li2-s=0.1644
 Alpha vir 7 OE=0.160 is Li2-s=0.7597 Li2-p=0.2309
 Alpha vir 8 OE=0.178 is Li2-p=1.0000
 Alpha vir 9 OE=0.178 is Li2-p=1.0000
 Alpha vir 10 OE=0.972 is H1-s=0.5802 Li2-s=0.2282 Li2-p=0.1916
 
 Leave Link  601 at Mon Mar 28 13:59:47 2022, MaxMem=  9663676416 cpu:               2.2 elap:               0.1
 (Enter /nopt/nrel/apps/gaussian/g16C_1/g16/l9999.exe)

 Test job not archived.
 1\1\GINC-R102U34\SP\RCCSD-FC\Gen\H1Li1\USER\28-Mar-2022\0\\#P CCSD
 (MaxCyc=200,SaveAmplitudes,ReadAmplitudes)/GEN sp pop=AllOrbitals iop(
 3/33=1,3/36=-1)\\test\\0,1\H,0,0.,0.,0.\Li,0,0.,0.,0.5\\Version=ES64L-
 G16RevC.01\State=1-SG\HF=-7.0782941\MP2=-7.0911706\MP3=-7.0959499\MP4D
 =-7.0979356\MP4DQ=-7.097778\MP4SDQ=-7.0979029\CCSD=-7.0999992\RMSD=4.6
 44e-10\PG=C*V [C*(H1Li1)]\\@


 EDUCATION IS NOT TRAINING BUT RATHER THE PROCESS THAT EQUIPS YOU TO
 ENTERTAIN YOURSELF, A FRIEND, OR AN IDEA.  -- WALLACE STERLING
 Job cpu time:       0 days  0 hours  0 minutes 29.9 seconds.
 Elapsed time:       0 days  0 hours  0 minutes  1.2 seconds.
 File lengths (MBytes):  RWF=     13 Int=      0 D2E=      0 Chk=      1 Scr=      1
 Normal termination of Gaussian 16 at Mon Mar 28 13:59:47 2022.
