 Entering Gaussian System, Link 0=g16
 Initial command:
 /nopt/nrel/apps/gaussian/g16C_1/g16/l1.exe "/lustre/eaglefs/scratch/user/qc/lih-dissc/lih-3-ccsd-0.8-sto3g/Gau-13951.inp" -scrdir="/lustre/eaglefs/scratch/user/qc/lih-dissc/lih-3-ccsd-0.8-sto3g/"
 Default is to use a total of  36 processors:
                               36 via shared-memory
                                1 via Linda
 Entering Link 1 = /nopt/nrel/apps/gaussian/g16C_1/g16/l1.exe PID=     13952.
  
 Copyright (c) 1988-2019, Gaussian, Inc.  All Rights Reserved.
  
 This is part of the Gaussian(R) 16 program.  It is based on
 the Gaussian(R) 09 system (copyright 2009, Gaussian, Inc.),
 the Gaussian(R) 03 system (copyright 2003, Gaussian, Inc.),
 the Gaussian(R) 98 system (copyright 1998, Gaussian, Inc.),
 the Gaussian(R) 94 system (copyright 1995, Gaussian, Inc.),
 the Gaussian 92(TM) system (copyright 1992, Gaussian, Inc.),
 the Gaussian 90(TM) system (copyright 1990, Gaussian, Inc.),
 the Gaussian 88(TM) system (copyright 1988, Gaussian, Inc.),
 the Gaussian 86(TM) system (copyright 1986, Carnegie Mellon
 University), and the Gaussian 82(TM) system (copyright 1983,
 Carnegie Mellon University). Gaussian is a federally registered
 trademark of Gaussian, Inc.
  
 This software contains proprietary and confidential information,
 including trade secrets, belonging to Gaussian, Inc.
  
 This software is provided under written license and may be
 used, copied, transmitted, or stored only in accord with that
 written license.
  
 The following legend is applicable only to US Government
 contracts under FAR:
  
                    RESTRICTED RIGHTS LEGEND
  
 Use, reproduction and disclosure by the US Government is
 subject to restrictions as set forth in subparagraphs (a)
 and (c) of the Commercial Computer Software - Restricted
 Rights clause in FAR 52.227-19.
  
 Gaussian, Inc.
 340 Quinnipiac St., Bldg. 40, Wallingford CT 06492
  
  
 ---------------------------------------------------------------
 Warning -- This program may not be used in any manner that
 competes with the business of Gaussian, Inc. or will provide
 assistance to any competitor of Gaussian, Inc.  The licensee
 of this program is prohibited from giving any competitor of
 Gaussian, Inc. access to this program.  By using this program,
 the user acknowledges that Gaussian, Inc. is engaged in the
 business of creating and licensing software in the field of
 computational chemistry and represents and warrants to the
 licensee that it is not a competitor of Gaussian, Inc. and that
 it will not use this program in any manner prohibited above.
 ---------------------------------------------------------------
  

 Cite this work as:
 Gaussian 16, Revision C.01,
 M. J. Frisch, G. W. Trucks, H. B. Schlegel, G. E. Scuseria, 
 M. A. Robb, J. R. Cheeseman, G. Scalmani, V. Barone, 
 G. A. Petersson, H. Nakatsuji, X. Li, M. Caricato, A. V. Marenich, 
 J. Bloino, B. G. Janesko, R. Gomperts, B. Mennucci, H. P. Hratchian, 
 J. V. Ortiz, A. F. Izmaylov, J. L. Sonnenberg, D. Williams-Young, 
 F. Ding, F. Lipparini, F. Egidi, J. Goings, B. Peng, A. Petrone, 
 T. Henderson, D. Ranasinghe, V. G. Zakrzewski, J. Gao, N. Rega, 
 G. Zheng, W. Liang, M. Hada, M. Ehara, K. Toyota, R. Fukuda, 
 J. Hasegawa, M. Ishida, T. Nakajima, Y. Honda, O. Kitao, H. Nakai, 
 T. Vreven, K. Throssell, J. A. Montgomery, Jr., J. E. Peralta, 
 F. Ogliaro, M. J. Bearpark, J. J. Heyd, E. N. Brothers, K. N. Kudin, 
 V. N. Staroverov, T. A. Keith, R. Kobayashi, J. Normand, 
 K. Raghavachari, A. P. Rendell, J. C. Burant, S. S. Iyengar, 
 J. Tomasi, M. Cossi, J. M. Millam, M. Klene, C. Adamo, R. Cammi, 
 J. W. Ochterski, R. L. Martin, K. Morokuma, O. Farkas, 
 J. B. Foresman, and D. J. Fox, Gaussian, Inc., Wallingford CT, 2019.
 
 ******************************************
 Gaussian 16:  ES64L-G16RevC.01  3-Jul-2019
                28-Mar-2022 
 ******************************************
 %chk=molecule
 Default route: CacheSize=180224 MaxDisk=256GB
 ----------------------------------------------------------------------
 #P CCSD(MaxCyc=200,SaveAmplitudes,ReadAmplitudes)/GEN sp pop=AllOrbita
 ls iop(3/33=1,3/36=-1)
 ----------------------------------------------------------------------
 1/4=180224,38=1,172=1/1;
 2/4=180224,12=2,17=6,18=5,40=1/2;
 3/4=180224,5=7,11=9,25=1,30=1,33=1,36=-1/1,2,3;
 4/4=180224/1;
 5/4=180224,5=2,38=5/2;
 8/4=180224,6=4,9=120000,10=1,24=1/1,4;
 9/4=180224,5=7,6=200,77=1/13;
 6/4=180224,7=2,8=2,9=2,10=2,96=-1/1;
 99/4=180224,5=1,9=1/99;
 Leave Link    1 at Mon Mar 28 14:03:55 2022, MaxMem=           0 cpu:               2.2 elap:               0.1
 (Enter /nopt/nrel/apps/gaussian/g16C_1/g16/l101.exe)
 ----
 test
 ----
 Symbolic Z-matrix:
 Charge =  0 Multiplicity = 3
 H                     0.        0.        0. 
 Li                    0.        0.        0.8 
 
 ITRead=  0  0
 MicOpt= -1 -1
 NAtoms=      2 NQM=        2 NQMF=       0 NMMI=      0 NMMIF=      0
                NMic=       0 NMicF=      0.
                    Isotopes and Nuclear Properties:
 (Nuclear quadrupole moments (NQMom) in fm**2, nuclear magnetic moments (NMagM)
  in nuclear magnetons)

  Atom         1           2
 IAtWgt=           1           7
 AtmWgt=   1.0078250   7.0160045
 NucSpn=           1           3
 AtZEff=  -0.0000000  -0.0000000
 NQMom=    0.0000000  -4.0100000
 NMagM=    2.7928460   3.2564240
 AtZNuc=   1.0000000   3.0000000
 Leave Link  101 at Mon Mar 28 14:03:55 2022, MaxMem=  9663676416 cpu:               2.8 elap:               0.1
 (Enter /nopt/nrel/apps/gaussian/g16C_1/g16/l202.exe)
                          Input orientation:                          
 ---------------------------------------------------------------------
 Center     Atomic      Atomic             Coordinates (Angstroms)
 Number     Number       Type             X           Y           Z
 ---------------------------------------------------------------------
      1          1           0        0.000000    0.000000    0.000000
      2          3           0        0.000000    0.000000    0.800000
 ---------------------------------------------------------------------
 Stoichiometry    HLi(3)
 Framework group  C*V[C*(HLi)]
 Deg. of freedom     1
 Full point group                 C*V     NOp   4
 Largest Abelian subgroup         C2V     NOp   4
 Largest concise Abelian subgroup C1      NOp   1
                         Standard orientation:                         
 ---------------------------------------------------------------------
 Center     Atomic      Atomic             Coordinates (Angstroms)
 Number     Number       Type             X           Y           Z
 ---------------------------------------------------------------------
      1          1           0        0.000000    0.000000   -0.600000
      2          3           0        0.000000    0.000000    0.200000
 ---------------------------------------------------------------------
 Rotational constants (GHZ):           0.0000000         896.0740847         896.0740847
 Leave Link  202 at Mon Mar 28 14:03:55 2022, MaxMem=  9663676416 cpu:               1.0 elap:               0.1
 (Enter /nopt/nrel/apps/gaussian/g16C_1/g16/l301.exe)
 General basis read from cards:  (5D, 7F)
                         Coordinates in L301:                         
 ---------------------------------------------------------------------
 Center     Atomic      Atomic             Coordinates (Angstroms)
 Number     Number       Type             X           Y           Z
 ---------------------------------------------------------------------
      1          1           0        0.000000    0.000000   -0.600000
      2          3           0        0.000000    0.000000    0.200000
 ---------------------------------------------------------------------
 Centers:       1
 STO-3G
 ****
 Centers:       2
 STO-3G
 ****
 FixB: optimizing general contractions.
 Ernie: Thresh=  0.10000D-02 Tol=  0.10000D-05 Strict=F.
 IA=     1 ShT= 0 ShC= 0 NL=   1 NS=   0.
 IA=     1 L=0 SC=0 ISt=    0 NBk=    0 NP=    0 IndPr=    0.
 IA=     2 ShT= 0 ShC= 0 NL=   1 NS=   0.
 IA=     2 L=0 SC=0 ISt=    0 NBk=    0 NP=    0 IndPr=    0.
 IA=     2 ShT= 1 ShC= 0 NL=   1 NS=   0.
 IA=     2 L=1 SC=0 ISt=    0 NBk=    0 NP=    0 IndPr=    0.
 LdAtmC:  AtmChg=     1.000000     3.000000
 AtZEff=     -1.0000000     -1.3500000
 NEqShl: 
              1            2            3            4
     1            1            1            1            1
     2            2            2            2            2
     3            3            3            3            3
 NEqBas: 
              1            2            3            4
     1            1            1            1            1
     2            2            2            2            2
     3            3            3            3            3
     4            4           -4           -4            4
     5            5           -5            5           -5
     6            6            6            6            6
 There are     4 symmetry adapted cartesian basis functions of A1  symmetry.
   1         1   1   1   1
   2         2   2   2   2
   3         3   3   3   3
   4         6   6   6   6
 There are     0 symmetry adapted cartesian basis functions of A2  symmetry.
 There are     1 symmetry adapted cartesian basis functions of B1  symmetry.
   5         4   4   4   4
 There are     1 symmetry adapted cartesian basis functions of B2  symmetry.
   6         5   5   5   5
 Order= 1 2 4 3
 Reordered character table:
              1            2            3            4            5
     1            1            1            1            1            1
     2            2            1            1           -1           -1
     3            4            1           -1           -1            1
     4            3            1           -1            1           -1
 NEqShl: 
              1            2            3            4
     1            1            1            1            1
     2            2            2            2            2
     3            3            3            3            3
 NEqBas: 
              1            2            3            4
     1            1            1            1            1
     2            2            2            2            2
     3            3            3            3            3
     4            4           -4           -4            4
     5            5           -5            5           -5
     6            6            6            6            6
 There are     4 symmetry adapted basis functions of A1  symmetry.
   1         1   1   1   1
   2         2   2   2   2
   3         3   3   3   3
   4         6   6   6   6
 There are     0 symmetry adapted basis functions of A2  symmetry.
 There are     1 symmetry adapted basis functions of B1  symmetry.
   5         4   4   4   4
 There are     1 symmetry adapted basis functions of B2  symmetry.
   6         5   5   5   5
 Order= 1 2 4 3
 Reordered character table:
              1            2            3            4            5
     1            1            1            1            1            1
     2            2            1            1           -1           -1
     3            4            1           -1           -1            1
     4            3            1           -1            1           -1
     6 basis functions,    18 primitive gaussians,     6 cartesian basis functions
     3 alpha electrons        1 beta electrons
       nuclear repulsion energy         1.9844145409 Hartrees.
 IS=     1 IAt=     1 ISR=     1 T=0 IP=      1 IndIP=      1 IndIPD=      0 C=  2.769344D-01  0.000000D+00                             NZ=T
 IS=     1 IAt=     1 ISR=     1 T=0 IP=      2 IndIP=      2 IndIPD=      1 C=  2.678389D-01  0.000000D+00                             NZ=T
 IS=     1 IAt=     1 ISR=     1 T=0 IP=      3 IndIP=      3 IndIPD=      2 C=  8.347367D-02  0.000000D+00                             NZ=T
 IS=     2 IAt=     2 ISR=     1 T=0 IP=      1 IndIP=      4 IndIPD=      0 C=  8.848563D-01  0.000000D+00                             NZ=T
 IS=     2 IAt=     2 ISR=     1 T=0 IP=      2 IndIP=      5 IndIPD=      1 C=  8.557945D-01  0.000000D+00                             NZ=T
 IS=     2 IAt=     2 ISR=     1 T=0 IP=      3 IndIP=      6 IndIPD=      2 C=  2.667138D-01  0.000000D+00                             NZ=T
 IS=     3 IAt=     2 ISR=     2 T=1 IP=      1 IndIP=      7 IndIPD=      0 C= -5.075852D-02  1.262991D-01                             NZ=T
 IS=     3 IAt=     2 ISR=     2 T=1 IP=      2 IndIP=      8 IndIPD=      1 C=  6.789362D-02  7.942025D-02                             NZ=T
 IS=     3 IAt=     2 ISR=     2 T=1 IP=      3 IndIP=      9 IndIPD=      2 C=  5.124033D-02  1.258150D-02                             NZ=T
 IExCor=    0 DFT=F Ex=HF Corr=None ExCW=0 ScaHFX=  1.000000
 ScaDFX=  1.000000  1.000000  1.000000  1.000000 ScalE2=  1.000000  1.000000
 IRadAn=      5 IRanWt=     -1 IRanGd=            0 ICorTp=0 IEmpDi=  4
 NAtoms=    2 NActive=    2 NUniq=    2 SFac= 1.00D+00 NAtFMM=   60 NAOKFM=F Big=F
 Integral buffers will be    131072 words long.
 Raffenetti 2 integral format.
 Two-electron integral symmetry is turned on.
 Leave Link  301 at Mon Mar 28 14:03:55 2022, MaxMem=  9663676416 cpu:               1.8 elap:               0.1
 (Enter /nopt/nrel/apps/gaussian/g16C_1/g16/l302.exe)
 NPDir=0 NMtPBC=     1 NCelOv=     1 NCel=       1 NClECP=     1 NCelD=      1
         NCelK=      1 NCelE2=     1 NClLst=     1 CellRange=     0.0.
 One-electron integrals computed using PRISM.
 One-electron integral symmetry used in STVInt
 Entering OneElI...
 Calculate overlap and kinetic energy integrals
    NBasis =   6  MinDer = 0  MaxDer = 0
 Requested accuracy = 0.1000D-12
 Symmetry will be used
 PrmmSu-InSpLW:  IPartL=    0 NPrtUS=   36 NPrtUL=    1 DoSpLW=F IThBeg=    0 IThEnd=   35 NThAct=   36.
 PrSmSu:  IncTry=   512 NBBP=              6 NTPThr=   100 NPartT=   36 Incr=           1 LDynOK=F GPUOK=F.
 PrsmSu:  NPrtUS=  36 ThrOK=T IAlg=1 LenDen=           0 ISkipM=0 DoSpLW=F IThBeg=    0 IThEnd=   35.
 Prism:   IPart=     0 DynPar=F LinDyn=F Incr=           1.
 PRISM was handed   268434353 working-precision words and     6 shell-pairs
 PRISM was handed   268434353 working-precision words and     6 shell-pairs
 PRISM was handed   268434353 working-precision words and     6 shell-pairs
 PRISM was handed   268434353 working-precision words and     6 shell-pairs
 PRISM was handed   268434353 working-precision words and     6 shell-pairs
 PRISM was handed   268434353 working-precision words and     6 shell-pairs
 PRISM was handed   268434353 working-precision words and     6 shell-pairs
 PRISM was handed   268434353 working-precision words and     6 shell-pairs
 PRISM was handed   268434353 working-precision words and     6 shell-pairs
 PRISM was handed   268434353 working-precision words and     6 shell-pairs
 PRISM was handed   268434353 working-precision words and     6 shell-pairs
 PRISM was handed   268434353 working-precision words and     6 shell-pairs
 PRISM was handed   268434353 working-precision words and     6 shell-pairs
 IPart=  9 NShTot=           0 NBatch=           0 AvBLen=         0.0
 IPart= 29 NShTot=           0 NBatch=           0 AvBLen=         0.0
 IPart= 31 NShTot=           0 NBatch=           0 AvBLen=         0.0
 IPart= 16 NShTot=           0 NBatch=           0 AvBLen=         0.0
 IPart=  4 NShTot=           0 NBatch=           0 AvBLen=         0.0
 IPart= 25 NShTot=           0 NBatch=           0 AvBLen=         0.0
 IPart= 34 NShTot=           0 NBatch=           0 AvBLen=         0.0
 IPart= 24 NShTot=           0 NBatch=           0 AvBLen=         0.0
 IPart= 20 NShTot=           0 NBatch=           0 AvBLen=         0.0
 IPart= 28 NShTot=           0 NBatch=           0 AvBLen=         0.0
 IPart=  5 NShTot=           0 NBatch=           0 AvBLen=         0.0
 IPart=  2 NShTot=           1 NBatch=           1 AvBLen=         1.0
 PRISM was handed   268434353 working-precision words and     6 shell-pairs
 PRISM was handed   268434353 working-precision words and     6 shell-pairs
 PRISM was handed   268434353 working-precision words and     6 shell-pairs
 PRISM was handed   268434353 working-precision words and     6 shell-pairs
 PRISM was handed   268434353 working-precision words and     6 shell-pairs
 PRISM was handed   268434353 working-precision words and     6 shell-pairs
 IPart= 26 NShTot=           0 NBatch=           0 AvBLen=         0.0
 IPart=  7 NShTot=           0 NBatch=           0 AvBLen=         0.0
 IPart= 27 NShTot=           0 NBatch=           0 AvBLen=         0.0
 PRISM was handed   268434353 working-precision words and     6 shell-pairs
 PRISM was handed   268434353 working-precision words and     6 shell-pairs
 IPart=  0 NShTot=           3 NBatch=           3 AvBLen=         1.0
 IPart= 33 NShTot=           0 NBatch=           0 AvBLen=         0.0
 PRISM was handed   268434353 working-precision words and     6 shell-pairs
 IPart= 17 NShTot=           0 NBatch=           0 AvBLen=         0.0
 IPart=  8 NShTot=           0 NBatch=           0 AvBLen=         0.0
 IPart= 30 NShTot=           0 NBatch=           0 AvBLen=         0.0
 IPart=  1 NShTot=           2 NBatch=           2 AvBLen=         1.0
 PRISM was handed   268434353 working-precision words and     6 shell-pairs
 PRISM was handed   268434353 working-precision words and     6 shell-pairs
 PRISM was handed   268434353 working-precision words and     6 shell-pairs
 PRISM was handed   268434353 working-precision words and     6 shell-pairs
 PRISM was handed   268434353 working-precision words and     6 shell-pairs
 IPart= 15 NShTot=           0 NBatch=           0 AvBLen=         0.0
 PRISM was handed   268434353 working-precision words and     6 shell-pairs
 PRISM was handed   268434353 working-precision words and     6 shell-pairs
 PRISM was handed   268434353 working-precision words and     6 shell-pairs
 IPart= 12 NShTot=           0 NBatch=           0 AvBLen=         0.0
 PRISM was handed   268434353 working-precision words and     6 shell-pairs
 IPart= 23 NShTot=           0 NBatch=           0 AvBLen=         0.0
 IPart= 13 NShTot=           0 NBatch=           0 AvBLen=         0.0
 IPart= 19 NShTot=           0 NBatch=           0 AvBLen=         0.0
 IPart=  6 NShTot=           0 NBatch=           0 AvBLen=         0.0
 PRISM was handed   268434353 working-precision words and     6 shell-pairs
 IPart=  3 NShTot=           0 NBatch=           0 AvBLen=         0.0
 IPart= 10 NShTot=           0 NBatch=           0 AvBLen=         0.0
 IPart= 18 NShTot=           0 NBatch=           0 AvBLen=         0.0
 PRISM was handed   268434353 working-precision words and     6 shell-pairs
 PRISM was handed   268434353 working-precision words and     6 shell-pairs
 IPart= 21 NShTot=           0 NBatch=           0 AvBLen=         0.0
 PRISM was handed   268434353 working-precision words and     6 shell-pairs
 PRISM was handed   268434353 working-precision words and     6 shell-pairs
 IPart= 32 NShTot=           0 NBatch=           0 AvBLen=         0.0
 IPart= 22 NShTot=           0 NBatch=           0 AvBLen=         0.0
 IPart= 11 NShTot=           0 NBatch=           0 AvBLen=         0.0
 IPart= 35 NShTot=           0 NBatch=           0 AvBLen=         0.0
 IPart= 14 NShTot=           0 NBatch=           0 AvBLen=         0.0
 PrSmSu:  NxtVal=             37.
 *** Overlap *** 
                1             2             3             4             5 
      1  0.100000D+01
      2  0.332610D+00  0.100000D+01
      3  0.572390D+00  0.241137D+00  0.100000D+01
      4  0.000000D+00  0.000000D+00  0.000000D+00  0.100000D+01
      5  0.000000D+00  0.000000D+00  0.000000D+00  0.000000D+00  0.100000D+01
      6 -0.506983D+00  0.000000D+00  0.000000D+00  0.000000D+00  0.000000D+00
                6 
      6  0.100000D+01
 *** Kinetic Energy *** 
                1             2             3             4             5 
      1  0.760032D+00
      2  0.108326D+00  0.357679D+01
      3  0.865280D-01 -0.202374D-01  0.102163D+00
      4  0.000000D+00  0.000000D+00  0.000000D+00  0.319682D+00
      5  0.000000D+00  0.000000D+00  0.000000D+00  0.000000D+00  0.319682D+00
      6 -0.248349D+00  0.000000D+00  0.000000D+00  0.000000D+00  0.000000D+00
                6 
      6  0.319682D+00
 Entering OneElI...
 Calculate potential energy integrals
    NBasis =   6  MinDer = 0  MaxDer = 0
 Requested accuracy = 0.1000D-12
 Symmetry will be used
 PrmmSu-InSpLW:  IPartL=    0 NPrtUS=   36 NPrtUL=    1 DoSpLW=F IThBeg=    0 IThEnd=   35 NThAct=   36.
 PrSmSu:  IncTry=   512 NBBP=             12 NTPThr=   100 NPartT=   36 Incr=           1 LDynOK=F GPUOK=F.
 PrsmSu:  NPrtUS=  36 ThrOK=T IAlg=1 LenDen=           0 ISkipM=0 DoSpLW=F IThBeg=    0 IThEnd=   35.
 PRISM was handed   268434362 working-precision words and     6 shell-pairs
 PRISM was handed   268434362 working-precision words and     6 shell-pairs
 PRISM was handed   268434362 working-precision words and     6 shell-pairs
 PRISM was handed   268434362 working-precision words and     6 shell-pairs
 Prism:   IPart=     0 DynPar=F LinDyn=F Incr=           1.
 PRISM was handed   268434362 working-precision words and     6 shell-pairs
 PRISM was handed   268434362 working-precision words and     6 shell-pairs
 PRISM was handed   268434362 working-precision words and     6 shell-pairs
 PRISM was handed   268434362 working-precision words and     6 shell-pairs
 PRISM was handed   268434362 working-precision words and     6 shell-pairs
 PRISM was handed   268434362 working-precision words and     6 shell-pairs
 PRISM was handed   268434362 working-precision words and     6 shell-pairs
 PRISM was handed   268434362 working-precision words and     6 shell-pairs
 PRISM was handed   268434362 working-precision words and     6 shell-pairs
 PRISM was handed   268434362 working-precision words and     6 shell-pairs
 PRISM was handed   268434362 working-precision words and     6 shell-pairs
 PRISM was handed   268434362 working-precision words and     6 shell-pairs
 PRISM was handed   268434362 working-precision words and     6 shell-pairs
 PRISM was handed   268434362 working-precision words and     6 shell-pairs
 PRISM was handed   268434362 working-precision words and     6 shell-pairs
 PRISM was handed   268434362 working-precision words and     6 shell-pairs
 PRISM was handed   268434362 working-precision words and     6 shell-pairs
 PRISM was handed   268434362 working-precision words and     6 shell-pairs
 PRISM was handed   268434362 working-precision words and     6 shell-pairs
 PRISM was handed   268434362 working-precision words and     6 shell-pairs
 PRISM was handed   268434362 working-precision words and     6 shell-pairs
 PRISM was handed   268434362 working-precision words and     6 shell-pairs
 PRISM was handed   268434362 working-precision words and     6 shell-pairs
 PRISM was handed   268434362 working-precision words and     6 shell-pairs
 PRISM was handed   268434362 working-precision words and     6 shell-pairs
 PRISM was handed   268434362 working-precision words and     6 shell-pairs
 PRISM was handed   268434362 working-precision words and     6 shell-pairs
 PRISM was handed   268434362 working-precision words and     6 shell-pairs
 PRISM was handed   268434362 working-precision words and     6 shell-pairs
 PRISM was handed   268434362 working-precision words and     6 shell-pairs
 PRISM was handed   268434362 working-precision words and     6 shell-pairs
 PRISM was handed   268434362 working-precision words and     6 shell-pairs
 IPart=  2 NShTot=           2 NBatch=           1 AvBLen=         2.0
 IPart=  1 NShTot=           4 NBatch=           2 AvBLen=         2.0
 IPart=  0 NShTot=           6 NBatch=           3 AvBLen=         2.0
 IPart= 17 NShTot=           0 NBatch=           0 AvBLen=         0.0
 IPart= 24 NShTot=           0 NBatch=           0 AvBLen=         0.0
 IPart= 35 NShTot=           0 NBatch=           0 AvBLen=         0.0
 IPart= 21 NShTot=           0 NBatch=           0 AvBLen=         0.0
 IPart= 28 NShTot=           0 NBatch=           0 AvBLen=         0.0
 IPart= 31 NShTot=           0 NBatch=           0 AvBLen=         0.0
 IPart= 22 NShTot=           0 NBatch=           0 AvBLen=         0.0
 IPart= 32 NShTot=           0 NBatch=           0 AvBLen=         0.0
 IPart= 29 NShTot=           0 NBatch=           0 AvBLen=         0.0
 IPart= 20 NShTot=           0 NBatch=           0 AvBLen=         0.0
 IPart= 23 NShTot=           0 NBatch=           0 AvBLen=         0.0
 IPart=  8 NShTot=           0 NBatch=           0 AvBLen=         0.0
 IPart=  5 NShTot=           0 NBatch=           0 AvBLen=         0.0
 IPart= 26 NShTot=           0 NBatch=           0 AvBLen=         0.0
 IPart= 30 NShTot=           0 NBatch=           0 AvBLen=         0.0
 IPart= 19 NShTot=           0 NBatch=           0 AvBLen=         0.0
 IPart= 10 NShTot=           0 NBatch=           0 AvBLen=         0.0
 IPart=  6 NShTot=           0 NBatch=           0 AvBLen=         0.0
 IPart= 14 NShTot=           0 NBatch=           0 AvBLen=         0.0
 IPart= 16 NShTot=           0 NBatch=           0 AvBLen=         0.0
 IPart=  3 NShTot=           0 NBatch=           0 AvBLen=         0.0
 IPart= 15 NShTot=           0 NBatch=           0 AvBLen=         0.0
 IPart= 34 NShTot=           0 NBatch=           0 AvBLen=         0.0
 IPart= 27 NShTot=           0 NBatch=           0 AvBLen=         0.0
 IPart= 25 NShTot=           0 NBatch=           0 AvBLen=         0.0
 IPart=  9 NShTot=           0 NBatch=           0 AvBLen=         0.0
 IPart= 12 NShTot=           0 NBatch=           0 AvBLen=         0.0
 IPart= 18 NShTot=           0 NBatch=           0 AvBLen=         0.0
 IPart=  4 NShTot=           0 NBatch=           0 AvBLen=         0.0
 IPart= 11 NShTot=           0 NBatch=           0 AvBLen=         0.0
 IPart= 13 NShTot=           0 NBatch=           0 AvBLen=         0.0
 IPart=  7 NShTot=           0 NBatch=           0 AvBLen=         0.0
 IPart= 33 NShTot=           0 NBatch=           0 AvBLen=         0.0
 PrSmSu:  NxtVal=             37.
 ***** Potential Energy ***** 
                1             2             3             4             5 
      1  0.307754D+01
      2  0.175632D+01  0.864342D+01
      3  0.136867D+01  0.111814D+01  0.158106D+01
      4  0.000000D+00  0.000000D+00  0.000000D+00  0.154012D+01
      5  0.000000D+00  0.000000D+00  0.000000D+00  0.000000D+00  0.154012D+01
      6 -0.128057D+01 -0.543009D-01 -0.133744D+00  0.000000D+00  0.000000D+00
                6 
      6  0.163609D+01
 ****** Core Hamiltonian ****** 
                1             2             3             4             5 
      1 -0.231751D+01
      2 -0.164799D+01 -0.506664D+01
      3 -0.128214D+01 -0.113838D+01 -0.147890D+01
      4  0.000000D+00  0.000000D+00  0.000000D+00 -0.122043D+01
      5  0.000000D+00  0.000000D+00  0.000000D+00  0.000000D+00 -0.122043D+01
      6  0.103222D+01  0.543009D-01  0.133744D+00  0.000000D+00  0.000000D+00
                6 
      6 -0.131640D+01
 SVDSVc IOpt=   1 NormSV=T IR=1
 SVDSVc V= 1.91D+00 1.09D+00 7.75D-01 2.18D-01
 SVDSVc IOpt=   1 NormSV=T IR=3
 SVDSVc V= 1.00D+00
 SVDSVc IOpt=   1 NormSV=T IR=4
 SVDSVc V= 1.00D+00
 TstOVc:  Largest diagonal error= 2.00D-15 IB=1 I=    4.
 TstOVc:  Largest same sym error= 6.94D-16 IB=1 I=    4 J=    3.
 TstOVc:  Largest diff sym error= 0.00D+00 IB=0 JB=0 I=    0 J=    0.
 Orthogonalized basis functions: 
                 1             2             3             4             5 
      1   0.483708D+00 -0.135693D+00 -0.103691D+00  0.155002D+01  0.000000D+00
      2   0.274949D+00  0.462770D+00  0.876837D+00 -0.341938D+00  0.000000D+00
      3   0.375328D+00  0.365350D+00 -0.675573D+00 -0.102905D+01  0.000000D+00
      4   0.000000D+00  0.000000D+00  0.000000D+00  0.000000D+00  0.100000D+01
      5   0.000000D+00  0.000000D+00  0.000000D+00  0.000000D+00  0.000000D+00
      6  -0.268212D+00  0.740940D+00 -0.233518D+00  0.100484D+01  0.000000D+00
                 6 
      1   0.000000D+00
      2   0.000000D+00
      3   0.000000D+00
      4   0.000000D+00
      5   0.100000D+01
      6   0.000000D+00
 NBasis=     6 RedAO= T EigKep=  2.18D-01  NBF=     4     0     1     1
 NBsUse=     6 1.00D-06 EigRej= -1.00D+00 NBFU=     4     0     1     1
 Leave Link  302 at Mon Mar 28 14:03:55 2022, MaxMem=  9663676416 cpu:               3.3 elap:               0.1
 (Enter /nopt/nrel/apps/gaussian/g16C_1/g16/l303.exe)
 DipDrv will not compute anything.
 Fermi contact integrals: 
                 1             2 
      1   0.628247D+00  0.121215D+00
      2   0.444231D-01  0.200736D+01
      3   0.824757D-01  0.683754D-01
      4   0.000000D+00  0.000000D+00
      5   0.000000D+00  0.000000D+00
      6  -0.147276D+00  0.000000D+00
 Leave Link  303 at Mon Mar 28 14:03:55 2022, MaxMem=  9663676416 cpu:               0.8 elap:               0.0
 (Enter /nopt/nrel/apps/gaussian/g16C_1/g16/l401.exe)
 ExpMin= 4.81D-02 ExpMax= 1.61D+01 ExpMxC= 1.61D+01 IAcc=3 IRadAn=         5 AccDes= 0.00D+00
 Harris functional with IExCor=  205 and IRadAn=       5 diagonalized for initial guess.
 HarFok:  IExCor=  205 AccDes= 0.00D+00 IRadAn=         5 IDoV= 1 UseB2=F ITyADJ=14
 ICtDFT=  3500011 ScaDFX=  1.000000  1.000000  1.000000  1.000000
 FoFCou: FMM=F IPFlag=           0 FMFlag=      100000 FMFlg1=           0
         NFxFlg=           0 DoJE=T BraDBF=F KetDBF=T FulRan=T
         wScrn=  0.000000 ICntrl=       500 IOpCl=  0 I1Cent=   200000004 NGrid=           0
         NMat0=    1 NMatS0=      1 NMatT0=    0 NMatD0=    1 NMtDS0=    0 NMtDT0=    0
 Petite list used in FoFCou.
 Harris En= -7.46442967162551    
 JPrj=0 DoOrth=F DoCkMO=F.
 Initial guess orbital symmetries:
 Alpha Orbitals:
       Occupied  (SG) (SG) (SG)
       Virtual   (PI) (PI) (SG)
 Beta  Orbitals:
       Occupied  (SG)
       Virtual   (SG) (SG) (PI) (PI) (SG)
 The electronic state of the initial guess is 3-SG.
 Initial guess <Sx>= 0.0000 <Sy>= 0.0000 <Sz>= 1.0000 <S**2>= 2.0000 S= 1.0000
 Leave Link  401 at Mon Mar 28 14:03:56 2022, MaxMem=  9663676416 cpu:               3.9 elap:               0.2
 (Enter /nopt/nrel/apps/gaussian/g16C_1/g16/l502.exe)
 Keep R1 and R2 ints in memory in symmetry-blocked form, NReq=7204841.
 FoFCou: FMM=F IPFlag=           0 FMFlag=           0 FMFlg1=           0
         NFxFlg=           0 DoJE=F BraDBF=F KetDBF=F FulRan=T
         wScrn=  0.000000 ICntrl=       600 IOpCl=  0 I1Cent=           0 NGrid=           0
         NMat0=    1 NMatS0=     21 NMatT0=    0 NMatD0=    1 NMtDS0=    0 NMtDT0=    0
 Petite list used in FoFCou.
 UHF open shell SCF:
 Using DIIS extrapolation, IDIIS=  1040.
 NGot=  9663676416 LenX=  9663673904 LenY=  9663673022
 Requested convergence on RMS density matrix=1.00D-08 within 128 cycles.
 Requested convergence on MAX density matrix=1.00D-06.
 Requested convergence on             energy=1.00D-06.
 No special actions if energy rises.

 Cycle   1  Pass 1  IDiag  1:
 E= -7.51930543709121    
 DIIS: error= 3.08D-02 at cycle   1 NSaved=   1.
 NSaved= 1 IEnMin= 1 EnMin= -7.51930543709121     IErMin= 1 ErrMin= 3.08D-02
 ErrMax= 3.08D-02  0.00D+00 EMaxC= 1.00D-01 BMatC= 2.43D-02 BMatP= 2.43D-02
 IDIUse=3 WtCom= 6.92D-01 WtEn= 3.08D-01
 Coeff-Com:  0.100D+01
 Coeff-En:   0.100D+01
 Coeff:      0.100D+01
 Gap=     0.271 Goal=   None    Shift=    0.000
 Gap=     2.503 Goal=   None    Shift=    0.000
 GapD=    0.271 DampG=1.000 DampE=0.500 DampFc=0.5000 IDamp=-1.
 Damping current iteration by 5.00D-01
 RMSDP=2.32D-02 MaxDP=1.30D-01              OVMax= 2.84D-02

 Cycle   2  Pass 1  IDiag  1:
 E= -7.52324716709201     Delta-E=       -0.003941730001 Rises=F Damp=T
 DIIS: error= 1.83D-02 at cycle   2 NSaved=   2.
 NSaved= 2 IEnMin= 2 EnMin= -7.52324716709201     IErMin= 2 ErrMin= 1.83D-02
 ErrMax= 1.83D-02  0.00D+00 EMaxC= 1.00D-01 BMatC= 9.32D-03 BMatP= 2.43D-02
 IDIUse=3 WtCom= 8.17D-01 WtEn= 1.83D-01
 Coeff-Com: -0.157D+01 0.257D+01
 Coeff-En:   0.000D+00 0.100D+01
 Coeff:     -0.128D+01 0.228D+01
 Gap=     0.273 Goal=   None    Shift=    0.000
 Gap=     2.467 Goal=   None    Shift=    0.000
 RMSDP=2.02D-02 MaxDP=1.20D-01 DE=-3.94D-03 OVMax= 6.04D-03

 Cycle   3  Pass 1  IDiag  1:
 E= -7.52893121647291     Delta-E=       -0.005684049381 Rises=F Damp=F
 DIIS: error= 2.19D-03 at cycle   3 NSaved=   3.
 NSaved= 3 IEnMin= 3 EnMin= -7.52893121647291     IErMin= 3 ErrMin= 2.19D-03
 ErrMax= 2.19D-03  0.00D+00 EMaxC= 1.00D-01 BMatC= 6.89D-05 BMatP= 9.32D-03
 IDIUse=3 WtCom= 9.78D-01 WtEn= 2.19D-02
 Coeff-Com:  0.579D+00-0.103D+01 0.145D+01
 Coeff-En:   0.000D+00 0.000D+00 0.100D+01
 Coeff:      0.566D+00-0.101D+01 0.144D+01
 Gap=     0.274 Goal=   None    Shift=    0.000
 Gap=     2.465 Goal=   None    Shift=    0.000
 RMSDP=2.74D-03 MaxDP=1.78D-02 DE=-5.68D-03 OVMax= 1.18D-03

 Cycle   4  Pass 1  IDiag  1:
 E= -7.52897579983487     Delta-E=       -0.000044583362 Rises=F Damp=F
 DIIS: error= 8.98D-05 at cycle   4 NSaved=   4.
 NSaved= 4 IEnMin= 4 EnMin= -7.52897579983487     IErMin= 4 ErrMin= 8.98D-05
 ErrMax= 8.98D-05  0.00D+00 EMaxC= 1.00D-01 BMatC= 1.35D-07 BMatP= 6.89D-05
 IDIUse=1 WtCom= 1.00D+00 WtEn= 0.00D+00
 Coeff-Com: -0.122D+00 0.218D+00-0.349D+00 0.125D+01
 Coeff:     -0.122D+00 0.218D+00-0.349D+00 0.125D+01
 Gap=     0.274 Goal=   None    Shift=    0.000
 Gap=     2.465 Goal=   None    Shift=    0.000
 RMSDP=1.41D-04 MaxDP=8.47D-04 DE=-4.46D-05 OVMax= 4.34D-05

 Cycle   5  Pass 1  IDiag  1:
 E= -7.52897588773405     Delta-E=       -0.000000087899 Rises=F Damp=F
 DIIS: error= 4.07D-06 at cycle   5 NSaved=   5.
 NSaved= 5 IEnMin= 5 EnMin= -7.52897588773405     IErMin= 5 ErrMin= 4.07D-06
 ErrMax= 4.07D-06  0.00D+00 EMaxC= 1.00D-01 BMatC= 2.15D-10 BMatP= 1.35D-07
 IDIUse=1 WtCom= 1.00D+00 WtEn= 0.00D+00
 Coeff-Com:  0.106D-01-0.192D-01 0.333D-01-0.145D+00 0.112D+01
 Coeff:      0.106D-01-0.192D-01 0.333D-01-0.145D+00 0.112D+01
 Gap=     0.274 Goal=   None    Shift=    0.000
 Gap=     2.465 Goal=   None    Shift=    0.000
 RMSDP=6.34D-06 MaxDP=2.88D-05 DE=-8.79D-08 OVMax= 1.89D-06

 Cycle   6  Pass 1  IDiag  1:
 E= -7.52897588791770     Delta-E=       -0.000000000184 Rises=F Damp=F
 DIIS: error= 9.34D-07 at cycle   6 NSaved=   6.
 NSaved= 6 IEnMin= 6 EnMin= -7.52897588791770     IErMin= 6 ErrMin= 9.34D-07
 ErrMax= 9.34D-07  0.00D+00 EMaxC= 1.00D-01 BMatC= 1.16D-11 BMatP= 2.15D-10
 IDIUse=1 WtCom= 1.00D+00 WtEn= 0.00D+00
 Coeff-Com: -0.199D-03 0.449D-03-0.222D-02 0.236D-01-0.480D+00 0.146D+01
 Coeff:     -0.199D-03 0.449D-03-0.222D-02 0.236D-01-0.480D+00 0.146D+01
 Gap=     0.274 Goal=   None    Shift=    0.000
 Gap=     2.465 Goal=   None    Shift=    0.000
 RMSDP=2.38D-06 MaxDP=1.07D-05 DE=-1.84D-10 OVMax= 3.88D-07

 Cycle   7  Pass 1  IDiag  1:
 E= -7.52897588793187     Delta-E=       -0.000000000014 Rises=F Damp=F
 DIIS: error= 3.44D-08 at cycle   7 NSaved=   7.
 NSaved= 7 IEnMin= 7 EnMin= -7.52897588793187     IErMin= 7 ErrMin= 3.44D-08
 ErrMax= 3.44D-08  0.00D+00 EMaxC= 1.00D-01 BMatC= 2.96D-14 BMatP= 1.16D-11
 IDIUse=1 WtCom= 1.00D+00 WtEn= 0.00D+00
 Coeff-Com:  0.473D-04-0.102D-03 0.433D-03-0.431D-02 0.863D-01-0.281D+00
 Coeff-Com:  0.120D+01
 Coeff:      0.473D-04-0.102D-03 0.433D-03-0.431D-02 0.863D-01-0.281D+00
 Coeff:      0.120D+01
 Gap=     0.274 Goal=   None    Shift=    0.000
 Gap=     2.465 Goal=   None    Shift=    0.000
 RMSDP=6.31D-08 MaxDP=3.04D-07 DE=-1.42D-11 OVMax= 4.26D-08

 Cycle   8  Pass 1  IDiag  1:
 E= -7.52897588793189     Delta-E=       -0.000000000000 Rises=F Damp=F
 DIIS: error= 5.48D-10 at cycle   8 NSaved=   8.
 NSaved= 8 IEnMin= 8 EnMin= -7.52897588793189     IErMin= 8 ErrMin= 5.48D-10
 ErrMax= 5.48D-10  0.00D+00 EMaxC= 1.00D-01 BMatC= 6.47D-18 BMatP= 2.96D-14
 IDIUse=1 WtCom= 1.00D+00 WtEn= 0.00D+00
 Coeff-Com: -0.185D-05 0.379D-05-0.140D-04 0.134D-03-0.258D-02 0.767D-02
 Coeff-Com: -0.346D-01 0.103D+01
 Coeff:     -0.185D-05 0.379D-05-0.140D-04 0.134D-03-0.258D-02 0.767D-02
 Coeff:     -0.346D-01 0.103D+01
 Gap=     0.274 Goal=   None    Shift=    0.000
 Gap=     2.465 Goal=   None    Shift=    0.000
 RMSDP=1.49D-09 MaxDP=7.06D-09 DE=-1.60D-14 OVMax= 5.43D-10

 SCF Done:  E(UHF) =  -7.52897588793     A.U. after    8 cycles
            NFock=  8  Conv=0.15D-08     -V/T= 1.9140
 <Sx>= 0.0000 <Sy>= 0.0000 <Sz>= 1.0000 <S**2>= 2.0001 S= 1.0000
 <L.S>= 0.000000000000E+00
 KE= 8.237790346325D+00 PE=-2.148444740121D+01 EE= 3.733266626002D+00
 Annihilation of the first spin contaminant:
 S**2 before annihilation     2.0001,   after     2.0000
 Leave Link  502 at Mon Mar 28 14:03:56 2022, MaxMem=  9663676416 cpu:               3.2 elap:               0.1
 (Enter /nopt/nrel/apps/gaussian/g16C_1/g16/l801.exe)
 Windowed orbitals will be sorted by symmetry type.
 ExpMin= 4.81D-02 ExpMax= 1.61D+01 ExpMxC= 1.61D+01 IAcc=3 IRadAn=         5 AccDes= 0.00D+00
 HarFok:  IExCor=  205 AccDes= 0.00D+00 IRadAn=         5 IDoV=-2 UseB2=F ITyADJ=14
 ICtDFT= 12500011 ScaDFX=  1.000000  1.000000  1.000000  1.000000
 Largest valence mixing into a core orbital is  4.58D-03
 Largest core mixing into a valence orbital is  2.02D-03
 Range of M.O.s used for correlation:     2     6
 NBasis=     6 NAE=     3 NBE=     1 NFC=     1 NFV=     0
 NROrb=      5 NOA=     2 NOB=     0 NVA=     3 NVB=     5
 Leave Link  801 at Mon Mar 28 14:03:56 2022, MaxMem=  9663676416 cpu:               2.7 elap:               0.1
 (Enter /nopt/nrel/apps/gaussian/g16C_1/g16/l804.exe)
 Open-shell transformation, MDV=  9663676416 ITran=4 ISComp=2.
 Unit  1 TFree=          3850 TCopy=        114503.
 Semi-Direct transformation.
 ModeAB=           2 MOrb=             2 LenV=    9663557334
 LASXX=           19 LTotXX=          19 LenRXX=          19
 LTotAB=          52 MaxLAS=         210 LenRXY=         210
 NonZer=         270 LenScr=      785920 LnRSAI=           0
 LnScr1=           0 LExtra=      217862 Total=      1004011
 MaxDsk= 34359738368 SrtSym=           F ITran=            4
 DoSDTr:  NPSUse= 36
 JobTyp=1 Pass  1:  I=   1 to   2.
 (rs|ai) integrals will be sorted in core.
 Complete sort for first half transformation.
 First half transformation complete.
 Complete sort for second half transformation.
 Second half transformation complete.
 Spin components of T(2) and E(2):
     alpha-alpha T2 =       0.0000000000D+00 E2=      0.0000000000D+00
     alpha-beta  T2 =       0.0000000000D+00 E2=      0.0000000000D+00
     beta-beta   T2 =       0.0000000000D+00 E2=      0.0000000000D+00
 ANorm=    0.1000000000D+01
 E2 =     0.0000000000D+00 EUMP2 =    -0.75289758879319D+01
 Leave Link  804 at Mon Mar 28 14:03:56 2022, MaxMem=  9663676416 cpu:               1.9 elap:               0.1
 (Enter /nopt/nrel/apps/gaussian/g16C_1/g16/l913.exe)
 CIDS:  MDV=  9663676416.
 Frozen-core window:  NFC=   1 NFV=   0.
 IFCWin=0 IBDFC=1 NFBD=     0     0 NFCmp=     0     0 NFFFC=     0     0
 Using original routines for 1st iteration.
 Using DD4UQ or CC4UQ for 2nd and later iterations.
 Keep R2 and R3 ints in memory in symmetry-blocked form, NReq=7207207.
 FoFCou: FMM=F IPFlag=           0 FMFlag=           0 FMFlg1=           0
         NFxFlg=           0 DoJE=F BraDBF=F KetDBF=F FulRan=T
         wScrn=  0.000000 ICntrl=       600 IOpCl=  0 I1Cent=           0 NGrid=           0
         NMat0=    1 NMatS0=     21 NMatT0=    0 NMatD0=    1 NMtDS0=    0 NMtDT0=    0
 Petite list used in FoFCou.
 CIDS: In Core Option IDoMem=           1.
 Coupled Cluster theory with single and double substitutions
 ===========================================================
 Iterations= 200 Convergence= 0.100D-06
 Produce multiple copies of IABC intergrals
 Iteration Nr.   1
 **********************
 DD1Dir will call FoFMem   1 times, MxPair=         2
 NAB=     0 NAA=     1 NBB=     0.
 MP4(R+Q)=  0.00000000D+00
 Maximum subspace dimension=  5
 A-vector RMS=  0.0000000D+00 Max=  0.0000000D+00 conv= 1.00D-05.
 RLE energy=        0.0000000000
 E3=        0.00000000D+00        EUMP3=      -0.75289758879D+01
 E4(DQ)=    0.00000000D+00        UMP4(DQ)=   -0.75289758879D+01
 E4(SDQ)=   0.00000000D+00        UMP4(SDQ)=  -0.75289758879D+01
 VARIATIONAL ENERGIES WITH THE FIRST-ORDER WAVEFUNCTION:
 DE(Corr)=  0.00000000E+00 E(Corr)=     -7.5289758879    
 NORM(A)=   0.10000000D+01
 Iteration Nr.   2
 **********************
 DD1Dir will call FoFMem   1 times, MxPair=         2
 NAB=     0 NAA=     1 NBB=     0.
 A-vector RMS=  0.0000000D+00 Max=  0.0000000D+00 conv= 1.00D-05.
 RLE energy=        0.0000000000
 DE(Corr)=  0.00000000E+00 E(CORR)=     -7.5289758879     Delta= 0.00D+00
 NORM(A)=   0.10000000D+01
 CI/CC converged in    2 iterations to DelEn= 0.00D+00 Conv= 1.00D-07 ErrA1= 0.00D+00 Conv= 1.00D-05
 Wavefunction amplitudes converged. E(Corr)=     -7.5289758879    
 Largest amplitude= 0.00D+00
 Discarding MO integrals.
 Leave Link  913 at Mon Mar 28 14:03:56 2022, MaxMem=  9663676416 cpu:               2.9 elap:               0.1
 (Enter /nopt/nrel/apps/gaussian/g16C_1/g16/l601.exe)
 Copying SCF densities to generalized density rwf, IOpCl= 1 IROHF=0.

 **********************************************************************

            Population analysis using the SCF Density.

 **********************************************************************

 Orbital symmetries:
 Alpha Orbitals:
       Occupied  (SG) (SG) (SG)
       Virtual   (PI) (PI) (SG)
 Beta  Orbitals:
       Occupied  (SG)
       Virtual   (SG) (SG) (PI) (PI) (SG)
 The electronic state is 3-SG.
 Alpha  occ. eigenvalues --   -2.53504  -0.60548  -0.17752
 Alpha virt. eigenvalues --    0.09626   0.09626   0.39326
  Beta  occ. eigenvalues --   -2.46209
  Beta virt. eigenvalues --    0.00306   0.16087   0.16532   0.16532   0.59464
          Condensed to atoms (all electrons):
               1          2
     1  H    0.802418   0.022882
     2  Li   0.022882   3.151817
          Atomic-Atomic Spin Densities.
               1          2
     1  H    0.791808  -0.023055
     2  Li  -0.023055   1.254303
 Mulliken charges and spin densities:
               1          2
     1  H    0.174700   0.768752
     2  Li  -0.174700   1.231248
 Sum of Mulliken charges =  -0.00000   2.00000
 Mulliken charges and spin densities with hydrogens summed into heavy atoms:
               1          2
     2  Li  -0.000000   2.000000
 N-N= 1.984414540950D+00 E-N=-2.148444740065D+01  KE= 8.237790346325D+00
 Symmetry A1   KE= 8.237790346325D+00
 Symmetry A2   KE= 0.000000000000D+00
 Symmetry B1   KE= 0.000000000000D+00
 Symmetry B2   KE= 0.000000000000D+00
 Symmetry A1   SP= 2.000000000000D+00
 Symmetry A2   SP= 0.000000000000D+00
 Symmetry B1   SP= 0.000000000000D+00
 Symmetry B2   SP= 0.000000000000D+00

 Atomic contributions to Alpha molecular orbitals:
 Alpha occ 1 OE=-2.535 is Li2-s=0.9614
 Alpha occ 2 OE=-0.605 is H1-s=0.7743 Li2-p=0.1647
 Alpha occ 3 OE=-0.178 is Li2-s=0.7990 Li2-p=0.2174
 Alpha vir 4 OE=0.096 is Li2-p=1.0000
 Alpha vir 5 OE=0.096 is Li2-p=1.0000
 Alpha vir 6 OE=0.393 is Li2-p=0.6185 H1-s=0.2030 Li2-s=0.1785

 Atomic contributions to Beta  molecular orbitals:
 Beta  occ 1 OE=-2.462 is Li2-s=0.9721
 Beta  vir 2 OE=0.003 is Li2-s=0.4698 Li2-p=0.3153 H1-s=0.2150
 Beta  vir 3 OE=0.161 is Li2-s=0.5430 Li2-p=0.4039
 Beta  vir 4 OE=0.165 is Li2-p=1.0000
 Beta  vir 5 OE=0.165 is Li2-p=1.0000
 Beta  vir 6 OE=0.595 is H1-s=0.7036 Li2-p=0.2812
 
 Leave Link  601 at Mon Mar 28 14:03:56 2022, MaxMem=  9663676416 cpu:               3.2 elap:               0.1
 (Enter /nopt/nrel/apps/gaussian/g16C_1/g16/l9999.exe)

 Test job not archived.
 1\1\GINC-R102U34\SP\UCCSD-FC\Gen\H1Li1(3)\USER\28-Mar-2022\0\\#P C
 CSD(MaxCyc=200,SaveAmplitudes,ReadAmplitudes)/GEN sp pop=AllOrbitals i
 op(3/33=1,3/36=-1)\\test\\0,3\H,0,0.,0.,0.\Li,0,0.,0.,0.8\\Version=ES6
 4L-G16RevC.01\State=3-SG\HF=-7.5289759\MP2=-7.5289759\MP3=-7.5289759\M
 P4D=-7.5289759\MP4DQ=-7.5289759\MP4SDQ=-7.5289759\CCSD=-7.5289759\S2=2
 .000058\S2-1=0.\S2A=2.\RMSD=1.490e-09\PG=C*V [C*(H1Li1)]\\@


 MICHAEL FARADAY, ASKED BY A POLITICIAN WHAT GOOD
 HIS ELECTRICAL DISCOVERIES WERE, REPLIED 
 "AT PRESENT I DO NOT KNOW, BUT ONE DAY YOU WILL BE
 ABLE TO TAX THEM."
 Job cpu time:       0 days  0 hours  0 minutes 31.5 seconds.
 Elapsed time:       0 days  0 hours  0 minutes  1.3 seconds.
 File lengths (MBytes):  RWF=     13 Int=      0 D2E=      0 Chk=      1 Scr=      1
 Normal termination of Gaussian 16 at Mon Mar 28 14:03:56 2022.
