 Entering Gaussian System, Link 0=g16
 Initial command:
 /nopt/nrel/apps/gaussian/g16C_1/g16/l1.exe "/lustre/eaglefs/scratch/user/qc/tih-dissc-sto3g/tih-6-ccsd-1.6-sto3g/Gau-244932.inp" -scrdir="/lustre/eaglefs/scratch/user/qc/tih-dissc-sto3g/tih-6-ccsd-1.6-sto3g/"
 Default is to use a total of  36 processors:
                               36 via shared-memory
                                1 via Linda
 Entering Link 1 = /nopt/nrel/apps/gaussian/g16C_1/g16/l1.exe PID=    244933.
  
 Copyright (c) 1988-2019, Gaussian, Inc.  All Rights Reserved.
  
 This is part of the Gaussian(R) 16 program.  It is based on
 the Gaussian(R) 09 system (copyright 2009, Gaussian, Inc.),
 the Gaussian(R) 03 system (copyright 2003, Gaussian, Inc.),
 the Gaussian(R) 98 system (copyright 1998, Gaussian, Inc.),
 the Gaussian(R) 94 system (copyright 1995, Gaussian, Inc.),
 the Gaussian 92(TM) system (copyright 1992, Gaussian, Inc.),
 the Gaussian 90(TM) system (copyright 1990, Gaussian, Inc.),
 the Gaussian 88(TM) system (copyright 1988, Gaussian, Inc.),
 the Gaussian 86(TM) system (copyright 1986, Carnegie Mellon
 University), and the Gaussian 82(TM) system (copyright 1983,
 Carnegie Mellon University). Gaussian is a federally registered
 trademark of Gaussian, Inc.
  
 This software contains proprietary and confidential information,
 including trade secrets, belonging to Gaussian, Inc.
  
 This software is provided under written license and may be
 used, copied, transmitted, or stored only in accord with that
 written license.
  
 The following legend is applicable only to US Government
 contracts under FAR:
  
                    RESTRICTED RIGHTS LEGEND
  
 Use, reproduction and disclosure by the US Government is
 subject to restrictions as set forth in subparagraphs (a)
 and (c) of the Commercial Computer Software - Restricted
 Rights clause in FAR 52.227-19.
  
 Gaussian, Inc.
 340 Quinnipiac St., Bldg. 40, Wallingford CT 06492
  
  
 ---------------------------------------------------------------
 Warning -- This program may not be used in any manner that
 competes with the business of Gaussian, Inc. or will provide
 assistance to any competitor of Gaussian, Inc.  The licensee
 of this program is prohibited from giving any competitor of
 Gaussian, Inc. access to this program.  By using this program,
 the user acknowledges that Gaussian, Inc. is engaged in the
 business of creating and licensing software in the field of
 computational chemistry and represents and warrants to the
 licensee that it is not a competitor of Gaussian, Inc. and that
 it will not use this program in any manner prohibited above.
 ---------------------------------------------------------------
  

 Cite this work as:
 Gaussian 16, Revision C.01,
 M. J. Frisch, G. W. Trucks, H. B. Schlegel, G. E. Scuseria, 
 M. A. Robb, J. R. Cheeseman, G. Scalmani, V. Barone, 
 G. A. Petersson, H. Nakatsuji, X. Li, M. Caricato, A. V. Marenich, 
 J. Bloino, B. G. Janesko, R. Gomperts, B. Mennucci, H. P. Hratchian, 
 J. V. Ortiz, A. F. Izmaylov, J. L. Sonnenberg, D. Williams-Young, 
 F. Ding, F. Lipparini, F. Egidi, J. Goings, B. Peng, A. Petrone, 
 T. Henderson, D. Ranasinghe, V. G. Zakrzewski, J. Gao, N. Rega, 
 G. Zheng, W. Liang, M. Hada, M. Ehara, K. Toyota, R. Fukuda, 
 J. Hasegawa, M. Ishida, T. Nakajima, Y. Honda, O. Kitao, H. Nakai, 
 T. Vreven, K. Throssell, J. A. Montgomery, Jr., J. E. Peralta, 
 F. Ogliaro, M. J. Bearpark, J. J. Heyd, E. N. Brothers, K. N. Kudin, 
 V. N. Staroverov, T. A. Keith, R. Kobayashi, J. Normand, 
 K. Raghavachari, A. P. Rendell, J. C. Burant, S. S. Iyengar, 
 J. Tomasi, M. Cossi, J. M. Millam, M. Klene, C. Adamo, R. Cammi, 
 J. W. Ochterski, R. L. Martin, K. Morokuma, O. Farkas, 
 J. B. Foresman, and D. J. Fox, Gaussian, Inc., Wallingford CT, 2019.
 
 ******************************************
 Gaussian 16:  ES64L-G16RevC.01  3-Jul-2019
                28-Mar-2022 
 ******************************************
 %chk=molecule
 Default route: CacheSize=180224 MaxDisk=256GB
 ----------------------------------------------------------------------
 #P CCSD(MaxCyc=300,SaveAmplitudes,ReadAmplitudes)/GEN sp pop=AllOrbita
 ls iop(3/33=1,3/36=-1)
 ----------------------------------------------------------------------
 1/4=180224,38=1,172=1/1;
 2/4=180224,12=2,17=6,18=5,40=1/2;
 3/4=180224,5=7,11=9,25=1,30=1,33=1,36=-1/1,2,3;
 4/4=180224/1;
 5/4=180224,5=2,38=5/2;
 8/4=180224,6=4,9=120000,10=1,24=1/1,4;
 9/4=180224,5=7,6=300,77=1/13;
 6/4=180224,7=2,8=2,9=2,10=2,96=-1/1;
 99/4=180224,5=1,9=1/99;
 Leave Link    1 at Mon Mar 28 12:45:44 2022, MaxMem=           0 cpu:               2.0 elap:               0.1
 (Enter /nopt/nrel/apps/gaussian/g16C_1/g16/l101.exe)
 ----
 test
 ----
 Symbolic Z-matrix:
 Charge =  0 Multiplicity = 6
 H                     0.        0.        0. 
 Ti                    0.        0.        1.6 
 
 ITRead=  0  0
 MicOpt= -1 -1
 NAtoms=      2 NQM=        2 NQMF=       0 NMMI=      0 NMMIF=      0
                NMic=       0 NMicF=      0.
                    Isotopes and Nuclear Properties:
 (Nuclear quadrupole moments (NQMom) in fm**2, nuclear magnetic moments (NMagM)
  in nuclear magnetons)

  Atom         1           2
 IAtWgt=           1          48
 AtmWgt=   1.0078250  47.9479467
 NucSpn=           1           0
 AtZEff=  -0.0000000  -0.0000000
 NQMom=    0.0000000   0.0000000
 NMagM=    2.7928460   0.0000000
 AtZNuc=   1.0000000  22.0000000
 Leave Link  101 at Mon Mar 28 12:45:44 2022, MaxMem=  9663676416 cpu:               3.2 elap:               0.1
 (Enter /nopt/nrel/apps/gaussian/g16C_1/g16/l202.exe)
                          Input orientation:                          
 ---------------------------------------------------------------------
 Center     Atomic      Atomic             Coordinates (Angstroms)
 Number     Number       Type             X           Y           Z
 ---------------------------------------------------------------------
      1          1           0        0.000000    0.000000    0.000000
      2         22           0        0.000000    0.000000    1.600000
 ---------------------------------------------------------------------
 Stoichiometry    HTi(6)
 Framework group  C*V[C*(HTi)]
 Deg. of freedom     1
 Full point group                 C*V     NOp   4
 Largest Abelian subgroup         C2V     NOp   4
 Largest concise Abelian subgroup C1      NOp   1
                         Standard orientation:                         
 ---------------------------------------------------------------------
 Center     Atomic      Atomic             Coordinates (Angstroms)
 Number     Number       Type             X           Y           Z
 ---------------------------------------------------------------------
      1          1           0        0.000000    0.000000   -1.530435
      2         22           0        0.000000    0.000000    0.069565
 ---------------------------------------------------------------------
 Rotational constants (GHZ):           0.0000000         199.9981500         199.9981500
 Leave Link  202 at Mon Mar 28 12:45:44 2022, MaxMem=  9663676416 cpu:               0.9 elap:               0.0
 (Enter /nopt/nrel/apps/gaussian/g16C_1/g16/l301.exe)
 General basis read from cards:  (5D, 7F)
                         Coordinates in L301:                         
 ---------------------------------------------------------------------
 Center     Atomic      Atomic             Coordinates (Angstroms)
 Number     Number       Type             X           Y           Z
 ---------------------------------------------------------------------
      1          1           0        0.000000    0.000000   -1.530435
      2         22           0        0.000000    0.000000    0.069565
 ---------------------------------------------------------------------
 Centers:       1
 STO-3G
 ****
 Centers:       2
 STO-3G
 ****
 FixB: optimizing general contractions.
 Ernie: Thresh=  0.10000D-02 Tol=  0.10000D-05 Strict=F.
 IA=     1 ShT= 0 ShC= 0 NL=   1 NS=   0.
 IA=     1 L=0 SC=0 ISt=    0 NBk=    0 NP=    0 IndPr=    0.
 IA=     2 ShT= 0 ShC= 0 NL=   1 NS=   0.
 IA=     2 L=0 SC=0 ISt=    0 NBk=    0 NP=    0 IndPr=    0.
 IA=     2 ShT= 1 ShC= 0 NL=   3 NS=   0.
 IA=     2 L=1 SC=0 ISt=    1 NBk=    3 NP=    9 IndPr=    0.
 DoElim1:  L=1 select primitive    1 from    2 using    1 C=-1.00D-01
 DoElim1:  L=1 select primitive    1 from    3 using    1 C=-1.00D-01
 DoElim1:  L=1 select primitive    4 from    3 using    2 C=-2.28D-01
 DoElim2:  L=1 select primitive    9 from    2 using    3 C= 1.13D+00
 DoElim2:  L=1 select primitive    9 from    1 using    3 C= 1.13D+00
 DoElim2:  L=1 select primitive    7 from    1 using    2 C= 9.17D-01
 DoElim1:  L=1 select primitive    1 from    2 using    1 C= 1.56D-01
 DoElim1:  L=1 select primitive    1 from    3 using    1 C= 1.56D-01
 DoElim1:  L=1 select primitive    4 from    3 using    2 C= 4.95D-03
 DoElim2:  L=1 select primitive    8 from    2 using    3 C= 5.72D-01
 DoElim2:  L=1 select primitive    8 from    1 using    3 C= 5.72D-01
 DoElim2:  L=1 select primitive    5 from    1 using    2 C= 5.78D-01
 Delete L=1 primitive    7 from    3 C=  0.00D+00.
 Delete L=1 primitive    5 from    3 C=  0.00D+00.
 Delete L=1 primitive    4 from    3 C=  0.00D+00.
 Delete L=1 primitive    3 from    3 C=  0.00D+00.
 Delete L=1 primitive    2 from    3 C=  0.00D+00.
 Delete L=1 primitive    1 from    3 C=  0.00D+00.
 Delete L=1 primitive    9 from    2 C=  0.00D+00.
 Delete L=1 primitive    8 from    2 C=  0.00D+00.
 Delete L=1 primitive    6 from    2 C=  0.00D+00.
 Delete L=1 primitive    3 from    2 C=  0.00D+00.
 Delete L=1 primitive    2 from    2 C=  0.00D+00.
 Delete L=1 primitive    1 from    2 C=  0.00D+00.
 Delete L=1 primitive    9 from    1 C=  0.00D+00.
 Delete L=1 primitive    8 from    1 C=  0.00D+00.
 Delete L=1 primitive    7 from    1 C=  0.00D+00.
 Delete L=1 primitive    6 from    1 C=  0.00D+00.
 Delete L=1 primitive    5 from    1 C=  0.00D+00.
 Delete L=1 primitive    4 from    1 C=  0.00D+00.
 IA=     2 L=1 SC=0 ISt=    0 NBk=    0 NP=    0 IndPr=    9.
 IA=     2 ShT= 2 ShC= 2 NL=   1 NS=   0.
 IA=     2 L=2 SC=2 ISt=    0 NBk=    0 NP=    0 IndPr=    0.
 LdAtmC:  AtmChg=     1.000000    22.000000
 AtZEff=     -1.0000000    -23.9800000
 NEqShl: 
              1            2            3            4
     1            1            1            1            1
     2            2            2            2            2
     3            3            3            3            3
     4            4            4            4            4
     5            5            5            5            5
     6            6            6            6            6
 NEqBas: 
              1            2            3            4
     1            1            1            1            1
     2            2            2            2            2
     3            3            3            3            3
     4            4           -4           -4            4
     5            5           -5            5           -5
     6            6            6            6            6
     7            7            7            7            7
     8            8           -8           -8            8
     9            9           -9            9           -9
    10           10           10           10           10
    11           11           11           11           11
    12           12          -12          -12           12
    13           13          -13           13          -13
    14           14           14           14           14
    15           15           15           15           15
    16           16           16           16           16
    17           17           17           17           17
    18           18           18          -18          -18
    19           19          -19          -19           19
    20           20          -20           20          -20
 There are    11 symmetry adapted cartesian basis functions of A1  symmetry.
   1         1   1   1   1
   2         2   2   2   2
   3         3   3   3   3
   4         6   6   6   6
   5         7   7   7   7
   6        10  10  10  10
   7        11  11  11  11
   8        14  14  14  14
   9        15  15  15  15
  10        16  16  16  16
  11        17  17  17  17
 There are     1 symmetry adapted cartesian basis functions of A2  symmetry.
  12        18  18  18  18
 There are     4 symmetry adapted cartesian basis functions of B1  symmetry.
  13         4   4   4   4
  14         8   8   8   8
  15        12  12  12  12
  16        19  19  19  19
 There are     4 symmetry adapted cartesian basis functions of B2  symmetry.
  17         5   5   5   5
  18         9   9   9   9
  19        13  13  13  13
  20        20  20  20  20
 Order= 1 2 4 3
 Reordered character table:
              1            2            3            4            5
     1            1            1            1            1            1
     2            2            1            1           -1           -1
     3            4            1           -1           -1            1
     4            3            1           -1            1           -1
 NEqShl: 
              1            2            3            4
     1            1            1            1            1
     2            2            2            2            2
     3            3            3            3            3
     4            4            4            4            4
     5            5            5            5            5
     6            6            6            6            6
 NEqBas: 
              1            2            3            4
     1            1            1            1            1
     2            2            2            2            2
     3            3            3            3            3
     4            4           -4           -4            4
     5            5           -5            5           -5
     6            6            6            6            6
     7            7            7            7            7
     8            8           -8           -8            8
     9            9           -9            9           -9
    10           10           10           10           10
    11           11           11           11           11
    12           12          -12          -12           12
    13           13          -13           13          -13
    14           14           14           14           14
    15           15           15           15           15
    16           16          -16          -16           16
    17           17          -17           17          -17
    18           18           18           18           18
    19           19           19          -19          -19
 There are    10 symmetry adapted basis functions of A1  symmetry.
   1         1   1   1   1
   2         2   2   2   2
   3         3   3   3   3
   4         6   6   6   6
   5         7   7   7   7
   6        10  10  10  10
   7        11  11  11  11
   8        14  14  14  14
   9        15  15  15  15
  10        18  18  18  18
 There are     1 symmetry adapted basis functions of A2  symmetry.
  11        19  19  19  19
 There are     4 symmetry adapted basis functions of B1  symmetry.
  12         4   4   4   4
  13         8   8   8   8
  14        12  12  12  12
  15        16  16  16  16
 There are     4 symmetry adapted basis functions of B2  symmetry.
  16         5   5   5   5
  17         9   9   9   9
  18        13  13  13  13
  19        17  17  17  17
 Order= 1 2 4 3
 Reordered character table:
              1            2            3            4            5
     1            1            1            1            1            1
     2            2            1            1           -1           -1
     3            4            1           -1           -1            1
     4            3            1           -1            1           -1
    19 basis functions,    60 primitive gaussians,    20 cartesian basis functions
    14 alpha electrons        9 beta electrons
       nuclear repulsion energy         7.2761866502 Hartrees.
 IS=     1 IAt=     1 ISR=     1 T=0 IP=      1 IndIP=      1 IndIPD=      0 C=  2.769344D-01  0.000000D+00                             NZ=T
 IS=     1 IAt=     1 ISR=     1 T=0 IP=      2 IndIP=      2 IndIPD=      1 C=  2.678389D-01  0.000000D+00                             NZ=T
 IS=     1 IAt=     1 ISR=     1 T=0 IP=      3 IndIP=      3 IndIPD=      2 C=  8.347367D-02  0.000000D+00                             NZ=T
 IS=     2 IAt=     2 ISR=     1 T=0 IP=      1 IndIP=      4 IndIPD=      0 C=  2.004993D+01  0.000000D+00                             NZ=T
 IS=     2 IAt=     2 ISR=     1 T=0 IP=      2 IndIP=      5 IndIPD=      1 C=  1.939142D+01  0.000000D+00                             NZ=T
 IS=     2 IAt=     2 ISR=     1 T=0 IP=      3 IndIP=      6 IndIPD=      2 C=  6.043458D+00  0.000000D+00                             NZ=T
 IS=     3 IAt=     2 ISR=     2 T=1 IP=      1 IndIP=      7 IndIPD=      0 C= -1.820341D+00  4.925761D+01                             NZ=T
 IS=     3 IAt=     2 ISR=     2 T=1 IP=      2 IndIP=      8 IndIPD=      1 C=  2.434854D+00  3.097451D+01                             NZ=T
 IS=     3 IAt=     2 ISR=     2 T=1 IP=      3 IndIP=      9 IndIPD=      2 C=  1.837620D+00  4.906883D+00                             NZ=T
 IS=     4 IAt=     2 ISR=     3 T=1 IP=      1 IndIP=     10 IndIPD=      0 C= -5.746721D-01  5.803915D-02                             NZ=T
 IS=     4 IAt=     2 ISR=     3 T=1 IP=      2 IndIP=     11 IndIPD=      1 C=  2.252897D-01  1.535208D+00                             NZ=T
 IS=     4 IAt=     2 ISR=     3 T=1 IP=      3 IndIP=     12 IndIPD=      2 C=  4.647390D-01  3.915940D-01                             NZ=T
 IS=     5 IAt=     2 ISR=     4 T=1 IP=      1 IndIP=     13 IndIPD=      0 C= -1.706594D-01 -1.133666D-01                             NZ=T
 IS=     5 IAt=     2 ISR=     4 T=1 IP=      2 IndIP=     14 IndIPD=      1 C=  5.129963D-03  1.533382D-01                             NZ=T
 IS=     5 IAt=     2 ISR=     4 T=1 IP=      3 IndIP=     15 IndIPD=      2 C=  1.603140D-01  5.311239D-02                             NZ=T
 IS=     6 IAt=     2 ISR=     5 T=2 IP=      1 IndIP=     16 IndIPD=      1 C=  0.000000D+00  0.000000D+00  8.652016D-01  0.000000D+00 NZ=T
 IS=     6 IAt=     2 ISR=     5 T=2 IP=      2 IndIP=     17 IndIPD=      2 C=  0.000000D+00  0.000000D+00  3.231180D-01  0.000000D+00 NZ=T
 IS=     6 IAt=     2 ISR=     5 T=2 IP=      3 IndIP=     18 IndIPD=      3 C=  0.000000D+00  0.000000D+00  2.668013D-02  0.000000D+00 NZ=T
 IExCor=    0 DFT=F Ex=HF Corr=None ExCW=0 ScaHFX=  1.000000
 ScaDFX=  1.000000  1.000000  1.000000  1.000000 ScalE2=  1.000000  1.000000
 IRadAn=      5 IRanWt=     -1 IRanGd=            0 ICorTp=0 IEmpDi=  4
 NAtoms=    2 NActive=    2 NUniq=    2 SFac= 1.00D+00 NAtFMM=   60 NAOKFM=F Big=F
 Integral buffers will be    131072 words long.
 Raffenetti 2 integral format.
 Two-electron integral symmetry is turned on.
 Leave Link  301 at Mon Mar 28 12:45:44 2022, MaxMem=  9663676416 cpu:               2.1 elap:               0.1
 (Enter /nopt/nrel/apps/gaussian/g16C_1/g16/l302.exe)
 NPDir=0 NMtPBC=     1 NCelOv=     1 NCel=       1 NClECP=     1 NCelD=      1
         NCelK=      1 NCelE2=     1 NClLst=     1 CellRange=     0.0.
 One-electron integrals computed using PRISM.
 One-electron integral symmetry used in STVInt
 Entering OneElI...
 Calculate overlap and kinetic energy integrals
    NBasis =  19  MinDer = 0  MaxDer = 0
 Requested accuracy = 0.1000D-12
 Symmetry will be used
 PrmmSu-InSpLW:  IPartL=    0 NPrtUS=   36 NPrtUL=    1 DoSpLW=F IThBeg=    0 IThEnd=   35 NThAct=   36.
 PrSmSu:  IncTry=   512 NBBP=             21 NTPThr=   100 NPartT=   36 Incr=           1 LDynOK=F GPUOK=F.
 PrsmSu:  NPrtUS=  36 ThrOK=T IAlg=1 LenDen=           0 ISkipM=0 DoSpLW=F IThBeg=    0 IThEnd=   35.
 Prism:   IPart=     0 DynPar=F LinDyn=F Incr=           1.
 PRISM was handed   268432635 working-precision words and    21 shell-pairs
 PRISM was handed   268432635 working-precision words and    21 shell-pairs
 PRISM was handed   268432635 working-precision words and    21 shell-pairs
 PRISM was handed   268432635 working-precision words and    21 shell-pairs
 PRISM was handed   268432635 working-precision words and    21 shell-pairs
 PRISM was handed   268432635 working-precision words and    21 shell-pairs
 PRISM was handed   268432635 working-precision words and    21 shell-pairs
 PRISM was handed   268432635 working-precision words and    21 shell-pairs
 PRISM was handed   268432635 working-precision words and    21 shell-pairs
 PRISM was handed   268432635 working-precision words and    21 shell-pairs
 PRISM was handed   268432635 working-precision words and    21 shell-pairs
 PRISM was handed   268432635 working-precision words and    21 shell-pairs
 IPart= 31 NShTot=           0 NBatch=           0 AvBLen=         0.0
 PRISM was handed   268432635 working-precision words and    21 shell-pairs
 PRISM was handed   268432635 working-precision words and    21 shell-pairs
 PRISM was handed   268432635 working-precision words and    21 shell-pairs
 IPart= 18 NShTot=           0 NBatch=           0 AvBLen=         0.0
 IPart= 21 NShTot=           0 NBatch=           0 AvBLen=         0.0
 PRISM was handed   268432635 working-precision words and    21 shell-pairs
 IPart= 33 NShTot=           0 NBatch=           0 AvBLen=         0.0
 IPart= 16 NShTot=           0 NBatch=           0 AvBLen=         0.0
 IPart= 20 NShTot=           0 NBatch=           0 AvBLen=         0.0
 IPart= 25 NShTot=           0 NBatch=           0 AvBLen=         0.0
 PRISM was handed   268432635 working-precision words and    21 shell-pairs
 PRISM was handed   268432635 working-precision words and    21 shell-pairs
 PRISM was handed   268432635 working-precision words and    21 shell-pairs
 IPart=  5 NShTot=           2 NBatch=           2 AvBLen=         1.0
 IPart=  4 NShTot=           2 NBatch=           2 AvBLen=         1.0
 IPart= 28 NShTot=           0 NBatch=           0 AvBLen=         0.0
 IPart= 19 NShTot=           0 NBatch=           0 AvBLen=         0.0
 IPart= 15 NShTot=           0 NBatch=           0 AvBLen=         0.0
 IPart= 10 NShTot=           0 NBatch=           0 AvBLen=         0.0
 IPart= 11 NShTot=           0 NBatch=           0 AvBLen=         0.0
 IPart= 32 NShTot=           0 NBatch=           0 AvBLen=         0.0
 PRISM was handed   268432635 working-precision words and    21 shell-pairs
 PRISM was handed   268432635 working-precision words and    21 shell-pairs
 PRISM was handed   268432635 working-precision words and    21 shell-pairs
 IPart= 24 NShTot=           0 NBatch=           0 AvBLen=         0.0
 IPart= 27 NShTot=           0 NBatch=           0 AvBLen=         0.0
 IPart=  1 NShTot=           5 NBatch=           5 AvBLen=         1.0
 PRISM was handed   268432635 working-precision words and    21 shell-pairs
 PRISM was handed   268432635 working-precision words and    21 shell-pairs
 PRISM was handed   268432635 working-precision words and    21 shell-pairs
 PRISM was handed   268432635 working-precision words and    21 shell-pairs
 PRISM was handed   268432635 working-precision words and    21 shell-pairs
 IPart= 17 NShTot=           0 NBatch=           0 AvBLen=         0.0
 IPart=  8 NShTot=           0 NBatch=           0 AvBLen=         0.0
 IPart=  3 NShTot=           2 NBatch=           2 AvBLen=         1.0
 PRISM was handed   268432635 working-precision words and    21 shell-pairs
 PRISM was handed   268432635 working-precision words and    21 shell-pairs
 PRISM was handed   268432635 working-precision words and    21 shell-pairs
 IPart= 30 NShTot=           0 NBatch=           0 AvBLen=         0.0
 IPart= 22 NShTot=           0 NBatch=           0 AvBLen=         0.0
 PRISM was handed   268432635 working-precision words and    21 shell-pairs
 PRISM was handed   268432635 working-precision words and    21 shell-pairs
 IPart=  9 NShTot=           0 NBatch=           0 AvBLen=         0.0
 IPart= 29 NShTot=           0 NBatch=           0 AvBLen=         0.0
 IPart= 34 NShTot=           0 NBatch=           0 AvBLen=         0.0
 IPart= 14 NShTot=           0 NBatch=           0 AvBLen=         0.0
 IPart=  7 NShTot=           0 NBatch=           0 AvBLen=         0.0
 IPart= 35 NShTot=           0 NBatch=           0 AvBLen=         0.0
 PRISM was handed   268432635 working-precision words and    21 shell-pairs
 PRISM was handed   268432635 working-precision words and    21 shell-pairs
 PRISM was handed   268432635 working-precision words and    21 shell-pairs
 PRISM was handed   268432635 working-precision words and    21 shell-pairs
 IPart=  0 NShTot=           6 NBatch=           6 AvBLen=         1.0
 IPart=  2 NShTot=           4 NBatch=           4 AvBLen=         1.0
 IPart= 13 NShTot=           0 NBatch=           0 AvBLen=         0.0
 IPart=  6 NShTot=           0 NBatch=           0 AvBLen=         0.0
 IPart= 23 NShTot=           0 NBatch=           0 AvBLen=         0.0
 IPart= 12 NShTot=           0 NBatch=           0 AvBLen=         0.0
 IPart= 26 NShTot=           0 NBatch=           0 AvBLen=         0.0
 PrSmSu:  NxtVal=             37.
 *** Overlap *** 
                1             2             3             4             5 
      1  0.100000D+01
      2  0.258292D-02  0.100000D+01
      3  0.176795D-01  0.371775D+00  0.100000D+01
      4  0.000000D+00  0.000000D+00  0.000000D+00  0.100000D+01
      5  0.000000D+00  0.000000D+00  0.000000D+00  0.000000D+00  0.100000D+01
      6 -0.547185D-02  0.000000D+00  0.000000D+00  0.000000D+00  0.000000D+00
      7  0.124051D+00  0.223608D-01  0.300384D+00  0.000000D+00  0.000000D+00
      8  0.000000D+00  0.000000D+00  0.000000D+00  0.313309D+00  0.000000D+00
      9  0.000000D+00  0.000000D+00  0.000000D+00  0.000000D+00  0.313309D+00
     10 -0.112889D+00  0.000000D+00  0.000000D+00  0.000000D+00  0.000000D+00
     11  0.397539D+00 -0.412730D-03  0.136941D-01  0.000000D+00  0.000000D+00
     12  0.000000D+00  0.000000D+00  0.000000D+00  0.250808D-01  0.000000D+00
     13  0.000000D+00  0.000000D+00  0.000000D+00  0.000000D+00  0.250808D-01
     14 -0.512904D+00  0.000000D+00  0.000000D+00  0.000000D+00  0.000000D+00
     15  0.287056D+00  0.000000D+00  0.000000D+00  0.000000D+00  0.000000D+00
     16  0.000000D+00  0.000000D+00  0.000000D+00  0.000000D+00  0.000000D+00
     17  0.000000D+00  0.000000D+00  0.000000D+00  0.000000D+00  0.000000D+00
     18  0.000000D+00  0.000000D+00  0.000000D+00  0.000000D+00  0.000000D+00
     19  0.000000D+00  0.000000D+00  0.000000D+00  0.000000D+00  0.000000D+00
                6             7             8             9            10 
      6  0.100000D+01
      7  0.000000D+00  0.100000D+01
      8  0.000000D+00  0.000000D+00  0.100000D+01
      9  0.000000D+00  0.000000D+00  0.000000D+00  0.100000D+01
     10  0.313309D+00  0.000000D+00  0.000000D+00  0.000000D+00  0.100000D+01
     11  0.000000D+00  0.395149D+00  0.000000D+00  0.000000D+00  0.000000D+00
     12  0.000000D+00  0.000000D+00  0.407435D+00  0.000000D+00  0.000000D+00
     13  0.000000D+00  0.000000D+00  0.000000D+00  0.407435D+00  0.000000D+00
     14  0.250808D-01  0.000000D+00  0.000000D+00  0.000000D+00  0.407435D+00
     15  0.000000D+00  0.000000D+00  0.000000D+00  0.000000D+00  0.000000D+00
     16  0.000000D+00  0.000000D+00  0.000000D+00  0.000000D+00  0.000000D+00
     17  0.000000D+00  0.000000D+00  0.000000D+00  0.000000D+00  0.000000D+00
     18  0.000000D+00  0.000000D+00  0.000000D+00  0.000000D+00  0.000000D+00
     19  0.000000D+00  0.000000D+00  0.000000D+00  0.000000D+00  0.000000D+00
               11            12            13            14            15 
     11  0.100000D+01
     12  0.000000D+00  0.100000D+01
     13  0.000000D+00  0.000000D+00  0.100000D+01
     14  0.000000D+00  0.000000D+00  0.000000D+00  0.100000D+01
     15  0.000000D+00  0.000000D+00  0.000000D+00  0.000000D+00  0.100000D+01
     16  0.000000D+00  0.000000D+00  0.000000D+00  0.000000D+00  0.000000D+00
     17  0.000000D+00  0.000000D+00  0.000000D+00  0.000000D+00  0.000000D+00
     18  0.000000D+00  0.000000D+00  0.000000D+00  0.000000D+00  0.000000D+00
     19  0.000000D+00  0.000000D+00  0.000000D+00  0.000000D+00  0.000000D+00
               16            17            18            19 
     16  0.100000D+01
     17  0.000000D+00  0.100000D+01
     18  0.000000D+00  0.000000D+00  0.100000D+01
     19  0.000000D+00  0.000000D+00  0.000000D+00  0.100000D+01
 *** Kinetic Energy *** 
                1             2             3             4             5 
      1  0.760032D+00
      2 -0.688611D-03  0.229340D+03
      3 -0.501834D-02  0.137973D+01  0.120824D+02
      4  0.000000D+00  0.000000D+00  0.000000D+00  0.378073D+02
      5  0.000000D+00  0.000000D+00  0.000000D+00  0.000000D+00  0.378073D+02
      6  0.191474D-02  0.000000D+00  0.000000D+00  0.000000D+00  0.000000D+00
      7 -0.217371D-01 -0.798994D+00 -0.840664D+00  0.000000D+00  0.000000D+00
      8  0.000000D+00  0.000000D+00  0.000000D+00  0.187471D+01  0.000000D+00
      9  0.000000D+00  0.000000D+00  0.000000D+00  0.000000D+00  0.187471D+01
     10  0.234539D-02  0.000000D+00  0.000000D+00  0.000000D+00  0.000000D+00
     11  0.579541D-01 -0.407071D-01 -0.207745D+00  0.000000D+00  0.000000D+00
     12  0.000000D+00  0.000000D+00  0.000000D+00 -0.209473D-01  0.000000D+00
     13  0.000000D+00  0.000000D+00  0.000000D+00  0.000000D+00 -0.209473D-01
     14 -0.155463D+00  0.000000D+00  0.000000D+00  0.000000D+00  0.000000D+00
     15  0.149785D+00  0.000000D+00  0.000000D+00  0.000000D+00  0.000000D+00
     16  0.000000D+00  0.000000D+00  0.000000D+00  0.000000D+00  0.000000D+00
     17  0.000000D+00  0.000000D+00  0.000000D+00  0.000000D+00  0.000000D+00
     18  0.000000D+00  0.000000D+00  0.000000D+00  0.000000D+00  0.000000D+00
     19  0.000000D+00  0.000000D+00  0.000000D+00  0.000000D+00  0.000000D+00
                6             7             8             9            10 
      6  0.378073D+02
      7  0.000000D+00  0.116813D+01
      8  0.000000D+00  0.000000D+00  0.275070D+01
      9  0.000000D+00  0.000000D+00  0.000000D+00  0.275070D+01
     10  0.187471D+01  0.000000D+00  0.000000D+00  0.000000D+00  0.275070D+01
     11  0.000000D+00 -0.927537D-01  0.000000D+00  0.000000D+00  0.000000D+00
     12  0.000000D+00  0.000000D+00  0.199329D+00  0.000000D+00  0.000000D+00
     13  0.000000D+00  0.000000D+00  0.000000D+00  0.199329D+00  0.000000D+00
     14 -0.209473D-01  0.000000D+00  0.000000D+00  0.000000D+00  0.199329D+00
     15  0.000000D+00  0.000000D+00  0.000000D+00  0.000000D+00  0.000000D+00
     16  0.000000D+00  0.000000D+00  0.000000D+00  0.000000D+00  0.000000D+00
     17  0.000000D+00  0.000000D+00  0.000000D+00  0.000000D+00  0.000000D+00
     18  0.000000D+00  0.000000D+00  0.000000D+00  0.000000D+00  0.000000D+00
     19  0.000000D+00  0.000000D+00  0.000000D+00  0.000000D+00  0.000000D+00
               11            12            13            14            15 
     11  0.207443D+00
     12  0.000000D+00  0.409500D+00
     13  0.000000D+00  0.000000D+00  0.409500D+00
     14  0.000000D+00  0.000000D+00  0.000000D+00  0.409500D+00
     15  0.000000D+00  0.000000D+00  0.000000D+00  0.000000D+00  0.180044D+01
     16  0.000000D+00  0.000000D+00  0.000000D+00  0.000000D+00  0.000000D+00
     17  0.000000D+00  0.000000D+00  0.000000D+00  0.000000D+00  0.000000D+00
     18  0.000000D+00  0.000000D+00  0.000000D+00  0.000000D+00  0.000000D+00
     19  0.000000D+00  0.000000D+00  0.000000D+00  0.000000D+00  0.000000D+00
               16            17            18            19 
     16  0.180044D+01
     17  0.000000D+00  0.180044D+01
     18  0.000000D+00  0.000000D+00  0.180044D+01
     19  0.000000D+00  0.000000D+00  0.000000D+00  0.180044D+01
 Entering OneElI...
 Calculate potential energy integrals
    NBasis =  19  MinDer = 0  MaxDer = 0
 Requested accuracy = 0.1000D-12
 Symmetry will be used
 PrmmSu-InSpLW:  IPartL=    0 NPrtUS=   36 NPrtUL=    1 DoSpLW=F IThBeg=    0 IThEnd=   35 NThAct=   36.
 PrSmSu:  IncTry=   512 NBBP=             42 NTPThr=   100 NPartT=   36 Incr=           1 LDynOK=F GPUOK=F.
 PrsmSu:  NPrtUS=  36 ThrOK=T IAlg=1 LenDen=           0 ISkipM=0 DoSpLW=F IThBeg=    0 IThEnd=   35.
 Prism:   IPart=     0 DynPar=F LinDyn=F Incr=           1.
 PRISM was handed   268432843 working-precision words and    21 shell-pairs
 PRISM was handed   268432843 working-precision words and    21 shell-pairs
 PRISM was handed   268432843 working-precision words and    21 shell-pairs
 PRISM was handed   268432843 working-precision words and    21 shell-pairs
 PRISM was handed   268432843 working-precision words and    21 shell-pairs
 PRISM was handed   268432843 working-precision words and    21 shell-pairs
 PRISM was handed   268432843 working-precision words and    21 shell-pairs
 PRISM was handed   268432843 working-precision words and    21 shell-pairs
 PRISM was handed   268432843 working-precision words and    21 shell-pairs
 PRISM was handed   268432843 working-precision words and    21 shell-pairs
 PRISM was handed   268432843 working-precision words and    21 shell-pairs
 PRISM was handed   268432843 working-precision words and    21 shell-pairs
 PRISM was handed   268432843 working-precision words and    21 shell-pairs
 PRISM was handed   268432843 working-precision words and    21 shell-pairs
 PRISM was handed   268432843 working-precision words and    21 shell-pairs
 PRISM was handed   268432843 working-precision words and    21 shell-pairs
 PRISM was handed   268432843 working-precision words and    21 shell-pairs
 PRISM was handed   268432843 working-precision words and    21 shell-pairs
 PRISM was handed   268432843 working-precision words and    21 shell-pairs
 PRISM was handed   268432843 working-precision words and    21 shell-pairs
 PRISM was handed   268432843 working-precision words and    21 shell-pairs
 PRISM was handed   268432843 working-precision words and    21 shell-pairs
 PRISM was handed   268432843 working-precision words and    21 shell-pairs
 PRISM was handed   268432843 working-precision words and    21 shell-pairs
 PRISM was handed   268432843 working-precision words and    21 shell-pairs
 PRISM was handed   268432843 working-precision words and    21 shell-pairs
 PRISM was handed   268432843 working-precision words and    21 shell-pairs
 PRISM was handed   268432843 working-precision words and    21 shell-pairs
 PRISM was handed   268432843 working-precision words and    21 shell-pairs
 PRISM was handed   268432843 working-precision words and    21 shell-pairs
 PRISM was handed   268432843 working-precision words and    21 shell-pairs
 PRISM was handed   268432843 working-precision words and    21 shell-pairs
 PRISM was handed   268432843 working-precision words and    21 shell-pairs
 PRISM was handed   268432843 working-precision words and    21 shell-pairs
 PRISM was handed   268432843 working-precision words and    21 shell-pairs
 PRISM was handed   268432843 working-precision words and    21 shell-pairs
 IPart= 16 NShTot=           0 NBatch=           0 AvBLen=         0.0
 IPart= 31 NShTot=           0 NBatch=           0 AvBLen=         0.0
 IPart=  9 NShTot=           0 NBatch=           0 AvBLen=         0.0
 IPart= 23 NShTot=           0 NBatch=           0 AvBLen=         0.0
 IPart= 32 NShTot=           0 NBatch=           0 AvBLen=         0.0
 IPart= 12 NShTot=           0 NBatch=           0 AvBLen=         0.0
 IPart= 18 NShTot=           0 NBatch=           0 AvBLen=         0.0
 IPart= 17 NShTot=           0 NBatch=           0 AvBLen=         0.0
 IPart= 21 NShTot=           0 NBatch=           0 AvBLen=         0.0
 IPart= 11 NShTot=           0 NBatch=           0 AvBLen=         0.0
 IPart= 30 NShTot=           0 NBatch=           0 AvBLen=         0.0
 IPart= 28 NShTot=           0 NBatch=           0 AvBLen=         0.0
 IPart= 33 NShTot=           0 NBatch=           0 AvBLen=         0.0
 IPart=  8 NShTot=           0 NBatch=           0 AvBLen=         0.0
 IPart= 25 NShTot=           0 NBatch=           0 AvBLen=         0.0
 IPart= 24 NShTot=           0 NBatch=           0 AvBLen=         0.0
 IPart= 15 NShTot=           0 NBatch=           0 AvBLen=         0.0
 IPart= 35 NShTot=           0 NBatch=           0 AvBLen=         0.0
 IPart=  6 NShTot=           0 NBatch=           0 AvBLen=         0.0
 IPart= 29 NShTot=           0 NBatch=           0 AvBLen=         0.0
 IPart= 20 NShTot=           0 NBatch=           0 AvBLen=         0.0
 IPart= 14 NShTot=           0 NBatch=           0 AvBLen=         0.0
 IPart= 34 NShTot=           0 NBatch=           0 AvBLen=         0.0
 IPart= 27 NShTot=           0 NBatch=           0 AvBLen=         0.0
 IPart= 26 NShTot=           0 NBatch=           0 AvBLen=         0.0
 IPart=  3 NShTot=           4 NBatch=           2 AvBLen=         2.0
 IPart= 10 NShTot=           0 NBatch=           0 AvBLen=         0.0
 IPart= 22 NShTot=           0 NBatch=           0 AvBLen=         0.0
 IPart= 13 NShTot=           0 NBatch=           0 AvBLen=         0.0
 IPart=  5 NShTot=           4 NBatch=           2 AvBLen=         2.0
 IPart=  7 NShTot=           0 NBatch=           0 AvBLen=         0.0
 IPart= 19 NShTot=           0 NBatch=           0 AvBLen=         0.0
 IPart=  1 NShTot=          10 NBatch=           5 AvBLen=         2.0
 IPart=  2 NShTot=           6 NBatch=           3 AvBLen=         2.0
 IPart=  4 NShTot=           4 NBatch=           2 AvBLen=         2.0
 IPart=  0 NShTot=          14 NBatch=           7 AvBLen=         2.0
 PrSmSu:  NxtVal=             37.
 ***** Potential Energy ***** 
                1             2             3             4             5 
      1  0.848379D+01
      2  0.625255D+00  0.469095D+03
      3  0.115535D+01  0.902689D+02  0.965828D+02
      4  0.000000D+00  0.000000D+00  0.000000D+00  0.958116D+02
      5  0.000000D+00  0.000000D+00  0.000000D+00  0.000000D+00  0.958116D+02
      6 -0.267195D+00 -0.298010D-02 -0.181385D-01  0.000000D+00  0.000000D+00
      7  0.233493D+01  0.472749D+01  0.170610D+02  0.000000D+00  0.000000D+00
      8  0.000000D+00  0.000000D+00  0.000000D+00  0.174892D+02  0.000000D+00
      9  0.000000D+00  0.000000D+00  0.000000D+00  0.000000D+00  0.174892D+02
     10 -0.177899D+01 -0.206981D-03 -0.907483D-02  0.000000D+00  0.000000D+00
     11  0.371542D+01 -0.133804D+00  0.485937D+00  0.000000D+00  0.000000D+00
     12  0.000000D+00  0.000000D+00  0.000000D+00  0.120658D+01  0.000000D+00
     13  0.000000D+00  0.000000D+00  0.000000D+00  0.000000D+00  0.120658D+01
     14 -0.462731D+01 -0.105569D-04 -0.803062D-03  0.000000D+00  0.000000D+00
     15  0.288582D+01  0.111401D-05  0.407590D-03  0.000000D+00  0.000000D+00
     16  0.000000D+00  0.000000D+00  0.000000D+00 -0.213124D-02  0.000000D+00
     17  0.000000D+00  0.000000D+00  0.000000D+00  0.000000D+00 -0.213124D-02
     18  0.000000D+00  0.000000D+00  0.000000D+00  0.000000D+00  0.000000D+00
     19  0.000000D+00  0.000000D+00  0.000000D+00  0.000000D+00  0.000000D+00
                6             7             8             9            10 
      6  0.958137D+02
      7 -0.947750D-02  0.255647D+02
      8  0.000000D+00  0.000000D+00  0.255999D+02
      9  0.000000D+00  0.000000D+00  0.000000D+00  0.255999D+02
     10  0.174910D+02 -0.642124D-01  0.000000D+00  0.000000D+00  0.256257D+02
     11 -0.639716D-03  0.657240D+01  0.000000D+00  0.000000D+00 -0.394471D-01
     12  0.000000D+00  0.000000D+00  0.688547D+01  0.000000D+00  0.000000D+00
     13  0.000000D+00  0.000000D+00  0.000000D+00  0.688547D+01  0.000000D+00
     14  0.120678D+01 -0.378895D-01  0.000000D+00  0.000000D+00  0.690876D+01
     15 -0.259737D-02  0.226061D-01  0.000000D+00  0.000000D+00 -0.641234D-01
     16  0.000000D+00  0.000000D+00 -0.417634D-01  0.000000D+00  0.000000D+00
     17  0.000000D+00  0.000000D+00  0.000000D+00 -0.417634D-01  0.000000D+00
     18  0.000000D+00  0.000000D+00  0.000000D+00  0.000000D+00  0.000000D+00
     19  0.000000D+00  0.000000D+00  0.000000D+00  0.000000D+00  0.000000D+00
               11            12            13            14            15 
     11  0.966928D+01
     12  0.000000D+00  0.963186D+01
     13  0.000000D+00  0.000000D+00  0.963186D+01
     14 -0.137196D+00  0.000000D+00  0.000000D+00  0.974516D+01
     15  0.635436D-01  0.000000D+00  0.000000D+00 -0.136674D+00  0.142819D+02
     16  0.000000D+00 -0.653695D-01  0.000000D+00  0.000000D+00  0.000000D+00
     17  0.000000D+00  0.000000D+00 -0.653695D-01  0.000000D+00  0.000000D+00
     18  0.000000D+00  0.000000D+00  0.000000D+00  0.000000D+00  0.000000D+00
     19  0.000000D+00  0.000000D+00  0.000000D+00  0.000000D+00  0.000000D+00
               16            17            18            19 
     16  0.142311D+02
     17  0.000000D+00  0.142311D+02
     18  0.000000D+00  0.000000D+00  0.141928D+02
     19  0.000000D+00  0.000000D+00  0.000000D+00  0.141928D+02
 ****** Core Hamiltonian ****** 
                1             2             3             4             5 
      1 -0.772376D+01
      2 -0.625944D+00 -0.239755D+03
      3 -0.116036D+01 -0.888891D+02 -0.845004D+02
      4  0.000000D+00  0.000000D+00  0.000000D+00 -0.580042D+02
      5  0.000000D+00  0.000000D+00  0.000000D+00  0.000000D+00 -0.580042D+02
      6  0.269110D+00  0.298010D-02  0.181385D-01  0.000000D+00  0.000000D+00
      7 -0.235666D+01 -0.552648D+01 -0.179016D+02  0.000000D+00  0.000000D+00
      8  0.000000D+00  0.000000D+00  0.000000D+00 -0.156145D+02  0.000000D+00
      9  0.000000D+00  0.000000D+00  0.000000D+00  0.000000D+00 -0.156145D+02
     10  0.178133D+01  0.206981D-03  0.907483D-02  0.000000D+00  0.000000D+00
     11 -0.365747D+01  0.930974D-01 -0.693683D+00  0.000000D+00  0.000000D+00
     12  0.000000D+00  0.000000D+00  0.000000D+00 -0.122753D+01  0.000000D+00
     13  0.000000D+00  0.000000D+00  0.000000D+00  0.000000D+00 -0.122753D+01
     14  0.447184D+01  0.105569D-04  0.803062D-03  0.000000D+00  0.000000D+00
     15 -0.273603D+01 -0.111401D-05 -0.407590D-03  0.000000D+00  0.000000D+00
     16  0.000000D+00  0.000000D+00  0.000000D+00  0.213124D-02  0.000000D+00
     17  0.000000D+00  0.000000D+00  0.000000D+00  0.000000D+00  0.213124D-02
     18  0.000000D+00  0.000000D+00  0.000000D+00  0.000000D+00  0.000000D+00
     19  0.000000D+00  0.000000D+00  0.000000D+00  0.000000D+00  0.000000D+00
                6             7             8             9            10 
      6 -0.580064D+02
      7  0.947750D-02 -0.243965D+02
      8  0.000000D+00  0.000000D+00 -0.228492D+02
      9  0.000000D+00  0.000000D+00  0.000000D+00 -0.228492D+02
     10 -0.156163D+02  0.642124D-01  0.000000D+00  0.000000D+00 -0.228750D+02
     11  0.639716D-03 -0.666515D+01  0.000000D+00  0.000000D+00  0.394471D-01
     12  0.000000D+00  0.000000D+00 -0.668614D+01  0.000000D+00  0.000000D+00
     13  0.000000D+00  0.000000D+00  0.000000D+00 -0.668614D+01  0.000000D+00
     14 -0.122773D+01  0.378895D-01  0.000000D+00  0.000000D+00 -0.670943D+01
     15  0.259737D-02 -0.226061D-01  0.000000D+00  0.000000D+00  0.641234D-01
     16  0.000000D+00  0.000000D+00  0.417634D-01  0.000000D+00  0.000000D+00
     17  0.000000D+00  0.000000D+00  0.000000D+00  0.417634D-01  0.000000D+00
     18  0.000000D+00  0.000000D+00  0.000000D+00  0.000000D+00  0.000000D+00
     19  0.000000D+00  0.000000D+00  0.000000D+00  0.000000D+00  0.000000D+00
               11            12            13            14            15 
     11 -0.946184D+01
     12  0.000000D+00 -0.922236D+01
     13  0.000000D+00  0.000000D+00 -0.922236D+01
     14  0.137196D+00  0.000000D+00  0.000000D+00 -0.933566D+01
     15 -0.635436D-01  0.000000D+00  0.000000D+00  0.136674D+00 -0.124814D+02
     16  0.000000D+00  0.653695D-01  0.000000D+00  0.000000D+00  0.000000D+00
     17  0.000000D+00  0.000000D+00  0.653695D-01  0.000000D+00  0.000000D+00
     18  0.000000D+00  0.000000D+00  0.000000D+00  0.000000D+00  0.000000D+00
     19  0.000000D+00  0.000000D+00  0.000000D+00  0.000000D+00  0.000000D+00
               16            17            18            19 
     16 -0.124306D+02
     17  0.000000D+00 -0.124306D+02
     18  0.000000D+00  0.000000D+00 -0.123923D+02
     19  0.000000D+00  0.000000D+00  0.000000D+00 -0.123923D+02
 SVDSVc IOpt=   1 NormSV=T IR=1
 SVDSVc V= 1.91D+00 1.56D+00 1.34D+00 1.14D+00 1.00D+00 9.88D-01 7.60D-01 5.88D-01 4.62D-01 2.48D-01
 SVDSVc IOpt=   1 NormSV=T IR=2
 SVDSVc V= 1.00D+00
 SVDSVc IOpt=   1 NormSV=T IR=3
 SVDSVc V= 1.53D+00 1.00D+00 9.76D-01 4.98D-01
 SVDSVc IOpt=   1 NormSV=T IR=4
 SVDSVc V= 1.53D+00 1.00D+00 9.76D-01 4.98D-01
 TstOVc:  Largest diagonal error= 1.78D-15 IB=1 I=    6.
 TstOVc:  Largest same sym error= 7.15D-16 IB=1 I=   10 J=    2.
 TstOVc:  Largest diff sym error= 0.00D+00 IB=0 JB=0 I=    0 J=    0.
 Orthogonalized basis functions: 
                 1             2             3             4             5 
      1   0.423171D+00 -0.435303D-01 -0.220572D+00  0.228476D+00  0.000000D+00
      2   0.483984D-01  0.273979D+00  0.425377D+00  0.340060D+00  0.000000D+00
      3   0.102933D+00  0.391910D+00  0.395485D+00  0.147317D+00  0.000000D+00
      4   0.000000D+00  0.000000D+00  0.000000D+00  0.000000D+00  0.000000D+00
      5   0.000000D+00  0.000000D+00  0.000000D+00  0.000000D+00  0.000000D+00
      6  -0.954701D-01  0.181862D+00 -0.320833D+00  0.406898D+00  0.000000D+00
      7   0.214236D+00  0.385995D+00 -0.496244D-01 -0.350682D+00  0.000000D+00
      8   0.000000D+00  0.000000D+00  0.000000D+00  0.000000D+00  0.000000D+00
      9   0.000000D+00  0.000000D+00  0.000000D+00  0.000000D+00  0.000000D+00
     10  -0.241882D+00  0.304286D+00 -0.345685D+00  0.200439D+00  0.000000D+00
     11   0.279461D+00  0.249725D+00 -0.298414D+00 -0.327317D+00  0.000000D+00
     12   0.000000D+00  0.000000D+00  0.000000D+00  0.000000D+00  0.000000D+00
     13   0.000000D+00  0.000000D+00  0.000000D+00  0.000000D+00  0.000000D+00
     14  -0.349494D+00  0.268196D+00 -0.104561D+00 -0.180654D+00  0.000000D+00
     15   0.133508D+00 -0.222139D-01 -0.185141D+00  0.468036D+00  0.000000D+00
     16   0.000000D+00  0.000000D+00  0.000000D+00  0.000000D+00  0.000000D+00
     17   0.000000D+00  0.000000D+00  0.000000D+00  0.000000D+00  0.000000D+00
     18   0.000000D+00  0.000000D+00  0.000000D+00  0.000000D+00  0.100000D+01
     19   0.000000D+00  0.000000D+00  0.000000D+00  0.000000D+00  0.000000D+00
                 6             7             8             9            10 
      1  -0.288416D-01  0.226701D+00  0.410806D+00 -0.994284D-01  0.124876D+01
      2  -0.221849D-01  0.628710D+00 -0.366428D+00  0.515732D+00  0.647604D-01
      3  -0.827041D-03 -0.376370D+00  0.410573D+00 -0.795687D+00 -0.157203D+00
      4   0.000000D+00  0.000000D+00  0.000000D+00  0.000000D+00  0.000000D+00
      5   0.000000D+00  0.000000D+00  0.000000D+00  0.000000D+00  0.000000D+00
      6  -0.561558D+00 -0.284805D+00 -0.588179D+00 -0.207245D+00  0.174668D+00
      7   0.287264D-01 -0.512912D+00 -0.120946D+00  0.816435D+00  0.276522D+00
      8   0.000000D+00  0.000000D+00  0.000000D+00  0.000000D+00  0.000000D+00
      9   0.000000D+00  0.000000D+00  0.000000D+00  0.000000D+00  0.000000D+00
     10  -0.137640D-01  0.209632D+00  0.800980D+00  0.384425D+00 -0.486263D+00
     11   0.100989D-01  0.491137D+00 -0.294110D+00 -0.505271D+00 -0.802482D+00
     12   0.000000D+00  0.000000D+00  0.000000D+00  0.000000D+00  0.000000D+00
     13   0.000000D+00  0.000000D+00  0.000000D+00  0.000000D+00  0.000000D+00
     14   0.424225D+00  0.158239D+00 -0.244639D+00 -0.376063D+00  0.110926D+01
     15   0.716887D+00 -0.270933D+00 -0.285941D+00  0.530236D-01 -0.476640D+00
     16   0.000000D+00  0.000000D+00  0.000000D+00  0.000000D+00  0.000000D+00
     17   0.000000D+00  0.000000D+00  0.000000D+00  0.000000D+00  0.000000D+00
     18   0.000000D+00  0.000000D+00  0.000000D+00  0.000000D+00  0.000000D+00
     19   0.000000D+00  0.000000D+00  0.000000D+00  0.000000D+00  0.000000D+00
                11            12            13            14            15 
      1   0.000000D+00  0.000000D+00  0.000000D+00  0.000000D+00  0.000000D+00
      2   0.000000D+00  0.000000D+00  0.000000D+00  0.000000D+00  0.000000D+00
      3   0.000000D+00  0.000000D+00  0.000000D+00  0.000000D+00  0.000000D+00
      4   0.000000D+00  0.358362D+00  0.000000D+00  0.802807D+00 -0.593005D+00
      5   0.000000D+00  0.000000D+00  0.000000D+00  0.000000D+00  0.000000D+00
      6   0.000000D+00  0.000000D+00  0.000000D+00  0.000000D+00  0.000000D+00
      7   0.000000D+00  0.000000D+00  0.000000D+00  0.000000D+00  0.000000D+00
      8   0.000000D+00  0.565532D+00  0.000000D+00 -0.127423D-01  0.101370D+01
      9   0.000000D+00  0.000000D+00  0.000000D+00  0.000000D+00  0.000000D+00
     10   0.000000D+00  0.000000D+00  0.000000D+00  0.000000D+00  0.000000D+00
     11   0.000000D+00  0.000000D+00  0.000000D+00  0.000000D+00  0.000000D+00
     12   0.000000D+00  0.454909D+00  0.000000D+00 -0.616584D+00 -0.793056D+00
     13   0.000000D+00  0.000000D+00  0.000000D+00  0.000000D+00  0.000000D+00
     14   0.000000D+00  0.000000D+00  0.000000D+00  0.000000D+00  0.000000D+00
     15   0.000000D+00  0.000000D+00  0.000000D+00  0.000000D+00  0.000000D+00
     16   0.000000D+00  0.000000D+00  0.100000D+01  0.000000D+00  0.000000D+00
     17   0.000000D+00  0.000000D+00  0.000000D+00  0.000000D+00  0.000000D+00
     18   0.000000D+00  0.000000D+00  0.000000D+00  0.000000D+00  0.000000D+00
     19   0.100000D+01  0.000000D+00  0.000000D+00  0.000000D+00  0.000000D+00
                16            17            18            19 
      1   0.000000D+00  0.000000D+00  0.000000D+00  0.000000D+00
      2   0.000000D+00  0.000000D+00  0.000000D+00  0.000000D+00
      3   0.000000D+00  0.000000D+00  0.000000D+00  0.000000D+00
      4   0.000000D+00  0.000000D+00  0.000000D+00  0.000000D+00
      5   0.358362D+00  0.000000D+00  0.802807D+00 -0.593005D+00
      6   0.000000D+00  0.000000D+00  0.000000D+00  0.000000D+00
      7   0.000000D+00  0.000000D+00  0.000000D+00  0.000000D+00
      8   0.000000D+00  0.000000D+00  0.000000D+00  0.000000D+00
      9   0.565532D+00  0.000000D+00 -0.127423D-01  0.101370D+01
     10   0.000000D+00  0.000000D+00  0.000000D+00  0.000000D+00
     11   0.000000D+00  0.000000D+00  0.000000D+00  0.000000D+00
     12   0.000000D+00  0.000000D+00  0.000000D+00  0.000000D+00
     13   0.454909D+00  0.000000D+00 -0.616584D+00 -0.793056D+00
     14   0.000000D+00  0.000000D+00  0.000000D+00  0.000000D+00
     15   0.000000D+00  0.000000D+00  0.000000D+00  0.000000D+00
     16   0.000000D+00  0.000000D+00  0.000000D+00  0.000000D+00
     17   0.000000D+00  0.100000D+01  0.000000D+00  0.000000D+00
     18   0.000000D+00  0.000000D+00  0.000000D+00  0.000000D+00
     19   0.000000D+00  0.000000D+00  0.000000D+00  0.000000D+00
 NBasis=    19 RedAO= T EigKep=  2.48D-01  NBF=    10     1     4     4
 NBsUse=    19 1.00D-06 EigRej= -1.00D+00 NBFU=    10     1     4     4
 Leave Link  302 at Mon Mar 28 12:45:44 2022, MaxMem=  9663676416 cpu:               3.5 elap:               0.1
 (Enter /nopt/nrel/apps/gaussian/g16C_1/g16/l303.exe)
 DipDrv will not compute anything.
 Fermi contact integrals: 
                 1             2 
      1   0.628247D+00  0.187225D-01
      2   0.000000D+00  0.454848D+02
      3   0.000000D+00  0.245213D+01
      4   0.000000D+00  0.000000D+00
      5   0.000000D+00  0.000000D+00
      6   0.000000D+00  0.000000D+00
      7   0.139984D-02  0.115357D+00
      8   0.000000D+00  0.000000D+00
      9   0.000000D+00  0.000000D+00
     10  -0.356753D-02  0.000000D+00
     11   0.556825D-01 -0.521539D-02
     12   0.000000D+00  0.000000D+00
     13   0.000000D+00  0.000000D+00
     14  -0.969853D-01  0.000000D+00
     15   0.715009D-01  0.000000D+00
     16   0.000000D+00  0.000000D+00
     17   0.000000D+00  0.000000D+00
     18   0.000000D+00  0.000000D+00
     19   0.000000D+00  0.000000D+00
 Leave Link  303 at Mon Mar 28 12:45:44 2022, MaxMem=  9663676416 cpu:               1.2 elap:               0.1
 (Enter /nopt/nrel/apps/gaussian/g16C_1/g16/l401.exe)
 ExpMin= 1.16D-01 ExpMax= 1.03D+03 ExpMxC= 1.03D+03 IAcc=3 IRadAn=         5 AccDes= 0.00D+00
 Harris functional with IExCor=  205 and IRadAn=       5 diagonalized for initial guess.
 HarFok:  IExCor=  205 AccDes= 0.00D+00 IRadAn=         5 IDoV= 1 UseB2=F ITyADJ=14
 ICtDFT=  3500011 ScaDFX=  1.000000  1.000000  1.000000  1.000000
 FoFCou: FMM=F IPFlag=           0 FMFlag=      100000 FMFlg1=           0
         NFxFlg=           0 DoJE=T BraDBF=F KetDBF=T FulRan=T
         wScrn=  0.000000 ICntrl=       500 IOpCl=  0 I1Cent=   200000004 NGrid=           0
         NMat0=    1 NMatS0=      1 NMatT0=    0 NMatD0=    1 NMtDS0=    0 NMtDT0=    0
 Petite list used in FoFCou.
 Harris En= -839.021770580347    
 JPrj=0 DoOrth=F DoCkMO=F.
 Initial guess orbital symmetries:
 Alpha Orbitals:
       Occupied  (SG) (SG) (SG) (PI) (PI) (SG) (SG) (PI) (PI) (SG)
                 (SG) (PI) (PI) (DLTA)
       Virtual   (DLTA) (SG) (PI) (PI) (SG)
 Beta  Orbitals:
       Occupied  (SG) (SG) (SG) (PI) (PI) (SG) (SG) (PI) (PI)
       Virtual   (SG) (SG) (PI) (PI) (DLTA) (DLTA) (SG) (PI) (PI)
                 (SG)
 Initial guess <Sx>= 0.0000 <Sy>= 0.0000 <Sz>= 2.5000 <S**2>= 8.7500 S= 2.5000
 Leave Link  401 at Mon Mar 28 12:45:45 2022, MaxMem=  9663676416 cpu:               4.3 elap:               0.1
 (Enter /nopt/nrel/apps/gaussian/g16C_1/g16/l502.exe)
 Keep R1 and R2 ints in memory in symmetry-blocked form, NReq=7413390.
 FoFCou: FMM=F IPFlag=           0 FMFlag=           0 FMFlg1=           0
         NFxFlg=           0 DoJE=F BraDBF=F KetDBF=F FulRan=T
         wScrn=  0.000000 ICntrl=       600 IOpCl=  0 I1Cent=           0 NGrid=           0
         NMat0=    1 NMatS0=    190 NMatT0=    0 NMatD0=    1 NMtDS0=    0 NMtDT0=    0
 Petite list used in FoFCou.
 UHF open shell SCF:
 Using DIIS extrapolation, IDIIS=  1040.
 NGot=  9663676416 LenX=  9663662661 LenY=  9663661779
 Requested convergence on RMS density matrix=1.00D-08 within 128 cycles.
 Requested convergence on MAX density matrix=1.00D-06.
 Requested convergence on             energy=1.00D-06.
 No special actions if energy rises.

 Cycle   1  Pass 1  IDiag  1:
 E= -839.854738034640    
 DIIS: error= 5.81D-02 at cycle   1 NSaved=   1.
 NSaved= 1 IEnMin= 1 EnMin= -839.854738034640     IErMin= 1 ErrMin= 5.81D-02
 ErrMax= 5.81D-02  0.00D+00 EMaxC= 1.00D-01 BMatC= 2.16D-01 BMatP= 2.16D-01
 IDIUse=3 WtCom= 4.19D-01 WtEn= 5.81D-01
 Coeff-Com:  0.100D+01
 Coeff-En:   0.100D+01
 Coeff:      0.100D+01
 Gap=     0.358 Goal=   None    Shift=    0.000
 Gap=     1.747 Goal=   None    Shift=    0.000
 GapD=    0.358 DampG=1.000 DampE=0.250 DampFc=0.2500 IDamp=-1.
 Damping current iteration by 2.50D-01
 RMSDP=8.83D-03 MaxDP=9.42D-02              OVMax= 0.00D+00

 Cycle   2  Pass 1  IDiag  1:
 E= -839.861187856545     Delta-E=       -0.006449821904 Rises=F Damp=T
 DIIS: error= 4.44D-02 at cycle   2 NSaved=   2.
 NSaved= 2 IEnMin= 2 EnMin= -839.861187856545     IErMin= 2 ErrMin= 4.44D-02
 ErrMax= 4.44D-02  0.00D+00 EMaxC= 1.00D-01 BMatC= 1.26D-01 BMatP= 2.16D-01
 IDIUse=3 WtCom= 5.56D-01 WtEn= 4.44D-01
 Coeff-Com: -0.318D+01 0.418D+01
 Coeff-En:   0.000D+00 0.100D+01
 Coeff:     -0.177D+01 0.277D+01
 Gap=     0.355 Goal=   None    Shift=    0.000
 Gap=     1.743 Goal=   None    Shift=    0.000
 RMSDP=8.57D-03 MaxDP=9.73D-02 DE=-6.45D-03 OVMax= 0.00D+00

 Cycle   3  Pass 1  IDiag  1:
 E= -839.885888486479     Delta-E=       -0.024700629934 Rises=F Damp=F
 DIIS: error= 3.51D-03 at cycle   3 NSaved=   3.
 NSaved= 3 IEnMin= 3 EnMin= -839.885888486479     IErMin= 3 ErrMin= 3.51D-03
 ErrMax= 3.51D-03  0.00D+00 EMaxC= 1.00D-01 BMatC= 1.26D-03 BMatP= 1.26D-01
 IDIUse=3 WtCom= 9.65D-01 WtEn= 3.51D-02
 Coeff-Com:  0.314D+01-0.419D+01 0.205D+01
 Coeff-En:   0.000D+00 0.000D+00 0.100D+01
 Coeff:      0.303D+01-0.405D+01 0.202D+01
 Gap=     0.357 Goal=   None    Shift=    0.000
 Gap=     1.757 Goal=   None    Shift=    0.000
 RMSDP=4.32D-03 MaxDP=2.87D-02 DE=-2.47D-02 OVMax= 0.00D+00

 Cycle   4  Pass 1  IDiag  1:
 E= -839.887704393112     Delta-E=       -0.001815906633 Rises=F Damp=F
 DIIS: error= 2.66D-03 at cycle   4 NSaved=   4.
 NSaved= 4 IEnMin= 4 EnMin= -839.887704393112     IErMin= 4 ErrMin= 2.66D-03
 ErrMax= 2.66D-03  0.00D+00 EMaxC= 1.00D-01 BMatC= 2.24D-04 BMatP= 1.26D-03
 IDIUse=3 WtCom= 9.73D-01 WtEn= 2.66D-02
 Coeff-Com: -0.480D+01 0.641D+01-0.321D+01 0.260D+01
 Coeff-En:   0.000D+00 0.000D+00 0.000D+00 0.100D+01
 Coeff:     -0.468D+01 0.624D+01-0.312D+01 0.256D+01
 Gap=     0.362 Goal=   None    Shift=    0.000
 Gap=     1.767 Goal=   None    Shift=    0.000
 RMSDP=4.75D-03 MaxDP=3.86D-02 DE=-1.82D-03 OVMax= 0.00D+00

 Cycle   5  Pass 1  IDiag  1:
 E= -839.888931881804     Delta-E=       -0.001227488693 Rises=F Damp=F
 DIIS: error= 2.21D-03 at cycle   5 NSaved=   5.
 NSaved= 5 IEnMin= 5 EnMin= -839.888931881804     IErMin= 5 ErrMin= 2.21D-03
 ErrMax= 2.21D-03  0.00D+00 EMaxC= 1.00D-01 BMatC= 1.37D-04 BMatP= 2.24D-04
 IDIUse=3 WtCom= 9.78D-01 WtEn= 2.21D-02
 Coeff-Com:  0.302D+01-0.404D+01 0.208D+01-0.219D+01 0.212D+01
 Coeff-En:   0.000D+00 0.000D+00 0.000D+00 0.000D+00 0.100D+01
 Coeff:      0.296D+01-0.395D+01 0.204D+01-0.214D+01 0.210D+01
 Gap=     0.365 Goal=   None    Shift=    0.000
 Gap=     1.774 Goal=   None    Shift=    0.000
 RMSDP=4.17D-03 MaxDP=3.90D-02 DE=-1.23D-03 OVMax= 0.00D+00

 Cycle   6  Pass 1  IDiag  1:
 E= -839.889799857333     Delta-E=       -0.000867975529 Rises=F Damp=F
 DIIS: error= 1.84D-03 at cycle   6 NSaved=   6.
 NSaved= 6 IEnMin= 6 EnMin= -839.889799857333     IErMin= 6 ErrMin= 1.84D-03
 ErrMax= 1.84D-03  0.00D+00 EMaxC= 1.00D-01 BMatC= 9.76D-05 BMatP= 1.37D-04
 IDIUse=3 WtCom= 9.82D-01 WtEn= 1.84D-02
 Coeff-Com: -0.485D+01 0.647D+01-0.335D+01 0.411D+01-0.612D+01 0.473D+01
 Coeff-En:   0.000D+00 0.000D+00 0.000D+00 0.000D+00 0.000D+00 0.100D+01
 Coeff:     -0.476D+01 0.635D+01-0.329D+01 0.404D+01-0.601D+01 0.467D+01
 Gap=     0.364 Goal=   None    Shift=    0.000
 Gap=     1.792 Goal=   None    Shift=    0.000
 RMSDP=8.82D-03 MaxDP=9.18D-02 DE=-8.68D-04 OVMax= 0.00D+00

 Cycle   7  Pass 1  IDiag  1:
 E= -839.891170176770     Delta-E=       -0.001370319437 Rises=F Damp=F
 DIIS: error= 1.15D-03 at cycle   7 NSaved=   7.
 NSaved= 7 IEnMin= 7 EnMin= -839.891170176770     IErMin= 7 ErrMin= 1.15D-03
 ErrMax= 1.15D-03  0.00D+00 EMaxC= 1.00D-01 BMatC= 4.26D-05 BMatP= 9.76D-05
 IDIUse=3 WtCom= 9.88D-01 WtEn= 1.15D-02
 Coeff-Com: -0.249D+01 0.332D+01-0.165D+01 0.151D+01-0.309D+00-0.175D+01
 Coeff-Com:  0.237D+01
 Coeff-En:   0.000D+00 0.000D+00 0.000D+00 0.000D+00 0.000D+00 0.000D+00
 Coeff-En:   0.100D+01
 Coeff:     -0.246D+01 0.328D+01-0.163D+01 0.149D+01-0.305D+00-0.173D+01
 Coeff:      0.236D+01
 Gap=     0.368 Goal=   None    Shift=    0.000
 Gap=     1.811 Goal=   None    Shift=    0.000
 RMSDP=9.19D-03 MaxDP=1.04D-01 DE=-1.37D-03 OVMax= 0.00D+00

 Cycle   8  Pass 1  IDiag  1:
 E= -839.891893879499     Delta-E=       -0.000723702729 Rises=F Damp=F
 DIIS: error= 4.87D-04 at cycle   8 NSaved=   8.
 NSaved= 8 IEnMin= 8 EnMin= -839.891893879499     IErMin= 8 ErrMin= 4.87D-04
 ErrMax= 4.87D-04  0.00D+00 EMaxC= 1.00D-01 BMatC= 1.52D-05 BMatP= 4.26D-05
 IDIUse=3 WtCom= 9.95D-01 WtEn= 4.87D-03
 Coeff-Com: -0.315D+01 0.420D+01-0.210D+01 0.188D+01-0.165D+01 0.157D+01
 Coeff-Com: -0.138D+01 0.163D+01
 Coeff-En:   0.000D+00 0.000D+00 0.000D+00 0.000D+00 0.000D+00 0.000D+00
 Coeff-En:   0.000D+00 0.100D+01
 Coeff:     -0.313D+01 0.418D+01-0.209D+01 0.187D+01-0.164D+01 0.157D+01
 Coeff:     -0.137D+01 0.163D+01
 Gap=     0.361 Goal=   None    Shift=    0.000
 Gap=     1.812 Goal=   None    Shift=    0.000
 RMSDP=1.29D-03 MaxDP=1.36D-02 DE=-7.24D-04 OVMax= 0.00D+00

 Cycle   9  Pass 1  IDiag  1:
 E= -839.891941973630     Delta-E=       -0.000048094131 Rises=F Damp=F
 DIIS: error= 2.13D-04 at cycle   9 NSaved=   9.
 NSaved= 9 IEnMin= 9 EnMin= -839.891941973630     IErMin= 9 ErrMin= 2.13D-04
 ErrMax= 2.13D-04  0.00D+00 EMaxC= 1.00D-01 BMatC= 5.24D-06 BMatP= 1.52D-05
 IDIUse=3 WtCom= 9.98D-01 WtEn= 2.13D-03
 Coeff-Com:  0.339D+00-0.452D+00 0.225D+00-0.118D+00-0.928D-01 0.176D+00
 Coeff-Com: -0.496D+00 0.546D+00 0.873D+00
 Coeff-En:   0.000D+00 0.000D+00 0.000D+00 0.000D+00 0.000D+00 0.000D+00
 Coeff-En:   0.000D+00 0.000D+00 0.100D+01
 Coeff:      0.338D+00-0.451D+00 0.224D+00-0.118D+00-0.926D-01 0.175D+00
 Coeff:     -0.495D+00 0.545D+00 0.873D+00
 Gap=     0.368 Goal=   None    Shift=    0.000
 Gap=     1.818 Goal=   None    Shift=    0.000
 RMSDP=3.24D-03 MaxDP=3.82D-02 DE=-4.81D-05 OVMax= 0.00D+00

 Cycle  10  Pass 1  IDiag  1:
 E= -839.891993915034     Delta-E=       -0.000051941404 Rises=F Damp=F
 DIIS: error= 1.13D-04 at cycle  10 NSaved=  10.
 NSaved=10 IEnMin=10 EnMin= -839.891993915034     IErMin=10 ErrMin= 1.13D-04
 ErrMax= 1.13D-04  0.00D+00 EMaxC= 1.00D-01 BMatC= 1.37D-06 BMatP= 5.24D-06
 IDIUse=3 WtCom= 9.99D-01 WtEn= 1.13D-03
 Coeff-Com: -0.434D-01 0.576D-01-0.285D-01-0.453D-02 0.166D+00-0.408D+00
 Coeff-Com:  0.594D+00-0.709D+00 0.233D-01 0.135D+01
 Coeff-En:   0.000D+00 0.000D+00 0.000D+00 0.000D+00 0.000D+00 0.000D+00
 Coeff-En:   0.000D+00 0.000D+00 0.000D+00 0.100D+01
 Coeff:     -0.433D-01 0.576D-01-0.285D-01-0.452D-02 0.166D+00-0.408D+00
 Coeff:      0.594D+00-0.708D+00 0.233D-01 0.135D+01
 Gap=     0.366 Goal=   None    Shift=    0.000
 Gap=     1.819 Goal=   None    Shift=    0.000
 RMSDP=3.02D-04 MaxDP=3.45D-03 DE=-5.19D-05 OVMax= 0.00D+00

 Cycle  11  Pass 1  IDiag  1:
 E= -839.891994762290     Delta-E=       -0.000000847257 Rises=F Damp=F
 DIIS: error= 2.81D-05 at cycle  11 NSaved=  11.
 NSaved=11 IEnMin=11 EnMin= -839.891994762290     IErMin=11 ErrMin= 2.81D-05
 ErrMax= 2.81D-05  0.00D+00 EMaxC= 1.00D-01 BMatC= 8.85D-08 BMatP= 1.37D-06
 IDIUse=1 WtCom= 1.00D+00 WtEn= 0.00D+00
 Coeff-Com:  0.160D-01-0.214D-01 0.103D-01-0.103D-02-0.154D-01 0.201D-01
 Coeff-Com: -0.256D-01 0.132D-01 0.474D-01-0.273D+00 0.123D+01
 Coeff:      0.160D-01-0.214D-01 0.103D-01-0.103D-02-0.154D-01 0.201D-01
 Coeff:     -0.256D-01 0.132D-01 0.474D-01-0.273D+00 0.123D+01
 Gap=     0.365 Goal=   None    Shift=    0.000
 Gap=     1.819 Goal=   None    Shift=    0.000
 RMSDP=3.94D-05 MaxDP=3.76D-04 DE=-8.47D-07 OVMax= 0.00D+00

 Cycle  12  Pass 1  IDiag  1:
 E= -839.891994798131     Delta-E=       -0.000000035840 Rises=F Damp=F
 DIIS: error= 1.29D-06 at cycle  12 NSaved=  12.
 NSaved=12 IEnMin=12 EnMin= -839.891994798131     IErMin=12 ErrMin= 1.29D-06
 ErrMax= 1.29D-06  0.00D+00 EMaxC= 1.00D-01 BMatC= 1.73D-10 BMatP= 8.85D-08
 IDIUse=1 WtCom= 1.00D+00 WtEn= 0.00D+00
 Coeff-Com:  0.130D-02-0.173D-02 0.977D-03-0.214D-02 0.368D-02-0.209D-02
 Coeff-Com: -0.130D-02 0.569D-02-0.423D-02 0.149D-01-0.180D+00 0.117D+01
 Coeff:      0.130D-02-0.173D-02 0.977D-03-0.214D-02 0.368D-02-0.209D-02
 Coeff:     -0.130D-02 0.569D-02-0.423D-02 0.149D-01-0.180D+00 0.117D+01
 Gap=     0.365 Goal=   None    Shift=    0.000
 Gap=     1.819 Goal=   None    Shift=    0.000
 RMSDP=4.63D-06 MaxDP=5.40D-05 DE=-3.58D-08 OVMax= 0.00D+00

 Cycle  13  Pass 1  IDiag  1:
 E= -839.891994798230     Delta-E=       -0.000000000099 Rises=F Damp=F
 DIIS: error= 2.19D-07 at cycle  13 NSaved=  13.
 NSaved=13 IEnMin=13 EnMin= -839.891994798230     IErMin=13 ErrMin= 2.19D-07
 ErrMax= 2.19D-07  0.00D+00 EMaxC= 1.00D-01 BMatC= 5.76D-12 BMatP= 1.73D-10
 IDIUse=1 WtCom= 1.00D+00 WtEn= 0.00D+00
 Coeff-Com:  0.578D-04-0.781D-04 0.142D-04 0.181D-03-0.199D-03-0.555D-03
 Coeff-Com:  0.166D-02-0.287D-02 0.115D-02 0.935D-03 0.285D-01-0.323D+00
 Coeff-Com:  0.129D+01
 Coeff:      0.578D-04-0.781D-04 0.142D-04 0.181D-03-0.199D-03-0.555D-03
 Coeff:      0.166D-02-0.287D-02 0.115D-02 0.935D-03 0.285D-01-0.323D+00
 Coeff:      0.129D+01
 Gap=     0.365 Goal=   None    Shift=    0.000
 Gap=     1.819 Goal=   None    Shift=    0.000
 RMSDP=9.26D-07 MaxDP=1.12D-05 DE=-9.88D-11 OVMax= 0.00D+00

 Cycle  14  Pass 1  IDiag  1:
 E= -839.891994798234     Delta-E=       -0.000000000005 Rises=F Damp=F
 DIIS: error= 2.02D-08 at cycle  14 NSaved=  14.
 NSaved=14 IEnMin=14 EnMin= -839.891994798234     IErMin=14 ErrMin= 2.02D-08
 ErrMax= 2.02D-08  0.00D+00 EMaxC= 1.00D-01 BMatC= 3.48D-14 BMatP= 5.76D-12
 IDIUse=1 WtCom= 1.00D+00 WtEn= 0.00D+00
 Coeff-Com: -0.322D-04 0.432D-04-0.182D-04-0.438D-05-0.195D-05 0.113D-03
 Coeff-Com: -0.280D-03 0.444D-03-0.170D-03-0.310D-03-0.228D-02 0.440D-01
 Coeff-Com: -0.248D+00 0.121D+01
 Coeff:     -0.322D-04 0.432D-04-0.182D-04-0.438D-05-0.195D-05 0.113D-03
 Coeff:     -0.280D-03 0.444D-03-0.170D-03-0.310D-03-0.228D-02 0.440D-01
 Coeff:     -0.248D+00 0.121D+01
 Gap=     0.365 Goal=   None    Shift=    0.000
 Gap=     1.819 Goal=   None    Shift=    0.000
 RMSDP=6.23D-08 MaxDP=7.53D-07 DE=-4.77D-12 OVMax= 0.00D+00

 Cycle  15  Pass 1  IDiag  1:
 E= -839.891994798234     Delta-E=       -0.000000000000 Rises=F Damp=F
 DIIS: error= 3.42D-09 at cycle  15 NSaved=  15.
 NSaved=15 IEnMin=15 EnMin= -839.891994798234     IErMin=15 ErrMin= 3.42D-09
 ErrMax= 3.42D-09  0.00D+00 EMaxC= 1.00D-01 BMatC= 1.27D-15 BMatP= 3.48D-14
 IDIUse=1 WtCom= 1.00D+00 WtEn= 0.00D+00
 Coeff-Com: -0.107D-05 0.142D-05-0.118D-05 0.475D-05-0.808D-05-0.387D-05
 Coeff-Com:  0.262D-04-0.451D-04 0.240D-04-0.170D-04 0.249D-03-0.515D-02
 Coeff-Com:  0.316D-01-0.213D+00 0.119D+01
 Coeff:     -0.107D-05 0.142D-05-0.118D-05 0.475D-05-0.808D-05-0.387D-05
 Coeff:      0.262D-04-0.451D-04 0.240D-04-0.170D-04 0.249D-03-0.515D-02
 Coeff:      0.316D-01-0.213D+00 0.119D+01
 Gap=     0.365 Goal=   None    Shift=    0.000
 Gap=     1.819 Goal=   None    Shift=    0.000
 RMSDP=4.50D-09 MaxDP=4.75D-08 DE=-1.14D-13 OVMax= 0.00D+00

 SCF Done:  E(UHF) =  -839.891994798     A.U. after   15 cycles
            NFock= 15  Conv=0.45D-08     -V/T= 2.0036
 <Sx>= 0.0000 <Sy>= 0.0000 <Sz>= 2.5000 <S**2>= 8.7520 S= 2.5003
 <L.S>= 0.000000000000E+00
 KE= 8.368520785355D+02 PE=-2.001828716196D+03 EE= 3.178084562121D+02
 Annihilation of the first spin contaminant:
 S**2 before annihilation     8.7520,   after     8.7500
 Leave Link  502 at Mon Mar 28 12:45:45 2022, MaxMem=  9663676416 cpu:               6.5 elap:               0.2
 (Enter /nopt/nrel/apps/gaussian/g16C_1/g16/l801.exe)
 Windowed orbitals will be sorted by symmetry type.
 ExpMin= 1.16D-01 ExpMax= 1.03D+03 ExpMxC= 1.03D+03 IAcc=3 IRadAn=         5 AccDes= 0.00D+00
 HarFok:  IExCor=  205 AccDes= 0.00D+00 IRadAn=         5 IDoV=-2 UseB2=F ITyADJ=14
 ICtDFT= 12500011 ScaDFX=  1.000000  1.000000  1.000000  1.000000
 Largest valence mixing into a core orbital is  1.73D-03
 Largest core mixing into a valence orbital is  1.40D-03
 Range of M.O.s used for correlation:    10    19
 NBasis=    19 NAE=    14 NBE=     9 NFC=     9 NFV=     0
 NROrb=     10 NOA=     5 NOB=     0 NVA=     5 NVB=    10
 Leave Link  801 at Mon Mar 28 12:45:45 2022, MaxMem=  9663676416 cpu:               1.9 elap:               0.1
 (Enter /nopt/nrel/apps/gaussian/g16C_1/g16/l804.exe)
 Open-shell transformation, MDV=  9663676416 ITran=4 ISComp=2.
 Unit  1 TFree=         25012 TCopy=        222819.
 Semi-Direct transformation.
 ModeAB=           2 MOrb=             5 LenV=    9663501360
 LASXX=          328 LTotXX=         328 LenRXX=         328
 LTotAB=         596 MaxLAS=       10500 LenRXY=       10500
 NonZer=       12150 LenScr=      785920 LnRSAI=           0
 LnScr1=           0 LExtra=      223847 Total=      1020595
 MaxDsk= 34359738368 SrtSym=           F ITran=            4
 DoSDTr:  NPSUse= 36
 JobTyp=1 Pass  1:  I=   1 to   5.
 (rs|ai) integrals will be sorted in core.
 Complete sort for first half transformation.
 First half transformation complete.
 Complete sort for second half transformation.
 Second half transformation complete.
 Spin components of T(2) and E(2):
     alpha-alpha T2 =       0.1865833251D-02 E2=     -0.1647173102D-02
     alpha-beta  T2 =       0.0000000000D+00 E2=      0.0000000000D+00
     beta-beta   T2 =       0.0000000000D+00 E2=      0.0000000000D+00
 ANorm=    0.1000932482D+01
 E2 =    -0.1647173102D-02 EUMP2 =    -0.83989364197134D+03
 Leave Link  804 at Mon Mar 28 12:45:45 2022, MaxMem=  9663676416 cpu:               2.0 elap:               0.1
 (Enter /nopt/nrel/apps/gaussian/g16C_1/g16/l913.exe)
 CIDS:  MDV=  9663676416.
 Frozen-core window:  NFC=   9 NFV=   0.
 IFCWin=0 IBDFC=1 NFBD=     0     0 NFCmp=     0     0 NFFFC=     0     0
 Using original routines for 1st iteration.
 Using DD4UQ or CC4UQ for 2nd and later iterations.
 Keep R2 and R3 ints in memory in symmetry-blocked form, NReq=7415832.
 FoFCou: FMM=F IPFlag=           0 FMFlag=           0 FMFlg1=           0
         NFxFlg=           0 DoJE=F BraDBF=F KetDBF=F FulRan=T
         wScrn=  0.000000 ICntrl=       600 IOpCl=  0 I1Cent=           0 NGrid=           0
         NMat0=    1 NMatS0=    190 NMatT0=    0 NMatD0=    1 NMtDS0=    0 NMtDT0=    0
 Petite list used in FoFCou.
 CIDS: In Core Option IDoMem=           1.
 Coupled Cluster theory with single and double substitutions
 ===========================================================
 Iterations= 300 Convergence= 0.100D-06
 Produce multiple copies of IABC intergrals
 Iteration Nr.   1
 **********************
 DD1Dir will call FoFMem   1 times, MxPair=        10
 NAB=     0 NAA=    10 NBB=     0.
 MP4(R+Q)=  0.29070271D-05
 Maximum subspace dimension=  5
 A-vector RMS=  3.7031995D-03 Max=  1.8407186D-02 conv= 1.00D-05.
 RLE energy=       -0.0063995422
 E3=       -0.12261238D-02        EUMP3=      -0.83989486810D+03
 E4(DQ)=   -0.96062667D-03        UMP4(DQ)=   -0.83989582872D+03
 E4(SDQ)=  -0.96228291D-03        UMP4(SDQ)=  -0.83989583038D+03
 VARIATIONAL ENERGIES WITH THE FIRST-ORDER WAVEFUNCTION:
 DE(Corr)= -0.28703816E-02 E(Corr)=     -839.89486518    
 NORM(A)=   0.10152889D+01
 Iteration Nr.   2
 **********************
 DD1Dir will call FoFMem   1 times, MxPair=        10
 NAB=     0 NAA=    10 NBB=     0.
 A-vector RMS=  2.5198365D-03 Max=  1.3342094D-02 conv= 1.00D-05.
 RLE energy=       -0.0091009797
 DE(Corr)= -0.65669693E-02 E(CORR)=     -839.89856177     Delta=-3.70D-03
 NORM(A)=   0.10403847D+01
 Iteration Nr.   3
 **********************
 DD1Dir will call FoFMem   1 times, MxPair=        10
 NAB=     0 NAA=    10 NBB=     0.
 A-vector RMS=  2.3892308D-03 Max=  7.1627462D-03 conv= 1.00D-05.
 RLE energy=       -0.0140414174
 DE(Corr)= -0.91597102E-02 E(CORR)=     -839.90115451     Delta=-2.59D-03
 NORM(A)=   0.11307057D+01
 Iteration Nr.   4
 **********************
 DD1Dir will call FoFMem   1 times, MxPair=        10
 NAB=     0 NAA=    10 NBB=     0.
 A-vector RMS=  3.2912765D-03 Max=  9.2184568D-03 conv= 1.00D-05.
 RLE energy=       -0.0100385300
 DE(Corr)= -0.13753958E-01 E(CORR)=     -839.90574876     Delta=-4.59D-03
 NORM(A)=   0.10714017D+01
 Iteration Nr.   5
 **********************
 DD1Dir will call FoFMem   1 times, MxPair=        10
 NAB=     0 NAA=    10 NBB=     0.
 A-vector RMS=  2.1639045D-03 Max=  5.8002533D-03 conv= 1.00D-05.
 RLE energy=        0.0000668844
 DE(Corr)= -0.10341837E-01 E(CORR)=     -839.90233664     Delta= 3.41D-03
 NORM(A)=   0.10113784D+01
 Iteration Nr.   6
 **********************
 DD1Dir will call FoFMem   1 times, MxPair=        10
 NAB=     0 NAA=    10 NBB=     0.
 A-vector RMS=  4.2435997D-03 Max=  2.0933423D-02 conv= 1.00D-05.
 RLE energy=        0.1153813876
 DE(Corr)= -0.99685894E-03 E(CORR)=     -839.89299166     Delta= 9.34D-03
 NORM(A)=   0.90744077D+01
 Iteration Nr.   7
 **********************
 DD1Dir will call FoFMem   1 times, MxPair=        10
 NAB=     0 NAA=    10 NBB=     0.
 A-vector RMS=  5.1217568D-01 Max=  1.4723711D+00 conv= 1.00D-05.
 RLE energy=       -0.0134249903
 DE(Corr)=  0.18959225     E(CORR)=     -839.70240255     Delta= 1.91D-01
 NORM(A)=   0.11408245D+01
 Iteration Nr.   8
 **********************
 DD1Dir will call FoFMem   1 times, MxPair=        10
 NAB=     0 NAA=    10 NBB=     0.
 A-vector RMS=  2.8963714D-03 Max=  8.9990844D-03 conv= 1.00D-05.
 RLE energy=       -0.0092058254
 DE(Corr)= -0.13436737E-01 E(CORR)=     -839.90543154     Delta=-2.03D-01
 NORM(A)=   0.10541318D+01
 Iteration Nr.   9
 **********************
 DD1Dir will call FoFMem   1 times, MxPair=        10
 NAB=     0 NAA=    10 NBB=     0.
 A-vector RMS=  2.2377438D-03 Max=  7.3387668D-03 conv= 1.00D-05.
 RLE energy=       -0.0021106873
 DE(Corr)= -0.94257422E-02 E(CORR)=     -839.90142054     Delta= 4.01D-03
 NORM(A)=   0.14293439D+01
 Iteration Nr.  10
 **********************
 DD1Dir will call FoFMem   1 times, MxPair=        10
 NAB=     0 NAA=    10 NBB=     0.
 A-vector RMS=  8.9504988D-03 Max=  7.4027971D-02 conv= 1.00D-05.
 RLE energy=       -0.0014823522
 DE(Corr)= -0.28925495E-02 E(CORR)=     -839.89488735     Delta= 6.53D-03
 NORM(A)=   0.12570061D+01
 Iteration Nr.  11
 **********************
 DD1Dir will call FoFMem   1 times, MxPair=        10
 NAB=     0 NAA=    10 NBB=     0.
 A-vector RMS=  3.2377822D-03 Max=  1.1993824D-02 conv= 1.00D-05.
 RLE energy=       -0.0172953778
 DE(Corr)= -0.16436439E-02 E(CORR)=     -839.89363844     Delta= 1.25D-03
 NORM(A)=   0.13751261D+01
 Iteration Nr.  12
 **********************
 DD1Dir will call FoFMem   1 times, MxPair=        10
 NAB=     0 NAA=    10 NBB=     0.
 A-vector RMS=  2.5260363D-03 Max=  6.2113198D-03 conv= 1.00D-05.
 RLE energy=       -0.0180532744
 DE(Corr)= -0.17025663E-01 E(CORR)=     -839.90902046     Delta=-1.54D-02
 NORM(A)=   0.16931140D+01
 Iteration Nr.  13
 **********************
 DD1Dir will call FoFMem   1 times, MxPair=        10
 NAB=     0 NAA=    10 NBB=     0.
 A-vector RMS=  7.6407399D-03 Max=  2.2288640D-02 conv= 1.00D-05.
 RLE energy=       -0.0174499740
 DE(Corr)= -0.17931050E-01 E(CORR)=     -839.90992585     Delta=-9.05D-04
 NORM(A)=   0.13614300D+01
 Iteration Nr.  14
 **********************
 DD1Dir will call FoFMem   1 times, MxPair=        10
 NAB=     0 NAA=    10 NBB=     0.
 A-vector RMS=  1.2852788D-03 Max=  5.6110002D-03 conv= 1.00D-05.
 RLE energy=       -0.0132136426
 DE(Corr)= -0.17295137E-01 E(CORR)=     -839.90928994     Delta= 6.36D-04
 NORM(A)=   0.11577057D+01
 Iteration Nr.  15
 **********************
 DD1Dir will call FoFMem   1 times, MxPair=        10
 NAB=     0 NAA=    10 NBB=     0.
 A-vector RMS=  1.1803914D-03 Max=  2.3793036D-03 conv= 1.00D-05.
 RLE energy=       -0.0144119697
 DE(Corr)= -0.13287260E-01 E(CORR)=     -839.90528206     Delta= 4.01D-03
 NORM(A)=   0.12138208D+01
 Iteration Nr.  16
 **********************
 DD1Dir will call FoFMem   1 times, MxPair=        10
 NAB=     0 NAA=    10 NBB=     0.
 A-vector RMS=  5.5240955D-04 Max=  2.0015371D-03 conv= 1.00D-05.
 RLE energy=       -0.0149201779
 DE(Corr)= -0.14424319E-01 E(CORR)=     -839.90641912     Delta=-1.14D-03
 NORM(A)=   0.12667065D+01
 Iteration Nr.  17
 **********************
 DD1Dir will call FoFMem   1 times, MxPair=        10
 NAB=     0 NAA=    10 NBB=     0.
 A-vector RMS=  7.4218960D-04 Max=  1.9838851D-03 conv= 1.00D-05.
 RLE energy=       -0.0146126980
 DE(Corr)= -0.14912566E-01 E(CORR)=     -839.90690736     Delta=-4.88D-04
 NORM(A)=   0.12376322D+01
 Iteration Nr.  18
 **********************
 DD1Dir will call FoFMem   1 times, MxPair=        10
 NAB=     0 NAA=    10 NBB=     0.
 A-vector RMS=  2.9644524D-04 Max=  7.4899619D-04 conv= 1.00D-05.
 RLE energy=       -0.0148124527
 DE(Corr)= -0.14621565E-01 E(CORR)=     -839.90661636     Delta= 2.91D-04
 NORM(A)=   0.12501076D+01
 Iteration Nr.  19
 **********************
 DD1Dir will call FoFMem   1 times, MxPair=        10
 NAB=     0 NAA=    10 NBB=     0.
 A-vector RMS=  3.3832953D-04 Max=  1.0650074D-03 conv= 1.00D-05.
 RLE energy=       -0.0146848963
 DE(Corr)= -0.14813932E-01 E(CORR)=     -839.90680873     Delta=-1.92D-04
 NORM(A)=   0.12385717D+01
 Iteration Nr.  20
 **********************
 DD1Dir will call FoFMem   1 times, MxPair=        10
 NAB=     0 NAA=    10 NBB=     0.
 A-vector RMS=  2.1667254D-04 Max=  7.6260349D-04 conv= 1.00D-05.
 RLE energy=       -0.0147485511
 DE(Corr)= -0.14687989E-01 E(CORR)=     -839.90668279     Delta= 1.26D-04
 NORM(A)=   0.12431888D+01
 Iteration Nr.  21
 **********************
 DD1Dir will call FoFMem   1 times, MxPair=        10
 NAB=     0 NAA=    10 NBB=     0.
 A-vector RMS=  1.7862560D-04 Max=  4.0244016D-04 conv= 1.00D-05.
 RLE energy=       -0.0147331606
 DE(Corr)= -0.14744291E-01 E(CORR)=     -839.90673909     Delta=-5.63D-05
 NORM(A)=   0.12410150D+01
 Iteration Nr.  22
 **********************
 DD1Dir will call FoFMem   1 times, MxPair=        10
 NAB=     0 NAA=    10 NBB=     0.
 A-vector RMS=  6.6581978D-05 Max=  1.3329210D-04 conv= 1.00D-05.
 RLE energy=       -0.0147466648
 DE(Corr)= -0.14729170E-01 E(CORR)=     -839.90672397     Delta= 1.51D-05
 NORM(A)=   0.12414168D+01
 Iteration Nr.  23
 **********************
 DD1Dir will call FoFMem   1 times, MxPair=        10
 NAB=     0 NAA=    10 NBB=     0.
 A-vector RMS=  5.5367007D-05 Max=  1.1088950D-04 conv= 1.00D-05.
 RLE energy=       -0.0147292718
 DE(Corr)= -0.14742795E-01 E(CORR)=     -839.90673759     Delta=-1.36D-05
 NORM(A)=   0.12409123D+01
 Iteration Nr.  24
 **********************
 DD1Dir will call FoFMem   1 times, MxPair=        10
 NAB=     0 NAA=    10 NBB=     0.
 A-vector RMS=  2.3749153D-05 Max=  8.7459680D-05 conv= 1.00D-05.
 RLE energy=       -0.0147662938
 DE(Corr)= -0.14730998E-01 E(CORR)=     -839.90672580     Delta= 1.18D-05
 NORM(A)=   0.12424885D+01
 Iteration Nr.  25
 **********************
 DD1Dir will call FoFMem   1 times, MxPair=        10
 NAB=     0 NAA=    10 NBB=     0.
 A-vector RMS=  1.7643859D-05 Max=  6.3114258D-05 conv= 1.00D-05.
 RLE energy=       -0.0147467154
 DE(Corr)= -0.14764596E-01 E(CORR)=     -839.90675939     Delta=-3.36D-05
 NORM(A)=   0.12417714D+01
 Iteration Nr.  26
 **********************
 DD1Dir will call FoFMem   1 times, MxPair=        10
 NAB=     0 NAA=    10 NBB=     0.
 A-vector RMS=  1.2813722D-05 Max=  4.9866055D-05 conv= 1.00D-05.
 RLE energy=       -0.0147410153
 DE(Corr)= -0.14747112E-01 E(CORR)=     -839.90674191     Delta= 1.75D-05
 NORM(A)=   0.12413670D+01
 Iteration Nr.  27
 **********************
 DD1Dir will call FoFMem   1 times, MxPair=        10
 NAB=     0 NAA=    10 NBB=     0.
 A-vector RMS=  1.4880685D-05 Max=  2.7827319D-05 conv= 1.00D-05.
 RLE energy=       -0.0147366795
 DE(Corr)= -0.14741843E-01 E(CORR)=     -839.90673664     Delta= 5.27D-06
 NORM(A)=   0.12411785D+01
 Iteration Nr.  28
 **********************
 DD1Dir will call FoFMem   1 times, MxPair=        10
 NAB=     0 NAA=    10 NBB=     0.
 A-vector RMS=  1.2295436D-05 Max=  2.4508552D-05 conv= 1.00D-05.
 RLE energy=       -0.0147476984
 DE(Corr)= -0.14737852E-01 E(CORR)=     -839.90673265     Delta= 3.99D-06
 NORM(A)=   0.12416354D+01
 Iteration Nr.  29
 **********************
 DD1Dir will call FoFMem   1 times, MxPair=        10
 NAB=     0 NAA=    10 NBB=     0.
 A-vector RMS=  2.2630108D-06 Max=  4.4750005D-06 conv= 1.00D-05.
 RLE energy=       -0.0147470467
 DE(Corr)= -0.14747589E-01 E(CORR)=     -839.90674239     Delta=-9.74D-06
 NORM(A)=   0.12416190D+01
 Iteration Nr.  30
 **********************
 DD1Dir will call FoFMem   1 times, MxPair=        10
 NAB=     0 NAA=    10 NBB=     0.
 A-vector RMS=  1.3849499D-06 Max=  2.9072321D-06 conv= 1.00D-05.
 RLE energy=       -0.0147469690
 DE(Corr)= -0.14746979E-01 E(CORR)=     -839.90674178     Delta= 6.10D-07
 NORM(A)=   0.12416184D+01
 Iteration Nr.  31
 **********************
 DD1Dir will call FoFMem   1 times, MxPair=        10
 NAB=     0 NAA=    10 NBB=     0.
 A-vector RMS=  7.5113311D-07 Max=  1.4013374D-06 conv= 1.00D-05.
 RLE energy=       -0.0147462065
 DE(Corr)= -0.14746889E-01 E(CORR)=     -839.90674169     Delta= 8.93D-08
 NORM(A)=   0.12415950D+01
 CI/CC converged in   31 iterations to DelEn= 8.93D-08 Conv= 1.00D-07 ErrA1= 7.51D-07 Conv= 1.00D-05
 Wavefunction amplitudes converged. E(Corr)=     -839.90674169    
 Dominant configurations:
 ***********************
 Spin Case        I    J    A    B          Value
    AA           14        16            0.127703D+00
    AA           13        15            0.127703D+00
   AAAA          14   13   16   15      -0.294466D+00
   AAAA          12   13   17   16       0.386483D+00
   AAAA          12   13   18   16       0.236300D+00
   AAAA          12   14   17   15       0.386483D+00
   AAAA          12   14   18   15      -0.236300D+00
 Largest amplitude= 3.86D-01
 Discarding MO integrals.
 Leave Link  913 at Mon Mar 28 12:45:45 2022, MaxMem=  9663676416 cpu:               8.1 elap:               0.3
 (Enter /nopt/nrel/apps/gaussian/g16C_1/g16/l601.exe)
 Copying SCF densities to generalized density rwf, IOpCl= 1 IROHF=0.

 **********************************************************************

            Population analysis using the SCF Density.

 **********************************************************************

 Orbital symmetries:
 Alpha Orbitals:
       Occupied  (SG) (SG) (SG) (PI) (PI) (SG) (SG) (PI) (PI) (SG)
                 (SG) (DLTA) (PI) (PI)
       Virtual   (PI) (PI) (SG) (DLTA) (SG)
 Beta  Orbitals:
       Occupied  (SG) (SG) (SG) (PI) (PI) (SG) (SG) (PI) (PI)
       Virtual   (SG) (SG) (PI) (PI) (SG) (DLTA) (PI) (PI) (DLTA)
                 (SG)
 Unable to determine electronic state:  partially filled degenerate orbitals.
 Alpha  occ. eigenvalues -- -181.46088 -21.22791 -17.81193 -17.81040 -17.81040
 Alpha  occ. eigenvalues --   -2.88257  -1.84170  -1.82836  -1.82836  -0.56042
 Alpha  occ. eigenvalues --   -0.17396  -0.08818  -0.06333  -0.06333
 Alpha virt. eigenvalues --    0.30212   0.30212   0.30508   0.39675   0.70251
  Beta  occ. eigenvalues -- -181.45319 -21.21338 -17.80262 -17.79916 -17.79916
  Beta  occ. eigenvalues --   -2.76398  -1.71336  -1.68157  -1.68157
  Beta virt. eigenvalues --    0.13704   0.27011   0.42667   0.42667   0.43099
  Beta virt. eigenvalues --    0.49489   0.49697   0.49697   0.52168   0.92369
          Condensed to atoms (all electrons):
               1          2
     1  H    0.742127   0.062938
     2  Ti   0.062938  22.131997
          Atomic-Atomic Spin Densities.
               1          2
     1  H    0.741579   0.057464
     2  Ti   0.057464   4.143493
 Mulliken charges and spin densities:
               1          2
     1  H    0.194935   0.799043
     2  Ti  -0.194935   4.200957
 Sum of Mulliken charges =  -0.00000   5.00000
 Mulliken charges and spin densities with hydrogens summed into heavy atoms:
               1          2
     2  Ti  -0.000000   5.000000
 N-N= 7.276186650150D+00 E-N=-2.001828716091D+03  KE= 8.368520785355D+02
 Symmetry A1   KE= 6.584509422486D+02
 Symmetry A2   KE= 1.800435099804D+00
 Symmetry B1   KE= 8.830035059356D+01
 Symmetry B2   KE= 8.830035059356D+01
 Symmetry A1   SP= 2.000000000000D+00
 Symmetry A2   SP= 1.000000000000D+00
 Symmetry B1   SP= 1.000000000000D+00
 Symmetry B2   SP= 1.000000000000D+00

 Atomic contributions to Alpha molecular orbitals:
 Alpha occ 1 OE=-181.461 is Ti2-s=1.0000
 Alpha occ 2 OE=-21.228 is Ti2-s=0.9999
 Alpha occ 3 OE=-17.812 is Ti2-p=1.0000
 Alpha occ 4 OE=-17.810 is Ti2-p=1.0000
 Alpha occ 5 OE=-17.810 is Ti2-p=1.0000
 Alpha occ 6 OE=-2.883 is Ti2-s=0.9979
 Alpha occ 7 OE=-1.842 is Ti2-p=0.9940
 Alpha occ 8 OE=-1.828 is Ti2-p=0.9998
 Alpha occ 9 OE=-1.828 is Ti2-p=0.9998
 Alpha occ 10 OE=-0.560 is H1-s=0.7572 Ti2-s=0.1164
 Alpha occ 11 OE=-0.174 is Ti2-s=0.8112
 Alpha occ 12 OE=-0.088 is Ti2-d=1.0000
 Alpha occ 13 OE=-0.063 is Ti2-d=0.5957 Ti2-p=0.4043
 Alpha occ 14 OE=-0.063 is Ti2-d=0.5957 Ti2-p=0.4043
 Alpha vir 15 OE=0.302 is Ti2-p=0.5959 Ti2-d=0.4041
 Alpha vir 16 OE=0.302 is Ti2-p=0.5959 Ti2-d=0.4041
 Alpha vir 17 OE=0.305 is Ti2-d=0.5201 Ti2-p=0.4842
 Alpha vir 18 OE=0.397 is Ti2-d=1.0000
 Alpha vir 19 OE=0.703 is Ti2-d=0.3661 Ti2-p=0.3582 H1-s=0.2032

 Atomic contributions to Beta  molecular orbitals:
 Beta  occ 1 OE=-181.453 is Ti2-s=1.0000
 Beta  occ 2 OE=-21.213 is Ti2-s=0.9998
 Beta  occ 3 OE=-17.803 is Ti2-p=0.9999
 Beta  occ 4 OE=-17.799 is Ti2-p=1.0000
 Beta  occ 5 OE=-17.799 is Ti2-p=1.0000
 Beta  occ 6 OE=-2.764 is Ti2-s=0.9982
 Beta  occ 7 OE=-1.713 is Ti2-p=0.9985
 Beta  occ 8 OE=-1.682 is Ti2-p=1.0000
 Beta  occ 9 OE=-1.682 is Ti2-p=1.0000
 Beta  vir 10 OE=0.137 is Ti2-s=0.4653 H1-s=0.4470
 Beta  vir 11 OE=0.270 is Ti2-p=0.3967 Ti2-s=0.3909 H1-s=0.1838
 Beta  vir 12 OE=0.427 is Ti2-p=0.7598 Ti2-d=0.2402
 Beta  vir 13 OE=0.427 is Ti2-p=0.7598 Ti2-d=0.2402
 Beta  vir 14 OE=0.431 is Ti2-d=0.6817 Ti2-p=0.2579
 Beta  vir 15 OE=0.495 is Ti2-d=1.0000
 Beta  vir 16 OE=0.497 is Ti2-d=0.7598 Ti2-p=0.2402
 Beta  vir 17 OE=0.497 is Ti2-d=0.7598 Ti2-p=0.2402
 Beta  vir 18 OE=0.522 is Ti2-d=1.0000
 Beta  vir 19 OE=0.924 is H1-s=0.3692 Ti2-p=0.3304 Ti2-d=0.2183
 
 Leave Link  601 at Mon Mar 28 12:45:45 2022, MaxMem=  9663676416 cpu:               2.4 elap:               0.1
 (Enter /nopt/nrel/apps/gaussian/g16C_1/g16/l9999.exe)

 Test job not archived.
 1\1\GINC-R3I7N35\SP\UCCSD-FC\Gen\H1Ti1(6)\USER\28-Mar-2022\0\\#P C
 CSD(MaxCyc=300,SaveAmplitudes,ReadAmplitudes)/GEN sp pop=AllOrbitals i
 op(3/33=1,3/36=-1)\\test\\0,6\H,0,0.,0.,0.\Ti,0,0.,0.,1.6\\Version=ES6
 4L-G16RevC.01\HF=-839.8919948\MP2=-839.893642\MP3=-839.8948681\MP4D=-8
 39.8958316\MP4DQ=-839.8958287\MP4SDQ=-839.8958304\CCSD=-839.9067417\S2
 =8.752021\S2-1=0.\S2A=8.750001\RMSD=4.503e-09\PG=C*V [C*(H1Ti1)]\\@


 IT'S WHAT YOU LEARN AFTER YOU KNOW IT ALL
 THAT COUNTS.
 Job cpu time:       0 days  0 hours  0 minutes 39.5 seconds.
 Elapsed time:       0 days  0 hours  0 minutes  1.5 seconds.
 File lengths (MBytes):  RWF=     13 Int=      0 D2E=      0 Chk=      1 Scr=      1
 Normal termination of Gaussian 16 at Mon Mar 28 12:45:45 2022.
