 Entering Gaussian System, Link 0=g16
 Initial command:
 /nopt/nrel/apps/gaussian/g16C_1/g16/l1.exe "/lustre/eaglefs/scratch/user/qc/nah-dissc/nah-3-ccsd-1.5-sto3g/Gau-21768.inp" -scrdir="/lustre/eaglefs/scratch/user/qc/nah-dissc/nah-3-ccsd-1.5-sto3g/"
 Default is to use a total of  36 processors:
                               36 via shared-memory
                                1 via Linda
 Entering Link 1 = /nopt/nrel/apps/gaussian/g16C_1/g16/l1.exe PID=     21769.
  
 Copyright (c) 1988-2019, Gaussian, Inc.  All Rights Reserved.
  
 This is part of the Gaussian(R) 16 program.  It is based on
 the Gaussian(R) 09 system (copyright 2009, Gaussian, Inc.),
 the Gaussian(R) 03 system (copyright 2003, Gaussian, Inc.),
 the Gaussian(R) 98 system (copyright 1998, Gaussian, Inc.),
 the Gaussian(R) 94 system (copyright 1995, Gaussian, Inc.),
 the Gaussian 92(TM) system (copyright 1992, Gaussian, Inc.),
 the Gaussian 90(TM) system (copyright 1990, Gaussian, Inc.),
 the Gaussian 88(TM) system (copyright 1988, Gaussian, Inc.),
 the Gaussian 86(TM) system (copyright 1986, Carnegie Mellon
 University), and the Gaussian 82(TM) system (copyright 1983,
 Carnegie Mellon University). Gaussian is a federally registered
 trademark of Gaussian, Inc.
  
 This software contains proprietary and confidential information,
 including trade secrets, belonging to Gaussian, Inc.
  
 This software is provided under written license and may be
 used, copied, transmitted, or stored only in accord with that
 written license.
  
 The following legend is applicable only to US Government
 contracts under FAR:
  
                    RESTRICTED RIGHTS LEGEND
  
 Use, reproduction and disclosure by the US Government is
 subject to restrictions as set forth in subparagraphs (a)
 and (c) of the Commercial Computer Software - Restricted
 Rights clause in FAR 52.227-19.
  
 Gaussian, Inc.
 340 Quinnipiac St., Bldg. 40, Wallingford CT 06492
  
  
 ---------------------------------------------------------------
 Warning -- This program may not be used in any manner that
 competes with the business of Gaussian, Inc. or will provide
 assistance to any competitor of Gaussian, Inc.  The licensee
 of this program is prohibited from giving any competitor of
 Gaussian, Inc. access to this program.  By using this program,
 the user acknowledges that Gaussian, Inc. is engaged in the
 business of creating and licensing software in the field of
 computational chemistry and represents and warrants to the
 licensee that it is not a competitor of Gaussian, Inc. and that
 it will not use this program in any manner prohibited above.
 ---------------------------------------------------------------
  

 Cite this work as:
 Gaussian 16, Revision C.01,
 M. J. Frisch, G. W. Trucks, H. B. Schlegel, G. E. Scuseria, 
 M. A. Robb, J. R. Cheeseman, G. Scalmani, V. Barone, 
 G. A. Petersson, H. Nakatsuji, X. Li, M. Caricato, A. V. Marenich, 
 J. Bloino, B. G. Janesko, R. Gomperts, B. Mennucci, H. P. Hratchian, 
 J. V. Ortiz, A. F. Izmaylov, J. L. Sonnenberg, D. Williams-Young, 
 F. Ding, F. Lipparini, F. Egidi, J. Goings, B. Peng, A. Petrone, 
 T. Henderson, D. Ranasinghe, V. G. Zakrzewski, J. Gao, N. Rega, 
 G. Zheng, W. Liang, M. Hada, M. Ehara, K. Toyota, R. Fukuda, 
 J. Hasegawa, M. Ishida, T. Nakajima, Y. Honda, O. Kitao, H. Nakai, 
 T. Vreven, K. Throssell, J. A. Montgomery, Jr., J. E. Peralta, 
 F. Ogliaro, M. J. Bearpark, J. J. Heyd, E. N. Brothers, K. N. Kudin, 
 V. N. Staroverov, T. A. Keith, R. Kobayashi, J. Normand, 
 K. Raghavachari, A. P. Rendell, J. C. Burant, S. S. Iyengar, 
 J. Tomasi, M. Cossi, J. M. Millam, M. Klene, C. Adamo, R. Cammi, 
 J. W. Ochterski, R. L. Martin, K. Morokuma, O. Farkas, 
 J. B. Foresman, and D. J. Fox, Gaussian, Inc., Wallingford CT, 2019.
 
 ******************************************
 Gaussian 16:  ES64L-G16RevC.01  3-Jul-2019
                28-Mar-2022 
 ******************************************
 %chk=molecule
 Default route: CacheSize=180224 MaxDisk=256GB
 ----------------------------------------------------------------------
 #P CCSD(MaxCyc=200,SaveAmplitudes,ReadAmplitudes)/GEN sp pop=AllOrbita
 ls iop(3/33=1,3/36=-1)
 ----------------------------------------------------------------------
 1/4=180224,38=1,172=1/1;
 2/4=180224,12=2,17=6,18=5,40=1/2;
 3/4=180224,5=7,11=9,25=1,30=1,33=1,36=-1/1,2,3;
 4/4=180224/1;
 5/4=180224,5=2,38=5/2;
 8/4=180224,6=4,9=120000,10=1,24=1/1,4;
 9/4=180224,5=7,6=200,77=1/13;
 6/4=180224,7=2,8=2,9=2,10=2,96=-1/1;
 99/4=180224,5=1,9=1/99;
 Leave Link    1 at Mon Mar 28 14:23:47 2022, MaxMem=           0 cpu:               2.3 elap:               0.1
 (Enter /nopt/nrel/apps/gaussian/g16C_1/g16/l101.exe)
 ----
 test
 ----
 Symbolic Z-matrix:
 Charge =  0 Multiplicity = 3
 H                     0.        0.        0. 
 Na                    0.        0.        1.5 
 
 ITRead=  0  0
 MicOpt= -1 -1
 NAtoms=      2 NQM=        2 NQMF=       0 NMMI=      0 NMMIF=      0
                NMic=       0 NMicF=      0.
                    Isotopes and Nuclear Properties:
 (Nuclear quadrupole moments (NQMom) in fm**2, nuclear magnetic moments (NMagM)
  in nuclear magnetons)

  Atom         1           2
 IAtWgt=           1          23
 AtmWgt=   1.0078250  22.9897697
 NucSpn=           1           3
 AtZEff=  -0.0000000  -0.0000000
 NQMom=    0.0000000  10.4000000
 NMagM=    2.7928460   2.2175200
 AtZNuc=   1.0000000  11.0000000
 Leave Link  101 at Mon Mar 28 14:23:47 2022, MaxMem=  9663676416 cpu:               3.0 elap:               0.1
 (Enter /nopt/nrel/apps/gaussian/g16C_1/g16/l202.exe)
                          Input orientation:                          
 ---------------------------------------------------------------------
 Center     Atomic      Atomic             Coordinates (Angstroms)
 Number     Number       Type             X           Y           Z
 ---------------------------------------------------------------------
      1          1           0        0.000000    0.000000    0.000000
      2         11           0        0.000000    0.000000    1.500000
 ---------------------------------------------------------------------
 Stoichiometry    HNa(3)
 Framework group  C*V[C*(HNa)]
 Deg. of freedom     1
 Full point group                 C*V     NOp   4
 Largest Abelian subgroup         C2V     NOp   4
 Largest concise Abelian subgroup C1      NOp   1
                         Standard orientation:                         
 ---------------------------------------------------------------------
 Center     Atomic      Atomic             Coordinates (Angstroms)
 Number     Number       Type             X           Y           Z
 ---------------------------------------------------------------------
      1          1           0        0.000000    0.000000   -1.375000
      2         11           0        0.000000    0.000000    0.125000
 ---------------------------------------------------------------------
 Rotational constants (GHZ):           0.0000000         232.6390590         232.6390590
 Leave Link  202 at Mon Mar 28 14:23:47 2022, MaxMem=  9663676416 cpu:               0.5 elap:               0.0
 (Enter /nopt/nrel/apps/gaussian/g16C_1/g16/l301.exe)
 General basis read from cards:  (5D, 7F)
                         Coordinates in L301:                         
 ---------------------------------------------------------------------
 Center     Atomic      Atomic             Coordinates (Angstroms)
 Number     Number       Type             X           Y           Z
 ---------------------------------------------------------------------
      1          1           0        0.000000    0.000000   -1.375000
      2         11           0        0.000000    0.000000    0.125000
 ---------------------------------------------------------------------
 Centers:       1
 STO-3G
 ****
 Centers:       2
 STO-3G
 ****
 FixB: optimizing general contractions.
 Ernie: Thresh=  0.10000D-02 Tol=  0.10000D-05 Strict=F.
 IA=     1 ShT= 0 ShC= 0 NL=   1 NS=   0.
 IA=     1 L=0 SC=0 ISt=    0 NBk=    0 NP=    0 IndPr=    0.
 IA=     2 ShT= 0 ShC= 0 NL=   1 NS=   0.
 IA=     2 L=0 SC=0 ISt=    0 NBk=    0 NP=    0 IndPr=    0.
 IA=     2 ShT= 1 ShC= 0 NL=   2 NS=   0.
 IA=     2 L=1 SC=0 ISt=    1 NBk=    2 NP=    6 IndPr=    0.
 DoElim1:  L=1 select primitive    1 from    2 using    1 C=-1.00D-01
 DoElim2:  L=1 select primitive    6 from    1 using    2 C= 9.00D-01
 DoElim1:  L=1 select primitive    1 from    2 using    1 C= 1.56D-01
 DoElim2:  L=1 select primitive    5 from    1 using    2 C= 5.95D-01
 Delete L=1 primitive    4 from    2 C=  0.00D+00.
 Delete L=1 primitive    2 from    2 C=  0.00D+00.
 Delete L=1 primitive    1 from    2 C=  0.00D+00.
 Delete L=1 primitive    6 from    1 C=  0.00D+00.
 Delete L=1 primitive    5 from    1 C=  0.00D+00.
 Delete L=1 primitive    3 from    1 C=  0.00D+00.
 IA=     2 L=1 SC=0 ISt=    0 NBk=    0 NP=    0 IndPr=    6.
 LdAtmC:  AtmChg=     1.000000    11.000000
 AtZEff=     -1.0000000    -10.0400000
 NEqShl: 
              1            2            3            4
     1            1            1            1            1
     2            2            2            2            2
     3            3            3            3            3
     4            4            4            4            4
 NEqBas: 
              1            2            3            4
     1            1            1            1            1
     2            2            2            2            2
     3            3            3            3            3
     4            4           -4           -4            4
     5            5           -5            5           -5
     6            6            6            6            6
     7            7            7            7            7
     8            8           -8           -8            8
     9            9           -9            9           -9
    10           10           10           10           10
 There are     6 symmetry adapted cartesian basis functions of A1  symmetry.
   1         1   1   1   1
   2         2   2   2   2
   3         3   3   3   3
   4         6   6   6   6
   5         7   7   7   7
   6        10  10  10  10
 There are     0 symmetry adapted cartesian basis functions of A2  symmetry.
 There are     2 symmetry adapted cartesian basis functions of B1  symmetry.
   7         4   4   4   4
   8         8   8   8   8
 There are     2 symmetry adapted cartesian basis functions of B2  symmetry.
   9         5   5   5   5
  10         9   9   9   9
 Order= 1 2 4 3
 Reordered character table:
              1            2            3            4            5
     1            1            1            1            1            1
     2            2            1            1           -1           -1
     3            4            1           -1           -1            1
     4            3            1           -1            1           -1
 NEqShl: 
              1            2            3            4
     1            1            1            1            1
     2            2            2            2            2
     3            3            3            3            3
     4            4            4            4            4
 NEqBas: 
              1            2            3            4
     1            1            1            1            1
     2            2            2            2            2
     3            3            3            3            3
     4            4           -4           -4            4
     5            5           -5            5           -5
     6            6            6            6            6
     7            7            7            7            7
     8            8           -8           -8            8
     9            9           -9            9           -9
    10           10           10           10           10
 There are     6 symmetry adapted basis functions of A1  symmetry.
   1         1   1   1   1
   2         2   2   2   2
   3         3   3   3   3
   4         6   6   6   6
   5         7   7   7   7
   6        10  10  10  10
 There are     0 symmetry adapted basis functions of A2  symmetry.
 There are     2 symmetry adapted basis functions of B1  symmetry.
   7         4   4   4   4
   8         8   8   8   8
 There are     2 symmetry adapted basis functions of B2  symmetry.
   9         5   5   5   5
  10         9   9   9   9
 Order= 1 2 4 3
 Reordered character table:
              1            2            3            4            5
     1            1            1            1            1            1
     2            2            1            1           -1           -1
     3            4            1           -1           -1            1
     4            3            1           -1            1           -1
    10 basis functions,    30 primitive gaussians,    10 cartesian basis functions
     7 alpha electrons        5 beta electrons
       nuclear repulsion energy         3.8806328801 Hartrees.
 IS=     1 IAt=     1 ISR=     1 T=0 IP=      1 IndIP=      1 IndIPD=      0 C=  2.769344D-01  0.000000D+00                             NZ=T
 IS=     1 IAt=     1 ISR=     1 T=0 IP=      2 IndIP=      2 IndIPD=      1 C=  2.678389D-01  0.000000D+00                             NZ=T
 IS=     1 IAt=     1 ISR=     1 T=0 IP=      3 IndIP=      3 IndIPD=      2 C=  8.347367D-02  0.000000D+00                             NZ=T
 IS=     2 IAt=     2 ISR=     1 T=0 IP=      1 IndIP=      4 IndIPD=      0 C=  6.931343D+00  0.000000D+00                             NZ=T
 IS=     2 IAt=     2 ISR=     1 T=0 IP=      2 IndIP=      5 IndIPD=      1 C=  6.703693D+00  0.000000D+00                             NZ=T
 IS=     2 IAt=     2 ISR=     1 T=0 IP=      3 IndIP=      6 IndIPD=      2 C=  2.089248D+00  0.000000D+00                             NZ=T
 IS=     3 IAt=     2 ISR=     2 T=1 IP=      1 IndIP=      7 IndIPD=      0 C= -4.605140D-01  4.984520D+00                             NZ=T
 IS=     3 IAt=     2 ISR=     2 T=1 IP=      2 IndIP=      8 IndIPD=      1 C=  6.159747D-01  3.134400D+00                             NZ=T
 IS=     3 IAt=     2 ISR=     2 T=1 IP=      3 IndIP=      9 IndIPD=      2 C=  4.648853D-01  4.965416D-01                             NZ=T
 IS=     4 IAt=     2 ISR=     3 T=1 IP=      1 IndIP=     10 IndIPD=      0 C= -2.098948D-01  2.460950D-02                             NZ=T
 IS=     4 IAt=     2 ISR=     3 T=1 IP=      2 IndIP=     11 IndIPD=      1 C=  8.276745D-02  2.805074D-01                             NZ=T
 IS=     4 IAt=     2 ISR=     3 T=1 IP=      3 IndIP=     12 IndIPD=      2 C=  1.634647D-01  6.740855D-02                             NZ=T
 IExCor=    0 DFT=F Ex=HF Corr=None ExCW=0 ScaHFX=  1.000000
 ScaDFX=  1.000000  1.000000  1.000000  1.000000 ScalE2=  1.000000  1.000000
 IRadAn=      5 IRanWt=     -1 IRanGd=            0 ICorTp=0 IEmpDi=  4
 NAtoms=    2 NActive=    2 NUniq=    2 SFac= 1.00D+00 NAtFMM=   60 NAOKFM=F Big=F
 Integral buffers will be    131072 words long.
 Raffenetti 2 integral format.
 Two-electron integral symmetry is turned on.
 Leave Link  301 at Mon Mar 28 14:23:47 2022, MaxMem=  9663676416 cpu:               2.1 elap:               0.1
 (Enter /nopt/nrel/apps/gaussian/g16C_1/g16/l302.exe)
 NPDir=0 NMtPBC=     1 NCelOv=     1 NCel=       1 NClECP=     1 NCelD=      1
         NCelK=      1 NCelE2=     1 NClLst=     1 CellRange=     0.0.
 One-electron integrals computed using PRISM.
 One-electron integral symmetry used in STVInt
 Entering OneElI...
 Calculate overlap and kinetic energy integrals
    NBasis =  10  MinDer = 0  MaxDer = 0
 Requested accuracy = 0.1000D-12
 Symmetry will be used
 PrmmSu-InSpLW:  IPartL=    0 NPrtUS=   36 NPrtUL=    1 DoSpLW=F IThBeg=    0 IThEnd=   35 NThAct=   36.
 PrSmSu:  IncTry=   512 NBBP=             10 NTPThr=   100 NPartT=   36 Incr=           1 LDynOK=F GPUOK=F.
 PrsmSu:  NPrtUS=  36 ThrOK=T IAlg=1 LenDen=           0 ISkipM=0 DoSpLW=F IThBeg=    0 IThEnd=   35.
 Prism:   IPart=     0 DynPar=F LinDyn=F Incr=           1.
 PRISM was handed   268433911 working-precision words and    10 shell-pairs
 PRISM was handed   268433911 working-precision words and    10 shell-pairs
 PRISM was handed   268433911 working-precision words and    10 shell-pairs
 PRISM was handed   268433911 working-precision words and    10 shell-pairs
 PRISM was handed   268433911 working-precision words and    10 shell-pairs
 PRISM was handed   268433911 working-precision words and    10 shell-pairs
 PRISM was handed   268433911 working-precision words and    10 shell-pairs
 PRISM was handed   268433911 working-precision words and    10 shell-pairs
 PRISM was handed   268433911 working-precision words and    10 shell-pairs
 PRISM was handed   268433911 working-precision words and    10 shell-pairs
 PRISM was handed   268433911 working-precision words and    10 shell-pairs
 PRISM was handed   268433911 working-precision words and    10 shell-pairs
 PRISM was handed   268433911 working-precision words and    10 shell-pairs
 IPart= 22 NShTot=           0 NBatch=           0 AvBLen=         0.0
 IPart= 30 NShTot=           0 NBatch=           0 AvBLen=         0.0
 IPart= 19 NShTot=           0 NBatch=           0 AvBLen=         0.0
 IPart=  5 NShTot=           0 NBatch=           0 AvBLen=         0.0
 IPart= 26 NShTot=           0 NBatch=           0 AvBLen=         0.0
 IPart= 11 NShTot=           0 NBatch=           0 AvBLen=         0.0
 IPart= 32 NShTot=           0 NBatch=           0 AvBLen=         0.0
 IPart= 21 NShTot=           0 NBatch=           0 AvBLen=         0.0
 IPart= 14 NShTot=           0 NBatch=           0 AvBLen=         0.0
 IPart=  6 NShTot=           0 NBatch=           0 AvBLen=         0.0
 IPart= 24 NShTot=           0 NBatch=           0 AvBLen=         0.0
 IPart= 10 NShTot=           0 NBatch=           0 AvBLen=         0.0
 PRISM was handed   268433911 working-precision words and    10 shell-pairs
 PRISM was handed   268433911 working-precision words and    10 shell-pairs
 PRISM was handed   268433911 working-precision words and    10 shell-pairs
 IPart= 16 NShTot=           0 NBatch=           0 AvBLen=         0.0
 IPart=  3 NShTot=           1 NBatch=           1 AvBLen=         1.0
 IPart=  1 NShTot=           3 NBatch=           3 AvBLen=         1.0
 PRISM was handed   268433911 working-precision words and    10 shell-pairs
 PRISM was handed   268433911 working-precision words and    10 shell-pairs
 PRISM was handed   268433911 working-precision words and    10 shell-pairs
 PRISM was handed   268433911 working-precision words and    10 shell-pairs
 PRISM was handed   268433911 working-precision words and    10 shell-pairs
 PRISM was handed   268433911 working-precision words and    10 shell-pairs
 PRISM was handed   268433911 working-precision words and    10 shell-pairs
 PRISM was handed   268433911 working-precision words and    10 shell-pairs
 IPart=  7 NShTot=           0 NBatch=           0 AvBLen=         0.0
 IPart=  0 NShTot=           3 NBatch=           3 AvBLen=         1.0
 IPart= 13 NShTot=           0 NBatch=           0 AvBLen=         0.0
 IPart=  8 NShTot=           0 NBatch=           0 AvBLen=         0.0
 IPart= 18 NShTot=           0 NBatch=           0 AvBLen=         0.0
 IPart= 20 NShTot=           0 NBatch=           0 AvBLen=         0.0
 PRISM was handed   268433911 working-precision words and    10 shell-pairs
 PRISM was handed   268433911 working-precision words and    10 shell-pairs
 PRISM was handed   268433911 working-precision words and    10 shell-pairs
 IPart=  9 NShTot=           0 NBatch=           0 AvBLen=         0.0
 PRISM was handed   268433911 working-precision words and    10 shell-pairs
 PRISM was handed   268433911 working-precision words and    10 shell-pairs
 PRISM was handed   268433911 working-precision words and    10 shell-pairs
 IPart= 17 NShTot=           0 NBatch=           0 AvBLen=         0.0
 IPart= 35 NShTot=           0 NBatch=           0 AvBLen=         0.0
 PRISM was handed   268433911 working-precision words and    10 shell-pairs
 IPart= 27 NShTot=           0 NBatch=           0 AvBLen=         0.0
 IPart= 28 NShTot=           0 NBatch=           0 AvBLen=         0.0
 IPart= 34 NShTot=           0 NBatch=           0 AvBLen=         0.0
 PRISM was handed   268433911 working-precision words and    10 shell-pairs
 PRISM was handed   268433911 working-precision words and    10 shell-pairs
 PRISM was handed   268433911 working-precision words and    10 shell-pairs
 IPart= 25 NShTot=           0 NBatch=           0 AvBLen=         0.0
 IPart= 31 NShTot=           0 NBatch=           0 AvBLen=         0.0
 PRISM was handed   268433911 working-precision words and    10 shell-pairs
 IPart= 33 NShTot=           0 NBatch=           0 AvBLen=         0.0
 PRISM was handed   268433911 working-precision words and    10 shell-pairs
 IPart=  2 NShTot=           3 NBatch=           3 AvBLen=         1.0
 IPart= 23 NShTot=           0 NBatch=           0 AvBLen=         0.0
 IPart= 12 NShTot=           0 NBatch=           0 AvBLen=         0.0
 IPart=  4 NShTot=           0 NBatch=           0 AvBLen=         0.0
 IPart= 29 NShTot=           0 NBatch=           0 AvBLen=         0.0
 IPart= 15 NShTot=           0 NBatch=           0 AvBLen=         0.0
 PrSmSu:  NxtVal=             37.
 *** Overlap *** 
                1             2             3             4             5 
      1  0.100000D+01
      2  0.935410D-02  0.100000D+01
      3  0.968486D-01  0.278512D+00  0.100000D+01
      4  0.000000D+00  0.000000D+00  0.000000D+00  0.100000D+01
      5  0.000000D+00  0.000000D+00  0.000000D+00  0.000000D+00  0.100000D+01
      6 -0.725391D-01  0.000000D+00  0.000000D+00  0.000000D+00  0.000000D+00
      7  0.375131D+00  0.222827D-01  0.449490D+00  0.000000D+00  0.000000D+00
      8  0.000000D+00  0.000000D+00  0.000000D+00  0.461768D+00  0.000000D+00
      9  0.000000D+00  0.000000D+00  0.000000D+00  0.000000D+00  0.461768D+00
     10 -0.443968D+00  0.000000D+00  0.000000D+00  0.000000D+00  0.000000D+00
                6             7             8             9            10 
      6  0.100000D+01
      7  0.000000D+00  0.100000D+01
      8  0.000000D+00  0.000000D+00  0.100000D+01
      9  0.000000D+00  0.000000D+00  0.000000D+00  0.100000D+01
     10  0.461768D+00  0.000000D+00  0.000000D+00  0.000000D+00  0.100000D+01
 *** Kinetic Energy *** 
                1             2             3             4             5 
      1  0.760032D+00
      2 -0.277491D-02  0.556441D+02
      3 -0.205100D-01 -0.216342D+00  0.193319D+01
      4  0.000000D+00  0.000000D+00  0.000000D+00  0.604917D+01
      5  0.000000D+00  0.000000D+00  0.000000D+00  0.000000D+00  0.604917D+01
      6  0.532657D-02  0.000000D+00  0.000000D+00  0.000000D+00  0.000000D+00
      7  0.481070D-01 -0.231638D+00 -0.720563D-01  0.000000D+00  0.000000D+00
      8  0.000000D+00  0.000000D+00  0.000000D+00  0.652802D+00  0.000000D+00
      9  0.000000D+00  0.000000D+00  0.000000D+00  0.000000D+00  0.652802D+00
     10 -0.140210D+00  0.000000D+00  0.000000D+00  0.000000D+00  0.000000D+00
                6             7             8             9            10 
      6  0.604917D+01
      7  0.000000D+00  0.304040D+00
      8  0.000000D+00  0.000000D+00  0.711196D+00
      9  0.000000D+00  0.000000D+00  0.000000D+00  0.711196D+00
     10  0.652802D+00  0.000000D+00  0.000000D+00  0.000000D+00  0.711196D+00
 Entering OneElI...
 Calculate potential energy integrals
    NBasis =  10  MinDer = 0  MaxDer = 0
 Requested accuracy = 0.1000D-12
 Symmetry will be used
 PrmmSu-InSpLW:  IPartL=    0 NPrtUS=   36 NPrtUL=    1 DoSpLW=F IThBeg=    0 IThEnd=   35 NThAct=   36.
 PrSmSu:  IncTry=   512 NBBP=             20 NTPThr=   100 NPartT=   36 Incr=           1 LDynOK=F GPUOK=F.
 PrsmSu:  NPrtUS=  36 ThrOK=T IAlg=1 LenDen=           0 ISkipM=0 DoSpLW=F IThBeg=    0 IThEnd=   35.
 Prism:   IPart=     0 DynPar=F LinDyn=F Incr=           1.
 PRISM was handed   268433953 working-precision words and    10 shell-pairs
 PRISM was handed   268433953 working-precision words and    10 shell-pairs
 PRISM was handed   268433953 working-precision words and    10 shell-pairs
 PRISM was handed   268433953 working-precision words and    10 shell-pairs
 PRISM was handed   268433953 working-precision words and    10 shell-pairs
 PRISM was handed   268433953 working-precision words and    10 shell-pairs
 PRISM was handed   268433953 working-precision words and    10 shell-pairs
 PRISM was handed   268433953 working-precision words and    10 shell-pairs
 PRISM was handed   268433953 working-precision words and    10 shell-pairs
 PRISM was handed   268433953 working-precision words and    10 shell-pairs
 PRISM was handed   268433953 working-precision words and    10 shell-pairs
 PRISM was handed   268433953 working-precision words and    10 shell-pairs
 PRISM was handed   268433953 working-precision words and    10 shell-pairs
 PRISM was handed   268433953 working-precision words and    10 shell-pairs
 PRISM was handed   268433953 working-precision words and    10 shell-pairs
 PRISM was handed   268433953 working-precision words and    10 shell-pairs
 PRISM was handed   268433953 working-precision words and    10 shell-pairs
 PRISM was handed   268433953 working-precision words and    10 shell-pairs
 PRISM was handed   268433953 working-precision words and    10 shell-pairs
 PRISM was handed   268433953 working-precision words and    10 shell-pairs
 PRISM was handed   268433953 working-precision words and    10 shell-pairs
 PRISM was handed   268433953 working-precision words and    10 shell-pairs
 PRISM was handed   268433953 working-precision words and    10 shell-pairs
 PRISM was handed   268433953 working-precision words and    10 shell-pairs
 PRISM was handed   268433953 working-precision words and    10 shell-pairs
 PRISM was handed   268433953 working-precision words and    10 shell-pairs
 PRISM was handed   268433953 working-precision words and    10 shell-pairs
 PRISM was handed   268433953 working-precision words and    10 shell-pairs
 PRISM was handed   268433953 working-precision words and    10 shell-pairs
 PRISM was handed   268433953 working-precision words and    10 shell-pairs
 PRISM was handed   268433953 working-precision words and    10 shell-pairs
 PRISM was handed   268433953 working-precision words and    10 shell-pairs
 PRISM was handed   268433953 working-precision words and    10 shell-pairs
 PRISM was handed   268433953 working-precision words and    10 shell-pairs
 PRISM was handed   268433953 working-precision words and    10 shell-pairs
 PRISM was handed   268433953 working-precision words and    10 shell-pairs
 IPart=  3 NShTot=           2 NBatch=           1 AvBLen=         2.0
 IPart=  1 NShTot=           6 NBatch=           3 AvBLen=         2.0
 IPart=  2 NShTot=           6 NBatch=           3 AvBLen=         2.0
 IPart= 30 NShTot=           0 NBatch=           0 AvBLen=         0.0
 IPart= 25 NShTot=           0 NBatch=           0 AvBLen=         0.0
 IPart=  7 NShTot=           0 NBatch=           0 AvBLen=         0.0
 IPart=  5 NShTot=           0 NBatch=           0 AvBLen=         0.0
 IPart=  8 NShTot=           0 NBatch=           0 AvBLen=         0.0
 IPart= 31 NShTot=           0 NBatch=           0 AvBLen=         0.0
 IPart=  0 NShTot=           6 NBatch=           3 AvBLen=         2.0
 IPart= 28 NShTot=           0 NBatch=           0 AvBLen=         0.0
 IPart= 21 NShTot=           0 NBatch=           0 AvBLen=         0.0
 IPart=  6 NShTot=           0 NBatch=           0 AvBLen=         0.0
 IPart= 11 NShTot=           0 NBatch=           0 AvBLen=         0.0
 IPart= 16 NShTot=           0 NBatch=           0 AvBLen=         0.0
 IPart= 12 NShTot=           0 NBatch=           0 AvBLen=         0.0
 IPart= 18 NShTot=           0 NBatch=           0 AvBLen=         0.0
 IPart= 13 NShTot=           0 NBatch=           0 AvBLen=         0.0
 IPart= 34 NShTot=           0 NBatch=           0 AvBLen=         0.0
 IPart= 17 NShTot=           0 NBatch=           0 AvBLen=         0.0
 IPart=  4 NShTot=           0 NBatch=           0 AvBLen=         0.0
 IPart= 24 NShTot=           0 NBatch=           0 AvBLen=         0.0
 IPart= 22 NShTot=           0 NBatch=           0 AvBLen=         0.0
 IPart= 35 NShTot=           0 NBatch=           0 AvBLen=         0.0
 IPart= 32 NShTot=           0 NBatch=           0 AvBLen=         0.0
 IPart= 15 NShTot=           0 NBatch=           0 AvBLen=         0.0
 IPart=  9 NShTot=           0 NBatch=           0 AvBLen=         0.0
 IPart= 26 NShTot=           0 NBatch=           0 AvBLen=         0.0
 IPart= 20 NShTot=           0 NBatch=           0 AvBLen=         0.0
 IPart= 23 NShTot=           0 NBatch=           0 AvBLen=         0.0
 IPart= 27 NShTot=           0 NBatch=           0 AvBLen=         0.0
 IPart= 10 NShTot=           0 NBatch=           0 AvBLen=         0.0
 IPart= 19 NShTot=           0 NBatch=           0 AvBLen=         0.0
 IPart= 33 NShTot=           0 NBatch=           0 AvBLen=         0.0
 IPart= 29 NShTot=           0 NBatch=           0 AvBLen=         0.0
 IPart= 14 NShTot=           0 NBatch=           0 AvBLen=         0.0
 PrSmSu:  NxtVal=             37.
 ***** Potential Energy ***** 
                1             2             3             4             5 
      1  0.509154D+01
      2  0.558455D+00  0.115803D+03
      3  0.125886D+01  0.163212D+02  0.196032D+02
      4  0.000000D+00  0.000000D+00  0.000000D+00  0.194436D+02
      5  0.000000D+00  0.000000D+00  0.000000D+00  0.000000D+00  0.194436D+02
      6 -0.739928D+00 -0.532205D-02 -0.515938D-01  0.000000D+00  0.000000D+00
      7  0.225102D+01  0.113168D+01  0.546403D+01  0.000000D+00  0.000000D+00
      8  0.000000D+00  0.000000D+00  0.000000D+00  0.560591D+01  0.000000D+00
      9  0.000000D+00  0.000000D+00  0.000000D+00  0.000000D+00  0.560591D+01
     10 -0.252526D+01 -0.521873D-03 -0.362718D-01  0.000000D+00  0.000000D+00
                6             7             8             9            10 
      6  0.194600D+02
      7 -0.375272D-01  0.676462D+01
      8  0.000000D+00  0.000000D+00  0.674240D+01
      9  0.000000D+00  0.000000D+00  0.000000D+00  0.674240D+01
     10  0.562414D+01 -0.131523D+00  0.000000D+00  0.000000D+00  0.684040D+01
 ****** Core Hamiltonian ****** 
                1             2             3             4             5 
      1 -0.433150D+01
      2 -0.561230D+00 -0.601587D+02
      3 -0.127937D+01 -0.165376D+02 -0.176700D+02
      4  0.000000D+00  0.000000D+00  0.000000D+00 -0.133945D+02
      5  0.000000D+00  0.000000D+00  0.000000D+00  0.000000D+00 -0.133945D+02
      6  0.745255D+00  0.532205D-02  0.515938D-01  0.000000D+00  0.000000D+00
      7 -0.220292D+01 -0.136331D+01 -0.553609D+01  0.000000D+00  0.000000D+00
      8  0.000000D+00  0.000000D+00  0.000000D+00 -0.495311D+01  0.000000D+00
      9  0.000000D+00  0.000000D+00  0.000000D+00  0.000000D+00 -0.495311D+01
     10  0.238505D+01  0.521873D-03  0.362718D-01  0.000000D+00  0.000000D+00
                6             7             8             9            10 
      6 -0.134108D+02
      7  0.375272D-01 -0.646058D+01
      8  0.000000D+00  0.000000D+00 -0.603121D+01
      9  0.000000D+00  0.000000D+00  0.000000D+00 -0.603121D+01
     10 -0.497133D+01  0.131523D+00  0.000000D+00  0.000000D+00 -0.612921D+01
 SVDSVc IOpt=   1 NormSV=T IR=1
 SVDSVc V= 1.81D+00 1.51D+00 1.07D+00 8.05D-01 4.98D-01 3.09D-01
 SVDSVc IOpt=   1 NormSV=T IR=3
 SVDSVc V= 1.46D+00 5.38D-01
 SVDSVc IOpt=   1 NormSV=T IR=4
 SVDSVc V= 1.46D+00 5.38D-01
 TstOVc:  Largest diagonal error= 1.55D-15 IB=1 I=    6.
 TstOVc:  Largest same sym error= 6.66D-16 IB=1 I=    6 J=    2.
 TstOVc:  Largest diff sym error= 0.00D+00 IB=0 JB=0 I=    0 J=    0.
 Orthogonalized basis functions: 
                 1             2             3             4             5 
      1   0.406218D+00 -0.664184D-01 -0.356827D+00  0.565621D+00 -0.122913D+00
      2   0.107361D+00  0.248310D+00  0.715483D+00  0.537617D+00 -0.441718D+00
      3   0.273058D+00  0.426175D+00  0.212099D+00 -0.371284D+00  0.852434D+00
      4   0.000000D+00  0.000000D+00  0.000000D+00  0.000000D+00  0.000000D+00
      5   0.000000D+00  0.000000D+00  0.000000D+00  0.000000D+00  0.000000D+00
      6  -0.238327D+00  0.374685D+00 -0.358928D+00  0.615831D+00  0.534554D+00
      7   0.340729D+00  0.340247D+00 -0.334603D+00 -0.294168D+00 -0.651822D+00
      8   0.000000D+00  0.000000D+00  0.000000D+00  0.000000D+00  0.000000D+00
      9   0.000000D+00  0.000000D+00  0.000000D+00  0.000000D+00  0.000000D+00
     10  -0.356551D+00  0.400176D+00 -0.108503D+00 -0.170799D+00 -0.600427D+00
                 6             7             8             9            10 
      1   0.974016D+00  0.000000D+00  0.000000D+00  0.000000D+00  0.000000D+00
      2  -0.178545D+00  0.000000D+00  0.000000D+00  0.000000D+00  0.000000D+00
      3   0.477103D+00  0.000000D+00  0.000000D+00  0.000000D+00  0.000000D+00
      4   0.000000D+00  0.584852D+00  0.963829D+00  0.000000D+00  0.000000D+00
      5   0.000000D+00  0.000000D+00  0.000000D+00  0.584852D+00  0.963829D+00
      6  -0.569921D+00  0.000000D+00  0.000000D+00  0.000000D+00  0.000000D+00
      7  -0.833005D+00  0.000000D+00  0.000000D+00  0.000000D+00  0.000000D+00
      8   0.000000D+00  0.584852D+00 -0.963829D+00  0.000000D+00  0.000000D+00
      9   0.000000D+00  0.000000D+00  0.000000D+00  0.584852D+00 -0.963829D+00
     10   0.100622D+01  0.000000D+00  0.000000D+00  0.000000D+00  0.000000D+00
 NBasis=    10 RedAO= T EigKep=  3.09D-01  NBF=     6     0     2     2
 NBsUse=    10 1.00D-06 EigRej= -1.00D+00 NBFU=     6     0     2     2
 Leave Link  302 at Mon Mar 28 14:23:48 2022, MaxMem=  9663676416 cpu:               2.8 elap:               0.1
 (Enter /nopt/nrel/apps/gaussian/g16C_1/g16/l303.exe)
 DipDrv will not compute anything.
 Fermi contact integrals: 
                 1             2 
      1   0.628247D+00  0.232757D-01
      2   0.000000D+00  0.157243D+02
      3   0.310483D-03  0.620346D+00
      4   0.000000D+00  0.000000D+00
      5   0.000000D+00  0.000000D+00
      6  -0.940022D-03  0.000000D+00
      7   0.476698D-01  0.363373D-01
      8   0.000000D+00  0.000000D+00
      9   0.000000D+00  0.000000D+00
     10  -0.811008D-01  0.000000D+00
 Leave Link  303 at Mon Mar 28 14:23:48 2022, MaxMem=  9663676416 cpu:               1.0 elap:               0.1
 (Enter /nopt/nrel/apps/gaussian/g16C_1/g16/l401.exe)
 ExpMin= 1.61D-01 ExpMax= 2.51D+02 ExpMxC= 2.51D+02 IAcc=3 IRadAn=         5 AccDes= 0.00D+00
 Harris functional with IExCor=  205 and IRadAn=       5 diagonalized for initial guess.
 HarFok:  IExCor=  205 AccDes= 0.00D+00 IRadAn=         5 IDoV= 1 UseB2=F ITyADJ=14
 ICtDFT=  3500011 ScaDFX=  1.000000  1.000000  1.000000  1.000000
 FoFCou: FMM=F IPFlag=           0 FMFlag=      100000 FMFlg1=           0
         NFxFlg=           0 DoJE=T BraDBF=F KetDBF=T FulRan=T
         wScrn=  0.000000 ICntrl=       500 IOpCl=  0 I1Cent=   200000004 NGrid=           0
         NMat0=    1 NMatS0=      1 NMatT0=    0 NMatD0=    1 NMtDS0=    0 NMtDT0=    0
 Petite list used in FoFCou.
 Harris En= -159.782002103554    
 JPrj=0 DoOrth=F DoCkMO=F.
 Initial guess orbital symmetries:
 Alpha Orbitals:
       Occupied  (SG) (SG) (SG) (PI) (PI) (SG) (SG)
       Virtual   (PI) (PI) (SG)
 Beta  Orbitals:
       Occupied  (SG) (SG) (SG) (PI) (PI)
       Virtual   (SG) (SG) (PI) (PI) (SG)
 The electronic state of the initial guess is 3-SG.
 Initial guess <Sx>= 0.0000 <Sy>= 0.0000 <Sz>= 1.0000 <S**2>= 2.0000 S= 1.0000
 Leave Link  401 at Mon Mar 28 14:23:48 2022, MaxMem=  9663676416 cpu:               4.7 elap:               0.2
 (Enter /nopt/nrel/apps/gaussian/g16C_1/g16/l502.exe)
 Keep R1 and R2 ints in memory in symmetry-blocked form, NReq=7209078.
 FoFCou: FMM=F IPFlag=           0 FMFlag=           0 FMFlg1=           0
         NFxFlg=           0 DoJE=F BraDBF=F KetDBF=F FulRan=T
         wScrn=  0.000000 ICntrl=       600 IOpCl=  0 I1Cent=           0 NGrid=           0
         NMat0=    1 NMatS0=     55 NMatT0=    0 NMatD0=    1 NMtDS0=    0 NMtDT0=    0
 Petite list used in FoFCou.
 UHF open shell SCF:
 Using DIIS extrapolation, IDIIS=  1040.
 NGot=  9663676416 LenX=  9663672766 LenY=  9663671884
 Requested convergence on RMS density matrix=1.00D-08 within 128 cycles.
 Requested convergence on MAX density matrix=1.00D-06.
 Requested convergence on             energy=1.00D-06.
 No special actions if energy rises.

 Cycle   1  Pass 1  IDiag  1:
 E= -160.013121976190    
 DIIS: error= 5.34D-02 at cycle   1 NSaved=   1.
 NSaved= 1 IEnMin= 1 EnMin= -160.013121976190     IErMin= 1 ErrMin= 5.34D-02
 ErrMax= 5.34D-02  0.00D+00 EMaxC= 1.00D-01 BMatC= 1.77D-01 BMatP= 1.77D-01
 IDIUse=3 WtCom= 4.66D-01 WtEn= 5.34D-01
 Coeff-Com:  0.100D+01
 Coeff-En:   0.100D+01
 Coeff:      0.100D+01
 Gap=     0.589 Goal=   None    Shift=    0.000
 Gap=     1.537 Goal=   None    Shift=    0.000
 GapD=    0.589 DampG=2.000 DampE=0.500 DampFc=1.0000 IDamp=-1.
 RMSDP=1.60D-02 MaxDP=6.24D-02              OVMax= 0.00D+00

 Cycle   2  Pass 1  IDiag  1:
 E= -160.041101058497     Delta-E=       -0.027979082307 Rises=F Damp=F
 DIIS: error= 1.25D-02 at cycle   2 NSaved=   2.
 NSaved= 2 IEnMin= 2 EnMin= -160.041101058497     IErMin= 2 ErrMin= 1.25D-02
 ErrMax= 1.25D-02  0.00D+00 EMaxC= 1.00D-01 BMatC= 6.78D-03 BMatP= 1.77D-01
 IDIUse=3 WtCom= 8.75D-01 WtEn= 1.25D-01
 Coeff-Com:  0.128D+00 0.872D+00
 Coeff-En:   0.000D+00 0.100D+01
 Coeff:      0.112D+00 0.888D+00
 Gap=     0.587 Goal=   None    Shift=    0.000
 Gap=     1.466 Goal=   None    Shift=    0.000
 RMSDP=4.16D-03 MaxDP=2.24D-02 DE=-2.80D-02 OVMax= 0.00D+00

 Cycle   3  Pass 1  IDiag  1:
 E= -160.042670949334     Delta-E=       -0.001569890838 Rises=F Damp=F
 DIIS: error= 2.17D-03 at cycle   3 NSaved=   3.
 NSaved= 3 IEnMin= 3 EnMin= -160.042670949334     IErMin= 3 ErrMin= 2.17D-03
 ErrMax= 2.17D-03  0.00D+00 EMaxC= 1.00D-01 BMatC= 2.31D-04 BMatP= 6.78D-03
 IDIUse=3 WtCom= 9.78D-01 WtEn= 2.17D-02
 Coeff-Com: -0.442D-01-0.138D+00 0.118D+01
 Coeff-En:   0.000D+00 0.000D+00 0.100D+01
 Coeff:     -0.432D-01-0.135D+00 0.118D+01
 Gap=     0.587 Goal=   None    Shift=    0.000
 Gap=     1.482 Goal=   None    Shift=    0.000
 RMSDP=1.20D-03 MaxDP=8.37D-03 DE=-1.57D-03 OVMax= 0.00D+00

 Cycle   4  Pass 1  IDiag  1:
 E= -160.042758136961     Delta-E=       -0.000087187627 Rises=F Damp=F
 DIIS: error= 4.41D-04 at cycle   4 NSaved=   4.
 NSaved= 4 IEnMin= 4 EnMin= -160.042758136961     IErMin= 4 ErrMin= 4.41D-04
 ErrMax= 4.41D-04  0.00D+00 EMaxC= 1.00D-01 BMatC= 8.52D-06 BMatP= 2.31D-04
 IDIUse=3 WtCom= 9.96D-01 WtEn= 4.41D-03
 Coeff-Com:  0.764D-02 0.112D-01-0.290D+00 0.127D+01
 Coeff-En:   0.000D+00 0.000D+00 0.000D+00 0.100D+01
 Coeff:      0.760D-02 0.112D-01-0.289D+00 0.127D+01
 Gap=     0.588 Goal=   None    Shift=    0.000
 Gap=     1.483 Goal=   None    Shift=    0.000
 RMSDP=2.51D-04 MaxDP=1.16D-03 DE=-8.72D-05 OVMax= 0.00D+00

 Cycle   5  Pass 1  IDiag  1:
 E= -160.042761624211     Delta-E=       -0.000003487249 Rises=F Damp=F
 DIIS: error= 9.07D-05 at cycle   5 NSaved=   5.
 NSaved= 5 IEnMin= 5 EnMin= -160.042761624211     IErMin= 5 ErrMin= 9.07D-05
 ErrMax= 9.07D-05  0.00D+00 EMaxC= 1.00D-01 BMatC= 3.71D-07 BMatP= 8.52D-06
 IDIUse=1 WtCom= 1.00D+00 WtEn= 0.00D+00
 Coeff-Com: -0.974D-03 0.174D-02 0.587D-01-0.465D+00 0.141D+01
 Coeff:     -0.974D-03 0.174D-02 0.587D-01-0.465D+00 0.141D+01
 Gap=     0.588 Goal=   None    Shift=    0.000
 Gap=     1.483 Goal=   None    Shift=    0.000
 RMSDP=6.12D-05 MaxDP=2.75D-04 DE=-3.49D-06 OVMax= 0.00D+00

 Cycle   6  Pass 1  IDiag  1:
 E= -160.042761781520     Delta-E=       -0.000000157309 Rises=F Damp=F
 DIIS: error= 9.19D-06 at cycle   6 NSaved=   6.
 NSaved= 6 IEnMin= 6 EnMin= -160.042761781520     IErMin= 6 ErrMin= 9.19D-06
 ErrMax= 9.19D-06  0.00D+00 EMaxC= 1.00D-01 BMatC= 2.35D-09 BMatP= 3.71D-07
 IDIUse=1 WtCom= 1.00D+00 WtEn= 0.00D+00
 Coeff-Com:  0.298D-03-0.681D-03-0.200D-01 0.165D+00-0.526D+00 0.138D+01
 Coeff:      0.298D-03-0.681D-03-0.200D-01 0.165D+00-0.526D+00 0.138D+01
 Gap=     0.588 Goal=   None    Shift=    0.000
 Gap=     1.483 Goal=   None    Shift=    0.000
 RMSDP=7.78D-06 MaxDP=4.07D-05 DE=-1.57D-07 OVMax= 0.00D+00

 Cycle   7  Pass 1  IDiag  1:
 E= -160.042761782759     Delta-E=       -0.000000001240 Rises=F Damp=F
 DIIS: error= 1.29D-06 at cycle   7 NSaved=   7.
 NSaved= 7 IEnMin= 7 EnMin= -160.042761782759     IErMin= 7 ErrMin= 1.29D-06
 ErrMax= 1.29D-06  0.00D+00 EMaxC= 1.00D-01 BMatC= 3.89D-11 BMatP= 2.35D-09
 IDIUse=1 WtCom= 1.00D+00 WtEn= 0.00D+00
 Coeff-Com: -0.997D-04 0.218D-03 0.678D-02-0.562D-01 0.179D+00-0.535D+00
 Coeff-Com:  0.140D+01
 Coeff:     -0.997D-04 0.218D-03 0.678D-02-0.562D-01 0.179D+00-0.535D+00
 Coeff:      0.140D+01
 Gap=     0.588 Goal=   None    Shift=    0.000
 Gap=     1.483 Goal=   None    Shift=    0.000
 RMSDP=1.54D-06 MaxDP=8.33D-06 DE=-1.24D-09 OVMax= 0.00D+00

 Cycle   8  Pass 1  IDiag  1:
 E= -160.042761782789     Delta-E=       -0.000000000030 Rises=F Damp=F
 DIIS: error= 1.85D-07 at cycle   8 NSaved=   8.
 NSaved= 8 IEnMin= 8 EnMin= -160.042761782789     IErMin= 8 ErrMin= 1.85D-07
 ErrMax= 1.85D-07  0.00D+00 EMaxC= 1.00D-01 BMatC= 5.12D-13 BMatP= 3.89D-11
 IDIUse=1 WtCom= 1.00D+00 WtEn= 0.00D+00
 Coeff-Com:  0.252D-04-0.498D-04-0.171D-02 0.140D-01-0.447D-01 0.132D+00
 Coeff-Com: -0.371D+00 0.127D+01
 Coeff:      0.252D-04-0.498D-04-0.171D-02 0.140D-01-0.447D-01 0.132D+00
 Coeff:     -0.371D+00 0.127D+01
 Gap=     0.588 Goal=   None    Shift=    0.000
 Gap=     1.483 Goal=   None    Shift=    0.000
 RMSDP=1.55D-07 MaxDP=8.26D-07 DE=-2.98D-11 OVMax= 0.00D+00

 Cycle   9  Pass 1  IDiag  1:
 E= -160.042761782789     Delta-E=       -0.000000000000 Rises=F Damp=F
 DIIS: error= 3.64D-08 at cycle   9 NSaved=   9.
 NSaved= 9 IEnMin= 9 EnMin= -160.042761782789     IErMin= 9 ErrMin= 3.64D-08
 ErrMax= 3.64D-08  0.00D+00 EMaxC= 1.00D-01 BMatC= 2.77D-14 BMatP= 5.12D-13
 IDIUse=1 WtCom= 1.00D+00 WtEn= 0.00D+00
 Coeff-Com: -0.174D-05 0.732D-06 0.113D-03-0.868D-03 0.268D-02-0.723D-02
 Coeff-Com:  0.256D-01-0.353D+00 0.133D+01
 Coeff:     -0.174D-05 0.732D-06 0.113D-03-0.868D-03 0.268D-02-0.723D-02
 Coeff:      0.256D-01-0.353D+00 0.133D+01
 Gap=     0.588 Goal=   None    Shift=    0.000
 Gap=     1.483 Goal=   None    Shift=    0.000
 RMSDP=3.92D-08 MaxDP=2.07D-07 DE=-3.13D-13 OVMax= 0.00D+00

 Cycle  10  Pass 1  IDiag  1:
 E= -160.042761782789     Delta-E=        0.000000000000 Rises=F Damp=F
 DIIS: error= 1.85D-09 at cycle  10 NSaved=  10.
 NSaved=10 IEnMin= 9 EnMin= -160.042761782789     IErMin=10 ErrMin= 1.85D-09
 ErrMax= 1.85D-09  0.00D+00 EMaxC= 1.00D-01 BMatC= 1.43D-16 BMatP= 2.77D-14
 IDIUse=1 WtCom= 1.00D+00 WtEn= 0.00D+00
 Coeff-Com:  0.115D-06 0.660D-06-0.615D-05 0.319D-04-0.757D-04-0.103D-04
 Coeff-Com: -0.167D-02 0.873D-01-0.389D+00 0.130D+01
 Coeff:      0.115D-06 0.660D-06-0.615D-05 0.319D-04-0.757D-04-0.103D-04
 Coeff:     -0.167D-02 0.873D-01-0.389D+00 0.130D+01
 Gap=     0.588 Goal=   None    Shift=    0.000
 Gap=     1.483 Goal=   None    Shift=    0.000
 RMSDP=1.62D-09 MaxDP=8.74D-09 DE= 5.68D-14 OVMax= 0.00D+00

 SCF Done:  E(UHF) =  -160.042761783     A.U. after   10 cycles
            NFock= 10  Conv=0.16D-08     -V/T= 2.0135
 <Sx>= 0.0000 <Sy>= 0.0000 <Sz>= 1.0000 <S**2>= 2.0002 S= 1.0001
 <L.S>= 0.000000000000E+00
 KE= 1.579094833279D+02 PE=-3.924945127943D+02 EE= 7.066163480355D+01
 Annihilation of the first spin contaminant:
 S**2 before annihilation     2.0002,   after     2.0000
 Leave Link  502 at Mon Mar 28 14:23:48 2022, MaxMem=  9663676416 cpu:               3.4 elap:               0.1
 (Enter /nopt/nrel/apps/gaussian/g16C_1/g16/l801.exe)
 Windowed orbitals will be sorted by symmetry type.
 ExpMin= 1.61D-01 ExpMax= 2.51D+02 ExpMxC= 2.51D+02 IAcc=3 IRadAn=         5 AccDes= 0.00D+00
 HarFok:  IExCor=  205 AccDes= 0.00D+00 IRadAn=         5 IDoV=-2 UseB2=F ITyADJ=14
 ICtDFT= 12500011 ScaDFX=  1.000000  1.000000  1.000000  1.000000
 Largest valence mixing into a core orbital is  2.19D-03
 Largest core mixing into a valence orbital is  1.90D-03
 Range of M.O.s used for correlation:     6    10
 NBasis=    10 NAE=     7 NBE=     5 NFC=     5 NFV=     0
 NROrb=      5 NOA=     2 NOB=     0 NVA=     3 NVB=     5
 Leave Link  801 at Mon Mar 28 14:23:48 2022, MaxMem=  9663676416 cpu:               2.1 elap:               0.1
 (Enter /nopt/nrel/apps/gaussian/g16C_1/g16/l804.exe)
 Open-shell transformation, MDV=  9663676416 ITran=4 ISComp=2.
 Unit  1 TFree=          8142 TCopy=        115691.
 Semi-Direct transformation.
 ModeAB=           2 MOrb=             2 LenV=    9663556481
 LASXX=           19 LTotXX=          19 LenRXX=          19
 LTotAB=          52 MaxLAS=         550 LenRXY=         550
 NonZer=         670 LenScr=      785920 LnRSAI=           0
 LnScr1=           0 LExtra=      219050 Total=      1005539
 MaxDsk= 34359738368 SrtSym=           F ITran=            4
 DoSDTr:  NPSUse= 36
 JobTyp=1 Pass  1:  I=   1 to   2.
 (rs|ai) integrals will be sorted in core.
 Complete sort for first half transformation.
 First half transformation complete.
 Complete sort for second half transformation.
 Second half transformation complete.
 Spin components of T(2) and E(2):
     alpha-alpha T2 =       0.0000000000D+00 E2=      0.0000000000D+00
     alpha-beta  T2 =       0.0000000000D+00 E2=      0.0000000000D+00
     beta-beta   T2 =       0.0000000000D+00 E2=      0.0000000000D+00
 ANorm=    0.1000000000D+01
 E2 =     0.0000000000D+00 EUMP2 =    -0.16004276178279D+03
 Leave Link  804 at Mon Mar 28 14:23:48 2022, MaxMem=  9663676416 cpu:               1.8 elap:               0.1
 (Enter /nopt/nrel/apps/gaussian/g16C_1/g16/l913.exe)
 CIDS:  MDV=  9663676416.
 Frozen-core window:  NFC=   5 NFV=   0.
 IFCWin=0 IBDFC=1 NFBD=     0     0 NFCmp=     0     0 NFFFC=     0     0
 Using original routines for 1st iteration.
 Using DD4UQ or CC4UQ for 2nd and later iterations.
 Keep R2 and R3 ints in memory in symmetry-blocked form, NReq=7211456.
 FoFCou: FMM=F IPFlag=           0 FMFlag=           0 FMFlg1=           0
         NFxFlg=           0 DoJE=F BraDBF=F KetDBF=F FulRan=T
         wScrn=  0.000000 ICntrl=       600 IOpCl=  0 I1Cent=           0 NGrid=           0
         NMat0=    1 NMatS0=     55 NMatT0=    0 NMatD0=    1 NMtDS0=    0 NMtDT0=    0
 Petite list used in FoFCou.
 CIDS: In Core Option IDoMem=           1.
 Coupled Cluster theory with single and double substitutions
 ===========================================================
 Iterations= 200 Convergence= 0.100D-06
 Produce multiple copies of IABC intergrals
 Iteration Nr.   1
 **********************
 DD1Dir will call FoFMem   1 times, MxPair=         2
 NAB=     0 NAA=     1 NBB=     0.
 MP4(R+Q)=  0.00000000D+00
 Maximum subspace dimension=  5
 A-vector RMS=  0.0000000D+00 Max=  0.0000000D+00 conv= 1.00D-05.
 RLE energy=        0.0000000000
 E3=        0.00000000D+00        EUMP3=      -0.16004276178D+03
 E4(DQ)=    0.00000000D+00        UMP4(DQ)=   -0.16004276178D+03
 E4(SDQ)=   0.00000000D+00        UMP4(SDQ)=  -0.16004276178D+03
 VARIATIONAL ENERGIES WITH THE FIRST-ORDER WAVEFUNCTION:
 DE(Corr)=  0.00000000E+00 E(Corr)=     -160.04276178    
 NORM(A)=   0.10000000D+01
 Iteration Nr.   2
 **********************
 DD1Dir will call FoFMem   1 times, MxPair=         2
 NAB=     0 NAA=     1 NBB=     0.
 A-vector RMS=  0.0000000D+00 Max=  0.0000000D+00 conv= 1.00D-05.
 RLE energy=        0.0000000000
 DE(Corr)=  0.00000000E+00 E(CORR)=     -160.04276178     Delta= 0.00D+00
 NORM(A)=   0.10000000D+01
 CI/CC converged in    2 iterations to DelEn= 0.00D+00 Conv= 1.00D-07 ErrA1= 0.00D+00 Conv= 1.00D-05
 Wavefunction amplitudes converged. E(Corr)=     -160.04276178    
 Largest amplitude= 0.00D+00
 Discarding MO integrals.
 Leave Link  913 at Mon Mar 28 14:23:48 2022, MaxMem=  9663676416 cpu:               2.6 elap:               0.1
 (Enter /nopt/nrel/apps/gaussian/g16C_1/g16/l601.exe)
 Copying SCF densities to generalized density rwf, IOpCl= 1 IROHF=0.

 **********************************************************************

            Population analysis using the SCF Density.

 **********************************************************************

 Orbital symmetries:
 Alpha Orbitals:
       Occupied  (SG) (SG) (SG) (PI) (PI) (SG) (SG)
       Virtual   (PI) (PI) (SG)
 Beta  Orbitals:
       Occupied  (SG) (SG) (PI) (PI) (SG)
       Virtual   (SG) (SG) (PI) (PI) (SG)
 The electronic state is 3-SG.
 Alpha  occ. eigenvalues --  -40.04447  -2.65692  -1.30396  -1.27409  -1.27409
 Alpha  occ. eigenvalues --   -0.51592   0.16649
 Alpha virt. eigenvalues --    0.75411   0.75411   0.98829
  Beta  occ. eigenvalues --  -40.01321  -2.59482  -1.25215  -1.25215  -1.24646
  Beta virt. eigenvalues --    0.23654   0.64729   0.84414   0.84414   1.12811
          Condensed to atoms (all electrons):
               1          2
     1  H    1.062333  -0.087357
     2  Na  -0.087357  11.112381
          Atomic-Atomic Spin Densities.
               1          2
     1  H    1.062262  -0.086766
     2  Na  -0.086766   1.111269
 Mulliken charges and spin densities:
               1          2
     1  H    0.025024   0.975497
     2  Na  -0.025024   1.024503
 Sum of Mulliken charges =  -0.00000   2.00000
 Mulliken charges and spin densities with hydrogens summed into heavy atoms:
               1          2
     2  Na  -0.000000   2.000000
 N-N= 3.880632880080D+00 E-N=-3.924945128126D+02  KE= 1.579094833279D+02
 Symmetry A1   KE= 1.376115740701D+02
 Symmetry A2   KE= 0.000000000000D+00
 Symmetry B1   KE= 1.014895462888D+01
 Symmetry B2   KE= 1.014895462888D+01
 Symmetry A1   SP= 2.000000000000D+00
 Symmetry A2   SP= 0.000000000000D+00
 Symmetry B1   SP= 6.011973763069D-16
 Symmetry B2   SP= 5.725744389533D-16

 Atomic contributions to Alpha molecular orbitals:
 Alpha occ 1 OE=-40.044 is Na2-s=1.0000
 Alpha occ 2 OE=-2.657 is Na2-s=0.9996
 Alpha occ 3 OE=-1.304 is Na2-p=0.9905
 Alpha occ 4 OE=-1.274 is Na2-p=1.0000
 Alpha occ 5 OE=-1.274 is Na2-p=1.0000
 Alpha occ 6 OE=-0.516 is H1-s=0.9520
 Alpha occ 7 OE=0.166 is Na2-s=0.8902
 Alpha vir 8 OE=0.754 is Na2-p=1.0000
 Alpha vir 9 OE=0.754 is Na2-p=1.0000
 Alpha vir 10 OE=0.988 is Na2-p=0.8919

 Atomic contributions to Beta  molecular orbitals:
 Beta  occ 1 OE=-40.013 is Na2-s=1.0000
 Beta  occ 2 OE=-2.595 is Na2-s=0.9993
 Beta  occ 3 OE=-1.252 is Na2-p=1.0000
 Beta  occ 4 OE=-1.252 is Na2-p=1.0000
 Beta  occ 5 OE=-1.246 is Na2-p=0.9981
 Beta  vir 6 OE=0.237 is H1-s=0.7939 Na2-s=0.1456
 Beta  vir 7 OE=0.647 is Na2-s=0.8033 Na2-p=0.1104
 Beta  vir 8 OE=0.844 is Na2-p=1.0000
 Beta  vir 9 OE=0.844 is Na2-p=1.0000
 Beta  vir 10 OE=1.128 is Na2-p=0.8296 H1-s=0.1201
 
 Leave Link  601 at Mon Mar 28 14:23:48 2022, MaxMem=  9663676416 cpu:               1.0 elap:               0.1
 (Enter /nopt/nrel/apps/gaussian/g16C_1/g16/l9999.exe)

 Test job not archived.
 1\1\GINC-R102U34\SP\UCCSD-FC\Gen\H1Na1(3)\USER\28-Mar-2022\0\\#P C
 CSD(MaxCyc=200,SaveAmplitudes,ReadAmplitudes)/GEN sp pop=AllOrbitals i
 op(3/33=1,3/36=-1)\\test\\0,3\H,0,0.,0.,0.\Na,0,0.,0.,1.5\\Version=ES6
 4L-G16RevC.01\State=3-SG\HF=-160.0427618\MP2=-160.0427618\MP3=-160.042
 7618\MP4D=-160.0427618\MP4DQ=-160.0427618\MP4SDQ=-160.0427618\CCSD=-16
 0.0427618\S2=2.000225\S2-1=0.\S2A=2.\RMSD=1.617e-09\PG=C*V [C*(H1Na1)]
 \\@


 A MAN IS EXACTLY AS GREAT AS THE TIDE SURGING
 BENEATH HIM.      - BISMARCK
 Job cpu time:       0 days  0 hours  0 minutes 28.7 seconds.
 Elapsed time:       0 days  0 hours  0 minutes  1.1 seconds.
 File lengths (MBytes):  RWF=     13 Int=      0 D2E=      0 Chk=      1 Scr=      1
 Normal termination of Gaussian 16 at Mon Mar 28 14:23:48 2022.
