 Entering Gaussian System, Link 0=g16
 Initial command:
 /nopt/nrel/apps/gaussian/g16C_1/g16/l1.exe "/lustre/eaglefs/scratch/user/qc/lih-dissc/lih-1-ccsd-3.4-631g/Gau-18112.inp" -scrdir="/lustre/eaglefs/scratch/user/qc/lih-dissc/lih-1-ccsd-3.4-631g/"
 Default is to use a total of  36 processors:
                               36 via shared-memory
                                1 via Linda
 Entering Link 1 = /nopt/nrel/apps/gaussian/g16C_1/g16/l1.exe PID=     18113.
  
 Copyright (c) 1988-2019, Gaussian, Inc.  All Rights Reserved.
  
 This is part of the Gaussian(R) 16 program.  It is based on
 the Gaussian(R) 09 system (copyright 2009, Gaussian, Inc.),
 the Gaussian(R) 03 system (copyright 2003, Gaussian, Inc.),
 the Gaussian(R) 98 system (copyright 1998, Gaussian, Inc.),
 the Gaussian(R) 94 system (copyright 1995, Gaussian, Inc.),
 the Gaussian 92(TM) system (copyright 1992, Gaussian, Inc.),
 the Gaussian 90(TM) system (copyright 1990, Gaussian, Inc.),
 the Gaussian 88(TM) system (copyright 1988, Gaussian, Inc.),
 the Gaussian 86(TM) system (copyright 1986, Carnegie Mellon
 University), and the Gaussian 82(TM) system (copyright 1983,
 Carnegie Mellon University). Gaussian is a federally registered
 trademark of Gaussian, Inc.
  
 This software contains proprietary and confidential information,
 including trade secrets, belonging to Gaussian, Inc.
  
 This software is provided under written license and may be
 used, copied, transmitted, or stored only in accord with that
 written license.
  
 The following legend is applicable only to US Government
 contracts under FAR:
  
                    RESTRICTED RIGHTS LEGEND
  
 Use, reproduction and disclosure by the US Government is
 subject to restrictions as set forth in subparagraphs (a)
 and (c) of the Commercial Computer Software - Restricted
 Rights clause in FAR 52.227-19.
  
 Gaussian, Inc.
 340 Quinnipiac St., Bldg. 40, Wallingford CT 06492
  
  
 ---------------------------------------------------------------
 Warning -- This program may not be used in any manner that
 competes with the business of Gaussian, Inc. or will provide
 assistance to any competitor of Gaussian, Inc.  The licensee
 of this program is prohibited from giving any competitor of
 Gaussian, Inc. access to this program.  By using this program,
 the user acknowledges that Gaussian, Inc. is engaged in the
 business of creating and licensing software in the field of
 computational chemistry and represents and warrants to the
 licensee that it is not a competitor of Gaussian, Inc. and that
 it will not use this program in any manner prohibited above.
 ---------------------------------------------------------------
  

 Cite this work as:
 Gaussian 16, Revision C.01,
 M. J. Frisch, G. W. Trucks, H. B. Schlegel, G. E. Scuseria, 
 M. A. Robb, J. R. Cheeseman, G. Scalmani, V. Barone, 
 G. A. Petersson, H. Nakatsuji, X. Li, M. Caricato, A. V. Marenich, 
 J. Bloino, B. G. Janesko, R. Gomperts, B. Mennucci, H. P. Hratchian, 
 J. V. Ortiz, A. F. Izmaylov, J. L. Sonnenberg, D. Williams-Young, 
 F. Ding, F. Lipparini, F. Egidi, J. Goings, B. Peng, A. Petrone, 
 T. Henderson, D. Ranasinghe, V. G. Zakrzewski, J. Gao, N. Rega, 
 G. Zheng, W. Liang, M. Hada, M. Ehara, K. Toyota, R. Fukuda, 
 J. Hasegawa, M. Ishida, T. Nakajima, Y. Honda, O. Kitao, H. Nakai, 
 T. Vreven, K. Throssell, J. A. Montgomery, Jr., J. E. Peralta, 
 F. Ogliaro, M. J. Bearpark, J. J. Heyd, E. N. Brothers, K. N. Kudin, 
 V. N. Staroverov, T. A. Keith, R. Kobayashi, J. Normand, 
 K. Raghavachari, A. P. Rendell, J. C. Burant, S. S. Iyengar, 
 J. Tomasi, M. Cossi, J. M. Millam, M. Klene, C. Adamo, R. Cammi, 
 J. W. Ochterski, R. L. Martin, K. Morokuma, O. Farkas, 
 J. B. Foresman, and D. J. Fox, Gaussian, Inc., Wallingford CT, 2019.
 
 ******************************************
 Gaussian 16:  ES64L-G16RevC.01  3-Jul-2019
                28-Mar-2022 
 ******************************************
 %chk=molecule
 Default route: CacheSize=180224 MaxDisk=256GB
 ----------------------------------------------------------------------
 #P CCSD(MaxCyc=200,SaveAmplitudes,ReadAmplitudes)/GEN sp pop=AllOrbita
 ls iop(3/33=1,3/36=-1)
 ----------------------------------------------------------------------
 1/4=180224,38=1,172=1/1;
 2/4=180224,12=2,17=6,18=5,40=1/2;
 3/4=180224,5=7,11=9,25=1,30=1,33=1,36=-1/1,2,3;
 4/4=180224/1;
 5/4=180224,5=2,38=5/2;
 8/4=180224,6=4,9=120000,10=1,24=1/1,4;
 9/4=180224,5=7,6=200,77=1/13;
 6/4=180224,7=2,8=2,9=2,10=2,96=-1/1;
 99/4=180224,5=1,9=1/99;
 Leave Link    1 at Mon Mar 28 14:01:16 2022, MaxMem=           0 cpu:               2.1 elap:               0.1
 (Enter /nopt/nrel/apps/gaussian/g16C_1/g16/l101.exe)
 ----
 test
 ----
 Symbolic Z-matrix:
 Charge =  0 Multiplicity = 1
 H                     0.        0.        0. 
 Li                    0.        0.        3.4 
 
 ITRead=  0  0
 MicOpt= -1 -1
 NAtoms=      2 NQM=        2 NQMF=       0 NMMI=      0 NMMIF=      0
                NMic=       0 NMicF=      0.
                    Isotopes and Nuclear Properties:
 (Nuclear quadrupole moments (NQMom) in fm**2, nuclear magnetic moments (NMagM)
  in nuclear magnetons)

  Atom         1           2
 IAtWgt=           1           7
 AtmWgt=   1.0078250   7.0160045
 NucSpn=           1           3
 AtZEff=  -0.0000000  -0.0000000
 NQMom=    0.0000000  -4.0100000
 NMagM=    2.7928460   3.2564240
 AtZNuc=   1.0000000   3.0000000
 Leave Link  101 at Mon Mar 28 14:01:16 2022, MaxMem=  9663676416 cpu:               3.4 elap:               0.1
 (Enter /nopt/nrel/apps/gaussian/g16C_1/g16/l202.exe)
                          Input orientation:                          
 ---------------------------------------------------------------------
 Center     Atomic      Atomic             Coordinates (Angstroms)
 Number     Number       Type             X           Y           Z
 ---------------------------------------------------------------------
      1          1           0        0.000000    0.000000    0.000000
      2          3           0        0.000000    0.000000    3.400000
 ---------------------------------------------------------------------
 Stoichiometry    HLi
 Framework group  C*V[C*(HLi)]
 Deg. of freedom     1
 Full point group                 C*V     NOp   4
 Largest Abelian subgroup         C2V     NOp   4
 Largest concise Abelian subgroup C1      NOp   1
                         Standard orientation:                         
 ---------------------------------------------------------------------
 Center     Atomic      Atomic             Coordinates (Angstroms)
 Number     Number       Type             X           Y           Z
 ---------------------------------------------------------------------
      1          1           0        0.000000    0.000000   -2.550000
      2          3           0        0.000000    0.000000    0.850000
 ---------------------------------------------------------------------
 Rotational constants (GHZ):           0.0000000          49.6096379          49.6096379
 Leave Link  202 at Mon Mar 28 14:01:16 2022, MaxMem=  9663676416 cpu:               0.7 elap:               0.0
 (Enter /nopt/nrel/apps/gaussian/g16C_1/g16/l301.exe)
 General basis read from cards:  (5D, 7F)
                         Coordinates in L301:                         
 ---------------------------------------------------------------------
 Center     Atomic      Atomic             Coordinates (Angstroms)
 Number     Number       Type             X           Y           Z
 ---------------------------------------------------------------------
      1          1           0        0.000000    0.000000   -2.550000
      2          3           0        0.000000    0.000000    0.850000
 ---------------------------------------------------------------------
 Centers:       1
 STO-3G
 ****
 Centers:       2
 6-31G
 ****
 FixB: optimizing general contractions.
 Ernie: Thresh=  0.10000D-02 Tol=  0.10000D-05 Strict=F.
 IA=     1 ShT= 0 ShC= 0 NL=   1 NS=   0.
 IA=     1 L=0 SC=0 ISt=    0 NBk=    0 NP=    0 IndPr=    0.
 IA=     2 ShT= 0 ShC= 0 NL=   1 NS=   0.
 IA=     2 L=0 SC=0 ISt=    0 NBk=    0 NP=    0 IndPr=    0.
 IA=     2 ShT= 1 ShC= 0 NL=   2 NS=   1.
 IA=     2 L=1 SC=0 ISt=    0 NBk=    0 NP=    0 IndPr=    0.
 LdAtmC:  AtmChg=     1.000000     3.000000
 AtZEff=     -1.0000000     -1.3500000
 NEqShl: 
              1            2            3            4
     1            1            1            1            1
     2            2            2            2            2
     3            3            3            3            3
     4            4            4            4            4
 NEqBas: 
              1            2            3            4
     1            1            1            1            1
     2            2            2            2            2
     3            3            3            3            3
     4            4           -4           -4            4
     5            5           -5            5           -5
     6            6            6            6            6
     7            7            7            7            7
     8            8           -8           -8            8
     9            9           -9            9           -9
    10           10           10           10           10
 There are     6 symmetry adapted cartesian basis functions of A1  symmetry.
   1         1   1   1   1
   2         2   2   2   2
   3         3   3   3   3
   4         6   6   6   6
   5         7   7   7   7
   6        10  10  10  10
 There are     0 symmetry adapted cartesian basis functions of A2  symmetry.
 There are     2 symmetry adapted cartesian basis functions of B1  symmetry.
   7         4   4   4   4
   8         8   8   8   8
 There are     2 symmetry adapted cartesian basis functions of B2  symmetry.
   9         5   5   5   5
  10         9   9   9   9
 Order= 1 2 4 3
 Reordered character table:
              1            2            3            4            5
     1            1            1            1            1            1
     2            2            1            1           -1           -1
     3            4            1           -1           -1            1
     4            3            1           -1            1           -1
 NEqShl: 
              1            2            3            4
     1            1            1            1            1
     2            2            2            2            2
     3            3            3            3            3
     4            4            4            4            4
 NEqBas: 
              1            2            3            4
     1            1            1            1            1
     2            2            2            2            2
     3            3            3            3            3
     4            4           -4           -4            4
     5            5           -5            5           -5
     6            6            6            6            6
     7            7            7            7            7
     8            8           -8           -8            8
     9            9           -9            9           -9
    10           10           10           10           10
 There are     6 symmetry adapted basis functions of A1  symmetry.
   1         1   1   1   1
   2         2   2   2   2
   3         3   3   3   3
   4         6   6   6   6
   5         7   7   7   7
   6        10  10  10  10
 There are     0 symmetry adapted basis functions of A2  symmetry.
 There are     2 symmetry adapted basis functions of B1  symmetry.
   7         4   4   4   4
   8         8   8   8   8
 There are     2 symmetry adapted basis functions of B2  symmetry.
   9         5   5   5   5
  10         9   9   9   9
 Order= 1 2 4 3
 Reordered character table:
              1            2            3            4            5
     1            1            1            1            1            1
     2            2            1            1           -1           -1
     3            4            1           -1           -1            1
     4            3            1           -1            1           -1
    10 basis functions,    25 primitive gaussians,    10 cartesian basis functions
     2 alpha electrons        2 beta electrons
       nuclear repulsion energy         0.4669210685 Hartrees.
 IS=     1 IAt=     1 ISR=     1 T=0 IP=      1 IndIP=      1 IndIPD=      0 C=  2.769344D-01  0.000000D+00                             NZ=T
 IS=     1 IAt=     1 ISR=     1 T=0 IP=      2 IndIP=      2 IndIPD=      1 C=  2.678389D-01  0.000000D+00                             NZ=T
 IS=     1 IAt=     1 ISR=     1 T=0 IP=      3 IndIP=      3 IndIPD=      2 C=  8.347367D-02  0.000000D+00                             NZ=T
 IS=     2 IAt=     2 ISR=     1 T=0 IP=      1 IndIP=      4 IndIPD=      0 C=  1.948572D-01  0.000000D+00                             NZ=T
 IS=     2 IAt=     2 ISR=     1 T=0 IP=      2 IndIP=      5 IndIPD=      1 C=  3.565040D-01  0.000000D+00                             NZ=T
 IS=     2 IAt=     2 ISR=     1 T=0 IP=      3 IndIP=      6 IndIPD=      2 C=  5.614879D-01  0.000000D+00                             NZ=T
 IS=     2 IAt=     2 ISR=     1 T=0 IP=      4 IndIP=      7 IndIPD=      3 C=  6.883627D-01  0.000000D+00                             NZ=T
 IS=     2 IAt=     2 ISR=     1 T=0 IP=      5 IndIP=      8 IndIPD=      4 C=  5.498106D-01  0.000000D+00                             NZ=T
 IS=     2 IAt=     2 ISR=     1 T=0 IP=      6 IndIP=      9 IndIPD=      5 C=  1.755056D-01  0.000000D+00                             NZ=T
 IS=     3 IAt=     2 ISR=     2 T=1 IP=      1 IndIP=     10 IndIPD=      0 C= -4.708915D-02  3.658984D-02                             NZ=T
 IS=     3 IAt=     2 ISR=     2 T=1 IP=      2 IndIP=     11 IndIPD=      1 C= -9.665673D-02  1.133585D-01                             NZ=T
 IS=     3 IAt=     2 ISR=     2 T=1 IP=      3 IndIP=     12 IndIPD=      2 C=  1.151795D-01  5.648589D-02                             NZ=T
 IS=     4 IAt=     2 ISR=     3 T=1 IP=      1 IndIP=     13 IndIPD=      0 C=  5.885627D-02  2.232258D-02                             NZ=T
 IExCor=    0 DFT=F Ex=HF Corr=None ExCW=0 ScaHFX=  1.000000
 ScaDFX=  1.000000  1.000000  1.000000  1.000000 ScalE2=  1.000000  1.000000
 IRadAn=      5 IRanWt=     -1 IRanGd=            0 ICorTp=0 IEmpDi=  4
 NAtoms=    2 NActive=    2 NUniq=    2 SFac= 1.00D+00 NAtFMM=   60 NAOKFM=F Big=F
 Integral buffers will be    131072 words long.
 Raffenetti 1 integral format.
 Two-electron integral symmetry is turned on.
 Leave Link  301 at Mon Mar 28 14:01:16 2022, MaxMem=  9663676416 cpu:               2.0 elap:               0.1
 (Enter /nopt/nrel/apps/gaussian/g16C_1/g16/l302.exe)
 NPDir=0 NMtPBC=     1 NCelOv=     1 NCel=       1 NClECP=     1 NCelD=      1
         NCelK=      1 NCelE2=     1 NClLst=     1 CellRange=     0.0.
 One-electron integrals computed using PRISM.
 One-electron integral symmetry used in STVInt
 Entering OneElI...
 Calculate overlap and kinetic energy integrals
    NBasis =  10  MinDer = 0  MaxDer = 0
 Requested accuracy = 0.1000D-12
 Symmetry will be used
 PrmmSu-InSpLW:  IPartL=    0 NPrtUS=   36 NPrtUL=    1 DoSpLW=F IThBeg=    0 IThEnd=   35 NThAct=   36.
 PrSmSu:  IncTry=   512 NBBP=             10 NTPThr=   100 NPartT=   36 Incr=           1 LDynOK=F GPUOK=F.
 PrsmSu:  NPrtUS=  36 ThrOK=T IAlg=1 LenDen=           0 ISkipM=0 DoSpLW=F IThBeg=    0 IThEnd=   35.
 Prism:   IPart=     0 DynPar=F LinDyn=F Incr=           1.
 PRISM was handed   268433793 working-precision words and    10 shell-pairs
 PRISM was handed   268433793 working-precision words and    10 shell-pairs
 PRISM was handed   268433793 working-precision words and    10 shell-pairs
 PRISM was handed   268433793 working-precision words and    10 shell-pairs
 PRISM was handed   268433793 working-precision words and    10 shell-pairs
 PRISM was handed   268433793 working-precision words and    10 shell-pairs
 PRISM was handed   268433793 working-precision words and    10 shell-pairs
 PRISM was handed   268433793 working-precision words and    10 shell-pairs
 PRISM was handed   268433793 working-precision words and    10 shell-pairs
 PRISM was handed   268433793 working-precision words and    10 shell-pairs
 PRISM was handed   268433793 working-precision words and    10 shell-pairs
 PRISM was handed   268433793 working-precision words and    10 shell-pairs
 IPart= 10 NShTot=           0 NBatch=           0 AvBLen=         0.0
 IPart= 17 NShTot=           0 NBatch=           0 AvBLen=         0.0
 IPart=  6 NShTot=           0 NBatch=           0 AvBLen=         0.0
 IPart= 32 NShTot=           0 NBatch=           0 AvBLen=         0.0
 IPart= 12 NShTot=           0 NBatch=           0 AvBLen=         0.0
 IPart= 19 NShTot=           0 NBatch=           0 AvBLen=         0.0
 IPart=  2 NShTot=           0 NBatch=           0 AvBLen=         0.0
 IPart=  4 NShTot=           0 NBatch=           0 AvBLen=         0.0
 IPart=  5 NShTot=           0 NBatch=           0 AvBLen=         0.0
 PRISM was handed   268433793 working-precision words and    10 shell-pairs
 PRISM was handed   268433793 working-precision words and    10 shell-pairs
 IPart=  3 NShTot=           0 NBatch=           0 AvBLen=         0.0
 IPart= 16 NShTot=           0 NBatch=           0 AvBLen=         0.0
 PRISM was handed   268433793 working-precision words and    10 shell-pairs
 PRISM was handed   268433793 working-precision words and    10 shell-pairs
 IPart= 14 NShTot=           0 NBatch=           0 AvBLen=         0.0
 PRISM was handed   268433793 working-precision words and    10 shell-pairs
 PRISM was handed   268433793 working-precision words and    10 shell-pairs
 PRISM was handed   268433793 working-precision words and    10 shell-pairs
 IPart= 20 NShTot=           0 NBatch=           0 AvBLen=         0.0
 IPart=  1 NShTot=           0 NBatch=           0 AvBLen=         0.0
 IPart= 15 NShTot=           0 NBatch=           0 AvBLen=         0.0
 IPart= 21 NShTot=           0 NBatch=           0 AvBLen=         0.0
 IPart= 13 NShTot=           0 NBatch=           0 AvBLen=         0.0
 IPart=  8 NShTot=           0 NBatch=           0 AvBLen=         0.0
 PRISM was handed   268433793 working-precision words and    10 shell-pairs
 PRISM was handed   268433793 working-precision words and    10 shell-pairs
 PRISM was handed   268433793 working-precision words and    10 shell-pairs
 PRISM was handed   268433793 working-precision words and    10 shell-pairs
 IPart= 11 NShTot=           0 NBatch=           0 AvBLen=         0.0
 PRISM was handed   268433793 working-precision words and    10 shell-pairs
 IPart=  0 NShTot=          10 NBatch=          10 AvBLen=         1.0
 IPart= 30 NShTot=           0 NBatch=           0 AvBLen=         0.0
 IPart= 31 NShTot=           0 NBatch=           0 AvBLen=         0.0
 PRISM was handed   268433793 working-precision words and    10 shell-pairs
 PRISM was handed   268433793 working-precision words and    10 shell-pairs
 IPart= 23 NShTot=           0 NBatch=           0 AvBLen=         0.0
 PRISM was handed   268433793 working-precision words and    10 shell-pairs
 IPart= 29 NShTot=           0 NBatch=           0 AvBLen=         0.0
 IPart= 24 NShTot=           0 NBatch=           0 AvBLen=         0.0
 IPart=  9 NShTot=           0 NBatch=           0 AvBLen=         0.0
 PRISM was handed   268433793 working-precision words and    10 shell-pairs
 PRISM was handed   268433793 working-precision words and    10 shell-pairs
 IPart= 18 NShTot=           0 NBatch=           0 AvBLen=         0.0
 PRISM was handed   268433793 working-precision words and    10 shell-pairs
 PRISM was handed   268433793 working-precision words and    10 shell-pairs
 PRISM was handed   268433793 working-precision words and    10 shell-pairs
 PRISM was handed   268433793 working-precision words and    10 shell-pairs
 PRISM was handed   268433793 working-precision words and    10 shell-pairs
 IPart=  7 NShTot=           0 NBatch=           0 AvBLen=         0.0
 PRISM was handed   268433793 working-precision words and    10 shell-pairs
 PRISM was handed   268433793 working-precision words and    10 shell-pairs
 IPart= 26 NShTot=           0 NBatch=           0 AvBLen=         0.0
 IPart= 22 NShTot=           0 NBatch=           0 AvBLen=         0.0
 IPart= 28 NShTot=           0 NBatch=           0 AvBLen=         0.0
 IPart= 34 NShTot=           0 NBatch=           0 AvBLen=         0.0
 IPart= 33 NShTot=           0 NBatch=           0 AvBLen=         0.0
 IPart= 35 NShTot=           0 NBatch=           0 AvBLen=         0.0
 IPart= 25 NShTot=           0 NBatch=           0 AvBLen=         0.0
 IPart= 27 NShTot=           0 NBatch=           0 AvBLen=         0.0
 PrSmSu:  NxtVal=             37.
 *** Overlap *** 
                1             2             3             4             5 
      1  0.100000D+01
      2  0.619819D-03  0.100000D+01
      3  0.639193D-01  0.145258D+00  0.100000D+01
      4  0.000000D+00  0.000000D+00  0.000000D+00  0.100000D+01
      5  0.000000D+00  0.000000D+00  0.000000D+00  0.000000D+00  0.100000D+01
      6 -0.149668D+00  0.000000D+00  0.000000D+00  0.000000D+00  0.000000D+00
      7  0.130270D+00  0.185742D+00  0.905515D+00  0.000000D+00  0.000000D+00
      8  0.000000D+00  0.000000D+00  0.000000D+00  0.802063D+00  0.000000D+00
      9  0.000000D+00  0.000000D+00  0.000000D+00  0.000000D+00  0.802063D+00
     10 -0.274889D+00  0.000000D+00  0.000000D+00  0.000000D+00  0.000000D+00
                6             7             8             9            10 
      6  0.100000D+01
      7  0.000000D+00  0.100000D+01
      8  0.000000D+00  0.000000D+00  0.100000D+01
      9  0.000000D+00  0.000000D+00  0.000000D+00  0.100000D+01
     10  0.802063D+00  0.000000D+00  0.000000D+00  0.000000D+00  0.100000D+01
 *** Kinetic Energy *** 
                1             2             3             4             5 
      1  0.760032D+00
      2 -0.745536D-03  0.362575D+01
      3 -0.681381D-02 -0.242849D+00  0.145919D+00
      4  0.000000D+00  0.000000D+00  0.000000D+00  0.242177D+00
      5  0.000000D+00  0.000000D+00  0.000000D+00  0.000000D+00  0.242177D+00
      6  0.194521D-03  0.000000D+00  0.000000D+00  0.000000D+00  0.000000D+00
      7  0.169163D-02  0.193002D-01  0.653913D-01  0.000000D+00  0.000000D+00
      8  0.000000D+00  0.000000D+00  0.000000D+00  0.100038D+00  0.000000D+00
      9  0.000000D+00  0.000000D+00  0.000000D+00  0.000000D+00  0.100038D+00
     10 -0.206790D-01  0.000000D+00  0.000000D+00  0.000000D+00  0.000000D+00
                6             7             8             9            10 
      6  0.242177D+00
      7  0.000000D+00  0.539430D-01
      8  0.000000D+00  0.000000D+00  0.899049D-01
      9  0.000000D+00  0.000000D+00  0.000000D+00  0.899049D-01
     10  0.100038D+00  0.000000D+00  0.000000D+00  0.000000D+00  0.899049D-01
 Entering OneElI...
 Calculate potential energy integrals
    NBasis =  10  MinDer = 0  MaxDer = 0
 Requested accuracy = 0.1000D-12
 Symmetry will be used
 PrmmSu-InSpLW:  IPartL=    0 NPrtUS=   36 NPrtUL=    1 DoSpLW=F IThBeg=    0 IThEnd=   35 NThAct=   36.
 PrSmSu:  IncTry=   512 NBBP=             20 NTPThr=   100 NPartT=   36 Incr=           1 LDynOK=F GPUOK=F.
 PrsmSu:  NPrtUS=  36 ThrOK=T IAlg=1 LenDen=           0 ISkipM=0 DoSpLW=F IThBeg=    0 IThEnd=   35.
 Prism:   IPart=     0 DynPar=F LinDyn=F Incr=           1.
 PRISM was handed   268433843 working-precision words and    10 shell-pairs
 PRISM was handed   268433843 working-precision words and    10 shell-pairs
 PRISM was handed   268433843 working-precision words and    10 shell-pairs
 PRISM was handed   268433843 working-precision words and    10 shell-pairs
 PRISM was handed   268433843 working-precision words and    10 shell-pairs
 PRISM was handed   268433843 working-precision words and    10 shell-pairs
 PRISM was handed   268433843 working-precision words and    10 shell-pairs
 PRISM was handed   268433843 working-precision words and    10 shell-pairs
 PRISM was handed   268433843 working-precision words and    10 shell-pairs
 PRISM was handed   268433843 working-precision words and    10 shell-pairs
 PRISM was handed   268433843 working-precision words and    10 shell-pairs
 PRISM was handed   268433843 working-precision words and    10 shell-pairs
 PRISM was handed   268433843 working-precision words and    10 shell-pairs
 PRISM was handed   268433843 working-precision words and    10 shell-pairs
 PRISM was handed   268433843 working-precision words and    10 shell-pairs
 PRISM was handed   268433843 working-precision words and    10 shell-pairs
 PRISM was handed   268433843 working-precision words and    10 shell-pairs
 PRISM was handed   268433843 working-precision words and    10 shell-pairs
 PRISM was handed   268433843 working-precision words and    10 shell-pairs
 PRISM was handed   268433843 working-precision words and    10 shell-pairs
 PRISM was handed   268433843 working-precision words and    10 shell-pairs
 PRISM was handed   268433843 working-precision words and    10 shell-pairs
 PRISM was handed   268433843 working-precision words and    10 shell-pairs
 PRISM was handed   268433843 working-precision words and    10 shell-pairs
 PRISM was handed   268433843 working-precision words and    10 shell-pairs
 PRISM was handed   268433843 working-precision words and    10 shell-pairs
 PRISM was handed   268433843 working-precision words and    10 shell-pairs
 PRISM was handed   268433843 working-precision words and    10 shell-pairs
 PRISM was handed   268433843 working-precision words and    10 shell-pairs
 PRISM was handed   268433843 working-precision words and    10 shell-pairs
 PRISM was handed   268433843 working-precision words and    10 shell-pairs
 PRISM was handed   268433843 working-precision words and    10 shell-pairs
 PRISM was handed   268433843 working-precision words and    10 shell-pairs
 PRISM was handed   268433843 working-precision words and    10 shell-pairs
 PRISM was handed   268433843 working-precision words and    10 shell-pairs
 PRISM was handed   268433843 working-precision words and    10 shell-pairs
 IPart=  0 NShTot=          20 NBatch=          10 AvBLen=         2.0
 IPart= 21 NShTot=           0 NBatch=           0 AvBLen=         0.0
 IPart=  5 NShTot=           0 NBatch=           0 AvBLen=         0.0
 IPart= 28 NShTot=           0 NBatch=           0 AvBLen=         0.0
 IPart= 26 NShTot=           0 NBatch=           0 AvBLen=         0.0
 IPart= 29 NShTot=           0 NBatch=           0 AvBLen=         0.0
 IPart= 34 NShTot=           0 NBatch=           0 AvBLen=         0.0
 IPart= 13 NShTot=           0 NBatch=           0 AvBLen=         0.0
 IPart= 24 NShTot=           0 NBatch=           0 AvBLen=         0.0
 IPart= 20 NShTot=           0 NBatch=           0 AvBLen=         0.0
 IPart= 31 NShTot=           0 NBatch=           0 AvBLen=         0.0
 IPart= 10 NShTot=           0 NBatch=           0 AvBLen=         0.0
 IPart=  9 NShTot=           0 NBatch=           0 AvBLen=         0.0
 IPart=  2 NShTot=           0 NBatch=           0 AvBLen=         0.0
 IPart= 30 NShTot=           0 NBatch=           0 AvBLen=         0.0
 IPart=  8 NShTot=           0 NBatch=           0 AvBLen=         0.0
 IPart=  7 NShTot=           0 NBatch=           0 AvBLen=         0.0
 IPart= 17 NShTot=           0 NBatch=           0 AvBLen=         0.0
 IPart= 18 NShTot=           0 NBatch=           0 AvBLen=         0.0
 IPart= 19 NShTot=           0 NBatch=           0 AvBLen=         0.0
 IPart= 11 NShTot=           0 NBatch=           0 AvBLen=         0.0
 IPart=  6 NShTot=           0 NBatch=           0 AvBLen=         0.0
 IPart= 25 NShTot=           0 NBatch=           0 AvBLen=         0.0
 IPart=  4 NShTot=           0 NBatch=           0 AvBLen=         0.0
 IPart= 33 NShTot=           0 NBatch=           0 AvBLen=         0.0
 IPart= 23 NShTot=           0 NBatch=           0 AvBLen=         0.0
 IPart= 35 NShTot=           0 NBatch=           0 AvBLen=         0.0
 IPart= 22 NShTot=           0 NBatch=           0 AvBLen=         0.0
 IPart= 32 NShTot=           0 NBatch=           0 AvBLen=         0.0
 IPart=  3 NShTot=           0 NBatch=           0 AvBLen=         0.0
 IPart= 15 NShTot=           0 NBatch=           0 AvBLen=         0.0
 IPart= 27 NShTot=           0 NBatch=           0 AvBLen=         0.0
 IPart= 14 NShTot=           0 NBatch=           0 AvBLen=         0.0
 IPart=  1 NShTot=           0 NBatch=           0 AvBLen=         0.0
 IPart= 16 NShTot=           0 NBatch=           0 AvBLen=         0.0
 IPart= 12 NShTot=           0 NBatch=           0 AvBLen=         0.0
 PrSmSu:  NxtVal=             37.
 ***** Potential Energy ***** 
                1             2             3             4             5 
      1  0.169353D+01
      2  0.183985D-02  0.822666D+01
      3  0.758861D-01  0.308636D+00  0.126849D+01
      4  0.000000D+00  0.000000D+00  0.000000D+00  0.116697D+01
      5  0.000000D+00  0.000000D+00  0.000000D+00  0.000000D+00  0.116697D+01
      6 -0.180660D+00 -0.318933D-02 -0.447036D-01  0.000000D+00  0.000000D+00
      7  0.153958D+00  0.782828D+00  0.106906D+01  0.000000D+00  0.000000D+00
      8  0.000000D+00  0.000000D+00  0.000000D+00  0.747409D+00  0.000000D+00
      9  0.000000D+00  0.000000D+00  0.000000D+00  0.000000D+00  0.747409D+00
     10 -0.326667D+00 -0.874702D-03 -0.373416D-01  0.000000D+00  0.000000D+00
                6             7             8             9            10 
      6  0.119897D+01
      7 -0.500591D-01  0.106118D+01
      8  0.000000D+00  0.000000D+00  0.735362D+00
      9  0.000000D+00  0.000000D+00  0.000000D+00  0.735362D+00
     10  0.782554D+00 -0.565466D-01  0.000000D+00  0.000000D+00  0.789437D+00
 ****** Core Hamiltonian ****** 
                1             2             3             4             5 
      1 -0.933503D+00
      2 -0.258538D-02 -0.460091D+01
      3 -0.826999D-01 -0.551485D+00 -0.112257D+01
      4  0.000000D+00  0.000000D+00  0.000000D+00 -0.924795D+00
      5  0.000000D+00  0.000000D+00  0.000000D+00  0.000000D+00 -0.924795D+00
      6  0.180854D+00  0.318933D-02  0.447036D-01  0.000000D+00  0.000000D+00
      7 -0.152267D+00 -0.763527D+00 -0.100367D+01  0.000000D+00  0.000000D+00
      8  0.000000D+00  0.000000D+00  0.000000D+00 -0.647371D+00  0.000000D+00
      9  0.000000D+00  0.000000D+00  0.000000D+00  0.000000D+00 -0.647371D+00
     10  0.305988D+00  0.874702D-03  0.373416D-01  0.000000D+00  0.000000D+00
                6             7             8             9            10 
      6 -0.956790D+00
      7  0.500591D-01 -0.100724D+01
      8  0.000000D+00  0.000000D+00 -0.645457D+00
      9  0.000000D+00  0.000000D+00  0.000000D+00 -0.645457D+00
     10 -0.682516D+00  0.565466D-01  0.000000D+00  0.000000D+00 -0.699532D+00
 SVDSVc IOpt=   1 NormSV=T IR=1
 SVDSVc V= 2.00D+00 1.88D+00 9.57D-01 8.84D-01 1.88D-01 9.06D-02
 SVDSVc IOpt=   1 NormSV=T IR=3
 SVDSVc V= 1.80D+00 1.98D-01
 SVDSVc IOpt=   1 NormSV=T IR=4
 SVDSVc V= 1.80D+00 1.98D-01
 TstOVc:  Largest diagonal error= 3.33D-15 IB=1 I=    6.
 TstOVc:  Largest same sym error= 6.07D-16 IB=1 I=    6 J=    2.
 TstOVc:  Largest diff sym error= 0.00D+00 IB=0 JB=0 I=    0 J=    0.
 Orthogonalized basis functions: 
                 1             2             3             4             5 
      1   0.162882D+00 -0.174621D+00 -0.406458D+00  0.899059D+00  0.263473D+00
      2   0.146857D+00  0.757208D-01  0.910315D+00  0.414209D+00  0.123119D-02
      3   0.436847D+00  0.205158D+00 -0.122997D+00 -0.200974D+00 -0.109007D+00
      4   0.000000D+00  0.000000D+00  0.000000D+00  0.000000D+00  0.000000D+00
      5   0.000000D+00  0.000000D+00  0.000000D+00  0.000000D+00  0.000000D+00
      6  -0.172214D+00  0.447558D+00 -0.135654D+00  0.289948D+00 -0.158346D+01
      7   0.445656D+00  0.200396D+00 -0.111542D+00 -0.104195D+00  0.789844D-01
      8   0.000000D+00  0.000000D+00  0.000000D+00  0.000000D+00  0.000000D+00
      9   0.000000D+00  0.000000D+00  0.000000D+00  0.000000D+00  0.000000D+00
     10  -0.183555D+00  0.460529D+00 -0.686308D-01  0.125884D+00  0.165275D+01
                 6             7             8             9            10 
      1  -0.203240D+00  0.000000D+00  0.000000D+00  0.000000D+00  0.000000D+00
      2  -0.111691D+00  0.000000D+00  0.000000D+00  0.000000D+00  0.000000D+00
      3  -0.231871D+01  0.000000D+00  0.000000D+00  0.000000D+00  0.000000D+00
      4   0.000000D+00  0.526744D+00  0.158936D+01  0.000000D+00  0.000000D+00
      5   0.000000D+00  0.000000D+00  0.000000D+00  0.526744D+00  0.158936D+01
      6   0.933835D-01  0.000000D+00  0.000000D+00  0.000000D+00  0.000000D+00
      7   0.236082D+01  0.000000D+00  0.000000D+00  0.000000D+00  0.000000D+00
      8   0.000000D+00  0.526744D+00 -0.158936D+01  0.000000D+00  0.000000D+00
      9   0.000000D+00  0.000000D+00  0.000000D+00  0.526744D+00 -0.158936D+01
     10  -0.143802D+00  0.000000D+00  0.000000D+00  0.000000D+00  0.000000D+00
 NBasis=    10 RedAO= T EigKep=  9.06D-02  NBF=     6     0     2     2
 NBsUse=    10 1.00D-06 EigRej= -1.00D+00 NBFU=     6     0     2     2
 Leave Link  302 at Mon Mar 28 14:01:16 2022, MaxMem=  9663676416 cpu:               3.0 elap:               0.1
 (Enter /nopt/nrel/apps/gaussian/g16C_1/g16/l303.exe)
 DipDrv will not compute anything.
 Fermi contact integrals: 
                 1             2 
      1   0.628247D+00  0.783888D-04
      2   0.000000D+00  0.252653D+01
      3   0.440635D-02 -0.285664D-01
      4   0.000000D+00  0.000000D+00
      5   0.000000D+00  0.000000D+00
      6  -0.138842D-01  0.000000D+00
      7   0.133369D-01  0.588563D-01
      8   0.000000D+00  0.000000D+00
      9   0.000000D+00  0.000000D+00
     10  -0.325001D-01  0.000000D+00
 Leave Link  303 at Mon Mar 28 14:01:17 2022, MaxMem=  9663676416 cpu:               1.0 elap:               0.1
 (Enter /nopt/nrel/apps/gaussian/g16C_1/g16/l401.exe)
 ExpMin= 3.60D-02 ExpMax= 6.42D+02 ExpMxC= 9.68D+01 IAcc=3 IRadAn=         5 AccDes= 0.00D+00
 Harris functional with IExCor=  205 and IRadAn=       5 diagonalized for initial guess.
 HarFok:  IExCor=  205 AccDes= 0.00D+00 IRadAn=         5 IDoV= 1 UseB2=F ITyADJ=14
 ICtDFT=  3500011 ScaDFX=  1.000000  1.000000  1.000000  1.000000
 FoFCou: FMM=F IPFlag=           0 FMFlag=      100000 FMFlg1=           0
         NFxFlg=           0 DoJE=T BraDBF=F KetDBF=T FulRan=T
         wScrn=  0.000000 ICntrl=       500 IOpCl=  0 I1Cent=   200000004 NGrid=           0
         NMat0=    1 NMatS0=      1 NMatT0=    0 NMatD0=    1 NMtDS0=    0 NMtDT0=    0
 Petite list used in FoFCou.
 Harris En= -7.91228236697820    
 JPrj=0 DoOrth=F DoCkMO=F.
 Initial guess orbital symmetries:
       Occupied  (SG) (SG)
       Virtual   (SG) (PI) (PI) (SG) (PI) (PI) (SG) (SG)
 The electronic state of the initial guess is 1-SG.
 Leave Link  401 at Mon Mar 28 14:01:17 2022, MaxMem=  9663676416 cpu:               3.3 elap:               0.1
 (Enter /nopt/nrel/apps/gaussian/g16C_1/g16/l502.exe)
 Keep R1 ints in memory in symmetry-blocked form, NReq=7210395.
 FoFCou: FMM=F IPFlag=           0 FMFlag=           0 FMFlg1=           0
         NFxFlg=           0 DoJE=F BraDBF=F KetDBF=F FulRan=T
         wScrn=  0.000000 ICntrl=       600 IOpCl=  0 I1Cent=           0 NGrid=           0
         NMat0=    1 NMatS0=     55 NMatT0=    0 NMatD0=    1 NMtDS0=    0 NMtDT0=    0
 Petite list used in FoFCou.
 Closed shell SCF:
 Using DIIS extrapolation, IDIIS=  1040.
 NGot=  9663676416 LenX=  9663673310 LenY=  9663672428
 Requested convergence on RMS density matrix=1.00D-08 within 128 cycles.
 Requested convergence on MAX density matrix=1.00D-06.
 Requested convergence on             energy=1.00D-06.
 No special actions if energy rises.

 Cycle   1  Pass 1  IDiag  1:
 E= -7.75678356891022    
 DIIS: error= 3.45D-02 at cycle   1 NSaved=   1.
 NSaved= 1 IEnMin= 1 EnMin= -7.75678356891022     IErMin= 1 ErrMin= 3.45D-02
 ErrMax= 3.45D-02  0.00D+00 EMaxC= 1.00D-01 BMatC= 1.68D-02 BMatP= 1.68D-02
 IDIUse=3 WtCom= 6.55D-01 WtEn= 3.45D-01
 Coeff-Com:  0.100D+01
 Coeff-En:   0.100D+01
 Coeff:      0.100D+01
 Gap=     0.039 Goal=   None    Shift=    0.000
 GapD=    0.039 DampG=0.250 DampE=0.500 DampFc=0.2500 IDamp=-1.
 Damping current iteration by 2.50D-01
 RMSDP=6.08D-02 MaxDP=4.20D-01              OVMax= 4.26D-01

 Cycle   2  Pass 1  IDiag  1:
 E= -7.78048588564887     Delta-E=       -0.023702316739 Rises=F Damp=T
 DIIS: error= 2.28D-02 at cycle   2 NSaved=   2.
 NSaved= 2 IEnMin= 2 EnMin= -7.78048588564887     IErMin= 2 ErrMin= 2.28D-02
 ErrMax= 2.28D-02  0.00D+00 EMaxC= 1.00D-01 BMatC= 7.82D-03 BMatP= 1.68D-02
 IDIUse=3 WtCom= 7.72D-01 WtEn= 2.28D-01
 Coeff-Com: -0.207D+01 0.307D+01
 Coeff-En:   0.000D+00 0.100D+01
 Coeff:     -0.160D+01 0.260D+01
 Gap=     0.168 Goal=   None    Shift=    0.000
 RMSDP=3.23D-02 MaxDP=2.21D-01 DE=-2.37D-02 OVMax= 8.20D-02

 Cycle   3  Pass 1  IDiag  1:
 E= -7.83840406653527     Delta-E=       -0.057918180886 Rises=F Damp=F
 DIIS: error= 1.77D-03 at cycle   3 NSaved=   3.
 NSaved= 3 IEnMin= 3 EnMin= -7.83840406653527     IErMin= 3 ErrMin= 1.77D-03
 ErrMax= 1.77D-03  0.00D+00 EMaxC= 1.00D-01 BMatC= 2.39D-05 BMatP= 7.82D-03
 IDIUse=3 WtCom= 9.82D-01 WtEn= 1.77D-02
 Coeff-Com:  0.851D-01-0.956D-01 0.101D+01
 Coeff-En:   0.000D+00 0.000D+00 0.100D+01
 Coeff:      0.836D-01-0.939D-01 0.101D+01
 Gap=     0.190 Goal=   None    Shift=    0.000
 RMSDP=1.96D-03 MaxDP=1.06D-02 DE=-5.79D-02 OVMax= 1.45D-02

 Cycle   4  Pass 1  IDiag  1:
 E= -7.83853662085660     Delta-E=       -0.000132554321 Rises=F Damp=F
 DIIS: error= 3.46D-04 at cycle   4 NSaved=   4.
 NSaved= 4 IEnMin= 4 EnMin= -7.83853662085660     IErMin= 4 ErrMin= 3.46D-04
 ErrMax= 3.46D-04  0.00D+00 EMaxC= 1.00D-01 BMatC= 1.66D-06 BMatP= 2.39D-05
 IDIUse=3 WtCom= 9.97D-01 WtEn= 3.46D-03
 Coeff-Com: -0.965D-01 0.125D+00-0.203D+00 0.117D+01
 Coeff-En:   0.000D+00 0.000D+00 0.000D+00 0.100D+01
 Coeff:     -0.962D-01 0.125D+00-0.202D+00 0.117D+01
 Gap=     0.189 Goal=   None    Shift=    0.000
 RMSDP=5.19D-04 MaxDP=1.79D-03 DE=-1.33D-04 OVMax= 4.45D-03

 Cycle   5  Pass 1  IDiag  1:
 E= -7.83855240804452     Delta-E=       -0.000015787188 Rises=F Damp=F
 DIIS: error= 1.79D-04 at cycle   5 NSaved=   5.
 NSaved= 5 IEnMin= 5 EnMin= -7.83855240804452     IErMin= 5 ErrMin= 1.79D-04
 ErrMax= 1.79D-04  0.00D+00 EMaxC= 1.00D-01 BMatC= 3.84D-07 BMatP= 1.66D-06
 IDIUse=3 WtCom= 9.98D-01 WtEn= 1.79D-03
 Coeff-Com: -0.304D-01 0.462D-01 0.267D-01-0.857D+00 0.181D+01
 Coeff-En:   0.000D+00 0.000D+00 0.000D+00 0.000D+00 0.100D+01
 Coeff:     -0.304D-01 0.461D-01 0.266D-01-0.855D+00 0.181D+01
 Gap=     0.189 Goal=   None    Shift=    0.000
 RMSDP=4.27D-04 MaxDP=1.68D-03 DE=-1.58D-05 OVMax= 3.98D-03

 Cycle   6  Pass 1  IDiag  1:
 E= -7.83855788461831     Delta-E=       -0.000005476574 Rises=F Damp=F
 DIIS: error= 3.91D-05 at cycle   6 NSaved=   6.
 NSaved= 6 IEnMin= 6 EnMin= -7.83855788461831     IErMin= 6 ErrMin= 3.91D-05
 ErrMax= 3.91D-05  0.00D+00 EMaxC= 1.00D-01 BMatC= 1.98D-08 BMatP= 3.84D-07
 IDIUse=1 WtCom= 1.00D+00 WtEn= 0.00D+00
 Coeff-Com: -0.491D-02 0.605D-02-0.117D-01 0.110D+00-0.377D+00 0.128D+01
 Coeff:     -0.491D-02 0.605D-02-0.117D-01 0.110D+00-0.377D+00 0.128D+01
 Gap=     0.189 Goal=   None    Shift=    0.000
 RMSDP=9.63D-05 MaxDP=4.27D-04 DE=-5.48D-06 OVMax= 8.99D-04

 Cycle   7  Pass 1  IDiag  1:
 E= -7.83855815314420     Delta-E=       -0.000000268526 Rises=F Damp=F
 DIIS: error= 8.34D-06 at cycle   7 NSaved=   7.
 NSaved= 7 IEnMin= 7 EnMin= -7.83855815314420     IErMin= 7 ErrMin= 8.34D-06
 ErrMax= 8.34D-06  0.00D+00 EMaxC= 1.00D-01 BMatC= 1.07D-09 BMatP= 1.98D-08
 IDIUse=1 WtCom= 1.00D+00 WtEn= 0.00D+00
 Coeff-Com: -0.286D-03 0.432D-03 0.271D-03-0.664D-02 0.744D-01-0.602D+00
 Coeff-Com:  0.153D+01
 Coeff:     -0.286D-03 0.432D-03 0.271D-03-0.664D-02 0.744D-01-0.602D+00
 Coeff:      0.153D+01
 Gap=     0.189 Goal=   None    Shift=    0.000
 RMSDP=2.88D-05 MaxDP=1.50D-04 DE=-2.69D-07 OVMax= 2.38D-04

 Cycle   8  Pass 1  IDiag  1:
 E= -7.83855816684569     Delta-E=       -0.000000013701 Rises=F Damp=F
 DIIS: error= 3.34D-07 at cycle   8 NSaved=   8.
 NSaved= 8 IEnMin= 8 EnMin= -7.83855816684569     IErMin= 8 ErrMin= 3.34D-07
 ErrMax= 3.34D-07  0.00D+00 EMaxC= 1.00D-01 BMatC= 1.90D-12 BMatP= 1.07D-09
 IDIUse=1 WtCom= 1.00D+00 WtEn= 0.00D+00
 Coeff-Com: -0.333D-04 0.485D-04 0.489D-04-0.119D-02-0.941D-02 0.107D+00
 Coeff-Com: -0.295D+00 0.120D+01
 Coeff:     -0.333D-04 0.485D-04 0.489D-04-0.119D-02-0.941D-02 0.107D+00
 Coeff:     -0.295D+00 0.120D+01
 Gap=     0.189 Goal=   None    Shift=    0.000
 RMSDP=9.07D-07 MaxDP=3.79D-06 DE=-1.37D-08 OVMax= 7.70D-06

 Cycle   9  Pass 1  IDiag  1:
 E= -7.83855816686602     Delta-E=       -0.000000000020 Rises=F Damp=F
 DIIS: error= 4.60D-08 at cycle   9 NSaved=   9.
 NSaved= 9 IEnMin= 9 EnMin= -7.83855816686602     IErMin= 9 ErrMin= 4.60D-08
 ErrMax= 4.60D-08  0.00D+00 EMaxC= 1.00D-01 BMatC= 2.18D-14 BMatP= 1.90D-12
 IDIUse=1 WtCom= 1.00D+00 WtEn= 0.00D+00
 Coeff-Com:  0.150D-05-0.205D-05-0.247D-04 0.260D-03 0.215D-02-0.236D-01
 Coeff-Com:  0.644D-01-0.400D+00 0.136D+01
 Coeff:      0.150D-05-0.205D-05-0.247D-04 0.260D-03 0.215D-02-0.236D-01
 Coeff:      0.644D-01-0.400D+00 0.136D+01
 Gap=     0.189 Goal=   None    Shift=    0.000
 RMSDP=1.53D-07 MaxDP=6.09D-07 DE=-2.03D-11 OVMax= 1.32D-06

 Cycle  10  Pass 1  IDiag  1:
 E= -7.83855816686635     Delta-E=       -0.000000000000 Rises=F Damp=F
 DIIS: error= 3.37D-09 at cycle  10 NSaved=  10.
 NSaved=10 IEnMin=10 EnMin= -7.83855816686635     IErMin=10 ErrMin= 3.37D-09
 ErrMax= 3.37D-09  0.00D+00 EMaxC= 1.00D-01 BMatC= 7.32D-17 BMatP= 2.18D-14
 IDIUse=1 WtCom= 1.00D+00 WtEn= 0.00D+00
 Coeff-Com:  0.294D-07-0.396D-07 0.790D-06-0.145D-05 0.175D-03-0.163D-02
 Coeff-Com:  0.443D-02-0.138D-01 0.557D-01 0.955D+00
 Coeff:      0.294D-07-0.396D-07 0.790D-06-0.145D-05 0.175D-03-0.163D-02
 Coeff:      0.443D-02-0.138D-01 0.557D-01 0.955D+00
 Gap=     0.189 Goal=   None    Shift=    0.000
 RMSDP=8.14D-09 MaxDP=3.16D-08 DE=-3.32D-13 OVMax= 7.81D-08

 SCF Done:  E(RHF) =  -7.83855816687     A.U. after   10 cycles
            NFock= 10  Conv=0.81D-08     -V/T= 1.9924
 KE= 7.898512777789D+00 PE=-1.900245187396D+01 EE= 2.798459860848D+00
 Leave Link  502 at Mon Mar 28 14:01:17 2022, MaxMem=  9663676416 cpu:               4.2 elap:               0.2
 (Enter /nopt/nrel/apps/gaussian/g16C_1/g16/l801.exe)
 Windowed orbitals will be sorted by symmetry type.
 ExpMin= 3.60D-02 ExpMax= 6.42D+02 ExpMxC= 9.68D+01 IAcc=3 IRadAn=         5 AccDes= 0.00D+00
 HarFok:  IExCor=  205 AccDes= 0.00D+00 IRadAn=         5 IDoV=-2 UseB2=F ITyADJ=14
 ICtDFT= 12500011 ScaDFX=  1.000000  1.000000  1.000000  1.000000
 Largest valence mixing into a core orbital is  3.87D-04
 Largest core mixing into a valence orbital is  5.28D-05
 Range of M.O.s used for correlation:     2    10
 NBasis=    10 NAE=     2 NBE=     2 NFC=     1 NFV=     0
 NROrb=      9 NOA=     1 NOB=     1 NVA=     8 NVB=     8
 Leave Link  801 at Mon Mar 28 14:01:17 2022, MaxMem=  9663676416 cpu:               1.7 elap:               0.1
 (Enter /nopt/nrel/apps/gaussian/g16C_1/g16/l804.exe)
 Closed-shell transformation, MDV=  9663676416 ITran=4 ISComp=2.
 Unit  1 TFree=          4815 TCopy=        115391.
 Semi-Direct transformation.
 ModeAB=           2 MOrb=             1 LenV=    9663555049
 LASXX=           88 LTotXX=          88 LenRXX=          88
 LTotAB=         141 MaxLAS=         495 LenRXY=         495
 NonZer=         603 LenScr=      785920 LnRSAI=           0
 LnScr1=           0 LExtra=      218815 Total=      1005318
 MaxDsk= 34359738368 SrtSym=           F ITran=            4
 DoSDTr:  NPSUse= 36
 JobTyp=0 Pass  1:  I=   1 to   1.
 (rs|ai) integrals will be sorted in core.
 Complete sort for first half transformation.
 First half transformation complete.
 Complete sort for second half transformation.
 Second half transformation complete.
 Spin components of T(2) and E(2):
     alpha-alpha T2 =       0.0000000000D+00 E2=      0.0000000000D+00
     alpha-beta  T2 =       0.5506811932D-01 E2=     -0.3559877554D-01
     beta-beta   T2 =       0.0000000000D+00 E2=      0.0000000000D+00
 ANorm=    0.1027165089D+01
 E2 =    -0.3559877554D-01 EUMP2 =    -0.78741569424024D+01
 Leave Link  804 at Mon Mar 28 14:01:17 2022, MaxMem=  9663676416 cpu:               1.8 elap:               0.1
 (Enter /nopt/nrel/apps/gaussian/g16C_1/g16/l913.exe)
 CIDS:  MDV=  9663676416.
 Frozen-core window:  NFC=   1 NFV=   0.
 IFCWin=0 IBDFC=1 NFBD=     0     0 NFCmp=     0     0 NFFFC=     0     0
 Using DD3R+UMP44R for 1st iteration.
 Using DD4RQ for 2nd and later iterations.
 Keep R2 and R3 ints in memory in symmetry-blocked form, NReq=7212777.
 FoFCou: FMM=F IPFlag=           0 FMFlag=           0 FMFlg1=           0
         NFxFlg=           0 DoJE=F BraDBF=F KetDBF=F FulRan=T
         wScrn=  0.000000 ICntrl=       600 IOpCl=  0 I1Cent=           0 NGrid=           0
         NMat0=    1 NMatS0=     55 NMatT0=    0 NMatD0=    1 NMtDS0=    0 NMtDT0=    0
 Petite list used in FoFCou.
 CIDS: In Core Option IDoMem=           1.
 Coupled Cluster theory with single and double substitutions
 ===========================================================
 Iterations= 200 Convergence= 0.100D-06
 Produce multiple copies of IABC intergrals
 Iteration Nr.   1
 **********************
 DD1Dir will call FoFMem   1 times, MxPair=         2
 NAB=     1 NAA=     0 NBB=     0.
 MP4(R+Q)=  0.19603576D-02
 Maximum subspace dimension=  5
 A-vector RMS=  4.9509053D-02 Max=  6.4766266D-02 conv= 1.00D-05.
 RLE energy=       -0.0663460049
 E3=       -0.18490037D-01        EUMP3=      -0.78926469798D+01
 E4(DQ)=   -0.89346826D-02        UMP4(DQ)=   -0.79015816623D+01
 E4(SDQ)=  -0.10114315D-01        UMP4(SDQ)=  -0.79027612946D+01
 VARIATIONAL ENERGIES WITH THE FIRST-ORDER WAVEFUNCTION:
 DE(Corr)= -0.52096638E-01 E(Corr)=     -7.8906548046    
 NORM(A)=   0.11027048D+01
 Iteration Nr.   2
 **********************
 DD1Dir will call FoFMem   1 times, MxPair=         2
 NAB=     1 NAA=     0 NBB=     0.
 A-vector RMS=  2.2927994D-02 Max=  5.8409264D-02 conv= 1.00D-05.
 RLE energy=       -0.0696395855
 DE(Corr)= -0.67914392E-01 E(CORR)=     -7.9064725591     Delta=-1.58D-02
 NORM(A)=   0.11235542D+01
 Iteration Nr.   3
 **********************
 DD1Dir will call FoFMem   1 times, MxPair=         2
 NAB=     1 NAA=     0 NBB=     0.
 A-vector RMS=  3.2688631D-02 Max=  4.0542906D-02 conv= 1.00D-05.
 RLE energy=       -0.0707189115
 DE(Corr)= -0.69406769E-01 E(CORR)=     -7.9079649354     Delta=-1.49D-03
 NORM(A)=   0.11678822D+01
 Iteration Nr.   4
 **********************
 DD1Dir will call FoFMem   1 times, MxPair=         2
 NAB=     1 NAA=     0 NBB=     0.
 A-vector RMS=  9.0963050D-03 Max=  4.1159328D-02 conv= 1.00D-05.
 RLE energy=       -0.0783510319
 DE(Corr)= -0.72700245E-01 E(CORR)=     -7.9112584120     Delta=-3.29D-03
 NORM(A)=   0.12580665D+01
 Iteration Nr.   5
 **********************
 DD1Dir will call FoFMem   1 times, MxPair=         2
 NAB=     1 NAA=     0 NBB=     0.
 A-vector RMS=  1.1152111D-02 Max=  9.8926642D-03 conv= 1.00D-05.
 RLE energy=       -0.0728750371
 DE(Corr)= -0.77166099E-01 E(CORR)=     -7.9157242663     Delta=-4.47D-03
 NORM(A)=   0.12020964D+01
 Iteration Nr.   6
 **********************
 DD1Dir will call FoFMem   1 times, MxPair=         2
 NAB=     1 NAA=     0 NBB=     0.
 A-vector RMS=  1.3828675D-02 Max=  1.6810651D-02 conv= 1.00D-05.
 RLE energy=       -0.0782250463
 DE(Corr)= -0.73510486E-01 E(CORR)=     -7.9120686527     Delta= 3.66D-03
 NORM(A)=   0.12827838D+01
 Iteration Nr.   7
 **********************
 DD1Dir will call FoFMem   1 times, MxPair=         2
 NAB=     1 NAA=     0 NBB=     0.
 A-vector RMS=  1.7445553D-02 Max=  2.0334339D-02 conv= 1.00D-05.
 RLE energy=       -0.0751050807
 DE(Corr)= -0.77702261E-01 E(CORR)=     -7.9162604275     Delta=-4.19D-03
 NORM(A)=   0.12370447D+01
 Iteration Nr.   8
 **********************
 DD1Dir will call FoFMem   1 times, MxPair=         2
 NAB=     1 NAA=     0 NBB=     0.
 A-vector RMS=  3.2705489D-03 Max=  4.1474601D-03 conv= 1.00D-05.
 RLE energy=       -0.0756147152
 DE(Corr)= -0.75199046E-01 E(CORR)=     -7.9137572125     Delta= 2.50D-03
 NORM(A)=   0.12447112D+01
 Iteration Nr.   9
 **********************
 DD1Dir will call FoFMem   1 times, MxPair=         2
 NAB=     1 NAA=     0 NBB=     0.
 A-vector RMS=  2.6125862D-04 Max=  2.9246888D-04 conv= 1.00D-05.
 RLE energy=       -0.0755973448
 DE(Corr)= -0.75598365E-01 E(CORR)=     -7.9141565316     Delta=-3.99D-04
 NORM(A)=   0.12448341D+01
 Iteration Nr.  10
 **********************
 DD1Dir will call FoFMem   1 times, MxPair=         2
 NAB=     1 NAA=     0 NBB=     0.
 A-vector RMS=  4.1291511D-05 Max=  4.1688468D-05 conv= 1.00D-05.
 RLE energy=       -0.0756161219
 DE(Corr)= -0.75605425E-01 E(CORR)=     -7.9141635916     Delta=-7.06D-06
 NORM(A)=   0.12450810D+01
 Iteration Nr.  11
 **********************
 DD1Dir will call FoFMem   1 times, MxPair=         2
 NAB=     1 NAA=     0 NBB=     0.
 A-vector RMS=  8.8013404D-06 Max=  8.6879828D-06 conv= 1.00D-05.
 RLE energy=       -0.0756149307
 DE(Corr)= -0.75615959E-01 E(CORR)=     -7.9141741263     Delta=-1.05D-05
 NORM(A)=   0.12450531D+01
 Iteration Nr.  12
 **********************
 DD1Dir will call FoFMem   1 times, MxPair=         2
 NAB=     1 NAA=     0 NBB=     0.
 A-vector RMS=  2.1253186D-06 Max=  2.3178225D-06 conv= 1.00D-05.
 RLE energy=       -0.0756150775
 DE(Corr)= -0.75614913E-01 E(CORR)=     -7.9141730801     Delta= 1.05D-06
 NORM(A)=   0.12450532D+01
 Iteration Nr.  13
 **********************
 DD1Dir will call FoFMem   1 times, MxPair=         2
 NAB=     1 NAA=     0 NBB=     0.
 A-vector RMS=  4.7297364D-07 Max=  5.4336406D-07 conv= 1.00D-05.
 RLE energy=       -0.0756150004
 DE(Corr)= -0.75615060E-01 E(CORR)=     -7.9141732271     Delta=-1.47D-07
 NORM(A)=   0.12450528D+01
 Iteration Nr.  14
 **********************
 DD1Dir will call FoFMem   1 times, MxPair=         2
 NAB=     1 NAA=     0 NBB=     0.
 A-vector RMS=  3.1629269D-07 Max=  2.7952971D-07 conv= 1.00D-05.
 RLE energy=       -0.0756150655
 DE(Corr)= -0.75615024E-01 E(CORR)=     -7.9141731907     Delta= 3.64D-08
 NORM(A)=   0.12450537D+01
 CI/CC converged in   14 iterations to DelEn= 3.64D-08 Conv= 1.00D-07 ErrA1= 3.16D-07 Conv= 1.00D-05
 Wavefunction amplitudes converged. E(Corr)=     -7.9141731907    
 Dominant configurations:
 ***********************
 Spin Case        I    J    A    B          Value
    AA            2         3            0.270942D+00
   ABAB           2    2    3    3      -0.344376D+00
   ABAB           2    2    3    6      -0.285927D+00
   ABAB           2    2    3   10      -0.103063D+00
   ABAB           2    2    6    3      -0.285927D+00
   ABAB           2    2    6    6      -0.243230D+00
   ABAB           2    2   10    3      -0.103063D+00
 Largest amplitude= 3.44D-01
 Discarding MO integrals.
 Leave Link  913 at Mon Mar 28 14:01:17 2022, MaxMem=  9663676416 cpu:               4.4 elap:               0.2
 (Enter /nopt/nrel/apps/gaussian/g16C_1/g16/l601.exe)
 Copying SCF densities to generalized density rwf, IOpCl= 0 IROHF=0.

 **********************************************************************

            Population analysis using the SCF Density.

 **********************************************************************

 Orbital symmetries:
       Occupied  (SG) (SG)
       Virtual   (SG) (PI) (PI) (SG) (SG) (PI) (PI) (SG)
 The electronic state is 1-SG.
 Alpha  occ. eigenvalues --   -2.54493  -0.20858
 Alpha virt. eigenvalues --   -0.02007   0.04043   0.04043   0.14010   0.17332
 Alpha virt. eigenvalues --    0.19002   0.19002   0.26291
          Condensed to atoms (all electrons):
               1          2
     1  H    0.686009   0.213468
     2  Li   0.213468   2.887055
 Mulliken charges:
               1
     1  H    0.100523
     2  Li  -0.100523
 Sum of Mulliken charges =  -0.00000
 Mulliken charges with hydrogens summed into heavy atoms:
               1
     2  Li  -0.000000
 N-N= 4.669210684588D-01 E-N=-1.900245189081D+01  KE= 7.898512777789D+00
 Symmetry A1   KE= 7.898512777789D+00
 Symmetry A2   KE= 0.000000000000D+00
 Symmetry B1   KE= 0.000000000000D+00
 Symmetry B2   KE= 0.000000000000D+00

 Atomic contributions to Alpha molecular orbitals:
 Alpha occ 1 OE=-2.545 is Li2-s=1.0000
 Alpha occ 2 OE=-0.209 is H1-s=0.4497 Li2-s=0.3290 Li2-p=0.2212
 Alpha vir 3 OE=-0.020 is Li2-s=0.5929 Li2-p=0.3505
 Alpha vir 4 OE=0.040 is Li2-p=1.0000
 Alpha vir 5 OE=0.040 is Li2-p=1.0000
 Alpha vir 6 OE=0.140 is Li2-p=0.3653 Li2-s=0.3365 H1-s=0.2982
 Alpha vir 7 OE=0.173 is Li2-p=0.7051 Li2-s=0.2854
 Alpha vir 8 OE=0.190 is Li2-p=1.0000
 Alpha vir 9 OE=0.190 is Li2-p=1.0000
 Alpha vir 10 OE=0.263 is Li2-s=0.4562 Li2-p=0.3579 H1-s=0.1859
 
 Leave Link  601 at Mon Mar 28 14:01:17 2022, MaxMem=  9663676416 cpu:               1.9 elap:               0.1
 (Enter /nopt/nrel/apps/gaussian/g16C_1/g16/l9999.exe)

 Test job not archived.
 1\1\GINC-R102U34\SP\RCCSD-FC\Gen\H1Li1\USER\28-Mar-2022\0\\#P CCSD
 (MaxCyc=200,SaveAmplitudes,ReadAmplitudes)/GEN sp pop=AllOrbitals iop(
 3/33=1,3/36=-1)\\test\\0,1\H,0,0.,0.,0.\Li,0,0.,0.,3.4\\Version=ES64L-
 G16RevC.01\State=1-SG\HF=-7.8385582\MP2=-7.8741569\MP3=-7.892647\MP4D=
 -7.903542\MP4DQ=-7.9015817\MP4SDQ=-7.9027613\CCSD=-7.9141732\RMSD=8.14
 1e-09\PG=C*V [C*(H1Li1)]\\@


 MARY HAD A LITTLE LAMB
      HIS FEET WERE BLACK AS SOOT,
           AND EVERYWHERE THAT MARY WENT
                HIS SOOTY FOOT HE PUT.

                    -- NONAME
 Job cpu time:       0 days  0 hours  0 minutes 31.1 seconds.
 Elapsed time:       0 days  0 hours  0 minutes  1.2 seconds.
 File lengths (MBytes):  RWF=     13 Int=      0 D2E=      0 Chk=      1 Scr=      1
 Normal termination of Gaussian 16 at Mon Mar 28 14:01:17 2022.
