 Entering Gaussian System, Link 0=g16
 Initial command:
 /nopt/nrel/apps/gaussian/g16C_1/g16/l1.exe "/lustre/eaglefs/scratch/user/qc/tih-dissc-sto3g/tih-2-ccsd-3.1-631g/Gau-242084.inp" -scrdir="/lustre/eaglefs/scratch/user/qc/tih-dissc-sto3g/tih-2-ccsd-3.1-631g/"
 Default is to use a total of  36 processors:
                               36 via shared-memory
                                1 via Linda
 Entering Link 1 = /nopt/nrel/apps/gaussian/g16C_1/g16/l1.exe PID=    242085.
  
 Copyright (c) 1988-2019, Gaussian, Inc.  All Rights Reserved.
  
 This is part of the Gaussian(R) 16 program.  It is based on
 the Gaussian(R) 09 system (copyright 2009, Gaussian, Inc.),
 the Gaussian(R) 03 system (copyright 2003, Gaussian, Inc.),
 the Gaussian(R) 98 system (copyright 1998, Gaussian, Inc.),
 the Gaussian(R) 94 system (copyright 1995, Gaussian, Inc.),
 the Gaussian 92(TM) system (copyright 1992, Gaussian, Inc.),
 the Gaussian 90(TM) system (copyright 1990, Gaussian, Inc.),
 the Gaussian 88(TM) system (copyright 1988, Gaussian, Inc.),
 the Gaussian 86(TM) system (copyright 1986, Carnegie Mellon
 University), and the Gaussian 82(TM) system (copyright 1983,
 Carnegie Mellon University). Gaussian is a federally registered
 trademark of Gaussian, Inc.
  
 This software contains proprietary and confidential information,
 including trade secrets, belonging to Gaussian, Inc.
  
 This software is provided under written license and may be
 used, copied, transmitted, or stored only in accord with that
 written license.
  
 The following legend is applicable only to US Government
 contracts under FAR:
  
                    RESTRICTED RIGHTS LEGEND
  
 Use, reproduction and disclosure by the US Government is
 subject to restrictions as set forth in subparagraphs (a)
 and (c) of the Commercial Computer Software - Restricted
 Rights clause in FAR 52.227-19.
  
 Gaussian, Inc.
 340 Quinnipiac St., Bldg. 40, Wallingford CT 06492
  
  
 ---------------------------------------------------------------
 Warning -- This program may not be used in any manner that
 competes with the business of Gaussian, Inc. or will provide
 assistance to any competitor of Gaussian, Inc.  The licensee
 of this program is prohibited from giving any competitor of
 Gaussian, Inc. access to this program.  By using this program,
 the user acknowledges that Gaussian, Inc. is engaged in the
 business of creating and licensing software in the field of
 computational chemistry and represents and warrants to the
 licensee that it is not a competitor of Gaussian, Inc. and that
 it will not use this program in any manner prohibited above.
 ---------------------------------------------------------------
  

 Cite this work as:
 Gaussian 16, Revision C.01,
 M. J. Frisch, G. W. Trucks, H. B. Schlegel, G. E. Scuseria, 
 M. A. Robb, J. R. Cheeseman, G. Scalmani, V. Barone, 
 G. A. Petersson, H. Nakatsuji, X. Li, M. Caricato, A. V. Marenich, 
 J. Bloino, B. G. Janesko, R. Gomperts, B. Mennucci, H. P. Hratchian, 
 J. V. Ortiz, A. F. Izmaylov, J. L. Sonnenberg, D. Williams-Young, 
 F. Ding, F. Lipparini, F. Egidi, J. Goings, B. Peng, A. Petrone, 
 T. Henderson, D. Ranasinghe, V. G. Zakrzewski, J. Gao, N. Rega, 
 G. Zheng, W. Liang, M. Hada, M. Ehara, K. Toyota, R. Fukuda, 
 J. Hasegawa, M. Ishida, T. Nakajima, Y. Honda, O. Kitao, H. Nakai, 
 T. Vreven, K. Throssell, J. A. Montgomery, Jr., J. E. Peralta, 
 F. Ogliaro, M. J. Bearpark, J. J. Heyd, E. N. Brothers, K. N. Kudin, 
 V. N. Staroverov, T. A. Keith, R. Kobayashi, J. Normand, 
 K. Raghavachari, A. P. Rendell, J. C. Burant, S. S. Iyengar, 
 J. Tomasi, M. Cossi, J. M. Millam, M. Klene, C. Adamo, R. Cammi, 
 J. W. Ochterski, R. L. Martin, K. Morokuma, O. Farkas, 
 J. B. Foresman, and D. J. Fox, Gaussian, Inc., Wallingford CT, 2019.
 
 ******************************************
 Gaussian 16:  ES64L-G16RevC.01  3-Jul-2019
                25-Mar-2022 
 ******************************************
 %chk=molecule
 Default route: CacheSize=180224 MaxDisk=256GB
 --------------------------------------------------------------
 #P CCSD(MaxCyc=200)/GEN sp pop=AllOrbitals iop(3/33=1,3/36=-1)
 --------------------------------------------------------------
 1/4=180224,38=1,172=1/1;
 2/4=180224,12=2,17=6,18=5,40=1/2;
 3/4=180224,5=7,11=9,25=1,30=1,33=1,36=-1/1,2,3;
 4/4=180224/1;
 5/4=180224,5=2,38=5/2;
 8/4=180224,6=4,9=120000,10=1/1,4;
 9/4=180224,5=7,6=200/13;
 6/4=180224,7=2,8=2,9=2,10=2,96=-1/1;
 99/4=180224,5=1,9=1/99;
 Leave Link    1 at Fri Mar 25 14:59:55 2022, MaxMem=           0 cpu:               2.6 elap:               0.1
 (Enter /nopt/nrel/apps/gaussian/g16C_1/g16/l101.exe)
 ----
 test
 ----
 Symbolic Z-matrix:
 Charge =  0 Multiplicity = 2
 H                     0.        0.        0. 
 Ti                    0.        0.        3.1 
 
 ITRead=  0  0
 MicOpt= -1 -1
 NAtoms=      2 NQM=        2 NQMF=       0 NMMI=      0 NMMIF=      0
                NMic=       0 NMicF=      0.
                    Isotopes and Nuclear Properties:
 (Nuclear quadrupole moments (NQMom) in fm**2, nuclear magnetic moments (NMagM)
  in nuclear magnetons)

  Atom         1           2
 IAtWgt=           1          48
 AtmWgt=   1.0078250  47.9479467
 NucSpn=           1           0
 AtZEff=  -0.0000000  -0.0000000
 NQMom=    0.0000000   0.0000000
 NMagM=    2.7928460   0.0000000
 AtZNuc=   1.0000000  22.0000000
 Leave Link  101 at Fri Mar 25 14:59:56 2022, MaxMem=  9663676416 cpu:               3.1 elap:               0.1
 (Enter /nopt/nrel/apps/gaussian/g16C_1/g16/l202.exe)
                          Input orientation:                          
 ---------------------------------------------------------------------
 Center     Atomic      Atomic             Coordinates (Angstroms)
 Number     Number       Type             X           Y           Z
 ---------------------------------------------------------------------
      1          1           0        0.000000    0.000000    0.000000
      2         22           0        0.000000    0.000000    3.100000
 ---------------------------------------------------------------------
 Stoichiometry    HTi(2)
 Framework group  C*V[C*(HTi)]
 Deg. of freedom     1
 Full point group                 C*V     NOp   4
 Largest Abelian subgroup         C2V     NOp   4
 Largest concise Abelian subgroup C1      NOp   1
                         Standard orientation:                         
 ---------------------------------------------------------------------
 Center     Atomic      Atomic             Coordinates (Angstroms)
 Number     Number       Type             X           Y           Z
 ---------------------------------------------------------------------
      1          1           0        0.000000    0.000000   -2.965217
      2         22           0        0.000000    0.000000    0.134783
 ---------------------------------------------------------------------
 Rotational constants (GHZ):           0.0000000          53.2773428          53.2773428
 Leave Link  202 at Fri Mar 25 14:59:56 2022, MaxMem=  9663676416 cpu:               1.3 elap:               0.1
 (Enter /nopt/nrel/apps/gaussian/g16C_1/g16/l301.exe)
 General basis read from cards:  (5D, 7F)
                         Coordinates in L301:                         
 ---------------------------------------------------------------------
 Center     Atomic      Atomic             Coordinates (Angstroms)
 Number     Number       Type             X           Y           Z
 ---------------------------------------------------------------------
      1          1           0        0.000000    0.000000   -2.965217
      2         22           0        0.000000    0.000000    0.134783
 ---------------------------------------------------------------------
 Centers:       1
 STO-3G
 ****
 Centers:       2
 6-31G
 ****
 FixB: optimizing general contractions.
 Ernie: Thresh=  0.10000D-02 Tol=  0.10000D-05 Strict=F.
 IA=     1 ShT= 0 ShC= 0 NL=   1 NS=   0.
 IA=     1 L=0 SC=0 ISt=    0 NBk=    0 NP=    0 IndPr=    0.
 IA=     2 ShT= 0 ShC= 0 NL=   1 NS=   0.
 IA=     2 L=0 SC=0 ISt=    0 NBk=    0 NP=    0 IndPr=    0.
 IA=     2 ShT= 1 ShC= 0 NL=   4 NS=   1.
 IA=     2 L=1 SC=0 ISt=    1 NBk=    3 NP=   15 IndPr=    0.
 DoElim1:  L=1 select primitive    1 from    2 using    1 C= 2.43D-03
 DoElim1:  L=1 select primitive    1 from    3 using    1 C= 2.43D-03
 DoElim1:  L=1 select primitive    4 from    3 using    2 C=-2.94D-03
 DoElim2:  L=1 select primitive   15 from    2 using    3 C=-1.16D+00
 DoElim2:  L=1 select primitive   15 from    1 using    3 C=-1.16D+00
 DoElim2:  L=1 select primitive   12 from    1 using    2 C=-7.43D-01
 DoElim1:  L=1 select primitive    1 from    2 using    1 C= 4.02D-03
 DoElim1:  L=1 select primitive    1 from    3 using    1 C= 4.02D-03
 DoElim1:  L=1 select primitive    4 from    3 using    2 C=-6.31D-03
 DoElim2:  L=1 select primitive   15 from    2 using    3 C= 9.90D-01
 DoElim2:  L=1 select primitive   15 from    1 using    3 C= 9.90D-01
 DoElim2:  L=1 select primitive   12 from    1 using    2 C= 5.13D-01
 Delete L=1 primitive   14 from    3 C=  0.00D+00.
 Delete L=1 primitive   12 from    3 C=  0.00D+00.
 Delete L=1 primitive   10 from    3 C=  0.00D+00.
 Delete L=1 primitive    9 from    3 C=  0.00D+00.
 Delete L=1 primitive    8 from    3 C=  0.00D+00.
 Delete L=1 primitive    7 from    3 C=  0.00D+00.
 Delete L=1 primitive    6 from    3 C=  0.00D+00.
 Delete L=1 primitive    5 from    3 C=  0.00D+00.
 Delete L=1 primitive    4 from    3 C=  0.00D+00.
 Delete L=1 primitive    3 from    3 C=  0.00D+00.
 Delete L=1 primitive    2 from    3 C=  0.00D+00.
 Delete L=1 primitive    1 from    3 C=  0.00D+00.
 Delete L=1 primitive   15 from    2 C=  0.00D+00.
 Delete L=1 primitive   13 from    2 C=  0.00D+00.
 Delete L=1 primitive   11 from    2 C=  0.00D+00.
 Delete L=1 primitive    9 from    2 C=  0.00D+00.
 Delete L=1 primitive    7 from    2 C=  0.00D+00.
 Delete L=1 primitive    5 from    2 C=  0.00D+00.
 Delete L=1 primitive    3 from    2 C=  0.00D+00.
 Delete L=1 primitive    2 from    2 C=  0.00D+00.
 Delete L=1 primitive    1 from    2 C=  0.00D+00.
 Delete L=1 primitive   15 from    1 C=  0.00D+00.
 Delete L=1 primitive   14 from    1 C=  0.00D+00.
 Delete L=1 primitive   13 from    1 C=  0.00D+00.
 Delete L=1 primitive   12 from    1 C=  0.00D+00.
 Delete L=1 primitive   11 from    1 C=  0.00D+00.
 Delete L=1 primitive   10 from    1 C=  0.00D+00.
 Delete L=1 primitive    8 from    1 C=  0.00D+00.
 Delete L=1 primitive    6 from    1 C=  0.00D+00.
 Delete L=1 primitive    4 from    1 C=  0.00D+00.
 IA=     2 L=1 SC=0 ISt=    0 NBk=    0 NP=    0 IndPr=   15.
 IA=     2 ShT= 2 ShC= 2 NL=   2 NS=   1.
 IA=     2 L=2 SC=2 ISt=    0 NBk=    0 NP=    0 IndPr=    0.
 LdAtmC:  AtmChg=     1.000000    22.000000
 AtZEff=     -1.0000000    -23.9800000
 NEqShl: 
              1            2            3            4
     1            1            1            1            1
     2            2            2            2            2
     3            3            3            3            3
     4            4            4            4            4
     5            5            5            5            5
     6            6            6            6            6
     7            7            7            7            7
     8            8            8            8            8
 NEqBas: 
              1            2            3            4
     1            1            1            1            1
     2            2            2            2            2
     3            3            3            3            3
     4            4           -4           -4            4
     5            5           -5            5           -5
     6            6            6            6            6
     7            7            7            7            7
     8            8           -8           -8            8
     9            9           -9            9           -9
    10           10           10           10           10
    11           11           11           11           11
    12           12          -12          -12           12
    13           13          -13           13          -13
    14           14           14           14           14
    15           15           15           15           15
    16           16          -16          -16           16
    17           17          -17           17          -17
    18           18           18           18           18
    19           19           19           19           19
    20           20           20           20           20
    21           21           21           21           21
    22           22           22          -22          -22
    23           23          -23          -23           23
    24           24          -24           24          -24
    25           25           25           25           25
    26           26           26           26           26
    27           27           27           27           27
    28           28           28          -28          -28
    29           29          -29          -29           29
    30           30          -30           30          -30
 There are    16 symmetry adapted cartesian basis functions of A1  symmetry.
   1         1   1   1   1
   2         2   2   2   2
   3         3   3   3   3
   4         6   6   6   6
   5         7   7   7   7
   6        10  10  10  10
   7        11  11  11  11
   8        14  14  14  14
   9        15  15  15  15
  10        18  18  18  18
  11        19  19  19  19
  12        20  20  20  20
  13        21  21  21  21
  14        25  25  25  25
  15        26  26  26  26
  16        27  27  27  27
 There are     2 symmetry adapted cartesian basis functions of A2  symmetry.
  17        22  22  22  22
  18        28  28  28  28
 There are     6 symmetry adapted cartesian basis functions of B1  symmetry.
  19         4   4   4   4
  20         8   8   8   8
  21        12  12  12  12
  22        16  16  16  16
  23        23  23  23  23
  24        29  29  29  29
 There are     6 symmetry adapted cartesian basis functions of B2  symmetry.
  25         5   5   5   5
  26         9   9   9   9
  27        13  13  13  13
  28        17  17  17  17
  29        24  24  24  24
  30        30  30  30  30
 Order= 1 2 4 3
 Reordered character table:
              1            2            3            4            5
     1            1            1            1            1            1
     2            2            1            1           -1           -1
     3            4            1           -1           -1            1
     4            3            1           -1            1           -1
 NEqShl: 
              1            2            3            4
     1            1            1            1            1
     2            2            2            2            2
     3            3            3            3            3
     4            4            4            4            4
     5            5            5            5            5
     6            6            6            6            6
     7            7            7            7            7
     8            8            8            8            8
 NEqBas: 
              1            2            3            4
     1            1            1            1            1
     2            2            2            2            2
     3            3            3            3            3
     4            4           -4           -4            4
     5            5           -5            5           -5
     6            6            6            6            6
     7            7            7            7            7
     8            8           -8           -8            8
     9            9           -9            9           -9
    10           10           10           10           10
    11           11           11           11           11
    12           12          -12          -12           12
    13           13          -13           13          -13
    14           14           14           14           14
    15           15           15           15           15
    16           16          -16          -16           16
    17           17          -17           17          -17
    18           18           18           18           18
    19           19           19           19           19
    20           20          -20          -20           20
    21           21          -21           21          -21
    22           22           22           22           22
    23           23           23          -23          -23
    24           24           24           24           24
    25           25          -25          -25           25
    26           26          -26           26          -26
    27           27           27           27           27
    28           28           28          -28          -28
 There are    14 symmetry adapted basis functions of A1  symmetry.
   1         1   1   1   1
   2         2   2   2   2
   3         3   3   3   3
   4         6   6   6   6
   5         7   7   7   7
   6        10  10  10  10
   7        11  11  11  11
   8        14  14  14  14
   9        15  15  15  15
  10        18  18  18  18
  11        19  19  19  19
  12        22  22  22  22
  13        24  24  24  24
  14        27  27  27  27
 There are     2 symmetry adapted basis functions of A2  symmetry.
  15        23  23  23  23
  16        28  28  28  28
 There are     6 symmetry adapted basis functions of B1  symmetry.
  17         4   4   4   4
  18         8   8   8   8
  19        12  12  12  12
  20        16  16  16  16
  21        20  20  20  20
  22        25  25  25  25
 There are     6 symmetry adapted basis functions of B2  symmetry.
  23         5   5   5   5
  24         9   9   9   9
  25        13  13  13  13
  26        17  17  17  17
  27        21  21  21  21
  28        26  26  26  26
 Order= 1 2 4 3
 Reordered character table:
              1            2            3            4            5
     1            1            1            1            1            1
     2            2            1            1           -1           -1
     3            4            1           -1           -1            1
     4            3            1           -1            1           -1
    28 basis functions,    97 primitive gaussians,    30 cartesian basis functions
    12 alpha electrons       11 beta electrons
       nuclear repulsion energy         3.7554511743 Hartrees.
 IS=     1 IAt=     1 ISR=     1 T=0 IP=      1 IndIP=      1 IndIPD=      0 C=  2.769344D-01  0.000000D+00                             NZ=T
 IS=     1 IAt=     1 ISR=     1 T=0 IP=      2 IndIP=      2 IndIPD=      1 C=  2.678389D-01  0.000000D+00                             NZ=T
 IS=     1 IAt=     1 ISR=     1 T=0 IP=      3 IndIP=      3 IndIPD=      2 C=  8.347367D-02  0.000000D+00                             NZ=T
 IS=     2 IAt=     2 ISR=     1 T=0 IP=      1 IndIP=      4 IndIPD=      0 C=  3.823622D+00  0.000000D+00                             NZ=T
 IS=     2 IAt=     2 ISR=     1 T=0 IP=      2 IndIP=      5 IndIPD=      1 C=  7.063955D+00  0.000000D+00                             NZ=T
 IS=     2 IAt=     2 ISR=     1 T=0 IP=      3 IndIP=      6 IndIPD=      2 C=  1.147576D+01  0.000000D+00                             NZ=T
 IS=     2 IAt=     2 ISR=     1 T=0 IP=      4 IndIP=      7 IndIPD=      3 C=  1.533813D+01  0.000000D+00                             NZ=T
 IS=     2 IAt=     2 ISR=     1 T=0 IP=      5 IndIP=      8 IndIPD=      4 C=  1.342790D+01  0.000000D+00                             NZ=T
 IS=     2 IAt=     2 ISR=     1 T=0 IP=      6 IndIP=      9 IndIPD=      5 C=  4.306715D+00  0.000000D+00                             NZ=T
 IS=     3 IAt=     2 ISR=     2 T=1 IP=      1 IndIP=     10 IndIPD=      0 C=  2.786662D-01  2.724134D+01                             NZ=T
 IS=     3 IAt=     2 ISR=     2 T=1 IP=      2 IndIP=     11 IndIPD=      1 C=  1.261924D+00  3.505718D+01                             NZ=T
 IS=     3 IAt=     2 ISR=     2 T=1 IP=      3 IndIP=     12 IndIPD=      2 C=  2.071008D+00  3.677821D+01                             NZ=T
 IS=     3 IAt=     2 ISR=     2 T=1 IP=      4 IndIP=     13 IndIPD=      3 C= -3.098929D-01  2.717167D+01                             NZ=T
 IS=     3 IAt=     2 ISR=     2 T=1 IP=      5 IndIP=     14 IndIPD=      4 C= -2.467696D+00  1.167904D+01                             NZ=T
 IS=     3 IAt=     2 ISR=     2 T=1 IP=      6 IndIP=     15 IndIPD=      5 C= -9.124724D-01  1.772051D+00                             NZ=T
 IS=     4 IAt=     2 ISR=     3 T=1 IP=      1 IndIP=     16 IndIPD=      0 C= -2.927436D-02 -7.289697D-01                             NZ=T
 IS=     4 IAt=     2 ISR=     3 T=1 IP=      2 IndIP=     17 IndIPD=      1 C=  3.057403D-01 -7.594388D-01                             NZ=T
 IS=     4 IAt=     2 ISR=     3 T=1 IP=      3 IndIP=     18 IndIPD=      2 C=  5.687287D-01  5.144727D-01                             NZ=T
 IS=     4 IAt=     2 ISR=     3 T=1 IP=      4 IndIP=     19 IndIPD=      3 C= -3.488887D-01  1.263214D+00                             NZ=T
 IS=     4 IAt=     2 ISR=     3 T=1 IP=      5 IndIP=     20 IndIPD=      4 C= -4.520346D-01  5.611750D-01                             NZ=T
 IS=     4 IAt=     2 ISR=     3 T=1 IP=      6 IndIP=     21 IndIPD=      5 C= -5.626677D-02  6.224893D-02                             NZ=T
 IS=     5 IAt=     2 ISR=     4 T=1 IP=      1 IndIP=     22 IndIPD=      0 C=  5.268162D-02 -3.876509D-01                             NZ=T
 IS=     5 IAt=     2 ISR=     4 T=1 IP=      2 IndIP=     23 IndIPD=      1 C=  1.303842D-01  4.475323D-02                             NZ=T
 IS=     5 IAt=     2 ISR=     4 T=1 IP=      3 IndIP=     24 IndIPD=      2 C= -1.293957D-01  6.389489D-02                             NZ=T
 IS=     6 IAt=     2 ISR=     5 T=1 IP=      1 IndIP=     25 IndIPD=      0 C=  5.396831D-02  1.931915D-02                             NZ=T
 IS=     7 IAt=     2 ISR=     6 T=2 IP=      1 IndIP=     26 IndIPD=      1 C=  0.000000D+00  0.000000D+00  1.377610D+01  0.000000D+00 NZ=T
 IS=     7 IAt=     2 ISR=     6 T=2 IP=      2 IndIP=     27 IndIPD=      2 C=  0.000000D+00  0.000000D+00  5.615749D+00  0.000000D+00 NZ=T
 IS=     7 IAt=     2 ISR=     6 T=2 IP=      3 IndIP=     28 IndIPD=      3 C=  0.000000D+00  0.000000D+00  1.263348D+00  0.000000D+00 NZ=T
 IS=     8 IAt=     2 ISR=     7 T=2 IP=      1 IndIP=     29 IndIPD=      4 C=  0.000000D+00  0.000000D+00  1.851834D-01  0.000000D+00 NZ=T
 IExCor=    0 DFT=F Ex=HF Corr=None ExCW=0 ScaHFX=  1.000000
 ScaDFX=  1.000000  1.000000  1.000000  1.000000 ScalE2=  1.000000  1.000000
 IRadAn=      5 IRanWt=     -1 IRanGd=            0 ICorTp=0 IEmpDi=  4
 NAtoms=    2 NActive=    2 NUniq=    2 SFac= 1.00D+00 NAtFMM=   60 NAOKFM=F Big=F
 Integral buffers will be    131072 words long.
 Raffenetti 2 integral format.
 Two-electron integral symmetry is turned on.
 Leave Link  301 at Fri Mar 25 14:59:56 2022, MaxMem=  9663676416 cpu:               2.1 elap:               0.1
 (Enter /nopt/nrel/apps/gaussian/g16C_1/g16/l302.exe)
 NPDir=0 NMtPBC=     1 NCelOv=     1 NCel=       1 NClECP=     1 NCelD=      1
         NCelK=      1 NCelE2=     1 NClLst=     1 CellRange=     0.0.
 One-electron integrals computed using PRISM.
 One-electron integral symmetry used in STVInt
 Entering OneElI...
 Calculate overlap and kinetic energy integrals
    NBasis =  28  MinDer = 0  MaxDer = 0
 Requested accuracy = 0.1000D-12
 Symmetry will be used
 PrmmSu-InSpLW:  IPartL=    0 NPrtUS=   36 NPrtUL=    1 DoSpLW=F IThBeg=    0 IThEnd=   35 NThAct=   36.
 PrSmSu:  IncTry=   512 NBBP=             36 NTPThr=   100 NPartT=   36 Incr=           1 LDynOK=F GPUOK=F.
 PrsmSu:  NPrtUS=  36 ThrOK=T IAlg=1 LenDen=           0 ISkipM=0 DoSpLW=F IThBeg=    0 IThEnd=   35.
 Prism:   IPart=     0 DynPar=F LinDyn=F Incr=           1.
 PRISM was handed   268429268 working-precision words and    36 shell-pairs
 PRISM was handed   268429268 working-precision words and    36 shell-pairs
 PRISM was handed   268429268 working-precision words and    36 shell-pairs
 PRISM was handed   268429268 working-precision words and    36 shell-pairs
 PRISM was handed   268429268 working-precision words and    36 shell-pairs
 PRISM was handed   268429268 working-precision words and    36 shell-pairs
 PRISM was handed   268429268 working-precision words and    36 shell-pairs
 PRISM was handed   268429268 working-precision words and    36 shell-pairs
 PRISM was handed   268429268 working-precision words and    36 shell-pairs
 PRISM was handed   268429268 working-precision words and    36 shell-pairs
 PRISM was handed   268429268 working-precision words and    36 shell-pairs
 PRISM was handed   268429268 working-precision words and    36 shell-pairs
 PRISM was handed   268429268 working-precision words and    36 shell-pairs
 PRISM was handed   268429268 working-precision words and    36 shell-pairs
 PRISM was handed   268429268 working-precision words and    36 shell-pairs
 IPart= 16 NShTot=           0 NBatch=           0 AvBLen=         0.0
 IPart=  9 NShTot=           0 NBatch=           0 AvBLen=         0.0
 IPart= 32 NShTot=           0 NBatch=           0 AvBLen=         0.0
 IPart= 31 NShTot=           0 NBatch=           0 AvBLen=         0.0
 IPart= 12 NShTot=           0 NBatch=           0 AvBLen=         0.0
 IPart= 23 NShTot=           0 NBatch=           0 AvBLen=         0.0
 IPart= 14 NShTot=           0 NBatch=           0 AvBLen=         0.0
 IPart=  4 NShTot=           0 NBatch=           0 AvBLen=         0.0
 IPart= 10 NShTot=           0 NBatch=           0 AvBLen=         0.0
 IPart= 11 NShTot=           0 NBatch=           0 AvBLen=         0.0
 IPart=  7 NShTot=           0 NBatch=           0 AvBLen=         0.0
 PRISM was handed   268429268 working-precision words and    36 shell-pairs
 PRISM was handed   268429268 working-precision words and    36 shell-pairs
 PRISM was handed   268429268 working-precision words and    36 shell-pairs
 IPart= 34 NShTot=           0 NBatch=           0 AvBLen=         0.0
 IPart= 30 NShTot=           0 NBatch=           0 AvBLen=         0.0
 IPart=  8 NShTot=           0 NBatch=           0 AvBLen=         0.0
 PRISM was handed   268429268 working-precision words and    36 shell-pairs
 PRISM was handed   268429268 working-precision words and    36 shell-pairs
 PRISM was handed   268429268 working-precision words and    36 shell-pairs
 IPart= 13 NShTot=           0 NBatch=           0 AvBLen=         0.0
 IPart= 19 NShTot=           0 NBatch=           0 AvBLen=         0.0
 PRISM was handed   268429268 working-precision words and    36 shell-pairs
 PRISM was handed   268429268 working-precision words and    36 shell-pairs
 PRISM was handed   268429268 working-precision words and    36 shell-pairs
 PRISM was handed   268429268 working-precision words and    36 shell-pairs
 IPart=  2 NShTot=           1 NBatch=           1 AvBLen=         1.0
 IPart= 29 NShTot=           0 NBatch=           0 AvBLen=         0.0
 IPart= 18 NShTot=           0 NBatch=           0 AvBLen=         0.0
 IPart=  1 NShTot=           7 NBatch=           7 AvBLen=         1.0
 PRISM was handed   268429268 working-precision words and    36 shell-pairs
 PRISM was handed   268429268 working-precision words and    36 shell-pairs
 PRISM was handed   268429268 working-precision words and    36 shell-pairs
 PRISM was handed   268429268 working-precision words and    36 shell-pairs
 PRISM was handed   268429268 working-precision words and    36 shell-pairs
 PRISM was handed   268429268 working-precision words and    36 shell-pairs
 IPart= 35 NShTot=           0 NBatch=           0 AvBLen=         0.0
 PRISM was handed   268429268 working-precision words and    36 shell-pairs
 PRISM was handed   268429268 working-precision words and    36 shell-pairs
 PRISM was handed   268429268 working-precision words and    36 shell-pairs
 PRISM was handed   268429268 working-precision words and    36 shell-pairs
 PRISM was handed   268429268 working-precision words and    36 shell-pairs
 IPart= 28 NShTot=           0 NBatch=           0 AvBLen=         0.0
 IPart= 33 NShTot=           0 NBatch=           0 AvBLen=         0.0
 IPart= 24 NShTot=           0 NBatch=           0 AvBLen=         0.0
 IPart=  5 NShTot=           0 NBatch=           0 AvBLen=         0.0
 IPart= 25 NShTot=           0 NBatch=           0 AvBLen=         0.0
 IPart= 27 NShTot=           0 NBatch=           0 AvBLen=         0.0
 IPart= 22 NShTot=           0 NBatch=           0 AvBLen=         0.0
 IPart=  3 NShTot=           0 NBatch=           0 AvBLen=         0.0
 IPart= 15 NShTot=           0 NBatch=           0 AvBLen=         0.0
 IPart=  0 NShTot=          28 NBatch=          28 AvBLen=         1.0
 IPart= 20 NShTot=           0 NBatch=           0 AvBLen=         0.0
 IPart= 26 NShTot=           0 NBatch=           0 AvBLen=         0.0
 IPart=  6 NShTot=           0 NBatch=           0 AvBLen=         0.0
 IPart= 17 NShTot=           0 NBatch=           0 AvBLen=         0.0
 IPart= 21 NShTot=           0 NBatch=           0 AvBLen=         0.0
 PrSmSu:  NxtVal=             37.
 *** Overlap *** 
                1             2             3             4             5 
      1  0.100000D+01
      2  0.356444D-04  0.100000D+01
      3 -0.303507D-03 -0.274497D+00  0.100000D+01
      4  0.000000D+00  0.000000D+00  0.000000D+00  0.100000D+01
      5  0.000000D+00  0.000000D+00  0.000000D+00  0.000000D+00  0.100000D+01
      6 -0.153880D-03  0.000000D+00  0.000000D+00  0.000000D+00  0.000000D+00
      7 -0.372824D-02 -0.126254D-01  0.358999D+00  0.000000D+00  0.000000D+00
      8  0.000000D+00  0.000000D+00  0.000000D+00  0.323756D+00  0.000000D+00
      9  0.000000D+00  0.000000D+00  0.000000D+00  0.000000D+00  0.323756D+00
     10 -0.682386D-02  0.000000D+00  0.000000D+00  0.000000D+00  0.000000D+00
     11 -0.944704D-01  0.708216D-02 -0.284985D-01  0.000000D+00  0.000000D+00
     12  0.000000D+00  0.000000D+00  0.000000D+00 -0.418224D-01  0.000000D+00
     13  0.000000D+00  0.000000D+00  0.000000D+00  0.000000D+00 -0.418224D-01
     14 -0.203358D+00  0.000000D+00  0.000000D+00  0.000000D+00  0.000000D+00
     15  0.168174D+00  0.748293D-02 -0.560115D-01  0.000000D+00  0.000000D+00
     16  0.000000D+00  0.000000D+00  0.000000D+00  0.532285D-02  0.000000D+00
     17  0.000000D+00  0.000000D+00  0.000000D+00  0.000000D+00  0.532285D-02
     18 -0.310154D+00  0.000000D+00  0.000000D+00  0.000000D+00  0.000000D+00
     19  0.213401D-02  0.000000D+00  0.000000D+00  0.000000D+00  0.000000D+00
     20  0.000000D+00  0.000000D+00  0.000000D+00  0.000000D+00  0.000000D+00
     21  0.000000D+00  0.000000D+00  0.000000D+00  0.000000D+00  0.000000D+00
     22  0.000000D+00  0.000000D+00  0.000000D+00  0.000000D+00  0.000000D+00
     23  0.000000D+00  0.000000D+00  0.000000D+00  0.000000D+00  0.000000D+00
     24  0.404490D-01  0.000000D+00  0.000000D+00  0.000000D+00  0.000000D+00
     25  0.000000D+00  0.000000D+00  0.000000D+00  0.000000D+00  0.000000D+00
     26  0.000000D+00  0.000000D+00  0.000000D+00  0.000000D+00  0.000000D+00
     27  0.000000D+00  0.000000D+00  0.000000D+00  0.000000D+00  0.000000D+00
     28  0.000000D+00  0.000000D+00  0.000000D+00  0.000000D+00  0.000000D+00
                6             7             8             9            10 
      6  0.100000D+01
      7  0.000000D+00  0.100000D+01
      8  0.000000D+00  0.000000D+00  0.100000D+01
      9  0.000000D+00  0.000000D+00  0.000000D+00  0.100000D+01
     10  0.323756D+00  0.000000D+00  0.000000D+00  0.000000D+00  0.100000D+01
     11  0.000000D+00  0.220325D+00  0.000000D+00  0.000000D+00  0.000000D+00
     12  0.000000D+00  0.000000D+00  0.139925D+00  0.000000D+00  0.000000D+00
     13  0.000000D+00  0.000000D+00  0.000000D+00  0.139925D+00  0.000000D+00
     14 -0.418224D-01  0.000000D+00  0.000000D+00  0.000000D+00  0.139925D+00
     15  0.000000D+00 -0.274846D+00  0.000000D+00  0.000000D+00  0.000000D+00
     16  0.000000D+00  0.000000D+00  0.104615D+00  0.000000D+00  0.000000D+00
     17  0.000000D+00  0.000000D+00  0.000000D+00  0.104615D+00  0.000000D+00
     18  0.532285D-02  0.000000D+00  0.000000D+00  0.000000D+00  0.104615D+00
     19  0.000000D+00  0.000000D+00  0.000000D+00  0.000000D+00  0.000000D+00
     20  0.000000D+00  0.000000D+00  0.000000D+00  0.000000D+00  0.000000D+00
     21  0.000000D+00  0.000000D+00  0.000000D+00  0.000000D+00  0.000000D+00
     22  0.000000D+00  0.000000D+00  0.000000D+00  0.000000D+00  0.000000D+00
     23  0.000000D+00  0.000000D+00  0.000000D+00  0.000000D+00  0.000000D+00
     24  0.000000D+00  0.000000D+00  0.000000D+00  0.000000D+00  0.000000D+00
     25  0.000000D+00  0.000000D+00  0.000000D+00  0.000000D+00  0.000000D+00
     26  0.000000D+00  0.000000D+00  0.000000D+00  0.000000D+00  0.000000D+00
     27  0.000000D+00  0.000000D+00  0.000000D+00  0.000000D+00  0.000000D+00
     28  0.000000D+00  0.000000D+00  0.000000D+00  0.000000D+00  0.000000D+00
               11            12            13            14            15 
     11  0.100000D+01
     12  0.000000D+00  0.100000D+01
     13  0.000000D+00  0.000000D+00  0.100000D+01
     14  0.000000D+00  0.000000D+00  0.000000D+00  0.100000D+01
     15 -0.865690D+00  0.000000D+00  0.000000D+00  0.000000D+00  0.100000D+01
     16  0.000000D+00  0.748550D+00  0.000000D+00  0.000000D+00  0.000000D+00
     17  0.000000D+00  0.000000D+00  0.748550D+00  0.000000D+00  0.000000D+00
     18  0.000000D+00  0.000000D+00  0.000000D+00  0.748550D+00  0.000000D+00
     19  0.000000D+00  0.000000D+00  0.000000D+00  0.000000D+00  0.000000D+00
     20  0.000000D+00  0.000000D+00  0.000000D+00  0.000000D+00  0.000000D+00
     21  0.000000D+00  0.000000D+00  0.000000D+00  0.000000D+00  0.000000D+00
     22  0.000000D+00  0.000000D+00  0.000000D+00  0.000000D+00  0.000000D+00
     23  0.000000D+00  0.000000D+00  0.000000D+00  0.000000D+00  0.000000D+00
     24  0.000000D+00  0.000000D+00  0.000000D+00  0.000000D+00  0.000000D+00
     25  0.000000D+00  0.000000D+00  0.000000D+00  0.000000D+00  0.000000D+00
     26  0.000000D+00  0.000000D+00  0.000000D+00  0.000000D+00  0.000000D+00
     27  0.000000D+00  0.000000D+00  0.000000D+00  0.000000D+00  0.000000D+00
     28  0.000000D+00  0.000000D+00  0.000000D+00  0.000000D+00  0.000000D+00
               16            17            18            19            20 
     16  0.100000D+01
     17  0.000000D+00  0.100000D+01
     18  0.000000D+00  0.000000D+00  0.100000D+01
     19  0.000000D+00  0.000000D+00  0.000000D+00  0.100000D+01
     20  0.000000D+00  0.000000D+00  0.000000D+00  0.000000D+00  0.100000D+01
     21  0.000000D+00  0.000000D+00  0.000000D+00  0.000000D+00  0.000000D+00
     22  0.000000D+00  0.000000D+00  0.000000D+00  0.000000D+00  0.000000D+00
     23  0.000000D+00  0.000000D+00  0.000000D+00  0.000000D+00  0.000000D+00
     24  0.000000D+00  0.000000D+00  0.000000D+00  0.404226D+00  0.000000D+00
     25  0.000000D+00  0.000000D+00  0.000000D+00  0.000000D+00  0.404226D+00
     26  0.000000D+00  0.000000D+00  0.000000D+00  0.000000D+00  0.000000D+00
     27  0.000000D+00  0.000000D+00  0.000000D+00  0.000000D+00  0.000000D+00
     28  0.000000D+00  0.000000D+00  0.000000D+00  0.000000D+00  0.000000D+00
               21            22            23            24            25 
     21  0.100000D+01
     22  0.000000D+00  0.100000D+01
     23  0.000000D+00  0.000000D+00  0.100000D+01
     24  0.000000D+00  0.000000D+00  0.000000D+00  0.100000D+01
     25  0.000000D+00  0.000000D+00  0.000000D+00  0.000000D+00  0.100000D+01
     26  0.404226D+00  0.000000D+00  0.000000D+00  0.000000D+00  0.000000D+00
     27  0.000000D+00  0.404226D+00  0.000000D+00  0.000000D+00  0.000000D+00
     28  0.000000D+00  0.000000D+00  0.404226D+00  0.000000D+00  0.000000D+00
               26            27            28 
     26  0.100000D+01
     27  0.000000D+00  0.100000D+01
     28  0.000000D+00  0.000000D+00  0.100000D+01
 *** Kinetic Energy *** 
                1             2             3             4             5 
      1  0.760032D+00
      2 -0.513846D-04  0.233868D+03
      3  0.408689D-03  0.128565D+02  0.116517D+02
      4  0.000000D+00  0.000000D+00  0.000000D+00  0.397344D+02
      5  0.000000D+00  0.000000D+00  0.000000D+00  0.000000D+00  0.397344D+02
      6  0.158084D-03  0.000000D+00  0.000000D+00  0.000000D+00  0.000000D+00
      7  0.286071D-02  0.130537D+01 -0.886570D+00  0.000000D+00  0.000000D+00
      8  0.000000D+00  0.000000D+00  0.000000D+00  0.141365D+01  0.000000D+00
      9  0.000000D+00  0.000000D+00  0.000000D+00  0.000000D+00  0.141365D+01
     10  0.355222D-02  0.000000D+00  0.000000D+00  0.000000D+00  0.000000D+00
     11  0.637304D-02  0.469217D-01 -0.250757D+00  0.000000D+00  0.000000D+00
     12  0.000000D+00  0.000000D+00  0.000000D+00 -0.329355D+00  0.000000D+00
     13  0.000000D+00  0.000000D+00  0.000000D+00  0.000000D+00 -0.329355D+00
     14 -0.782325D-02  0.000000D+00  0.000000D+00  0.000000D+00  0.000000D+00
     15  0.501715D-02  0.718816D-03 -0.535103D-02  0.000000D+00  0.000000D+00
     16  0.000000D+00  0.000000D+00  0.000000D+00  0.847976D-03  0.000000D+00
     17  0.000000D+00  0.000000D+00  0.000000D+00  0.000000D+00  0.847976D-03
     18 -0.267643D-01  0.000000D+00  0.000000D+00  0.000000D+00  0.000000D+00
     19 -0.992853D-03  0.000000D+00  0.000000D+00  0.000000D+00  0.000000D+00
     20  0.000000D+00  0.000000D+00  0.000000D+00  0.000000D+00  0.000000D+00
     21  0.000000D+00  0.000000D+00  0.000000D+00  0.000000D+00  0.000000D+00
     22  0.000000D+00  0.000000D+00  0.000000D+00  0.000000D+00  0.000000D+00
     23  0.000000D+00  0.000000D+00  0.000000D+00  0.000000D+00  0.000000D+00
     24 -0.914695D-02  0.000000D+00  0.000000D+00  0.000000D+00  0.000000D+00
     25  0.000000D+00  0.000000D+00  0.000000D+00  0.000000D+00  0.000000D+00
     26  0.000000D+00  0.000000D+00  0.000000D+00  0.000000D+00  0.000000D+00
     27  0.000000D+00  0.000000D+00  0.000000D+00  0.000000D+00  0.000000D+00
     28  0.000000D+00  0.000000D+00  0.000000D+00  0.000000D+00  0.000000D+00
                6             7             8             9            10 
      6  0.397344D+02
      7  0.000000D+00  0.138627D+01
      8  0.000000D+00  0.000000D+00  0.264346D+01
      9  0.000000D+00  0.000000D+00  0.000000D+00  0.264346D+01
     10  0.141365D+01  0.000000D+00  0.000000D+00  0.000000D+00  0.264346D+01
     11  0.000000D+00 -0.202155D+00  0.000000D+00  0.000000D+00  0.000000D+00
     12  0.000000D+00  0.000000D+00 -0.382323D+00  0.000000D+00  0.000000D+00
     13  0.000000D+00  0.000000D+00  0.000000D+00 -0.382323D+00  0.000000D+00
     14 -0.329355D+00  0.000000D+00  0.000000D+00  0.000000D+00 -0.382323D+00
     15  0.000000D+00 -0.250190D-01  0.000000D+00  0.000000D+00  0.000000D+00
     16  0.000000D+00  0.000000D+00  0.157808D-01  0.000000D+00  0.000000D+00
     17  0.000000D+00  0.000000D+00  0.000000D+00  0.157808D-01  0.000000D+00
     18  0.847976D-03  0.000000D+00  0.000000D+00  0.000000D+00  0.157808D-01
     19  0.000000D+00  0.000000D+00  0.000000D+00  0.000000D+00  0.000000D+00
     20  0.000000D+00  0.000000D+00  0.000000D+00  0.000000D+00  0.000000D+00
     21  0.000000D+00  0.000000D+00  0.000000D+00  0.000000D+00  0.000000D+00
     22  0.000000D+00  0.000000D+00  0.000000D+00  0.000000D+00  0.000000D+00
     23  0.000000D+00  0.000000D+00  0.000000D+00  0.000000D+00  0.000000D+00
     24  0.000000D+00  0.000000D+00  0.000000D+00  0.000000D+00  0.000000D+00
     25  0.000000D+00  0.000000D+00  0.000000D+00  0.000000D+00  0.000000D+00
     26  0.000000D+00  0.000000D+00  0.000000D+00  0.000000D+00  0.000000D+00
     27  0.000000D+00  0.000000D+00  0.000000D+00  0.000000D+00  0.000000D+00
     28  0.000000D+00  0.000000D+00  0.000000D+00  0.000000D+00  0.000000D+00
               11            12            13            14            15 
     11  0.179473D+00
     12  0.000000D+00  0.301582D+00
     13  0.000000D+00  0.000000D+00  0.301582D+00
     14  0.000000D+00  0.000000D+00  0.000000D+00  0.301582D+00
     15 -0.578075D-01  0.000000D+00  0.000000D+00  0.000000D+00  0.480540D-01
     16  0.000000D+00  0.867842D-01  0.000000D+00  0.000000D+00  0.000000D+00
     17  0.000000D+00  0.000000D+00  0.867842D-01  0.000000D+00  0.000000D+00
     18  0.000000D+00  0.000000D+00  0.000000D+00  0.867842D-01  0.000000D+00
     19  0.000000D+00  0.000000D+00  0.000000D+00  0.000000D+00  0.000000D+00
     20  0.000000D+00  0.000000D+00  0.000000D+00  0.000000D+00  0.000000D+00
     21  0.000000D+00  0.000000D+00  0.000000D+00  0.000000D+00  0.000000D+00
     22  0.000000D+00  0.000000D+00  0.000000D+00  0.000000D+00  0.000000D+00
     23  0.000000D+00  0.000000D+00  0.000000D+00  0.000000D+00  0.000000D+00
     24  0.000000D+00  0.000000D+00  0.000000D+00  0.000000D+00  0.000000D+00
     25  0.000000D+00  0.000000D+00  0.000000D+00  0.000000D+00  0.000000D+00
     26  0.000000D+00  0.000000D+00  0.000000D+00  0.000000D+00  0.000000D+00
     27  0.000000D+00  0.000000D+00  0.000000D+00  0.000000D+00  0.000000D+00
     28  0.000000D+00  0.000000D+00  0.000000D+00  0.000000D+00  0.000000D+00
               16            17            18            19            20 
     16  0.800900D-01
     17  0.000000D+00  0.800900D-01
     18  0.000000D+00  0.000000D+00  0.800900D-01
     19  0.000000D+00  0.000000D+00  0.000000D+00  0.631380D+01
     20  0.000000D+00  0.000000D+00  0.000000D+00  0.000000D+00  0.631380D+01
     21  0.000000D+00  0.000000D+00  0.000000D+00  0.000000D+00  0.000000D+00
     22  0.000000D+00  0.000000D+00  0.000000D+00  0.000000D+00  0.000000D+00
     23  0.000000D+00  0.000000D+00  0.000000D+00  0.000000D+00  0.000000D+00
     24  0.000000D+00  0.000000D+00  0.000000D+00  0.648327D+00  0.000000D+00
     25  0.000000D+00  0.000000D+00  0.000000D+00  0.000000D+00  0.648327D+00
     26  0.000000D+00  0.000000D+00  0.000000D+00  0.000000D+00  0.000000D+00
     27  0.000000D+00  0.000000D+00  0.000000D+00  0.000000D+00  0.000000D+00
     28  0.000000D+00  0.000000D+00  0.000000D+00  0.000000D+00  0.000000D+00
               21            22            23            24            25 
     21  0.631380D+01
     22  0.000000D+00  0.631380D+01
     23  0.000000D+00  0.000000D+00  0.631380D+01
     24  0.000000D+00  0.000000D+00  0.000000D+00  0.100437D+01
     25  0.000000D+00  0.000000D+00  0.000000D+00  0.000000D+00  0.100437D+01
     26  0.648327D+00  0.000000D+00  0.000000D+00  0.000000D+00  0.000000D+00
     27  0.000000D+00  0.648327D+00  0.000000D+00  0.000000D+00  0.000000D+00
     28  0.000000D+00  0.000000D+00  0.648327D+00  0.000000D+00  0.000000D+00
               26            27            28 
     26  0.100437D+01
     27  0.000000D+00  0.100437D+01
     28  0.000000D+00  0.000000D+00  0.100437D+01
 Entering OneElI...
 Calculate potential energy integrals
    NBasis =  28  MinDer = 0  MaxDer = 0
 Requested accuracy = 0.1000D-12
 Symmetry will be used
 PrmmSu-InSpLW:  IPartL=    0 NPrtUS=   36 NPrtUL=    1 DoSpLW=F IThBeg=    0 IThEnd=   35 NThAct=   36.
 PrSmSu:  IncTry=   512 NBBP=             72 NTPThr=   100 NPartT=   36 Incr=           1 LDynOK=F GPUOK=F.
 PrsmSu:  NPrtUS=  36 ThrOK=T IAlg=1 LenDen=           0 ISkipM=0 DoSpLW=F IThBeg=    0 IThEnd=   35.
 Prism:   IPart=     0 DynPar=F LinDyn=F Incr=           1.
 PRISM was handed   268429717 working-precision words and    36 shell-pairs
 PRISM was handed   268429717 working-precision words and    36 shell-pairs
 PRISM was handed   268429717 working-precision words and    36 shell-pairs
 PRISM was handed   268429717 working-precision words and    36 shell-pairs
 PRISM was handed   268429717 working-precision words and    36 shell-pairs
 PRISM was handed   268429717 working-precision words and    36 shell-pairs
 PRISM was handed   268429717 working-precision words and    36 shell-pairs
 PRISM was handed   268429717 working-precision words and    36 shell-pairs
 PRISM was handed   268429717 working-precision words and    36 shell-pairs
 PRISM was handed   268429717 working-precision words and    36 shell-pairs
 PRISM was handed   268429717 working-precision words and    36 shell-pairs
 PRISM was handed   268429717 working-precision words and    36 shell-pairs
 PRISM was handed   268429717 working-precision words and    36 shell-pairs
 PRISM was handed   268429717 working-precision words and    36 shell-pairs
 PRISM was handed   268429717 working-precision words and    36 shell-pairs
 PRISM was handed   268429717 working-precision words and    36 shell-pairs
 PRISM was handed   268429717 working-precision words and    36 shell-pairs
 PRISM was handed   268429717 working-precision words and    36 shell-pairs
 PRISM was handed   268429717 working-precision words and    36 shell-pairs
 PRISM was handed   268429717 working-precision words and    36 shell-pairs
 PRISM was handed   268429717 working-precision words and    36 shell-pairs
 PRISM was handed   268429717 working-precision words and    36 shell-pairs
 PRISM was handed   268429717 working-precision words and    36 shell-pairs
 PRISM was handed   268429717 working-precision words and    36 shell-pairs
 PRISM was handed   268429717 working-precision words and    36 shell-pairs
 PRISM was handed   268429717 working-precision words and    36 shell-pairs
 PRISM was handed   268429717 working-precision words and    36 shell-pairs
 PRISM was handed   268429717 working-precision words and    36 shell-pairs
 PRISM was handed   268429717 working-precision words and    36 shell-pairs
 PRISM was handed   268429717 working-precision words and    36 shell-pairs
 PRISM was handed   268429717 working-precision words and    36 shell-pairs
 PRISM was handed   268429717 working-precision words and    36 shell-pairs
 PRISM was handed   268429717 working-precision words and    36 shell-pairs
 PRISM was handed   268429717 working-precision words and    36 shell-pairs
 PRISM was handed   268429717 working-precision words and    36 shell-pairs
 PRISM was handed   268429717 working-precision words and    36 shell-pairs
 IPart= 34 NShTot=           0 NBatch=           0 AvBLen=         0.0
 IPart= 25 NShTot=           0 NBatch=           0 AvBLen=         0.0
 IPart= 22 NShTot=           0 NBatch=           0 AvBLen=         0.0
 IPart=  3 NShTot=           0 NBatch=           0 AvBLen=         0.0
 IPart= 16 NShTot=           0 NBatch=           0 AvBLen=         0.0
 IPart= 29 NShTot=           0 NBatch=           0 AvBLen=         0.0
 IPart=  7 NShTot=           0 NBatch=           0 AvBLen=         0.0
 IPart= 31 NShTot=           0 NBatch=           0 AvBLen=         0.0
 IPart= 26 NShTot=           0 NBatch=           0 AvBLen=         0.0
 IPart= 14 NShTot=           0 NBatch=           0 AvBLen=         0.0
 IPart=  9 NShTot=           0 NBatch=           0 AvBLen=         0.0
 IPart= 30 NShTot=           0 NBatch=           0 AvBLen=         0.0
 IPart=  5 NShTot=           0 NBatch=           0 AvBLen=         0.0
 IPart= 18 NShTot=           0 NBatch=           0 AvBLen=         0.0
 IPart= 10 NShTot=           0 NBatch=           0 AvBLen=         0.0
 IPart= 17 NShTot=           0 NBatch=           0 AvBLen=         0.0
 IPart= 13 NShTot=           0 NBatch=           0 AvBLen=         0.0
 IPart= 12 NShTot=           0 NBatch=           0 AvBLen=         0.0
 IPart=  6 NShTot=           0 NBatch=           0 AvBLen=         0.0
 IPart= 32 NShTot=           0 NBatch=           0 AvBLen=         0.0
 IPart=  4 NShTot=           0 NBatch=           0 AvBLen=         0.0
 IPart= 35 NShTot=           0 NBatch=           0 AvBLen=         0.0
 IPart=  8 NShTot=           0 NBatch=           0 AvBLen=         0.0
 IPart= 19 NShTot=           0 NBatch=           0 AvBLen=         0.0
 IPart= 23 NShTot=           0 NBatch=           0 AvBLen=         0.0
 IPart= 33 NShTot=           0 NBatch=           0 AvBLen=         0.0
 IPart= 11 NShTot=           0 NBatch=           0 AvBLen=         0.0
 IPart= 15 NShTot=           0 NBatch=           0 AvBLen=         0.0
 IPart= 21 NShTot=           0 NBatch=           0 AvBLen=         0.0
 IPart= 20 NShTot=           0 NBatch=           0 AvBLen=         0.0
 IPart= 24 NShTot=           0 NBatch=           0 AvBLen=         0.0
 IPart= 27 NShTot=           0 NBatch=           0 AvBLen=         0.0
 IPart= 28 NShTot=           0 NBatch=           0 AvBLen=         0.0
 IPart=  1 NShTot=          14 NBatch=           7 AvBLen=         2.0
 IPart=  2 NShTot=           2 NBatch=           1 AvBLen=         2.0
 IPart=  0 NShTot=          56 NBatch=          28 AvBLen=         2.0
 PrSmSu:  NxtVal=             37.
 ***** Potential Energy ***** 
                1             2             3             4             5 
      1  0.498206D+01
      2  0.855268D-02  0.475931D+03
      3 -0.171524D-01 -0.525693D+02  0.838860D+02
      4  0.000000D+00  0.000000D+00  0.000000D+00  0.980706D+02
      5  0.000000D+00  0.000000D+00  0.000000D+00  0.000000D+00  0.980706D+02
      6 -0.687904D-02 -0.828350D-03  0.505030D-02  0.000000D+00  0.000000D+00
      7 -0.542103D-01 -0.185951D+01  0.179791D+02  0.000000D+00  0.000000D+00
      8  0.000000D+00  0.000000D+00  0.000000D+00  0.168684D+02  0.000000D+00
      9  0.000000D+00  0.000000D+00  0.000000D+00  0.000000D+00  0.168684D+02
     10 -0.764156D-01 -0.454825D-04  0.295207D-02  0.000000D+00  0.000000D+00
     11 -0.532257D+00  0.174923D+01 -0.222775D+01  0.000000D+00  0.000000D+00
     12  0.000000D+00  0.000000D+00  0.000000D+00 -0.237223D+01  0.000000D+00
     13  0.000000D+00  0.000000D+00  0.000000D+00  0.000000D+00 -0.237223D+01
     14 -0.107411D+01  0.801882D-05 -0.356769D-03  0.000000D+00  0.000000D+00
     15  0.829611D+00  0.180548D+01 -0.332662D+01  0.000000D+00  0.000000D+00
     16  0.000000D+00  0.000000D+00  0.000000D+00  0.245945D+00  0.000000D+00
     17  0.000000D+00  0.000000D+00  0.000000D+00  0.000000D+00  0.245945D+00
     18 -0.143956D+01  0.000000D+00  0.544173D-04  0.000000D+00  0.000000D+00
     19  0.296812D-01  0.173970D-05 -0.237669D-03  0.000000D+00  0.000000D+00
     20  0.000000D+00  0.000000D+00  0.000000D+00 -0.229397D-02  0.000000D+00
     21  0.000000D+00  0.000000D+00  0.000000D+00  0.000000D+00 -0.229397D-02
     22  0.000000D+00  0.000000D+00  0.000000D+00  0.000000D+00  0.000000D+00
     23  0.000000D+00  0.000000D+00  0.000000D+00  0.000000D+00  0.000000D+00
     24  0.285431D+00  0.000000D+00 -0.231933D-04  0.000000D+00  0.000000D+00
     25  0.000000D+00  0.000000D+00  0.000000D+00 -0.181283D-03  0.000000D+00
     26  0.000000D+00  0.000000D+00  0.000000D+00  0.000000D+00 -0.181283D-03
     27  0.000000D+00  0.000000D+00  0.000000D+00  0.000000D+00  0.000000D+00
     28  0.000000D+00  0.000000D+00  0.000000D+00  0.000000D+00  0.000000D+00
                6             7             8             9            10 
      6  0.980709D+02
      7  0.294090D-02  0.263863D+02
      8  0.000000D+00  0.000000D+00  0.249774D+02
      9  0.000000D+00  0.000000D+00  0.000000D+00  0.249774D+02
     10  0.168687D+02  0.169250D-01  0.000000D+00  0.000000D+00  0.249814D+02
     11 -0.132746D-03  0.253444D+01  0.000000D+00  0.000000D+00  0.983385D-02
     12  0.000000D+00  0.000000D+00  0.220560D+00  0.000000D+00  0.000000D+00
     13  0.000000D+00  0.000000D+00  0.000000D+00  0.220560D+00  0.000000D+00
     14 -0.237226D+01  0.407694D-02  0.000000D+00  0.000000D+00  0.223486D+00
     15 -0.433285D-03 -0.544514D+01  0.000000D+00  0.000000D+00 -0.851565D-02
     16  0.000000D+00  0.000000D+00  0.146980D+01  0.000000D+00  0.000000D+00
     17  0.000000D+00  0.000000D+00  0.000000D+00  0.146980D+01  0.000000D+00
     18  0.245952D+00  0.236465D-02  0.000000D+00  0.000000D+00  0.147122D+01
     19 -0.268123D-02 -0.248822D-02  0.000000D+00  0.000000D+00 -0.157820D-01
     20  0.000000D+00  0.000000D+00 -0.130161D-01  0.000000D+00  0.000000D+00
     21  0.000000D+00  0.000000D+00  0.000000D+00 -0.130161D-01  0.000000D+00
     22  0.000000D+00  0.000000D+00  0.000000D+00  0.000000D+00  0.000000D+00
     23  0.000000D+00  0.000000D+00  0.000000D+00  0.000000D+00  0.000000D+00
     24 -0.213784D-03 -0.257068D-02  0.000000D+00  0.000000D+00 -0.135996D-01
     25  0.000000D+00  0.000000D+00 -0.103678D-01  0.000000D+00  0.000000D+00
     26  0.000000D+00  0.000000D+00  0.000000D+00 -0.103678D-01  0.000000D+00
     27  0.000000D+00  0.000000D+00  0.000000D+00  0.000000D+00  0.000000D+00
     28  0.000000D+00  0.000000D+00  0.000000D+00  0.000000D+00  0.000000D+00
               11            12            13            14            15 
     11  0.797867D+01
     12  0.000000D+00  0.699363D+01
     13  0.000000D+00  0.000000D+00  0.699363D+01
     14  0.549126D-01  0.000000D+00  0.000000D+00  0.703581D+01
     15 -0.626226D+01  0.000000D+00  0.000000D+00 -0.580951D-01  0.644821D+01
     16  0.000000D+00  0.425991D+01  0.000000D+00  0.000000D+00  0.000000D+00
     17  0.000000D+00  0.000000D+00  0.425991D+01  0.000000D+00  0.000000D+00
     18  0.409560D-01  0.000000D+00  0.000000D+00  0.430048D+01 -0.633622D-01
     19 -0.141544D-02  0.000000D+00  0.000000D+00 -0.305213D-02  0.118537D-02
     20  0.000000D+00 -0.231065D-02  0.000000D+00  0.000000D+00  0.000000D+00
     21  0.000000D+00  0.000000D+00 -0.231065D-02  0.000000D+00  0.000000D+00
     22  0.000000D+00  0.000000D+00  0.000000D+00  0.000000D+00  0.000000D+00
     23  0.000000D+00  0.000000D+00  0.000000D+00  0.000000D+00  0.000000D+00
     24 -0.147002D-01  0.000000D+00  0.000000D+00 -0.366687D-01  0.113175D-01
     25  0.000000D+00 -0.237754D-01  0.000000D+00  0.000000D+00  0.000000D+00
     26  0.000000D+00  0.000000D+00 -0.237754D-01  0.000000D+00  0.000000D+00
     27  0.000000D+00  0.000000D+00  0.000000D+00  0.000000D+00  0.000000D+00
     28  0.000000D+00  0.000000D+00  0.000000D+00  0.000000D+00  0.000000D+00
               16            17            18            19            20 
     16  0.432344D+01
     17  0.000000D+00  0.432344D+01
     18  0.000000D+00  0.000000D+00  0.438240D+01
     19  0.000000D+00  0.000000D+00 -0.175389D-02  0.260962D+02
     20 -0.137933D-02  0.000000D+00  0.000000D+00  0.000000D+00  0.260952D+02
     21  0.000000D+00 -0.137933D-02  0.000000D+00  0.000000D+00  0.000000D+00
     22  0.000000D+00  0.000000D+00  0.000000D+00  0.000000D+00  0.000000D+00
     23  0.000000D+00  0.000000D+00  0.000000D+00  0.000000D+00  0.000000D+00
     24  0.000000D+00  0.000000D+00 -0.190704D-01  0.670079D+01  0.000000D+00
     25 -0.118315D-01  0.000000D+00  0.000000D+00  0.000000D+00  0.669985D+01
     26  0.000000D+00 -0.118315D-01  0.000000D+00  0.000000D+00  0.000000D+00
     27  0.000000D+00  0.000000D+00  0.000000D+00  0.000000D+00  0.000000D+00
     28  0.000000D+00  0.000000D+00  0.000000D+00  0.000000D+00  0.000000D+00
               21            22            23            24            25 
     21  0.260952D+02
     22  0.000000D+00  0.260928D+02
     23  0.000000D+00  0.000000D+00  0.260928D+02
     24  0.000000D+00  0.000000D+00  0.000000D+00  0.102114D+02
     25  0.000000D+00  0.000000D+00  0.000000D+00  0.000000D+00  0.102038D+02
     26  0.669985D+01  0.000000D+00  0.000000D+00  0.000000D+00  0.000000D+00
     27  0.000000D+00  0.669785D+01  0.000000D+00  0.000000D+00  0.000000D+00
     28  0.000000D+00  0.000000D+00  0.669785D+01  0.000000D+00  0.000000D+00
               26            27            28 
     26  0.102038D+02
     27  0.000000D+00  0.101924D+02
     28  0.000000D+00  0.000000D+00  0.101924D+02
 ****** Core Hamiltonian ****** 
                1             2             3             4             5 
      1 -0.422203D+01
      2 -0.860406D-02 -0.242063D+03
      3  0.175610D-01  0.654257D+02 -0.722343D+02
      4  0.000000D+00  0.000000D+00  0.000000D+00 -0.583362D+02
      5  0.000000D+00  0.000000D+00  0.000000D+00  0.000000D+00 -0.583362D+02
      6  0.703713D-02  0.828350D-03 -0.505030D-02  0.000000D+00  0.000000D+00
      7  0.570710D-01  0.316488D+01 -0.188657D+02  0.000000D+00  0.000000D+00
      8  0.000000D+00  0.000000D+00  0.000000D+00 -0.154547D+02  0.000000D+00
      9  0.000000D+00  0.000000D+00  0.000000D+00  0.000000D+00 -0.154547D+02
     10  0.799678D-01  0.454825D-04 -0.295207D-02  0.000000D+00  0.000000D+00
     11  0.538630D+00 -0.170231D+01  0.197699D+01  0.000000D+00  0.000000D+00
     12  0.000000D+00  0.000000D+00  0.000000D+00  0.204287D+01  0.000000D+00
     13  0.000000D+00  0.000000D+00  0.000000D+00  0.000000D+00  0.204287D+01
     14  0.106629D+01 -0.801882D-05  0.356769D-03  0.000000D+00  0.000000D+00
     15 -0.824593D+00 -0.180476D+01  0.332127D+01  0.000000D+00  0.000000D+00
     16  0.000000D+00  0.000000D+00  0.000000D+00 -0.245098D+00  0.000000D+00
     17  0.000000D+00  0.000000D+00  0.000000D+00  0.000000D+00 -0.245098D+00
     18  0.141279D+01  0.000000D+00 -0.544173D-04  0.000000D+00  0.000000D+00
     19 -0.306740D-01 -0.173970D-05  0.237669D-03  0.000000D+00  0.000000D+00
     20  0.000000D+00  0.000000D+00  0.000000D+00  0.229397D-02  0.000000D+00
     21  0.000000D+00  0.000000D+00  0.000000D+00  0.000000D+00  0.229397D-02
     22  0.000000D+00  0.000000D+00  0.000000D+00  0.000000D+00  0.000000D+00
     23  0.000000D+00  0.000000D+00  0.000000D+00  0.000000D+00  0.000000D+00
     24 -0.294578D+00  0.000000D+00  0.231933D-04  0.000000D+00  0.000000D+00
     25  0.000000D+00  0.000000D+00  0.000000D+00  0.181283D-03  0.000000D+00
     26  0.000000D+00  0.000000D+00  0.000000D+00  0.000000D+00  0.181283D-03
     27  0.000000D+00  0.000000D+00  0.000000D+00  0.000000D+00  0.000000D+00
     28  0.000000D+00  0.000000D+00  0.000000D+00  0.000000D+00  0.000000D+00
                6             7             8             9            10 
      6 -0.583365D+02
      7 -0.294090D-02 -0.250000D+02
      8  0.000000D+00  0.000000D+00 -0.223340D+02
      9  0.000000D+00  0.000000D+00  0.000000D+00 -0.223340D+02
     10 -0.154550D+02 -0.169250D-01  0.000000D+00  0.000000D+00 -0.223379D+02
     11  0.132746D-03 -0.273659D+01  0.000000D+00  0.000000D+00 -0.983385D-02
     12  0.000000D+00  0.000000D+00 -0.602883D+00  0.000000D+00  0.000000D+00
     13  0.000000D+00  0.000000D+00  0.000000D+00 -0.602883D+00  0.000000D+00
     14  0.204290D+01 -0.407694D-02  0.000000D+00  0.000000D+00 -0.605808D+00
     15  0.433285D-03  0.542012D+01  0.000000D+00  0.000000D+00  0.851565D-02
     16  0.000000D+00  0.000000D+00 -0.145402D+01  0.000000D+00  0.000000D+00
     17  0.000000D+00  0.000000D+00  0.000000D+00 -0.145402D+01  0.000000D+00
     18 -0.245104D+00 -0.236465D-02  0.000000D+00  0.000000D+00 -0.145544D+01
     19  0.268123D-02  0.248822D-02  0.000000D+00  0.000000D+00  0.157820D-01
     20  0.000000D+00  0.000000D+00  0.130161D-01  0.000000D+00  0.000000D+00
     21  0.000000D+00  0.000000D+00  0.000000D+00  0.130161D-01  0.000000D+00
     22  0.000000D+00  0.000000D+00  0.000000D+00  0.000000D+00  0.000000D+00
     23  0.000000D+00  0.000000D+00  0.000000D+00  0.000000D+00  0.000000D+00
     24  0.213784D-03  0.257068D-02  0.000000D+00  0.000000D+00  0.135996D-01
     25  0.000000D+00  0.000000D+00  0.103678D-01  0.000000D+00  0.000000D+00
     26  0.000000D+00  0.000000D+00  0.000000D+00  0.103678D-01  0.000000D+00
     27  0.000000D+00  0.000000D+00  0.000000D+00  0.000000D+00  0.000000D+00
     28  0.000000D+00  0.000000D+00  0.000000D+00  0.000000D+00  0.000000D+00
               11            12            13            14            15 
     11 -0.779920D+01
     12  0.000000D+00 -0.669205D+01
     13  0.000000D+00  0.000000D+00 -0.669205D+01
     14 -0.549126D-01  0.000000D+00  0.000000D+00 -0.673423D+01
     15  0.620445D+01  0.000000D+00  0.000000D+00  0.580951D-01 -0.640015D+01
     16  0.000000D+00 -0.417313D+01  0.000000D+00  0.000000D+00  0.000000D+00
     17  0.000000D+00  0.000000D+00 -0.417313D+01  0.000000D+00  0.000000D+00
     18 -0.409560D-01  0.000000D+00  0.000000D+00 -0.421370D+01  0.633622D-01
     19  0.141544D-02  0.000000D+00  0.000000D+00  0.305213D-02 -0.118537D-02
     20  0.000000D+00  0.231065D-02  0.000000D+00  0.000000D+00  0.000000D+00
     21  0.000000D+00  0.000000D+00  0.231065D-02  0.000000D+00  0.000000D+00
     22  0.000000D+00  0.000000D+00  0.000000D+00  0.000000D+00  0.000000D+00
     23  0.000000D+00  0.000000D+00  0.000000D+00  0.000000D+00  0.000000D+00
     24  0.147002D-01  0.000000D+00  0.000000D+00  0.366687D-01 -0.113175D-01
     25  0.000000D+00  0.237754D-01  0.000000D+00  0.000000D+00  0.000000D+00
     26  0.000000D+00  0.000000D+00  0.237754D-01  0.000000D+00  0.000000D+00
     27  0.000000D+00  0.000000D+00  0.000000D+00  0.000000D+00  0.000000D+00
     28  0.000000D+00  0.000000D+00  0.000000D+00  0.000000D+00  0.000000D+00
               16            17            18            19            20 
     16 -0.424335D+01
     17  0.000000D+00 -0.424335D+01
     18  0.000000D+00  0.000000D+00 -0.430231D+01
     19  0.000000D+00  0.000000D+00  0.175389D-02 -0.197824D+02
     20  0.137933D-02  0.000000D+00  0.000000D+00  0.000000D+00 -0.197814D+02
     21  0.000000D+00  0.137933D-02  0.000000D+00  0.000000D+00  0.000000D+00
     22  0.000000D+00  0.000000D+00  0.000000D+00  0.000000D+00  0.000000D+00
     23  0.000000D+00  0.000000D+00  0.000000D+00  0.000000D+00  0.000000D+00
     24  0.000000D+00  0.000000D+00  0.190704D-01 -0.605246D+01  0.000000D+00
     25  0.118315D-01  0.000000D+00  0.000000D+00  0.000000D+00 -0.605153D+01
     26  0.000000D+00  0.118315D-01  0.000000D+00  0.000000D+00  0.000000D+00
     27  0.000000D+00  0.000000D+00  0.000000D+00  0.000000D+00  0.000000D+00
     28  0.000000D+00  0.000000D+00  0.000000D+00  0.000000D+00  0.000000D+00
               21            22            23            24            25 
     21 -0.197814D+02
     22  0.000000D+00 -0.197790D+02
     23  0.000000D+00  0.000000D+00 -0.197790D+02
     24  0.000000D+00  0.000000D+00  0.000000D+00 -0.920705D+01
     25  0.000000D+00  0.000000D+00  0.000000D+00  0.000000D+00 -0.919941D+01
     26 -0.605153D+01  0.000000D+00  0.000000D+00  0.000000D+00  0.000000D+00
     27  0.000000D+00 -0.604952D+01  0.000000D+00  0.000000D+00  0.000000D+00
     28  0.000000D+00  0.000000D+00 -0.604952D+01  0.000000D+00  0.000000D+00
               26            27            28 
     26 -0.919941D+01
     27  0.000000D+00 -0.918806D+01
     28  0.000000D+00  0.000000D+00 -0.918806D+01
 SVDSVc IOpt=   1 NormSV=T IR=1
 SVDSVc V= 2.06D+00 1.90D+00 1.41D+00 1.40D+00 1.39D+00 1.31D+00 9.51D-01 8.43D-01 6.51D-01 5.96D-01
 SVDSVc V= 5.93D-01 5.24D-01 2.40D-01 1.26D-01
 SVDSVc IOpt=   1 NormSV=T IR=2
 SVDSVc V= 1.40D+00 5.96D-01
 SVDSVc IOpt=   1 NormSV=T IR=3
 SVDSVc V= 1.79D+00 1.40D+00 1.30D+00 6.62D-01 5.96D-01 2.47D-01
 SVDSVc IOpt=   1 NormSV=T IR=4
 SVDSVc V= 1.79D+00 1.40D+00 1.30D+00 6.62D-01 5.96D-01 2.47D-01
 TstOVc:  Largest diagonal error= 2.00D-15 IB=1 I=   14.
 TstOVc:  Largest same sym error= 9.26D-16 IB=1 I=    6 J=    3.
 TstOVc:  Largest diff sym error= 0.00D+00 IB=0 JB=0 I=    0 J=    0.
 Orthogonalized basis functions: 
                 1             2             3             4             5 
      1   0.183466D+00 -0.196670D+00  0.473217D-01  0.000000D+00  0.569264D-01
      2   0.271803D-01  0.208357D-01 -0.835162D-01  0.000000D+00 -0.415292D+00
      3  -0.938911D-01 -0.622663D-01  0.119958D+00  0.000000D+00  0.580599D+00
      4   0.000000D+00  0.000000D+00  0.000000D+00  0.000000D+00  0.000000D+00
      5   0.000000D+00  0.000000D+00  0.000000D+00  0.000000D+00  0.000000D+00
      6  -0.712654D-02  0.295915D-01  0.244384D-01  0.000000D+00  0.327309D-01
      7  -0.223675D+00 -0.126214D+00  0.729894D-01  0.000000D+00  0.327376D+00
      8   0.000000D+00  0.000000D+00  0.000000D+00  0.000000D+00  0.000000D+00
      9   0.000000D+00  0.000000D+00  0.000000D+00  0.000000D+00  0.000000D+00
     10  -0.412135D-01  0.130539D+00  0.337732D-01  0.000000D+00  0.434492D-01
     11  -0.400280D+00 -0.185753D+00 -0.340741D-01  0.000000D+00 -0.200565D+00
     12   0.000000D+00  0.000000D+00  0.000000D+00  0.000000D+00  0.000000D+00
     13   0.000000D+00  0.000000D+00  0.000000D+00  0.000000D+00  0.000000D+00
     14  -0.160255D+00  0.430946D+00  0.269198D-01  0.000000D+00  0.306203D-01
     15   0.417932D+00  0.184593D+00  0.247588D-01  0.000000D+00  0.145995D+00
     16   0.000000D+00  0.000000D+00  0.000000D+00  0.000000D+00  0.000000D+00
     17   0.000000D+00  0.000000D+00  0.000000D+00  0.000000D+00  0.000000D+00
     18  -0.170453D+00  0.441739D+00  0.225073D-01  0.000000D+00  0.253093D-01
     19   0.353323D-02 -0.556302D-02  0.580938D+00  0.000000D+00 -0.125952D+00
     20   0.000000D+00  0.000000D+00  0.000000D+00  0.000000D+00  0.000000D+00
     21   0.000000D+00  0.000000D+00  0.000000D+00  0.000000D+00  0.000000D+00
     22   0.000000D+00  0.000000D+00  0.000000D+00  0.596714D+00  0.000000D+00
     23   0.000000D+00  0.000000D+00  0.000000D+00  0.000000D+00  0.000000D+00
     24   0.832386D-02 -0.113424D-01  0.583176D+00  0.000000D+00 -0.123221D+00
     25   0.000000D+00  0.000000D+00  0.000000D+00  0.000000D+00  0.000000D+00
     26   0.000000D+00  0.000000D+00  0.000000D+00  0.000000D+00  0.000000D+00
     27   0.000000D+00  0.000000D+00  0.000000D+00  0.596714D+00  0.000000D+00
     28   0.000000D+00  0.000000D+00  0.000000D+00  0.000000D+00  0.000000D+00
                 6             7             8             9            10 
      1   0.968362D-01  0.285129D+00  0.901464D+00 -0.251958D+00  0.000000D+00
      2   0.376642D-01  0.761053D+00 -0.258308D+00  0.382450D-01  0.000000D+00
      3  -0.418294D-01  0.110140D+00 -0.139055D+00  0.484511D-01  0.000000D+00
      4   0.000000D+00  0.000000D+00  0.000000D+00  0.000000D+00  0.000000D+00
      5   0.000000D+00  0.000000D+00  0.000000D+00  0.000000D+00  0.000000D+00
      6   0.624595D+00 -0.657001D-01 -0.241307D+00 -0.807654D+00  0.000000D+00
      7  -0.809595D-02  0.574700D+00 -0.133663D+00 -0.209777D-01  0.000000D+00
      8   0.000000D+00  0.000000D+00  0.000000D+00  0.000000D+00  0.000000D+00
      9   0.000000D+00  0.000000D+00  0.000000D+00  0.000000D+00  0.000000D+00
     10   0.587701D+00  0.234860D-01  0.157582D+00  0.857945D+00  0.000000D+00
     11   0.324681D-01 -0.121307D+00  0.207559D+00 -0.437835D-01  0.000000D+00
     12   0.000000D+00  0.000000D+00  0.000000D+00  0.000000D+00  0.000000D+00
     13   0.000000D+00  0.000000D+00  0.000000D+00  0.000000D+00  0.000000D+00
     14  -0.802568D-01  0.111238D+00  0.325109D+00 -0.116194D+00  0.000000D+00
     15  -0.225427D-01  0.110845D+00 -0.921782D-01  0.324684D-02  0.000000D+00
     16   0.000000D+00  0.000000D+00  0.000000D+00  0.000000D+00  0.000000D+00
     17   0.000000D+00  0.000000D+00  0.000000D+00  0.000000D+00  0.000000D+00
     18  -0.818136D-01  0.620756D-01  0.133578D+00 -0.219847D+00  0.000000D+00
     19  -0.243163D-01 -0.287757D-01 -0.104153D+00  0.937925D-01  0.000000D+00
     20   0.000000D+00  0.000000D+00  0.000000D+00  0.000000D+00  0.000000D+00
     21   0.000000D+00  0.000000D+00  0.000000D+00  0.000000D+00  0.000000D+00
     22   0.000000D+00  0.000000D+00  0.000000D+00  0.000000D+00  0.916103D+00
     23   0.000000D+00  0.000000D+00  0.000000D+00  0.000000D+00  0.000000D+00
     24  -0.191163D-01  0.200317D-02  0.358092D-01 -0.795395D-01  0.000000D+00
     25   0.000000D+00  0.000000D+00  0.000000D+00  0.000000D+00  0.000000D+00
     26   0.000000D+00  0.000000D+00  0.000000D+00  0.000000D+00  0.000000D+00
     27   0.000000D+00  0.000000D+00  0.000000D+00  0.000000D+00 -0.916103D+00
     28   0.000000D+00  0.000000D+00  0.000000D+00  0.000000D+00  0.000000D+00
                11            12            13            14            15 
      1  -0.132538D+00  0.111731D+00  0.219564D+00 -0.204915D+00  0.000000D+00
      2   0.279127D-01  0.511412D+00  0.395185D-02  0.217758D-01  0.000000D+00
      3   0.420471D-01  0.924043D+00  0.155296D-01  0.171307D+00  0.000000D+00
      4   0.000000D+00  0.000000D+00  0.000000D+00  0.000000D+00  0.000000D+00
      5   0.000000D+00  0.000000D+00  0.000000D+00  0.000000D+00  0.000000D+00
      6  -0.601880D-01  0.242994D-01 -0.137704D+00  0.210415D-02  0.000000D+00
      7  -0.286990D-01 -0.850248D+00 -0.136622D-01  0.675759D-01  0.000000D+00
      8   0.000000D+00  0.000000D+00  0.000000D+00  0.000000D+00  0.000000D+00
      9   0.000000D+00  0.000000D+00  0.000000D+00  0.000000D+00  0.000000D+00
     10   0.694587D-01 -0.300333D-01  0.118521D+00  0.323355D-02  0.000000D+00
     11  -0.209161D-01  0.137896D+00  0.941742D-01  0.195369D+01  0.000000D+00
     12   0.000000D+00  0.000000D+00  0.000000D+00  0.000000D+00  0.000000D+00
     13   0.000000D+00  0.000000D+00  0.000000D+00  0.000000D+00  0.000000D+00
     14  -0.507258D-01  0.446176D-01 -0.140221D+01  0.545107D-01  0.000000D+00
     15  -0.383058D-02 -0.179052D+00  0.548142D-01  0.200656D+01  0.000000D+00
     16   0.000000D+00  0.000000D+00  0.000000D+00  0.000000D+00  0.000000D+00
     17   0.000000D+00  0.000000D+00  0.000000D+00  0.000000D+00  0.000000D+00
     18  -0.247711D-01  0.897215D-02  0.145439D+01 -0.119803D+00  0.000000D+00
     19  -0.905738D+00  0.272506D-01  0.779279D-02 -0.494306D-02  0.000000D+00
     20   0.000000D+00  0.000000D+00  0.000000D+00  0.000000D+00  0.000000D+00
     21   0.000000D+00  0.000000D+00  0.000000D+00  0.000000D+00  0.000000D+00
     22   0.000000D+00  0.000000D+00  0.000000D+00  0.000000D+00  0.000000D+00
     23   0.000000D+00  0.000000D+00  0.000000D+00  0.000000D+00  0.596714D+00
     24   0.912695D+00 -0.326578D-01 -0.158202D-01  0.117696D-01  0.000000D+00
     25   0.000000D+00  0.000000D+00  0.000000D+00  0.000000D+00  0.000000D+00
     26   0.000000D+00  0.000000D+00  0.000000D+00  0.000000D+00  0.000000D+00
     27   0.000000D+00  0.000000D+00  0.000000D+00  0.000000D+00  0.000000D+00
     28   0.000000D+00  0.000000D+00  0.000000D+00  0.000000D+00  0.596714D+00
                16            17            18            19            20 
      1   0.000000D+00  0.000000D+00  0.000000D+00  0.000000D+00  0.000000D+00
      2   0.000000D+00  0.000000D+00  0.000000D+00  0.000000D+00  0.000000D+00
      3   0.000000D+00  0.000000D+00  0.000000D+00  0.000000D+00  0.000000D+00
      4   0.000000D+00  0.496550D-01  0.000000D+00  0.634889D+00 -0.838847D+00
      5   0.000000D+00  0.000000D+00  0.000000D+00  0.000000D+00  0.000000D+00
      6   0.000000D+00  0.000000D+00  0.000000D+00  0.000000D+00  0.000000D+00
      7   0.000000D+00  0.000000D+00  0.000000D+00  0.000000D+00  0.000000D+00
      8   0.000000D+00  0.179002D+00  0.000000D+00  0.575229D+00  0.875786D+00
      9   0.000000D+00  0.000000D+00  0.000000D+00  0.000000D+00  0.000000D+00
     10   0.000000D+00  0.000000D+00  0.000000D+00  0.000000D+00  0.000000D+00
     11   0.000000D+00  0.000000D+00  0.000000D+00  0.000000D+00  0.000000D+00
     12   0.000000D+00  0.513298D+00  0.000000D+00 -0.135910D+00 -0.267878D-01
     13   0.000000D+00  0.000000D+00  0.000000D+00  0.000000D+00  0.000000D+00
     14   0.000000D+00  0.000000D+00  0.000000D+00  0.000000D+00  0.000000D+00
     15   0.000000D+00  0.000000D+00  0.000000D+00  0.000000D+00  0.000000D+00
     16   0.000000D+00  0.510710D+00  0.000000D+00 -0.126746D+00 -0.198477D+00
     17   0.000000D+00  0.000000D+00  0.000000D+00  0.000000D+00  0.000000D+00
     18   0.000000D+00  0.000000D+00  0.000000D+00  0.000000D+00  0.000000D+00
     19   0.000000D+00  0.000000D+00  0.000000D+00  0.000000D+00  0.000000D+00
     20   0.000000D+00  0.000000D+00  0.596714D+00  0.000000D+00  0.000000D+00
     21   0.000000D+00  0.000000D+00  0.000000D+00  0.000000D+00  0.000000D+00
     22   0.000000D+00  0.000000D+00  0.000000D+00  0.000000D+00  0.000000D+00
     23   0.916103D+00  0.000000D+00  0.000000D+00  0.000000D+00  0.000000D+00
     24   0.000000D+00  0.000000D+00  0.000000D+00  0.000000D+00  0.000000D+00
     25   0.000000D+00  0.000000D+00  0.596714D+00  0.000000D+00  0.000000D+00
     26   0.000000D+00  0.000000D+00  0.000000D+00  0.000000D+00  0.000000D+00
     27   0.000000D+00  0.000000D+00  0.000000D+00  0.000000D+00  0.000000D+00
     28  -0.916103D+00  0.000000D+00  0.000000D+00  0.000000D+00  0.000000D+00
                21            22            23            24            25 
      1   0.000000D+00  0.000000D+00  0.000000D+00  0.000000D+00  0.000000D+00
      2   0.000000D+00  0.000000D+00  0.000000D+00  0.000000D+00  0.000000D+00
      3   0.000000D+00  0.000000D+00  0.000000D+00  0.000000D+00  0.000000D+00
      4   0.000000D+00  0.146699D+00  0.000000D+00  0.000000D+00  0.000000D+00
      5   0.000000D+00  0.000000D+00  0.496550D-01  0.000000D+00  0.634889D+00
      6   0.000000D+00  0.000000D+00  0.000000D+00  0.000000D+00  0.000000D+00
      7   0.000000D+00  0.000000D+00  0.000000D+00  0.000000D+00  0.000000D+00
      8   0.000000D+00 -0.133591D+00  0.000000D+00  0.000000D+00  0.000000D+00
      9   0.000000D+00  0.000000D+00  0.179002D+00  0.000000D+00  0.575229D+00
     10   0.000000D+00  0.000000D+00  0.000000D+00  0.000000D+00  0.000000D+00
     11   0.000000D+00  0.000000D+00  0.000000D+00  0.000000D+00  0.000000D+00
     12   0.000000D+00  0.142747D+01  0.000000D+00  0.000000D+00  0.000000D+00
     13   0.000000D+00  0.000000D+00  0.513298D+00  0.000000D+00 -0.135910D+00
     14   0.000000D+00  0.000000D+00  0.000000D+00  0.000000D+00  0.000000D+00
     15   0.000000D+00  0.000000D+00  0.000000D+00  0.000000D+00  0.000000D+00
     16   0.000000D+00 -0.140214D+01  0.000000D+00  0.000000D+00  0.000000D+00
     17   0.000000D+00  0.000000D+00  0.510710D+00  0.000000D+00 -0.126746D+00
     18   0.000000D+00  0.000000D+00  0.000000D+00  0.000000D+00  0.000000D+00
     19   0.000000D+00  0.000000D+00  0.000000D+00  0.000000D+00  0.000000D+00
     20   0.916103D+00  0.000000D+00  0.000000D+00  0.000000D+00  0.000000D+00
     21   0.000000D+00  0.000000D+00  0.000000D+00  0.596714D+00  0.000000D+00
     22   0.000000D+00  0.000000D+00  0.000000D+00  0.000000D+00  0.000000D+00
     23   0.000000D+00  0.000000D+00  0.000000D+00  0.000000D+00  0.000000D+00
     24   0.000000D+00  0.000000D+00  0.000000D+00  0.000000D+00  0.000000D+00
     25  -0.916103D+00  0.000000D+00  0.000000D+00  0.000000D+00  0.000000D+00
     26   0.000000D+00  0.000000D+00  0.000000D+00  0.596714D+00  0.000000D+00
     27   0.000000D+00  0.000000D+00  0.000000D+00  0.000000D+00  0.000000D+00
     28   0.000000D+00  0.000000D+00  0.000000D+00  0.000000D+00  0.000000D+00
                26            27            28 
      1   0.000000D+00  0.000000D+00  0.000000D+00
      2   0.000000D+00  0.000000D+00  0.000000D+00
      3   0.000000D+00  0.000000D+00  0.000000D+00
      4   0.000000D+00  0.000000D+00  0.000000D+00
      5  -0.838847D+00  0.000000D+00  0.146699D+00
      6   0.000000D+00  0.000000D+00  0.000000D+00
      7   0.000000D+00  0.000000D+00  0.000000D+00
      8   0.000000D+00  0.000000D+00  0.000000D+00
      9   0.875786D+00  0.000000D+00 -0.133591D+00
     10   0.000000D+00  0.000000D+00  0.000000D+00
     11   0.000000D+00  0.000000D+00  0.000000D+00
     12   0.000000D+00  0.000000D+00  0.000000D+00
     13  -0.267878D-01  0.000000D+00  0.142747D+01
     14   0.000000D+00  0.000000D+00  0.000000D+00
     15   0.000000D+00  0.000000D+00  0.000000D+00
     16   0.000000D+00  0.000000D+00  0.000000D+00
     17  -0.198477D+00  0.000000D+00 -0.140214D+01
     18   0.000000D+00  0.000000D+00  0.000000D+00
     19   0.000000D+00  0.000000D+00  0.000000D+00
     20   0.000000D+00  0.000000D+00  0.000000D+00
     21   0.000000D+00  0.916103D+00  0.000000D+00
     22   0.000000D+00  0.000000D+00  0.000000D+00
     23   0.000000D+00  0.000000D+00  0.000000D+00
     24   0.000000D+00  0.000000D+00  0.000000D+00
     25   0.000000D+00  0.000000D+00  0.000000D+00
     26   0.000000D+00 -0.916103D+00  0.000000D+00
     27   0.000000D+00  0.000000D+00  0.000000D+00
     28   0.000000D+00  0.000000D+00  0.000000D+00
 NBasis=    28 RedAO= T EigKep=  1.26D-01  NBF=    14     2     6     6
 NBsUse=    28 1.00D-06 EigRej= -1.00D+00 NBFU=    14     2     6     6
 Leave Link  302 at Fri Mar 25 14:59:56 2022, MaxMem=  9663676416 cpu:               3.6 elap:               0.1
 (Enter /nopt/nrel/apps/gaussian/g16C_1/g16/l303.exe)
 DipDrv will not compute anything.
 Fermi contact integrals: 
                 1             2 
      1   0.628247D+00  0.254047D-03
      2   0.000000D+00  0.554361D+02
      3   0.000000D+00 -0.784630D-01
      4   0.000000D+00  0.000000D+00
      5   0.000000D+00  0.000000D+00
      6   0.000000D+00  0.000000D+00
      7   0.000000D+00 -0.119954D-01
      8   0.000000D+00  0.000000D+00
      9   0.000000D+00  0.000000D+00
     10  -0.610267D-05  0.000000D+00
     11  -0.722013D-02  0.536701D-01
     12   0.000000D+00  0.000000D+00
     13   0.000000D+00  0.000000D+00
     14  -0.208859D-01  0.000000D+00
     15   0.179751D-01  0.539683D-01
     16   0.000000D+00  0.000000D+00
     17   0.000000D+00  0.000000D+00
     18  -0.376948D-01  0.000000D+00
     19   0.000000D+00  0.000000D+00
     20   0.000000D+00  0.000000D+00
     21   0.000000D+00  0.000000D+00
     22   0.000000D+00  0.000000D+00
     23   0.000000D+00  0.000000D+00
     24   0.335905D-03  0.000000D+00
     25   0.000000D+00  0.000000D+00
     26   0.000000D+00  0.000000D+00
     27   0.000000D+00  0.000000D+00
     28   0.000000D+00  0.000000D+00
 Leave Link  303 at Fri Mar 25 14:59:56 2022, MaxMem=  9663676416 cpu:               1.0 elap:               0.0
 (Enter /nopt/nrel/apps/gaussian/g16C_1/g16/l401.exe)
 ExpMin= 3.20D-02 ExpMax= 4.32D+04 ExpMxC= 6.48D+03 IAcc=3 IRadAn=         5 AccDes= 0.00D+00
 Harris functional with IExCor=  205 and IRadAn=       5 diagonalized for initial guess.
 HarFok:  IExCor=  205 AccDes= 0.00D+00 IRadAn=         5 IDoV= 1 UseB2=F ITyADJ=14
 ICtDFT=  3500011 ScaDFX=  1.000000  1.000000  1.000000  1.000000
 FoFCou: FMM=F IPFlag=           0 FMFlag=      100000 FMFlg1=           0
         NFxFlg=           0 DoJE=T BraDBF=F KetDBF=T FulRan=T
         wScrn=  0.000000 ICntrl=       500 IOpCl=  0 I1Cent=   200000004 NGrid=           0
         NMat0=    1 NMatS0=      1 NMatT0=    0 NMatD0=    1 NMtDS0=    0 NMtDT0=    0
 Petite list used in FoFCou.
 Harris En= -848.073877753934    
 JPrj=0 DoOrth=F DoCkMO=F.
 Initial guess orbital symmetries:
 Alpha Orbitals:
       Occupied  (SG) (SG) (SG) (PI) (PI) (SG) (SG) (PI) (PI) (SG)
                 (SG) (PI)
       Virtual   (PI) (DLTA) (DLTA) (SG) (PI) (PI) (SG) (SG) (PI)
                 (PI) (SG) (PI) (PI) (DLTA) (DLTA) (SG)
 Beta  Orbitals:
       Occupied  (SG) (SG) (SG) (PI) (PI) (SG) (SG) (PI) (PI) (SG)
                 (SG)
       Virtual   (PI) (PI) (DLTA) (DLTA) (SG) (PI) (PI) (SG) (SG)
                 (PI) (PI) (SG) (PI) (PI) (DLTA) (DLTA) (SG)
 Initial guess <Sx>= 0.0000 <Sy>= 0.0000 <Sz>= 0.5000 <S**2>= 0.7500 S= 0.5000
 Leave Link  401 at Fri Mar 25 14:59:56 2022, MaxMem=  9663676416 cpu:               4.8 elap:               0.2
 (Enter /nopt/nrel/apps/gaussian/g16C_1/g16/l502.exe)
 Keep R1 and R2 ints in memory in symmetry-blocked form, NReq=7500011.
 FoFCou: FMM=F IPFlag=           0 FMFlag=           0 FMFlg1=           0
         NFxFlg=           0 DoJE=F BraDBF=F KetDBF=F FulRan=T
         wScrn=  0.000000 ICntrl=       600 IOpCl=  0 I1Cent=           0 NGrid=           0
         NMat0=    1 NMatS0=    406 NMatT0=    0 NMatD0=    1 NMtDS0=    0 NMtDT0=    0
 Petite list used in FoFCou.
 UHF open shell SCF:
 Using DIIS extrapolation, IDIIS=  1040.
 NGot=  9663676416 LenX=  9663625622 LenY=  9663624281
[...]
 RLE energy=       -0.0353672240
 DE(Corr)= -0.35369002E-01 E(CORR)=     -848.83816073     Delta= 5.59D-07
 NORM(A)=   0.10692729D+01
 Iteration Nr.  26
 **********************
 DD1Dir will call FoFMem   1 times, MxPair=        16
 NAB=     6 NAA=     3 NBB=     1.
 A-vector RMS=  1.4480062D-05 Max=  5.3997518D-05 conv= 1.00D-05.
 RLE energy=       -0.0353671653
 DE(Corr)= -0.35367432E-01 E(CORR)=     -848.83815916     Delta= 1.57D-06
 NORM(A)=   0.10693483D+01
 Iteration Nr.  27
 **********************
 DD1Dir will call FoFMem   1 times, MxPair=        16
 NAB=     6 NAA=     3 NBB=     1.
 A-vector RMS=  1.0843142D-05 Max=  4.7734360D-05 conv= 1.00D-05.
 RLE energy=       -0.0353683584
 DE(Corr)= -0.35367318E-01 E(CORR)=     -848.83815905     Delta= 1.14D-07
 NORM(A)=   0.10694242D+01
 Iteration Nr.  28
 **********************
 DD1Dir will call FoFMem   1 times, MxPair=        16
 NAB=     6 NAA=     3 NBB=     1.
 A-vector RMS=  1.0384950D-05 Max=  4.3839721D-05 conv= 1.00D-05.
 RLE energy=       -0.0353698545
 DE(Corr)= -0.35368699E-01 E(CORR)=     -848.83816043     Delta=-1.38D-06
 NORM(A)=   0.10694996D+01
 Iteration Nr.  29
 **********************
 DD1Dir will call FoFMem   1 times, MxPair=        16
 NAB=     6 NAA=     3 NBB=     1.
 A-vector RMS=  9.7615374D-06 Max=  4.6172475D-05 conv= 1.00D-05.
 RLE energy=       -0.0353705619
 DE(Corr)= -0.35370325E-01 E(CORR)=     -848.83816206     Delta=-1.63D-06
 NORM(A)=   0.10695837D+01
 Iteration Nr.  30
 **********************
 DD1Dir will call FoFMem   1 times, MxPair=        16
 NAB=     6 NAA=     3 NBB=     1.
 A-vector RMS=  1.0801451D-05 Max=  4.7007410D-05 conv= 1.00D-05.
 RLE energy=       -0.0353701482
 DE(Corr)= -0.35371119E-01 E(CORR)=     -848.83816285     Delta=-7.94D-07
 NORM(A)=   0.10696449D+01
 Iteration Nr.  31
 **********************
 DD1Dir will call FoFMem   1 times, MxPair=        16
 NAB=     6 NAA=     3 NBB=     1.
 A-vector RMS=  9.1232843D-06 Max=  4.6369799D-05 conv= 1.00D-05.
 RLE energy=       -0.0353696288
 DE(Corr)= -0.35370500E-01 E(CORR)=     -848.83816223     Delta= 6.19D-07
 NORM(A)=   0.10696854D+01
 Iteration Nr.  32
 **********************
 DD1Dir will call FoFMem   1 times, MxPair=        16
 NAB=     6 NAA=     3 NBB=     1.
 A-vector RMS=  7.8768242D-06 Max=  4.3197820D-05 conv= 1.00D-05.
 RLE energy=       -0.0353698668
 DE(Corr)= -0.35369817E-01 E(CORR)=     -848.83816155     Delta= 6.83D-07
 NORM(A)=   0.10697205D+01
 Iteration Nr.  33
 **********************
 DD1Dir will call FoFMem   1 times, MxPair=        16
 NAB=     6 NAA=     3 NBB=     1.
 A-vector RMS=  6.5563201D-06 Max=  3.6535887D-05 conv= 1.00D-05.
 RLE energy=       -0.0353703924
 DE(Corr)= -0.35369956E-01 E(CORR)=     -848.83816169     Delta=-1.40D-07
 NORM(A)=   0.10697434D+01
 Iteration Nr.  34
 **********************
 DD1Dir will call FoFMem   1 times, MxPair=        16
 NAB=     6 NAA=     3 NBB=     1.
 A-vector RMS=  6.0627952D-06 Max=  2.8814398D-05 conv= 1.00D-05.
 RLE energy=       -0.0353710091
 DE(Corr)= -0.35370565E-01 E(CORR)=     -848.83816230     Delta=-6.09D-07
 NORM(A)=   0.10697605D+01
 Iteration Nr.  35
 **********************
 DD1Dir will call FoFMem   1 times, MxPair=        16
 NAB=     6 NAA=     3 NBB=     1.
 A-vector RMS=  6.5881764D-06 Max=  2.0533346D-05 conv= 1.00D-05.
 RLE energy=       -0.0353713043
 DE(Corr)= -0.35371280E-01 E(CORR)=     -848.83816301     Delta=-7.15D-07
 NORM(A)=   0.10697708D+01
 Iteration Nr.  36
 **********************
 DD1Dir will call FoFMem   1 times, MxPair=        16
 NAB=     6 NAA=     3 NBB=     1.
 A-vector RMS=  6.5350316D-06 Max=  2.1030401D-05 conv= 1.00D-05.
 RLE energy=       -0.0353713360
 DE(Corr)= -0.35371676E-01 E(CORR)=     -848.83816341     Delta=-3.95D-07
 NORM(A)=   0.10697745D+01
 Iteration Nr.  37
 **********************
 DD1Dir will call FoFMem   1 times, MxPair=        16
 NAB=     6 NAA=     3 NBB=     1.
 A-vector RMS=  5.0581975D-06 Max=  2.1277992D-05 conv= 1.00D-05.
 RLE energy=       -0.0353712819
 DE(Corr)= -0.35371688E-01 E(CORR)=     -848.83816342     Delta=-1.20D-08
 NORM(A)=   0.10697758D+01
 Iteration Nr.  38
 **********************
 DD1Dir will call FoFMem   1 times, MxPair=        16
 NAB=     6 NAA=     3 NBB=     1.
 A-vector RMS=  4.4392032D-06 Max=  2.1342510D-05 conv= 1.00D-05.
 RLE energy=       -0.0353713593
 DE(Corr)= -0.35371617E-01 E(CORR)=     -848.83816335     Delta= 7.03D-08
 NORM(A)=   0.10697772D+01
 Iteration Nr.  39
 **********************
 DD1Dir will call FoFMem   1 times, MxPair=        16
 NAB=     6 NAA=     3 NBB=     1.
 A-vector RMS=  4.0901337D-06 Max=  2.1331089D-05 conv= 1.00D-05.
 RLE energy=       -0.0353715034
 DE(Corr)= -0.35371679E-01 E(CORR)=     -848.83816341     Delta=-6.15D-08
 NORM(A)=   0.10697779D+01
 Iteration Nr.  40
 **********************
 DD1Dir will call FoFMem   1 times, MxPair=        16
 NAB=     6 NAA=     3 NBB=     1.
 A-vector RMS=  4.0074325D-06 Max=  2.1291205D-05 conv= 1.00D-05.
 RLE energy=       -0.0353717763
 DE(Corr)= -0.35371853E-01 E(CORR)=     -848.83816358     Delta=-1.74D-07
 NORM(A)=   0.10697760D+01
 Iteration Nr.  41
 **********************
 DD1Dir will call FoFMem   1 times, MxPair=        16
 NAB=     6 NAA=     3 NBB=     1.
 A-vector RMS=  4.2984122D-06 Max=  2.1175212D-05 conv= 1.00D-05.
 RLE energy=       -0.0353719920
 DE(Corr)= -0.35372159E-01 E(CORR)=     -848.83816389     Delta=-3.06D-07
 NORM(A)=   0.10697680D+01
 Iteration Nr.  42
 **********************
 DD1Dir will call FoFMem   1 times, MxPair=        16
 NAB=     6 NAA=     3 NBB=     1.
 A-vector RMS=  4.4685524D-06 Max=  2.0865550D-05 conv= 1.00D-05.
 RLE energy=       -0.0353720475
 DE(Corr)= -0.35372411E-01 E(CORR)=     -848.83816414     Delta=-2.52D-07
 NORM(A)=   0.10697519D+01
 Iteration Nr.  43
 **********************
 DD1Dir will call FoFMem   1 times, MxPair=        16
 NAB=     6 NAA=     3 NBB=     1.
 A-vector RMS=  4.6833381D-06 Max=  2.0245099D-05 conv= 1.00D-05.
 RLE energy=       -0.0353719228
 DE(Corr)= -0.35372425E-01 E(CORR)=     -848.83816416     Delta=-1.46D-08
 NORM(A)=   0.10697334D+01
 Iteration Nr.  44
 **********************
 DD1Dir will call FoFMem   1 times, MxPair=        16
 NAB=     6 NAA=     3 NBB=     1.
 A-vector RMS=  5.0705013D-06 Max=  1.9453696D-05 conv= 1.00D-05.
 RLE energy=       -0.0353719124
 DE(Corr)= -0.35372255E-01 E(CORR)=     -848.83816398     Delta= 1.71D-07
 NORM(A)=   0.10697168D+01
 Iteration Nr.  45
 **********************
 DD1Dir will call FoFMem   1 times, MxPair=        16
 NAB=     6 NAA=     3 NBB=     1.
 A-vector RMS=  4.7595506D-06 Max=  1.8649959D-05 conv= 1.00D-05.
 RLE energy=       -0.0353720561
 DE(Corr)= -0.35372193E-01 E(CORR)=     -848.83816392     Delta= 6.18D-08
 NORM(A)=   0.10697041D+01
 Iteration Nr.  46
 **********************
 DD1Dir will call FoFMem   1 times, MxPair=        16
 NAB=     6 NAA=     3 NBB=     1.
 A-vector RMS=  4.1932294D-06 Max=  1.7996544D-05 conv= 1.00D-05.
 RLE energy=       -0.0353723520
 DE(Corr)= -0.35372345E-01 E(CORR)=     -848.83816407     Delta=-1.52D-07
 NORM(A)=   0.10696885D+01
 Iteration Nr.  47
 **********************
 DD1Dir will call FoFMem   1 times, MxPair=        16
 NAB=     6 NAA=     3 NBB=     1.
 A-vector RMS=  3.8211740D-06 Max=  1.7259531D-05 conv= 1.00D-05.
 RLE energy=       -0.0353724744
 DE(Corr)= -0.35372645E-01 E(CORR)=     -848.83816438     Delta=-3.00D-07
 NORM(A)=   0.10696674D+01
 Iteration Nr.  48
 **********************
 DD1Dir will call FoFMem   1 times, MxPair=        16
 NAB=     6 NAA=     3 NBB=     1.
 A-vector RMS=  3.6108916D-06 Max=  1.6377121D-05 conv= 1.00D-05.
 RLE energy=       -0.0353723731
 DE(Corr)= -0.35372766E-01 E(CORR)=     -848.83816450     Delta=-1.21D-07
 NORM(A)=   0.10696344D+01
 Iteration Nr.  49
 **********************
 DD1Dir will call FoFMem   1 times, MxPair=        16
 NAB=     6 NAA=     3 NBB=     1.
 A-vector RMS=  3.7384525D-06 Max=  1.5021485D-05 conv= 1.00D-05.
 RLE energy=       -0.0353721273
 DE(Corr)= -0.35372589E-01 E(CORR)=     -848.83816432     Delta= 1.77D-07
 NORM(A)=   0.10695976D+01
 Iteration Nr.  50
 **********************
 DD1Dir will call FoFMem   1 times, MxPair=        16
 NAB=     6 NAA=     3 NBB=     1.
 A-vector RMS=  3.9251445D-06 Max=  1.4123800D-05 conv= 1.00D-05.
 RLE energy=       -0.0353721028
 DE(Corr)= -0.35372273E-01 E(CORR)=     -848.83816400     Delta= 3.16D-07
 NORM(A)=   0.10695635D+01
 Iteration Nr.  51
 **********************
 DD1Dir will call FoFMem   1 times, MxPair=        16
 NAB=     6 NAA=     3 NBB=     1.
 A-vector RMS=  3.9074077D-06 Max=  1.5177199D-05 conv= 1.00D-05.
 RLE energy=       -0.0353723310
 DE(Corr)= -0.35372190E-01 E(CORR)=     -848.83816392     Delta= 8.23D-08
 NORM(A)=   0.10695290D+01
 Iteration Nr.  52
 **********************
 DD1Dir will call FoFMem   1 times, MxPair=        16
 NAB=     6 NAA=     3 NBB=     1.
 A-vector RMS=  3.7909369D-06 Max=  1.6164221D-05 conv= 1.00D-05.
 RLE energy=       -0.0353727092
 DE(Corr)= -0.35372439E-01 E(CORR)=     -848.83816417     Delta=-2.49D-07
 NORM(A)=   0.10694854D+01
 Iteration Nr.  53
 **********************
 DD1Dir will call FoFMem   1 times, MxPair=        16
 NAB=     6 NAA=     3 NBB=     1.
 A-vector RMS=  4.0958888D-06 Max=  1.6883081D-05 conv= 1.00D-05.
 RLE energy=       -0.0353726763
 DE(Corr)= -0.35372831E-01 E(CORR)=     -848.83816456     Delta=-3.92D-07
 NORM(A)=   0.10694391D+01
 Iteration Nr.  54
 **********************
 DD1Dir will call FoFMem   1 times, MxPair=        16
 NAB=     6 NAA=     3 NBB=     1.
 A-vector RMS=  4.1055901D-06 Max=  1.8493127D-05 conv= 1.00D-05.
 RLE energy=       -0.0353722863
 DE(Corr)= -0.35372791E-01 E(CORR)=     -848.83816452     Delta= 4.01D-08
 NORM(A)=   0.10693814D+01
 Iteration Nr.  55
 **********************
 DD1Dir will call FoFMem   1 times, MxPair=        16
 NAB=     6 NAA=     3 NBB=     1.
 A-vector RMS=  3.2617754D-06 Max=  1.6057584D-05 conv= 1.00D-05.
 RLE energy=       -0.0353719406
 DE(Corr)= -0.35372293E-01 E(CORR)=     -848.83816402     Delta= 4.98D-07
 NORM(A)=   0.10693376D+01
 Iteration Nr.  56
 **********************
 DD1Dir will call FoFMem   1 times, MxPair=        16
 NAB=     6 NAA=     3 NBB=     1.
 A-vector RMS=  2.7115170D-06 Max=  1.5666018D-05 conv= 1.00D-05.
 RLE energy=       -0.0353719587
 DE(Corr)= -0.35371887E-01 E(CORR)=     -848.83816362     Delta= 4.06D-07
 NORM(A)=   0.10693104D+01
 Iteration Nr.  57
 **********************
 DD1Dir will call FoFMem   1 times, MxPair=        16
 NAB=     6 NAA=     3 NBB=     1.
 A-vector RMS=  2.4438038D-06 Max=  1.4834322D-05 conv= 1.00D-05.
 RLE energy=       -0.0353721497
 DE(Corr)= -0.35371884E-01 E(CORR)=     -848.83816361     Delta= 3.19D-09
 NORM(A)=   0.10692878D+01
 Iteration Nr.  58
 **********************
 DD1Dir will call FoFMem   1 times, MxPair=        16
 NAB=     6 NAA=     3 NBB=     1.
 A-vector RMS=  2.1383569D-06 Max=  1.3709737D-05 conv= 1.00D-05.
 RLE energy=       -0.0353722998
 DE(Corr)= -0.35372118E-01 E(CORR)=     -848.83816385     Delta=-2.34D-07
 NORM(A)=   0.10692648D+01
 Iteration Nr.  59
 **********************
 DD1Dir will call FoFMem   1 times, MxPair=        16
 NAB=     6 NAA=     3 NBB=     1.
 A-vector RMS=  2.5301306D-06 Max=  1.2591924D-05 conv= 1.00D-05.
 RLE energy=       -0.0353721165
 DE(Corr)= -0.35372286E-01 E(CORR)=     -848.83816402     Delta=-1.67D-07
 NORM(A)=   0.10692434D+01
 Iteration Nr.  60
 **********************
 DD1Dir will call FoFMem   1 times, MxPair=        16
 NAB=     6 NAA=     3 NBB=     1.
 A-vector RMS=  2.4995111D-06 Max=  1.1307085D-05 conv= 1.00D-05.
 RLE energy=       -0.0353717354
 DE(Corr)= -0.35372092E-01 E(CORR)=     -848.83816382     Delta= 1.94D-07
 NORM(A)=   0.10692201D+01
 Iteration Nr.  61
 **********************
 DD1Dir will call FoFMem   1 times, MxPair=        16
 NAB=     6 NAA=     3 NBB=     1.
 A-vector RMS=  2.2101006D-06 Max=  9.8813830D-06 conv= 1.00D-05.
 RLE energy=       -0.0353715176
 DE(Corr)= -0.35371642E-01 E(CORR)=     -848.83816337     Delta= 4.50D-07
 NORM(A)=   0.10692061D+01
 Iteration Nr.  62
 **********************
 DD1Dir will call FoFMem   1 times, MxPair=        16
 NAB=     6 NAA=     3 NBB=     1.
 A-vector RMS=  2.2523929D-06 Max=  8.2745786D-06 conv= 1.00D-05.
 RLE energy=       -0.0353715689
 DE(Corr)= -0.35371404E-01 E(CORR)=     -848.83816313     Delta= 2.38D-07
 NORM(A)=   0.10691995D+01
 Iteration Nr.  63
 **********************
 DD1Dir will call FoFMem   1 times, MxPair=        16
 NAB=     6 NAA=     3 NBB=     1.
 A-vector RMS=  2.0232280D-06 Max=  7.1785229D-06 conv= 1.00D-05.
 RLE energy=       -0.0353716956
 DE(Corr)= -0.35371461E-01 E(CORR)=     -848.83816319     Delta=-5.71D-08
 NORM(A)=   0.10691952D+01
 CI/CC converged in   63 iterations to DelEn=-5.71D-08 Conv= 1.00D-07 ErrA1= 2.02D-06 Conv= 1.00D-05
 Wavefunction amplitudes converged. E(Corr)=     -848.83816319    
 Dominant configurations:
 ***********************
 Spin Case        I    J    A    B          Value
   ABAB          12   10   23   14       0.136750D+00
   ABAB          12   11   13   14       0.106074D+00
   ABAB          12   11   14   13       0.113108D+00
   ABAB          12   11   15   12       0.112113D+00
 Largest amplitude= 1.37D-01

 S**2, projected HF & approx projected MPn energies after annihilation of
 unwanted spin states (see manual for definitions):

 spins       (S**2,0) (S**2,1)    PUHF        PMP2        PMP3        PMP4
 annihilated
 s+1         0.22931  0.34716 -848.812786 -848.829504 -848.836526
 s+1,s+2     0.75001  0.75000 -848.807051 -848.823854 -848.830999

 Discarding MO integrals.
 Leave Link  913 at Fri Mar 25 14:59:57 2022, MaxMem=  9663676416 cpu:              23.5 elap:               0.7
 (Enter /nopt/nrel/apps/gaussian/g16C_1/g16/l601.exe)
 Copying SCF densities to generalized density rwf, IOpCl= 1 IROHF=0.

 **********************************************************************

            Population analysis using the SCF Density.

 **********************************************************************

 Orbital symmetries:
 Alpha Orbitals:
       Occupied  (SG) (SG) (PI) (SG) (PI) (SG) (PI) (PI) (SG) (?A)
                 (?B) (SG)
       Virtual   (?A) (PI) (PI) (SG) (?A) (?A) (?B) (?B) (?B) (?A)
                 (?A) (?A) (?B) (?A) (?B) (?A)
 Beta  Orbitals:
       Occupied  (SG) (SG) (SG) (PI) (PI) (SG) (PI) (SG) (PI) (SG)
                 (SG)
       Virtual   (PI) (PI) (SG) (SG) (?A) (?B) (?B) (?A) (?B) (?A)
                 (?B) (?A) (?C) (PI) (?C) (?C) (PI)
 Unable to determine electronic state:  an orbital has unidentified symmetry.
 Alpha  occ. eigenvalues -- -183.26013 -21.44401 -17.81329 -17.81317 -17.81302
 Alpha  occ. eigenvalues --   -2.93981  -1.87868  -1.87719  -1.87502  -0.43859
 Alpha  occ. eigenvalues --   -0.43758  -0.24034
 Alpha virt. eigenvalues --    0.02274   0.02967   0.03012   0.13674   0.17213
 Alpha virt. eigenvalues --    0.17300   0.17318   0.21438   0.21441   0.21761
 Alpha virt. eigenvalues --    0.34501   1.01751   1.01751   1.13675   1.13759
 Alpha virt. eigenvalues --    1.14101
  Beta  occ. eigenvalues -- -183.25985 -21.41102 -17.78055 -17.78019 -17.77950
  Beta  occ. eigenvalues --   -2.81202  -1.72041  -1.72032  -1.71881  -0.46689
  Beta  occ. eigenvalues --   -0.21708
  Beta virt. eigenvalues --    0.03044   0.03062   0.08652   0.15933   0.21222
  Beta virt. eigenvalues --    0.21253   0.21561   0.22715   0.22976   0.23205
  Beta virt. eigenvalues --    0.23954   0.24256   1.16269   1.16340   1.16544
  Beta virt. eigenvalues --    1.18592   1.18612
          Condensed to atoms (all electrons):
               1          2
     1  H    0.857964   0.075607
     2  Ti   0.075607  21.990822
          Atomic-Atomic Spin Densities.
               1          2
     1  H   -0.841971  -0.039976
     2  Ti  -0.039976   1.921922
 Mulliken charges and spin densities:
               1          2
     1  H    0.066429  -0.881946
     2  Ti  -0.066429   1.881946
 Sum of Mulliken charges =   0.00000   1.00000
 Mulliken charges and spin densities with hydrogens summed into heavy atoms:
               1          2
     2  Ti   0.000000   1.000000
 N-N= 3.755451174271D+00 E-N=-2.019511712269D+03  KE= 8.488927133248D+02
 Symmetry A1   KE= 6.597449096122D+02
 Symmetry A2   KE= 9.036023173241D-32
 Symmetry B1   KE= 9.260463928501D+01
 Symmetry B2   KE= 9.654316442752D+01
 Symmetry A1   SP= 1.836275691883D-14
 Symmetry A2   SP= 2.296552491823D-32
 Symmetry B1   SP=-9.872977291060D-15
 Symmetry B2   SP= 1.000000000000D+00

 Atomic contributions to Alpha molecular orbitals:
 Alpha occ 1 OE=-183.260 is Ti2-s=1.0000
 Alpha occ 2 OE=-21.444 is Ti2-s=1.0000
 Alpha occ 3 OE=-17.813 is Ti2-p=1.0000
 Alpha occ 4 OE=-17.813 is Ti2-p=1.0000
 Alpha occ 5 OE=-17.813 is Ti2-p=1.0000
 Alpha occ 6 OE=-2.940 is Ti2-s=1.0000
 Alpha occ 7 OE=-1.879 is Ti2-p=1.0000
 Alpha occ 8 OE=-1.877 is Ti2-p=1.0000
 Alpha occ 9 OE=-1.875 is Ti2-p=1.0000
 Alpha occ 10 OE=-0.439 is Ti2-d=0.9995
 Alpha occ 11 OE=-0.438 is Ti2-d=0.9994
 Alpha occ 12 OE=-0.240 is Ti2-s=0.8943
 Alpha vir 13 OE=0.023 is Ti2-p=0.8448
 Alpha vir 14 OE=0.030 is Ti2-p=0.9988
 Alpha vir 15 OE=0.030 is Ti2-p=0.9996
 Alpha vir 16 OE=0.137 is Ti2-s=0.9439
 Alpha vir 17 OE=0.172 is Ti2-d=0.9683
 Alpha vir 18 OE=0.173 is Ti2-d=1.0000
 Alpha vir 19 OE=0.173 is Ti2-d=0.9844
 Alpha vir 20 OE=0.214 is Ti2-p=0.9997
 Alpha vir 21 OE=0.214 is Ti2-p=0.9854
 Alpha vir 22 OE=0.218 is Ti2-p=0.9500
 Alpha vir 23 OE=0.345 is H1-s=0.8730
 Alpha vir 24 OE=1.018 is Ti2-d=0.9991
 Alpha vir 25 OE=1.018 is Ti2-d=0.9998
 Alpha vir 26 OE=1.137 is Ti2-d=1.0000
 Alpha vir 27 OE=1.138 is Ti2-d=0.9999
 Alpha vir 28 OE=1.141 is Ti2-d=0.9980

 Atomic contributions to Beta  molecular orbitals:
 Beta  occ 1 OE=-183.260 is Ti2-s=1.0000
 Beta  occ 2 OE=-21.411 is Ti2-s=1.0000
 Beta  occ 3 OE=-17.781 is Ti2-p=1.0000
 Beta  occ 4 OE=-17.780 is Ti2-p=1.0000
 Beta  occ 5 OE=-17.780 is Ti2-p=1.0000
 Beta  occ 6 OE=-2.812 is Ti2-s=1.0000
 Beta  occ 7 OE=-1.720 is Ti2-p=1.0000
 Beta  occ 8 OE=-1.720 is Ti2-p=1.0000
 Beta  occ 9 OE=-1.719 is Ti2-p=1.0000
 Beta  occ 10 OE=-0.467 is H1-s=0.8995
 Beta  occ 11 OE=-0.217 is Ti2-s=0.8762 Ti2-p=0.1155
 Beta  vir 12 OE=0.030 is Ti2-p=0.9994
 Beta  vir 13 OE=0.031 is Ti2-p=0.9993
 Beta  vir 14 OE=0.087 is Ti2-p=0.8059 Ti2-s=0.1126
 Beta  vir 15 OE=0.159 is Ti2-s=0.9269
 Beta  vir 16 OE=0.212 is Ti2-d=0.9118
 Beta  vir 17 OE=0.213 is Ti2-d=1.0000
 Beta  vir 18 OE=0.216 is Ti2-d=0.9496
 Beta  vir 19 OE=0.227 is Ti2-p=0.8093 Ti2-d=0.1907
 Beta  vir 20 OE=0.230 is Ti2-p=0.8966
 Beta  vir 21 OE=0.232 is Ti2-p=0.9124
 Beta  vir 22 OE=0.240 is Ti2-d=0.9573
 Beta  vir 23 OE=0.243 is Ti2-d=0.8088 Ti2-p=0.1912
 Beta  vir 24 OE=1.163 is Ti2-d=1.0000
 Beta  vir 25 OE=1.163 is Ti2-d=0.9999
 Beta  vir 26 OE=1.165 is Ti2-d=0.9995
 Beta  vir 27 OE=1.186 is Ti2-d=0.9998
 Beta  vir 28 OE=1.186 is Ti2-d=0.9999
 
 Leave Link  601 at Fri Mar 25 14:59:57 2022, MaxMem=  9663676416 cpu:               3.1 elap:               0.1
 (Enter /nopt/nrel/apps/gaussian/g16C_1/g16/l9999.exe)

 Test job not archived.
 1\1\GINC-R1I7N35\SP\UCCSD-FC\Gen\H1Ti1(2)\USER\25-Mar-2022\0\\#P C
 CSD(MaxCyc=200)/GEN sp pop=AllOrbitals iop(3/33=1,3/36=-1)\\test\\0,2\
 H,0,0.,0.,0.\Ti,0,0.,0.,3.1\\Version=ES64L-G16RevC.01\HF=-848.8027917\
 MP2=-848.8196327\MP3=-848.8268346\MP4D=-848.8305326\MP4DQ=-848.8302539
 \PUHF=-848.8127859\PMP2-0=-848.8295041\PMP3-0=-848.8365259\MP4SDQ=-848
 .8306153\CCSD=-848.8381632\S2=1.979729\S2-1=1.936693\S2A=1.48952\RMSD=
 2.402e-09\PG=C*V [C*(H1Ti1)]\\@


 IN THE FIGHT BETWEEN YOU AND THE WORLD, BACK THE WORLD

                                        -- FRANZ KAFKA
 Job cpu time:       0 days  0 hours  1 minutes  2.7 seconds.
 Elapsed time:       0 days  0 hours  0 minutes  2.1 seconds.
 File lengths (MBytes):  RWF=     13 Int=      0 D2E=      0 Chk=      1 Scr=      1
 Normal termination of Gaussian 16 at Fri Mar 25 14:59:58 2022.
