 Entering Gaussian System, Link 0=g16
 Initial command:
 /nopt/nrel/apps/gaussian/g16C_1/g16/l1.exe "/lustre/eaglefs/scratch/user/qc/kh-dissc/kh-1-ccsd-3.3-631g/Gau-26446.inp" -scrdir="/lustre/eaglefs/scratch/user/qc/kh-dissc/kh-1-ccsd-3.3-631g/"
 Default is to use a total of  36 processors:
                               36 via shared-memory
                                1 via Linda
 Entering Link 1 = /nopt/nrel/apps/gaussian/g16C_1/g16/l1.exe PID=     26448.
  
 Copyright (c) 1988-2019, Gaussian, Inc.  All Rights Reserved.
  
 This is part of the Gaussian(R) 16 program.  It is based on
 the Gaussian(R) 09 system (copyright 2009, Gaussian, Inc.),
 the Gaussian(R) 03 system (copyright 2003, Gaussian, Inc.),
 the Gaussian(R) 98 system (copyright 1998, Gaussian, Inc.),
 the Gaussian(R) 94 system (copyright 1995, Gaussian, Inc.),
 the Gaussian 92(TM) system (copyright 1992, Gaussian, Inc.),
 the Gaussian 90(TM) system (copyright 1990, Gaussian, Inc.),
 the Gaussian 88(TM) system (copyright 1988, Gaussian, Inc.),
 the Gaussian 86(TM) system (copyright 1986, Carnegie Mellon
 University), and the Gaussian 82(TM) system (copyright 1983,
 Carnegie Mellon University). Gaussian is a federally registered
 trademark of Gaussian, Inc.
  
 This software contains proprietary and confidential information,
 including trade secrets, belonging to Gaussian, Inc.
  
 This software is provided under written license and may be
 used, copied, transmitted, or stored only in accord with that
 written license.
  
 The following legend is applicable only to US Government
 contracts under FAR:
  
                    RESTRICTED RIGHTS LEGEND
  
 Use, reproduction and disclosure by the US Government is
 subject to restrictions as set forth in subparagraphs (a)
 and (c) of the Commercial Computer Software - Restricted
 Rights clause in FAR 52.227-19.
  
 Gaussian, Inc.
 340 Quinnipiac St., Bldg. 40, Wallingford CT 06492
  
  
 ---------------------------------------------------------------
 Warning -- This program may not be used in any manner that
 competes with the business of Gaussian, Inc. or will provide
 assistance to any competitor of Gaussian, Inc.  The licensee
 of this program is prohibited from giving any competitor of
 Gaussian, Inc. access to this program.  By using this program,
 the user acknowledges that Gaussian, Inc. is engaged in the
 business of creating and licensing software in the field of
 computational chemistry and represents and warrants to the
 licensee that it is not a competitor of Gaussian, Inc. and that
 it will not use this program in any manner prohibited above.
 ---------------------------------------------------------------
  

 Cite this work as:
 Gaussian 16, Revision C.01,
 M. J. Frisch, G. W. Trucks, H. B. Schlegel, G. E. Scuseria, 
 M. A. Robb, J. R. Cheeseman, G. Scalmani, V. Barone, 
 G. A. Petersson, H. Nakatsuji, X. Li, M. Caricato, A. V. Marenich, 
 J. Bloino, B. G. Janesko, R. Gomperts, B. Mennucci, H. P. Hratchian, 
 J. V. Ortiz, A. F. Izmaylov, J. L. Sonnenberg, D. Williams-Young, 
 F. Ding, F. Lipparini, F. Egidi, J. Goings, B. Peng, A. Petrone, 
 T. Henderson, D. Ranasinghe, V. G. Zakrzewski, J. Gao, N. Rega, 
 G. Zheng, W. Liang, M. Hada, M. Ehara, K. Toyota, R. Fukuda, 
 J. Hasegawa, M. Ishida, T. Nakajima, Y. Honda, O. Kitao, H. Nakai, 
 T. Vreven, K. Throssell, J. A. Montgomery, Jr., J. E. Peralta, 
 F. Ogliaro, M. J. Bearpark, J. J. Heyd, E. N. Brothers, K. N. Kudin, 
 V. N. Staroverov, T. A. Keith, R. Kobayashi, J. Normand, 
 K. Raghavachari, A. P. Rendell, J. C. Burant, S. S. Iyengar, 
 J. Tomasi, M. Cossi, J. M. Millam, M. Klene, C. Adamo, R. Cammi, 
 J. W. Ochterski, R. L. Martin, K. Morokuma, O. Farkas, 
 J. B. Foresman, and D. J. Fox, Gaussian, Inc., Wallingford CT, 2019.
 
 ******************************************
 Gaussian 16:  ES64L-G16RevC.01  3-Jul-2019
                28-Mar-2022 
 ******************************************
 %chk=molecule
 Default route: CacheSize=180224 MaxDisk=256GB
 ----------------------------------------------------------------------
 #P CCSD(MaxCyc=200,SaveAmplitudes,ReadAmplitudes)/GEN sp pop=AllOrbita
 ls iop(3/33=1,3/36=-1)
 ----------------------------------------------------------------------
 1/4=180224,38=1,172=1/1;
 2/4=180224,12=2,17=6,18=5,40=1/2;
 3/4=180224,5=7,11=9,25=1,30=1,33=1,36=-1/1,2,3;
 4/4=180224/1;
 5/4=180224,5=2,38=5/2;
 8/4=180224,6=4,9=120000,10=1,24=1/1,4;
 9/4=180224,5=7,6=200,77=1/13;
 6/4=180224,7=2,8=2,9=2,10=2,96=-1/1;
 99/4=180224,5=1,9=1/99;
 Leave Link    1 at Mon Mar 28 14:32:06 2022, MaxMem=           0 cpu:               2.1 elap:               0.1
 (Enter /nopt/nrel/apps/gaussian/g16C_1/g16/l101.exe)
 ----
 test
 ----
 Symbolic Z-matrix:
 Charge =  0 Multiplicity = 1
 H                     0.        0.        0. 
 K                     0.        0.        3.3 
 
 ITRead=  0  0
 MicOpt= -1 -1
 NAtoms=      2 NQM=        2 NQMF=       0 NMMI=      0 NMMIF=      0
                NMic=       0 NMicF=      0.
                    Isotopes and Nuclear Properties:
 (Nuclear quadrupole moments (NQMom) in fm**2, nuclear magnetic moments (NMagM)
  in nuclear magnetons)

  Atom         1           2
 IAtWgt=           1          39
 AtmWgt=   1.0078250  38.9637079
 NucSpn=           1           3
 AtZEff=  -0.0000000  -0.0000000
 NQMom=    0.0000000   5.8500000
 NMagM=    2.7928460   0.3914660
 AtZNuc=   1.0000000  19.0000000
 Leave Link  101 at Mon Mar 28 14:32:06 2022, MaxMem=  9663676416 cpu:               3.2 elap:               0.1
 (Enter /nopt/nrel/apps/gaussian/g16C_1/g16/l202.exe)
                          Input orientation:                          
 ---------------------------------------------------------------------
 Center     Atomic      Atomic             Coordinates (Angstroms)
 Number     Number       Type             X           Y           Z
 ---------------------------------------------------------------------
      1          1           0        0.000000    0.000000    0.000000
      2         19           0        0.000000    0.000000    3.300000
 ---------------------------------------------------------------------
 Stoichiometry    HK
 Framework group  C*V[C*(HK)]
 Deg. of freedom     1
 Full point group                 C*V     NOp   4
 Largest Abelian subgroup         C2V     NOp   4
 Largest concise Abelian subgroup C1      NOp   1
                         Standard orientation:                         
 ---------------------------------------------------------------------
 Center     Atomic      Atomic             Coordinates (Angstroms)
 Number     Number       Type             X           Y           Z
 ---------------------------------------------------------------------
      1          1           0        0.000000    0.000000   -3.135000
      2         19           0        0.000000    0.000000    0.165000
 ---------------------------------------------------------------------
 Rotational constants (GHZ):           0.0000000          47.2383481          47.2383481
 Leave Link  202 at Mon Mar 28 14:32:06 2022, MaxMem=  9663676416 cpu:               0.4 elap:               0.0
 (Enter /nopt/nrel/apps/gaussian/g16C_1/g16/l301.exe)
 General basis read from cards:  (5D, 7F)
                         Coordinates in L301:                         
 ---------------------------------------------------------------------
 Center     Atomic      Atomic             Coordinates (Angstroms)
 Number     Number       Type             X           Y           Z
 ---------------------------------------------------------------------
      1          1           0        0.000000    0.000000   -3.135000
      2         19           0        0.000000    0.000000    0.165000
 ---------------------------------------------------------------------
 Centers:       1
 STO-3G
 ****
 Centers:       2
 6-31G
 ****
 FixB: optimizing general contractions.
 Ernie: Thresh=  0.10000D-02 Tol=  0.10000D-05 Strict=F.
 IA=     1 ShT= 0 ShC= 0 NL=   1 NS=   0.
 IA=     1 L=0 SC=0 ISt=    0 NBk=    0 NP=    0 IndPr=    0.
 IA=     2 ShT= 0 ShC= 0 NL=   1 NS=   0.
 IA=     2 L=0 SC=0 ISt=    0 NBk=    0 NP=    0 IndPr=    0.
 IA=     2 ShT= 1 ShC= 0 NL=   4 NS=   1.
 IA=     2 L=1 SC=0 ISt=    1 NBk=    3 NP=   15 IndPr=    0.
 DoElim1:  L=1 select primitive    1 from    2 using    1 C=-2.50D-03
 DoElim1:  L=1 select primitive    1 from    3 using    1 C=-2.50D-03
 DoElim1:  L=1 select primitive    5 from    3 using    2 C= 1.28D-02
 DoElim2:  L=1 select primitive   15 from    2 using    3 C= 1.14D+00
 DoElim2:  L=1 select primitive   15 from    1 using    3 C= 1.14D+00
 DoElim2:  L=1 select primitive   10 from    1 using    2 C=-5.59D-01
 DoElim1:  L=1 select primitive    1 from    2 using    1 C= 4.09D-03
 DoElim1:  L=1 select primitive    1 from    3 using    1 C= 4.09D-03
 DoElim1:  L=1 select primitive    5 from    3 using    2 C=-1.22D-02
 DoElim2:  L=1 select primitive   15 from    2 using    3 C= 1.01D+00
 DoElim2:  L=1 select primitive   15 from    1 using    3 C= 1.01D+00
 DoElim2:  L=1 select primitive   10 from    1 using    2 C= 4.28D-01
 Delete L=1 primitive   14 from    3 C=  0.00D+00.
 Delete L=1 primitive   12 from    3 C=  0.00D+00.
 Delete L=1 primitive   10 from    3 C=  0.00D+00.
 Delete L=1 primitive    9 from    3 C=  0.00D+00.
 Delete L=1 primitive    8 from    3 C=  0.00D+00.
 Delete L=1 primitive    7 from    3 C=  0.00D+00.
 Delete L=1 primitive    6 from    3 C=  0.00D+00.
 Delete L=1 primitive    5 from    3 C=  0.00D+00.
 Delete L=1 primitive    4 from    3 C=  0.00D+00.
 Delete L=1 primitive    3 from    3 C=  0.00D+00.
 Delete L=1 primitive    2 from    3 C=  0.00D+00.
 Delete L=1 primitive    1 from    3 C=  0.00D+00.
 Delete L=1 primitive   15 from    2 C=  0.00D+00.
 Delete L=1 primitive   13 from    2 C=  0.00D+00.
 Delete L=1 primitive   11 from    2 C=  0.00D+00.
 Delete L=1 primitive    8 from    2 C=  0.00D+00.
 Delete L=1 primitive    6 from    2 C=  0.00D+00.
 Delete L=1 primitive    4 from    2 C=  0.00D+00.
 Delete L=1 primitive    3 from    2 C=  0.00D+00.
 Delete L=1 primitive    2 from    2 C=  0.00D+00.
 Delete L=1 primitive    1 from    2 C=  0.00D+00.
 Delete L=1 primitive   15 from    1 C=  0.00D+00.
 Delete L=1 primitive   14 from    1 C=  0.00D+00.
 Delete L=1 primitive   13 from    1 C=  0.00D+00.
 Delete L=1 primitive   12 from    1 C=  0.00D+00.
 Delete L=1 primitive   11 from    1 C=  0.00D+00.
 Delete L=1 primitive   10 from    1 C=  0.00D+00.
 Delete L=1 primitive    9 from    1 C=  0.00D+00.
 Delete L=1 primitive    7 from    1 C=  0.00D+00.
 Delete L=1 primitive    5 from    1 C=  0.00D+00.
 IA=     2 L=1 SC=0 ISt=    0 NBk=    0 NP=    0 IndPr=   15.
 LdAtmC:  AtmChg=     1.000000    19.000000
 AtZEff=     -1.0000000    -22.4200000
 NEqShl: 
              1            2            3            4
     1            1            1            1            1
     2            2            2            2            2
     3            3            3            3            3
     4            4            4            4            4
     5            5            5            5            5
     6            6            6            6            6
 NEqBas: 
              1            2            3            4
     1            1            1            1            1
     2            2            2            2            2
     3            3            3            3            3
     4            4           -4           -4            4
     5            5           -5            5           -5
     6            6            6            6            6
     7            7            7            7            7
     8            8           -8           -8            8
     9            9           -9            9           -9
    10           10           10           10           10
    11           11           11           11           11
    12           12          -12          -12           12
    13           13          -13           13          -13
    14           14           14           14           14
    15           15           15           15           15
    16           16          -16          -16           16
    17           17          -17           17          -17
    18           18           18           18           18
 There are    10 symmetry adapted cartesian basis functions of A1  symmetry.
   1         1   1   1   1
   2         2   2   2   2
   3         3   3   3   3
   4         6   6   6   6
   5         7   7   7   7
   6        10  10  10  10
   7        11  11  11  11
   8        14  14  14  14
   9        15  15  15  15
  10        18  18  18  18
 There are     0 symmetry adapted cartesian basis functions of A2  symmetry.
 There are     4 symmetry adapted cartesian basis functions of B1  symmetry.
  11         4   4   4   4
  12         8   8   8   8
  13        12  12  12  12
  14        16  16  16  16
 There are     4 symmetry adapted cartesian basis functions of B2  symmetry.
  15         5   5   5   5
  16         9   9   9   9
  17        13  13  13  13
  18        17  17  17  17
 Order= 1 2 4 3
 Reordered character table:
              1            2            3            4            5
     1            1            1            1            1            1
     2            2            1            1           -1           -1
     3            4            1           -1           -1            1
     4            3            1           -1            1           -1
 NEqShl: 
              1            2            3            4
     1            1            1            1            1
     2            2            2            2            2
     3            3            3            3            3
     4            4            4            4            4
     5            5            5            5            5
     6            6            6            6            6
 NEqBas: 
              1            2            3            4
     1            1            1            1            1
     2            2            2            2            2
     3            3            3            3            3
     4            4           -4           -4            4
     5            5           -5            5           -5
     6            6            6            6            6
     7            7            7            7            7
     8            8           -8           -8            8
     9            9           -9            9           -9
    10           10           10           10           10
    11           11           11           11           11
    12           12          -12          -12           12
    13           13          -13           13          -13
    14           14           14           14           14
    15           15           15           15           15
    16           16          -16          -16           16
    17           17          -17           17          -17
    18           18           18           18           18
 There are    10 symmetry adapted basis functions of A1  symmetry.
   1         1   1   1   1
   2         2   2   2   2
   3         3   3   3   3
   4         6   6   6   6
   5         7   7   7   7
   6        10  10  10  10
   7        11  11  11  11
   8        14  14  14  14
   9        15  15  15  15
  10        18  18  18  18
 There are     0 symmetry adapted basis functions of A2  symmetry.
 There are     4 symmetry adapted basis functions of B1  symmetry.
  11         4   4   4   4
  12         8   8   8   8
  13        12  12  12  12
  14        16  16  16  16
 There are     4 symmetry adapted basis functions of B2  symmetry.
  15         5   5   5   5
  16         9   9   9   9
  17        13  13  13  13
  18        17  17  17  17
 Order= 1 2 4 3
 Reordered character table:
              1            2            3            4            5
     1            1            1            1            1            1
     2            2            1            1           -1           -1
     3            4            1           -1           -1            1
     4            3            1           -1            1           -1
    18 basis functions,    73 primitive gaussians,    18 cartesian basis functions
    10 alpha electrons       10 beta electrons
       nuclear repulsion energy         3.0467778811 Hartrees.
 IS=     1 IAt=     1 ISR=     1 T=0 IP=      1 IndIP=      1 IndIPD=      0 C=  2.769344D-01  0.000000D+00                             NZ=T
 IS=     1 IAt=     1 ISR=     1 T=0 IP=      2 IndIP=      2 IndIPD=      1 C=  2.678389D-01  0.000000D+00                             NZ=T
 IS=     1 IAt=     1 ISR=     1 T=0 IP=      3 IndIP=      3 IndIPD=      2 C=  8.347367D-02  0.000000D+00                             NZ=T
 IS=     2 IAt=     2 ISR=     1 T=0 IP=      1 IndIP=      4 IndIPD=      0 C=  3.087425D+00  0.000000D+00                             NZ=T
 IS=     2 IAt=     2 ISR=     1 T=0 IP=      2 IndIP=      5 IndIPD=      1 C=  5.701433D+00  0.000000D+00                             NZ=T
 IS=     2 IAt=     2 ISR=     1 T=0 IP=      3 IndIP=      6 IndIPD=      2 C=  9.250015D+00  0.000000D+00                             NZ=T
 IS=     2 IAt=     2 ISR=     1 T=0 IP=      4 IndIP=      7 IndIPD=      3 C=  1.230326D+01  0.000000D+00                             NZ=T
 IS=     2 IAt=     2 ISR=     1 T=0 IP=      5 IndIP=      8 IndIPD=      4 C=  1.065796D+01  0.000000D+00                             NZ=T
 IS=     2 IAt=     2 ISR=     1 T=0 IP=      6 IndIP=      9 IndIPD=      5 C=  3.342971D+00  0.000000D+00                             NZ=T
 IS=     3 IAt=     2 ISR=     2 T=1 IP=      1 IndIP=     10 IndIPD=      0 C= -2.223866D-01  1.815760D+01                             NZ=T
 IS=     3 IAt=     2 ISR=     2 T=1 IP=      2 IndIP=     11 IndIPD=      1 C= -1.002089D+00  2.312008D+01                             NZ=T
 IS=     3 IAt=     2 ISR=     2 T=1 IP=      3 IndIP=     12 IndIPD=      2 C= -1.577145D+00  2.391470D+01                             NZ=T
 IS=     3 IAt=     2 ISR=     2 T=1 IP=      4 IndIP=     13 IndIPD=      3 C=  3.266752D-01  1.731669D+01                             NZ=T
 IS=     3 IAt=     2 ISR=     2 T=1 IP=      5 IndIP=     14 IndIPD=      4 C=  1.883992D+00  7.409963D+00                             NZ=T
 IS=     3 IAt=     2 ISR=     2 T=1 IP=      6 IndIP=     15 IndIPD=      5 C=  6.647292D-01  1.141461D+00                             NZ=T
 IS=     4 IAt=     2 ISR=     3 T=1 IP=      1 IndIP=     16 IndIPD=      0 C=  5.815266D-02 -3.826900D-01                             NZ=T
 IS=     4 IAt=     2 ISR=     3 T=1 IP=      2 IndIP=     17 IndIPD=      1 C=  4.293450D-01 -5.702211D-02                             NZ=T
 IS=     4 IAt=     2 ISR=     3 T=1 IP=      3 IndIP=     18 IndIPD=      2 C= -3.375882D-03  5.815028D-01                             NZ=T
 IS=     4 IAt=     2 ISR=     3 T=1 IP=      4 IndIP=     19 IndIPD=      3 C= -3.337346D-01  4.537484D-01                             NZ=T
 IS=     4 IAt=     2 ISR=     3 T=1 IP=      5 IndIP=     20 IndIPD=      4 C= -1.666638D-01  1.525572D-01                             NZ=T
 IS=     4 IAt=     2 ISR=     3 T=1 IP=      6 IndIP=     21 IndIPD=      5 C= -1.112643D-02  1.425313D-02                             NZ=T
 IS=     5 IAt=     2 ISR=     4 T=1 IP=      1 IndIP=     22 IndIPD=      0 C= -2.908072D-02  2.974856D-02                             NZ=T
 IS=     5 IAt=     2 ISR=     4 T=1 IP=      2 IndIP=     23 IndIPD=      1 C= -6.704811D-02 -9.373500D-03                             NZ=T
 IS=     5 IAt=     2 ISR=     4 T=1 IP=      3 IndIP=     24 IndIPD=      2 C=  7.095388D-02  2.474121D-02                             NZ=T
 IS=     6 IAt=     2 ISR=     5 T=1 IP=      1 IndIP=     25 IndIPD=      0 C=  3.284259D-02  8.442781D-03                             NZ=T
 IExCor=    0 DFT=F Ex=HF Corr=None ExCW=0 ScaHFX=  1.000000
 ScaDFX=  1.000000  1.000000  1.000000  1.000000 ScalE2=  1.000000  1.000000
 IRadAn=      5 IRanWt=     -1 IRanGd=            0 ICorTp=0 IEmpDi=  4
 NAtoms=    2 NActive=    2 NUniq=    2 SFac= 1.00D+00 NAtFMM=   60 NAOKFM=F Big=F
 Integral buffers will be    131072 words long.
 Raffenetti 1 integral format.
 Two-electron integral symmetry is turned on.
 Leave Link  301 at Mon Mar 28 14:32:06 2022, MaxMem=  9663676416 cpu:               2.0 elap:               0.1
 (Enter /nopt/nrel/apps/gaussian/g16C_1/g16/l302.exe)
 NPDir=0 NMtPBC=     1 NCelOv=     1 NCel=       1 NClECP=     1 NCelD=      1
         NCelK=      1 NCelE2=     1 NClLst=     1 CellRange=     0.0.
 One-electron integrals computed using PRISM.
 One-electron integral symmetry used in STVInt
 Entering OneElI...
 Calculate overlap and kinetic energy integrals
    NBasis =  18  MinDer = 0  MaxDer = 0
 Requested accuracy = 0.1000D-12
 Symmetry will be used
 PrmmSu-InSpLW:  IPartL=    0 NPrtUS=   36 NPrtUL=    1 DoSpLW=F IThBeg=    0 IThEnd=   35 NThAct=   36.
 PrSmSu:  IncTry=   512 NBBP=             21 NTPThr=   100 NPartT=   36 Incr=           1 LDynOK=F GPUOK=F.
 PrsmSu:  NPrtUS=  36 ThrOK=T IAlg=1 LenDen=           0 ISkipM=0 DoSpLW=F IThBeg=    0 IThEnd=   35.
 Prism:   IPart=     0 DynPar=F LinDyn=F Incr=           1.
 PRISM was handed   268430880 working-precision words and    21 shell-pairs
 PRISM was handed   268430880 working-precision words and    21 shell-pairs
 PRISM was handed   268430880 working-precision words and    21 shell-pairs
 PRISM was handed   268430880 working-precision words and    21 shell-pairs
 PRISM was handed   268430880 working-precision words and    21 shell-pairs
 PRISM was handed   268430880 working-precision words and    21 shell-pairs
 PRISM was handed   268430880 working-precision words and    21 shell-pairs
 IPart= 16 NShTot=           0 NBatch=           0 AvBLen=         0.0
 IPart= 18 NShTot=           0 NBatch=           0 AvBLen=         0.0
 IPart= 25 NShTot=           0 NBatch=           0 AvBLen=         0.0
 IPart= 12 NShTot=           0 NBatch=           0 AvBLen=         0.0
 IPart= 17 NShTot=           0 NBatch=           0 AvBLen=         0.0
 PRISM was handed   268430880 working-precision words and    21 shell-pairs
 PRISM was handed   268430880 working-precision words and    21 shell-pairs
 PRISM was handed   268430880 working-precision words and    21 shell-pairs
 IPart= 27 NShTot=           0 NBatch=           0 AvBLen=         0.0
 IPart= 34 NShTot=           0 NBatch=           0 AvBLen=         0.0
 PRISM was handed   268430880 working-precision words and    21 shell-pairs
 PRISM was handed   268430880 working-precision words and    21 shell-pairs
 IPart=  2 NShTot=           1 NBatch=           1 AvBLen=         1.0
 IPart=  1 NShTot=           4 NBatch=           4 AvBLen=         1.0
 IPart=  0 NShTot=          16 NBatch=          16 AvBLen=         1.0
 PRISM was handed   268430880 working-precision words and    21 shell-pairs
 PRISM was handed   268430880 working-precision words and    21 shell-pairs
 IPart=  7 NShTot=           0 NBatch=           0 AvBLen=         0.0
 IPart= 33 NShTot=           0 NBatch=           0 AvBLen=         0.0
 PRISM was handed   268430880 working-precision words and    21 shell-pairs
 PRISM was handed   268430880 working-precision words and    21 shell-pairs
 PRISM was handed   268430880 working-precision words and    21 shell-pairs
 PRISM was handed   268430880 working-precision words and    21 shell-pairs
 PRISM was handed   268430880 working-precision words and    21 shell-pairs
 PRISM was handed   268430880 working-precision words and    21 shell-pairs
 IPart= 22 NShTot=           0 NBatch=           0 AvBLen=         0.0
 IPart= 26 NShTot=           0 NBatch=           0 AvBLen=         0.0
 IPart= 24 NShTot=           0 NBatch=           0 AvBLen=         0.0
 IPart= 30 NShTot=           0 NBatch=           0 AvBLen=         0.0
 PRISM was handed   268430880 working-precision words and    21 shell-pairs
 PRISM was handed   268430880 working-precision words and    21 shell-pairs
 IPart= 31 NShTot=           0 NBatch=           0 AvBLen=         0.0
 IPart=  8 NShTot=           0 NBatch=           0 AvBLen=         0.0
 IPart= 14 NShTot=           0 NBatch=           0 AvBLen=         0.0
 IPart= 21 NShTot=           0 NBatch=           0 AvBLen=         0.0
 PRISM was handed   268430880 working-precision words and    21 shell-pairs
 PRISM was handed   268430880 working-precision words and    21 shell-pairs
 PRISM was handed   268430880 working-precision words and    21 shell-pairs
 PRISM was handed   268430880 working-precision words and    21 shell-pairs
 IPart=  4 NShTot=           0 NBatch=           0 AvBLen=         0.0
 IPart=  9 NShTot=           0 NBatch=           0 AvBLen=         0.0
 IPart= 28 NShTot=           0 NBatch=           0 AvBLen=         0.0
 PRISM was handed   268430880 working-precision words and    21 shell-pairs
 IPart= 19 NShTot=           0 NBatch=           0 AvBLen=         0.0
 IPart= 32 NShTot=           0 NBatch=           0 AvBLen=         0.0
 IPart= 11 NShTot=           0 NBatch=           0 AvBLen=         0.0
 PRISM was handed   268430880 working-precision words and    21 shell-pairs
 PRISM was handed   268430880 working-precision words and    21 shell-pairs
 IPart=  5 NShTot=           0 NBatch=           0 AvBLen=         0.0
 PRISM was handed   268430880 working-precision words and    21 shell-pairs
 PRISM was handed   268430880 working-precision words and    21 shell-pairs
 PRISM was handed   268430880 working-precision words and    21 shell-pairs
 IPart= 15 NShTot=           0 NBatch=           0 AvBLen=         0.0
 PRISM was handed   268430880 working-precision words and    21 shell-pairs
 IPart= 23 NShTot=           0 NBatch=           0 AvBLen=         0.0
 PRISM was handed   268430880 working-precision words and    21 shell-pairs
 PRISM was handed   268430880 working-precision words and    21 shell-pairs
 IPart=  3 NShTot=           0 NBatch=           0 AvBLen=         0.0
 IPart= 13 NShTot=           0 NBatch=           0 AvBLen=         0.0
 PRISM was handed   268430880 working-precision words and    21 shell-pairs
 IPart=  6 NShTot=           0 NBatch=           0 AvBLen=         0.0
 IPart= 20 NShTot=           0 NBatch=           0 AvBLen=         0.0
 IPart= 35 NShTot=           0 NBatch=           0 AvBLen=         0.0
 IPart= 10 NShTot=           0 NBatch=           0 AvBLen=         0.0
 IPart= 29 NShTot=           0 NBatch=           0 AvBLen=         0.0
 PrSmSu:  NxtVal=             37.
 *** Overlap *** 
                1             2             3             4             5 
      1  0.100000D+01
      2  0.208490D-04  0.100000D+01
      3  0.201655D-03  0.267715D+00  0.100000D+01
      4  0.000000D+00  0.000000D+00  0.000000D+00  0.100000D+01
      5  0.000000D+00  0.000000D+00  0.000000D+00  0.000000D+00  0.100000D+01
      6 -0.132866D-03  0.000000D+00  0.000000D+00  0.000000D+00  0.000000D+00
      7 -0.484694D-02 -0.141866D-01 -0.343708D+00  0.000000D+00  0.000000D+00
      8  0.000000D+00  0.000000D+00  0.000000D+00  0.295021D+00  0.000000D+00
      9  0.000000D+00  0.000000D+00  0.000000D+00  0.000000D+00  0.295021D+00
     10 -0.135658D-01  0.000000D+00  0.000000D+00  0.000000D+00  0.000000D+00
     11  0.151096D+00 -0.420963D-02 -0.188996D-01  0.000000D+00  0.000000D+00
     12  0.000000D+00  0.000000D+00  0.000000D+00  0.163990D-01  0.000000D+00
     13  0.000000D+00  0.000000D+00  0.000000D+00  0.000000D+00  0.163990D-01
     14 -0.286254D+00  0.000000D+00  0.000000D+00  0.000000D+00  0.000000D+00
     15  0.161823D+00  0.572576D-02  0.448310D-01  0.000000D+00  0.000000D+00
     16  0.000000D+00  0.000000D+00  0.000000D+00  0.380126D-02  0.000000D+00
     17  0.000000D+00  0.000000D+00  0.000000D+00  0.000000D+00  0.380126D-02
     18 -0.242053D+00  0.000000D+00  0.000000D+00  0.000000D+00  0.000000D+00
                6             7             8             9            10 
      6  0.100000D+01
      7  0.000000D+00  0.100000D+01
      8  0.000000D+00  0.000000D+00  0.100000D+01
      9  0.000000D+00  0.000000D+00  0.000000D+00  0.100000D+01
     10  0.295021D+00  0.000000D+00  0.000000D+00  0.000000D+00  0.100000D+01
     11  0.000000D+00 -0.172500D+00  0.000000D+00  0.000000D+00  0.000000D+00
     12  0.000000D+00  0.000000D+00  0.234662D+00  0.000000D+00  0.000000D+00
     13  0.000000D+00  0.000000D+00  0.000000D+00  0.234662D+00  0.000000D+00
     14  0.163990D-01  0.000000D+00  0.000000D+00  0.000000D+00  0.234662D+00
     15  0.000000D+00 -0.243058D+00  0.000000D+00  0.000000D+00  0.000000D+00
     16  0.000000D+00  0.000000D+00  0.967693D-01  0.000000D+00  0.000000D+00
     17  0.000000D+00  0.000000D+00  0.000000D+00  0.967693D-01  0.000000D+00
     18  0.380126D-02  0.000000D+00  0.000000D+00  0.000000D+00  0.967693D-01
               11            12            13            14            15 
     11  0.100000D+01
     12  0.000000D+00  0.100000D+01
     13  0.000000D+00  0.000000D+00  0.100000D+01
     14  0.000000D+00  0.000000D+00  0.000000D+00  0.100000D+01
     15  0.894230D+00  0.000000D+00  0.000000D+00  0.000000D+00  0.100000D+01
     16  0.000000D+00  0.807003D+00  0.000000D+00  0.000000D+00  0.000000D+00
     17  0.000000D+00  0.000000D+00  0.807003D+00  0.000000D+00  0.000000D+00
     18  0.000000D+00  0.000000D+00  0.000000D+00  0.807003D+00  0.000000D+00
               16            17            18 
     16  0.100000D+01
     17  0.000000D+00  0.100000D+01
     18  0.000000D+00  0.000000D+00  0.100000D+01
 *** Kinetic Energy *** 
                1             2             3             4             5 
      1  0.760032D+00
      2 -0.353849D-04  0.173384D+03
      3 -0.310422D-03 -0.928634D+01  0.818361D+01
      4  0.000000D+00  0.000000D+00  0.000000D+00  0.275843D+02
      5  0.000000D+00  0.000000D+00  0.000000D+00  0.000000D+00  0.275843D+02
      6  0.162951D-03  0.000000D+00  0.000000D+00  0.000000D+00  0.000000D+00
      7  0.305591D-02  0.803816D+00  0.546853D+00  0.000000D+00  0.000000D+00
      8  0.000000D+00  0.000000D+00  0.000000D+00  0.918943D+00  0.000000D+00
      9  0.000000D+00  0.000000D+00  0.000000D+00  0.000000D+00  0.918943D+00
     10  0.486850D-02  0.000000D+00  0.000000D+00  0.000000D+00  0.000000D+00
     11  0.368705D-02 -0.171808D-01 -0.100476D+00  0.000000D+00  0.000000D+00
     12  0.000000D+00  0.000000D+00  0.000000D+00  0.261790D-01  0.000000D+00
     13  0.000000D+00  0.000000D+00  0.000000D+00  0.000000D+00  0.261790D-01
     14 -0.232480D-01  0.000000D+00  0.000000D+00  0.000000D+00  0.000000D+00
     15  0.448945D-02  0.283688D-03  0.221202D-02  0.000000D+00  0.000000D+00
     16  0.000000D+00  0.000000D+00  0.000000D+00  0.312691D-03  0.000000D+00
     17  0.000000D+00  0.000000D+00  0.000000D+00  0.000000D+00  0.312691D-03
     18 -0.141884D-01  0.000000D+00  0.000000D+00  0.000000D+00  0.000000D+00
                6             7             8             9            10 
      6  0.275843D+02
      7  0.000000D+00  0.837208D+00
      8  0.000000D+00  0.000000D+00  0.154401D+01
      9  0.000000D+00  0.000000D+00  0.000000D+00  0.154401D+01
     10  0.918943D+00  0.000000D+00  0.000000D+00  0.000000D+00  0.154401D+01
     11  0.000000D+00  0.104916D+00  0.000000D+00  0.000000D+00  0.000000D+00
     12  0.000000D+00  0.000000D+00  0.663770D-01  0.000000D+00  0.000000D+00
     13  0.000000D+00  0.000000D+00  0.000000D+00  0.663770D-01  0.000000D+00
     14  0.261790D-01  0.000000D+00  0.000000D+00  0.000000D+00  0.663770D-01
     15  0.000000D+00 -0.115010D-01  0.000000D+00  0.000000D+00  0.000000D+00
     16  0.000000D+00  0.000000D+00  0.753429D-02  0.000000D+00  0.000000D+00
     17  0.000000D+00  0.000000D+00  0.000000D+00  0.753429D-02  0.000000D+00
     18  0.312691D-03  0.000000D+00  0.000000D+00  0.000000D+00  0.753429D-02
               11            12            13            14            15 
     11  0.774479D-01
     12  0.000000D+00  0.962091D-01
     13  0.000000D+00  0.000000D+00  0.962091D-01
     14  0.000000D+00  0.000000D+00  0.000000D+00  0.962091D-01
     15  0.298062D-01  0.000000D+00  0.000000D+00  0.000000D+00  0.247815D-01
     16  0.000000D+00  0.466086D-01  0.000000D+00  0.000000D+00  0.000000D+00
     17  0.000000D+00  0.000000D+00  0.466086D-01  0.000000D+00  0.000000D+00
     18  0.000000D+00  0.000000D+00  0.000000D+00  0.466086D-01  0.000000D+00
               16            17            18 
     16  0.413025D-01
     17  0.000000D+00  0.413025D-01
     18  0.000000D+00  0.000000D+00  0.413025D-01
 Entering OneElI...
 Calculate potential energy integrals
    NBasis =  18  MinDer = 0  MaxDer = 0
 Requested accuracy = 0.1000D-12
 Symmetry will be used
 PrmmSu-InSpLW:  IPartL=    0 NPrtUS=   36 NPrtUL=    1 DoSpLW=F IThBeg=    0 IThEnd=   35 NThAct=   36.
 PrSmSu:  IncTry=   512 NBBP=             42 NTPThr=   100 NPartT=   36 Incr=           1 LDynOK=F GPUOK=F.
 PrsmSu:  NPrtUS=  36 ThrOK=T IAlg=1 LenDen=           0 ISkipM=0 DoSpLW=F IThBeg=    0 IThEnd=   35.
 Prism:   IPart=     0 DynPar=F LinDyn=F Incr=           1.
 PRISM was handed   268431052 working-precision words and    21 shell-pairs
 PRISM was handed   268431052 working-precision words and    21 shell-pairs
 PRISM was handed   268431052 working-precision words and    21 shell-pairs
 PRISM was handed   268431052 working-precision words and    21 shell-pairs
 PRISM was handed   268431052 working-precision words and    21 shell-pairs
 PRISM was handed   268431052 working-precision words and    21 shell-pairs
 PRISM was handed   268431052 working-precision words and    21 shell-pairs
 PRISM was handed   268431052 working-precision words and    21 shell-pairs
 PRISM was handed   268431052 working-precision words and    21 shell-pairs
 PRISM was handed   268431052 working-precision words and    21 shell-pairs
 PRISM was handed   268431052 working-precision words and    21 shell-pairs
 PRISM was handed   268431052 working-precision words and    21 shell-pairs
 PRISM was handed   268431052 working-precision words and    21 shell-pairs
 PRISM was handed   268431052 working-precision words and    21 shell-pairs
 PRISM was handed   268431052 working-precision words and    21 shell-pairs
 PRISM was handed   268431052 working-precision words and    21 shell-pairs
 PRISM was handed   268431052 working-precision words and    21 shell-pairs
 PRISM was handed   268431052 working-precision words and    21 shell-pairs
 PRISM was handed   268431052 working-precision words and    21 shell-pairs
 PRISM was handed   268431052 working-precision words and    21 shell-pairs
 PRISM was handed   268431052 working-precision words and    21 shell-pairs
 PRISM was handed   268431052 working-precision words and    21 shell-pairs
 PRISM was handed   268431052 working-precision words and    21 shell-pairs
 PRISM was handed   268431052 working-precision words and    21 shell-pairs
 PRISM was handed   268431052 working-precision words and    21 shell-pairs
 PRISM was handed   268431052 working-precision words and    21 shell-pairs
 PRISM was handed   268431052 working-precision words and    21 shell-pairs
 PRISM was handed   268431052 working-precision words and    21 shell-pairs
 PRISM was handed   268431052 working-precision words and    21 shell-pairs
 PRISM was handed   268431052 working-precision words and    21 shell-pairs
 PRISM was handed   268431052 working-precision words and    21 shell-pairs
 PRISM was handed   268431052 working-precision words and    21 shell-pairs
 PRISM was handed   268431052 working-precision words and    21 shell-pairs
 PRISM was handed   268431052 working-precision words and    21 shell-pairs
 PRISM was handed   268431052 working-precision words and    21 shell-pairs
 PRISM was handed   268431052 working-precision words and    21 shell-pairs
 IPart= 14 NShTot=           0 NBatch=           0 AvBLen=         0.0
 IPart= 10 NShTot=           0 NBatch=           0 AvBLen=         0.0
 IPart= 33 NShTot=           0 NBatch=           0 AvBLen=         0.0
 IPart= 12 NShTot=           0 NBatch=           0 AvBLen=         0.0
 IPart= 34 NShTot=           0 NBatch=           0 AvBLen=         0.0
 IPart= 19 NShTot=           0 NBatch=           0 AvBLen=         0.0
 IPart= 20 NShTot=           0 NBatch=           0 AvBLen=         0.0
 IPart=  3 NShTot=           0 NBatch=           0 AvBLen=         0.0
 IPart= 28 NShTot=           0 NBatch=           0 AvBLen=         0.0
 IPart= 21 NShTot=           0 NBatch=           0 AvBLen=         0.0
 IPart= 16 NShTot=           0 NBatch=           0 AvBLen=         0.0
 IPart= 27 NShTot=           0 NBatch=           0 AvBLen=         0.0
 IPart=  1 NShTot=           8 NBatch=           4 AvBLen=         2.0
 IPart= 35 NShTot=           0 NBatch=           0 AvBLen=         0.0
 IPart= 22 NShTot=           0 NBatch=           0 AvBLen=         0.0
 IPart=  4 NShTot=           0 NBatch=           0 AvBLen=         0.0
 IPart= 17 NShTot=           0 NBatch=           0 AvBLen=         0.0
 IPart=  5 NShTot=           0 NBatch=           0 AvBLen=         0.0
 IPart= 11 NShTot=           0 NBatch=           0 AvBLen=         0.0
 IPart= 29 NShTot=           0 NBatch=           0 AvBLen=         0.0
 IPart= 30 NShTot=           0 NBatch=           0 AvBLen=         0.0
 IPart= 32 NShTot=           0 NBatch=           0 AvBLen=         0.0
 IPart= 15 NShTot=           0 NBatch=           0 AvBLen=         0.0
 IPart= 24 NShTot=           0 NBatch=           0 AvBLen=         0.0
 IPart= 13 NShTot=           0 NBatch=           0 AvBLen=         0.0
 IPart= 18 NShTot=           0 NBatch=           0 AvBLen=         0.0
 IPart=  8 NShTot=           0 NBatch=           0 AvBLen=         0.0
 IPart= 26 NShTot=           0 NBatch=           0 AvBLen=         0.0
 IPart=  0 NShTot=          32 NBatch=          16 AvBLen=         2.0
 IPart= 23 NShTot=           0 NBatch=           0 AvBLen=         0.0
 IPart= 31 NShTot=           0 NBatch=           0 AvBLen=         0.0
 IPart=  2 NShTot=           2 NBatch=           1 AvBLen=         2.0
 IPart=  9 NShTot=           0 NBatch=           0 AvBLen=         0.0
 IPart=  7 NShTot=           0 NBatch=           0 AvBLen=         0.0
 IPart= 25 NShTot=           0 NBatch=           0 AvBLen=         0.0
 IPart=  6 NShTot=           0 NBatch=           0 AvBLen=         0.0
 PrSmSu:  NxtVal=             37.
 ***** Potential Energy ***** 
                1             2             3             4             5 
      1  0.427339D+01
      2  0.369825D-02  0.353942D+03
      3  0.797346D-02  0.380112D+02  0.611008D+02
      4  0.000000D+00  0.000000D+00  0.000000D+00  0.705609D+02
      5  0.000000D+00  0.000000D+00  0.000000D+00  0.000000D+00  0.705609D+02
      6 -0.412461D-02 -0.825580D-03 -0.534786D-02  0.000000D+00  0.000000D+00
      7 -0.420086D-01 -0.179416D+01 -0.126221D+02  0.000000D+00  0.000000D+00
      8  0.000000D+00  0.000000D+00  0.000000D+00  0.109908D+02  0.000000D+00
      9  0.000000D+00  0.000000D+00  0.000000D+00  0.000000D+00  0.109908D+02
     10 -0.895015D-01 -0.408384D-04 -0.280145D-02  0.000000D+00  0.000000D+00
     11  0.626416D+00 -0.768216D+00 -0.103583D+01  0.000000D+00  0.000000D+00
     12  0.000000D+00  0.000000D+00  0.000000D+00  0.573425D+00  0.000000D+00
     13  0.000000D+00  0.000000D+00  0.000000D+00  0.000000D+00  0.573425D+00
     14 -0.114177D+01 -0.205719D-05 -0.165250D-03  0.000000D+00  0.000000D+00
     15  0.634220D+00  0.102445D+01  0.192204D+01  0.000000D+00  0.000000D+00
     16  0.000000D+00  0.000000D+00  0.000000D+00  0.124642D+00  0.000000D+00
     17  0.000000D+00  0.000000D+00  0.000000D+00  0.000000D+00  0.124642D+00
     18 -0.904416D+00  0.000000D+00 -0.401135D-04  0.000000D+00  0.000000D+00
                6             7             8             9            10 
      6  0.705612D+02
      7  0.307678D-02  0.183416D+02
      8  0.000000D+00  0.000000D+00  0.166293D+02
      9  0.000000D+00  0.000000D+00  0.000000D+00  0.166293D+02
     10  0.109911D+02  0.190374D-01  0.000000D+00  0.000000D+00  0.166350D+02
     11  0.999705D-04 -0.132999D+01  0.000000D+00  0.000000D+00 -0.105837D-01
     12  0.000000D+00  0.000000D+00  0.236752D+01  0.000000D+00  0.000000D+00
     13  0.000000D+00  0.000000D+00  0.000000D+00  0.236752D+01  0.000000D+00
     14  0.573448D+00  0.524613D-02  0.000000D+00  0.000000D+00  0.237174D+01
     15 -0.380236D-03 -0.328956D+01  0.000000D+00  0.000000D+00 -0.966278D-02
     16  0.000000D+00  0.000000D+00  0.870673D+00  0.000000D+00  0.000000D+00
     17  0.000000D+00  0.000000D+00  0.000000D+00  0.870673D+00  0.000000D+00
     18  0.124648D+00  0.219948D-02  0.000000D+00  0.000000D+00  0.872723D+00
               11            12            13            14            15 
     11  0.481395D+01
     12  0.000000D+00  0.406777D+01
     13  0.000000D+00  0.000000D+00  0.406777D+01
     14 -0.632002D-01  0.000000D+00  0.000000D+00  0.412405D+01
     15  0.397146D+01  0.000000D+00  0.000000D+00 -0.619077D-01  0.403999D+01
     16  0.000000D+00  0.279783D+01  0.000000D+00  0.000000D+00  0.000000D+00
     17  0.000000D+00  0.000000D+00  0.279783D+01  0.000000D+00  0.000000D+00
     18 -0.447154D-01  0.000000D+00  0.000000D+00  0.284246D+01 -0.537371D-01
               16            17            18 
     16  0.270744D+01
     17  0.000000D+00  0.270744D+01
     18  0.000000D+00  0.000000D+00  0.275126D+01
 ****** Core Hamiltonian ****** 
                1             2             3             4             5 
      1 -0.351336D+01
      2 -0.373364D-02 -0.180557D+03
      3 -0.828388D-02 -0.472975D+02 -0.529172D+02
      4  0.000000D+00  0.000000D+00  0.000000D+00 -0.429766D+02
      5  0.000000D+00  0.000000D+00  0.000000D+00  0.000000D+00 -0.429766D+02
      6  0.428756D-02  0.825580D-03  0.534786D-02  0.000000D+00  0.000000D+00
      7  0.450645D-01  0.259798D+01  0.131689D+02  0.000000D+00  0.000000D+00
      8  0.000000D+00  0.000000D+00  0.000000D+00 -0.100718D+02  0.000000D+00
      9  0.000000D+00  0.000000D+00  0.000000D+00  0.000000D+00 -0.100718D+02
     10  0.943700D-01  0.408384D-04  0.280145D-02  0.000000D+00  0.000000D+00
     11 -0.622729D+00  0.751035D+00  0.935349D+00  0.000000D+00  0.000000D+00
     12  0.000000D+00  0.000000D+00  0.000000D+00 -0.547246D+00  0.000000D+00
     13  0.000000D+00  0.000000D+00  0.000000D+00  0.000000D+00 -0.547246D+00
     14  0.111852D+01  0.205719D-05  0.165250D-03  0.000000D+00  0.000000D+00
     15 -0.629731D+00 -0.102416D+01 -0.191982D+01  0.000000D+00  0.000000D+00
     16  0.000000D+00  0.000000D+00  0.000000D+00 -0.124330D+00  0.000000D+00
     17  0.000000D+00  0.000000D+00  0.000000D+00  0.000000D+00 -0.124330D+00
     18  0.890228D+00  0.000000D+00  0.401135D-04  0.000000D+00  0.000000D+00
                6             7             8             9            10 
      6 -0.429770D+02
      7 -0.307678D-02 -0.175044D+02
      8  0.000000D+00  0.000000D+00 -0.150853D+02
      9  0.000000D+00  0.000000D+00  0.000000D+00 -0.150853D+02
     10 -0.100722D+02 -0.190374D-01  0.000000D+00  0.000000D+00 -0.150910D+02
     11 -0.999705D-04  0.143491D+01  0.000000D+00  0.000000D+00  0.105837D-01
     12  0.000000D+00  0.000000D+00 -0.230115D+01  0.000000D+00  0.000000D+00
     13  0.000000D+00  0.000000D+00  0.000000D+00 -0.230115D+01  0.000000D+00
     14 -0.547269D+00 -0.524613D-02  0.000000D+00  0.000000D+00 -0.230536D+01
     15  0.380236D-03  0.327806D+01  0.000000D+00  0.000000D+00  0.966278D-02
     16  0.000000D+00  0.000000D+00 -0.863139D+00  0.000000D+00  0.000000D+00
     17  0.000000D+00  0.000000D+00  0.000000D+00 -0.863139D+00  0.000000D+00
     18 -0.124336D+00 -0.219948D-02  0.000000D+00  0.000000D+00 -0.865189D+00
               11            12            13            14            15 
     11 -0.473650D+01
     12  0.000000D+00 -0.397157D+01
     13  0.000000D+00  0.000000D+00 -0.397157D+01
     14  0.632002D-01  0.000000D+00  0.000000D+00 -0.402784D+01
     15 -0.394165D+01  0.000000D+00  0.000000D+00  0.619077D-01 -0.401521D+01
     16  0.000000D+00 -0.275122D+01  0.000000D+00  0.000000D+00  0.000000D+00
     17  0.000000D+00  0.000000D+00 -0.275122D+01  0.000000D+00  0.000000D+00
     18  0.447154D-01  0.000000D+00  0.000000D+00 -0.279585D+01  0.537371D-01
               16            17            18 
     16 -0.266614D+01
     17  0.000000D+00 -0.266614D+01
     18  0.000000D+00  0.000000D+00 -0.270995D+01
 SVDSVc IOpt=   1 NormSV=T IR=1
 SVDSVc V= 2.09D+00 1.95D+00 1.40D+00 1.26D+00 9.61D-01 8.20D-01 6.81D-01 5.51D-01 1.78D-01 1.02D-01
 SVDSVc IOpt=   1 NormSV=T IR=3
 SVDSVc V= 1.88D+00 1.25D+00 6.91D-01 1.80D-01
 SVDSVc IOpt=   1 NormSV=T IR=4
 SVDSVc V= 1.88D+00 1.25D+00 6.91D-01 1.80D-01
 TstOVc:  Largest diagonal error= 3.33D-15 IB=1 I=   10.
 TstOVc:  Largest same sym error= 5.55D-16 IB=3 I=   13 J=   11.
 TstOVc:  Largest diff sym error= 0.00D+00 IB=0 JB=0 I=    0 J=    0.
 Orthogonalized basis functions: 
                 1             2             3             4             5 
      1   0.232181D+00 -0.105460D+00 -0.736810D-01  0.148534D+00  0.217498D+00
      2   0.174049D-01  0.230480D-01  0.410873D+00  0.438270D-01  0.773116D+00
      3   0.608037D-01  0.717205D-01  0.591973D+00  0.433484D-01 -0.802469D-01
      4   0.000000D+00  0.000000D+00  0.000000D+00  0.000000D+00  0.000000D+00
      5   0.000000D+00  0.000000D+00  0.000000D+00  0.000000D+00  0.000000D+00
      6  -0.304384D-01  0.532056D-01 -0.369645D-01  0.634099D+00 -0.638024D-01
      7  -0.152618D+00 -0.157200D+00 -0.373087D+00 -0.164454D-02  0.596523D+00
      8   0.000000D+00  0.000000D+00  0.000000D+00  0.000000D+00  0.000000D+00
      9   0.000000D+00  0.000000D+00  0.000000D+00  0.000000D+00  0.000000D+00
     10  -0.938583D-01  0.146203D+00 -0.480509D-01  0.574939D+00  0.411872D-02
     11   0.342595D+00  0.296275D+00 -0.175327D+00 -0.405121D-01  0.118592D+00
     12   0.000000D+00  0.000000D+00  0.000000D+00  0.000000D+00  0.000000D+00
     13   0.000000D+00  0.000000D+00  0.000000D+00  0.000000D+00  0.000000D+00
     14  -0.276454D+00  0.372161D+00 -0.288402D-01 -0.774583D-01  0.614696D-01
     15   0.351306D+00  0.304273D+00 -0.123240D+00 -0.362771D-01  0.751168D-01
     16   0.000000D+00  0.000000D+00  0.000000D+00  0.000000D+00  0.000000D+00
     17   0.000000D+00  0.000000D+00  0.000000D+00  0.000000D+00  0.000000D+00
     18  -0.264036D+00  0.357662D+00 -0.256596D-01 -0.152772D+00  0.742915D-01
                 6             7             8             9            10 
      1   0.936629D+00 -0.286126D+00 -0.109725D+00  0.121781D+00 -0.368637D-01
      2  -0.201231D+00  0.424909D-01 -0.523372D+00  0.795273D-03  0.924425D-02
      3   0.130399D+00 -0.512868D-01  0.920574D+00 -0.307022D-02 -0.105624D+00
      4   0.000000D+00  0.000000D+00  0.000000D+00  0.000000D+00  0.000000D+00
      5   0.000000D+00  0.000000D+00  0.000000D+00  0.000000D+00  0.000000D+00
      6  -0.307080D+00 -0.765648D+00 -0.128681D-01  0.917421D-01 -0.953241D-03
      7  -0.966947D-01 -0.127859D-01  0.804584D+00 -0.559589D-02  0.142745D+00
      8   0.000000D+00  0.000000D+00  0.000000D+00  0.000000D+00  0.000000D+00
      9   0.000000D+00  0.000000D+00  0.000000D+00  0.000000D+00  0.000000D+00
     10   0.173137D+00  0.834516D+00  0.208596D-01 -0.329863D+00  0.380319D-02
     11  -0.172779D+00  0.395938D-01  0.133647D+00 -0.222356D-01 -0.219071D+01
     12   0.000000D+00  0.000000D+00  0.000000D+00  0.000000D+00  0.000000D+00
     13   0.000000D+00  0.000000D+00  0.000000D+00  0.000000D+00  0.000000D+00
     14   0.207680D+00 -0.621905D-01 -0.151430D-01  0.170809D+01 -0.178310D-01
     15  -0.140322D+00  0.308817D-01  0.123582D+00 -0.127771D-02  0.223177D+01
     16   0.000000D+00  0.000000D+00  0.000000D+00  0.000000D+00  0.000000D+00
     17   0.000000D+00  0.000000D+00  0.000000D+00  0.000000D+00  0.000000D+00
     18   0.241802D+00 -0.304031D+00 -0.362930D-01 -0.160262D+01  0.568124D-02
                11            12            13            14            15 
      1   0.000000D+00  0.000000D+00  0.000000D+00  0.000000D+00  0.000000D+00
      2   0.000000D+00  0.000000D+00  0.000000D+00  0.000000D+00  0.000000D+00
      3   0.000000D+00  0.000000D+00  0.000000D+00  0.000000D+00  0.000000D+00
      4   0.827827D-01  0.650522D+00 -0.813669D+00  0.900001D-01  0.000000D+00
      5   0.000000D+00  0.000000D+00  0.000000D+00  0.000000D+00  0.827827D-01
      6   0.000000D+00  0.000000D+00  0.000000D+00  0.000000D+00  0.000000D+00
      7   0.000000D+00  0.000000D+00  0.000000D+00  0.000000D+00  0.000000D+00
      8   0.213287D+00  0.558240D+00  0.856396D+00 -0.322873D+00  0.000000D+00
      9   0.000000D+00  0.000000D+00  0.000000D+00  0.000000D+00  0.213287D+00
     10   0.000000D+00  0.000000D+00  0.000000D+00  0.000000D+00  0.000000D+00
     11   0.000000D+00  0.000000D+00  0.000000D+00  0.000000D+00  0.000000D+00
     12   0.498483D+00 -0.137035D+00 -0.114594D-01  0.168244D+01  0.000000D+00
     13   0.000000D+00  0.000000D+00  0.000000D+00  0.000000D+00  0.498483D+00
     14   0.000000D+00  0.000000D+00  0.000000D+00  0.000000D+00  0.000000D+00
     15   0.000000D+00  0.000000D+00  0.000000D+00  0.000000D+00  0.000000D+00
     16   0.480441D+00 -0.217733D+00 -0.228099D+00 -0.161779D+01  0.000000D+00
     17   0.000000D+00  0.000000D+00  0.000000D+00  0.000000D+00  0.480441D+00
     18   0.000000D+00  0.000000D+00  0.000000D+00  0.000000D+00  0.000000D+00
                16            17            18 
      1   0.000000D+00  0.000000D+00  0.000000D+00
      2   0.000000D+00  0.000000D+00  0.000000D+00
      3   0.000000D+00  0.000000D+00  0.000000D+00
      4   0.000000D+00  0.000000D+00  0.000000D+00
      5   0.650522D+00 -0.813669D+00  0.900001D-01
      6   0.000000D+00  0.000000D+00  0.000000D+00
      7   0.000000D+00  0.000000D+00  0.000000D+00
      8   0.000000D+00  0.000000D+00  0.000000D+00
      9   0.558240D+00  0.856396D+00 -0.322873D+00
     10   0.000000D+00  0.000000D+00  0.000000D+00
     11   0.000000D+00  0.000000D+00  0.000000D+00
     12   0.000000D+00  0.000000D+00  0.000000D+00
     13  -0.137035D+00 -0.114594D-01  0.168244D+01
     14   0.000000D+00  0.000000D+00  0.000000D+00
     15   0.000000D+00  0.000000D+00  0.000000D+00
     16   0.000000D+00  0.000000D+00  0.000000D+00
     17  -0.217733D+00 -0.228099D+00 -0.161779D+01
     18   0.000000D+00  0.000000D+00  0.000000D+00
 NBasis=    18 RedAO= T EigKep=  1.02D-01  NBF=    10     0     4     4
 NBsUse=    18 1.00D-06 EigRej= -1.00D+00 NBFU=    10     0     4     4
 Leave Link  302 at Mon Mar 28 14:32:06 2022, MaxMem=  9663676416 cpu:               5.0 elap:               0.2
 (Enter /nopt/nrel/apps/gaussian/g16C_1/g16/l303.exe)
 DipDrv will not compute anything.
 Fermi contact integrals: 
                 1             2 
      1   0.628247D+00  0.117412D-03
      2   0.000000D+00  0.443431D+02
      3   0.000000D+00  0.737756D-01
      4   0.000000D+00  0.000000D+00
      5   0.000000D+00  0.000000D+00
      6   0.000000D+00  0.000000D+00
      7  -0.377608D-04 -0.274029D-01
      8   0.000000D+00  0.000000D+00
      9   0.000000D+00  0.000000D+00
     10  -0.301194D-03  0.000000D+00
     11   0.157607D-01 -0.251750D-01
     12   0.000000D+00  0.000000D+00
     13   0.000000D+00  0.000000D+00
     14  -0.342814D-01  0.000000D+00
     15   0.172747D-01  0.328426D-01
     16   0.000000D+00  0.000000D+00
     17   0.000000D+00  0.000000D+00
     18  -0.276931D-01  0.000000D+00
 Leave Link  303 at Mon Mar 28 14:32:06 2022, MaxMem=  9663676416 cpu:               1.1 elap:               0.1
 (Enter /nopt/nrel/apps/gaussian/g16C_1/g16/l401.exe)
 ExpMin= 1.65D-02 ExpMax= 3.16D+04 ExpMxC= 4.74D+03 IAcc=3 IRadAn=         5 AccDes= 0.00D+00
 Harris functional with IExCor=  205 and IRadAn=       5 diagonalized for initial guess.
 HarFok:  IExCor=  205 AccDes= 0.00D+00 IRadAn=         5 IDoV= 1 UseB2=F ITyADJ=14
 ICtDFT=  3500011 ScaDFX=  1.000000  1.000000  1.000000  1.000000
 FoFCou: FMM=F IPFlag=           0 FMFlag=      100000 FMFlg1=           0
         NFxFlg=           0 DoJE=T BraDBF=F KetDBF=T FulRan=T
         wScrn=  0.000000 ICntrl=       500 IOpCl=  0 I1Cent=   200000004 NGrid=           0
         NMat0=    1 NMatS0=      1 NMatT0=    0 NMatD0=    1 NMtDS0=    0 NMtDT0=    0
 Petite list used in FoFCou.
 Harris En= -599.003550090039    
 JPrj=0 DoOrth=F DoCkMO=F.
 Initial guess orbital symmetries:
       Occupied  (SG) (SG) (SG) (PI) (PI) (SG) (SG) (PI) (PI) (SG)
       Virtual   (SG) (PI) (PI) (SG) (SG) (PI) (PI) (SG)
 The electronic state of the initial guess is 1-SG.
 Leave Link  401 at Mon Mar 28 14:32:06 2022, MaxMem=  9663676416 cpu:               3.3 elap:               0.1
 (Enter /nopt/nrel/apps/gaussian/g16C_1/g16/l502.exe)
 Keep R1 ints in memory in symmetry-blocked form, NReq=7243289.
 FoFCou: FMM=F IPFlag=           0 FMFlag=           0 FMFlg1=           0
         NFxFlg=           0 DoJE=F BraDBF=F KetDBF=F FulRan=T
         wScrn=  0.000000 ICntrl=       600 IOpCl=  0 I1Cent=           0 NGrid=           0
         NMat0=    1 NMatS0=    171 NMatT0=    0 NMatD0=    1 NMtDS0=    0 NMtDT0=    0
 Petite list used in FoFCou.
 Closed shell SCF:
 Using DIIS extrapolation, IDIIS=  1040.
 NGot=  9663676416 LenX=  9663668636 LenY=  9663667754
 Requested convergence on RMS density matrix=1.00D-08 within 128 cycles.
 Requested convergence on MAX density matrix=1.00D-06.
 Requested convergence on             energy=1.00D-06.
 No special actions if energy rises.

 Cycle   1  Pass 1  IDiag  1:
 E= -599.499786507302    
 DIIS: error= 4.59D-02 at cycle   1 NSaved=   1.
 NSaved= 1 IEnMin= 1 EnMin= -599.499786507302     IErMin= 1 ErrMin= 4.59D-02
 ErrMax= 4.59D-02  0.00D+00 EMaxC= 1.00D-01 BMatC= 1.73D-02 BMatP= 1.73D-02
 IDIUse=3 WtCom= 5.41D-01 WtEn= 4.59D-01
 Coeff-Com:  0.100D+01
 Coeff-En:   0.100D+01
 Coeff:      0.100D+01
 Gap=     0.088 Goal=   None    Shift=    0.000
 GapD=    0.088 DampG=0.500 DampE=0.500 DampFc=0.2500 IDamp=-1.
 Damping current iteration by 2.50D-01
 RMSDP=2.47D-02 MaxDP=3.44D-01              OVMax= 0.00D+00

 Cycle   2  Pass 1  IDiag  1:
 E= -599.517580907953     Delta-E=       -0.017794400652 Rises=F Damp=T
 DIIS: error= 3.20D-02 at cycle   2 NSaved=   2.
 NSaved= 2 IEnMin= 2 EnMin= -599.517580907953     IErMin= 2 ErrMin= 3.20D-02
 ErrMax= 3.20D-02  0.00D+00 EMaxC= 1.00D-01 BMatC= 8.78D-03 BMatP= 1.73D-02
 IDIUse=3 WtCom= 6.80D-01 WtEn= 3.20D-01
 Coeff-Com: -0.244D+01 0.344D+01
 Coeff-En:   0.000D+00 0.100D+01
 Coeff:     -0.166D+01 0.266D+01
 Gap=     0.169 Goal=   None    Shift=    0.000
 RMSDP=1.51D-02 MaxDP=2.01D-01 DE=-1.78D-02 OVMax= 0.00D+00

 Cycle   3  Pass 1  IDiag  1:
 E= -599.562581626342     Delta-E=       -0.045000718389 Rises=F Damp=F
 DIIS: error= 1.93D-03 at cycle   3 NSaved=   3.
 NSaved= 3 IEnMin= 3 EnMin= -599.562581626342     IErMin= 3 ErrMin= 1.93D-03
 ErrMax= 1.93D-03  0.00D+00 EMaxC= 1.00D-01 BMatC= 2.43D-05 BMatP= 8.78D-03
 IDIUse=3 WtCom= 9.81D-01 WtEn= 1.93D-02
 Coeff-Com:  0.497D+00-0.661D+00 0.116D+01
 Coeff-En:   0.000D+00 0.000D+00 0.100D+01
 Coeff:      0.487D+00-0.648D+00 0.116D+01
 Gap=     0.187 Goal=   None    Shift=    0.000
 RMSDP=8.90D-04 MaxDP=9.54D-03 DE=-4.50D-02 OVMax= 0.00D+00

 Cycle   4  Pass 1  IDiag  1:
 E= -599.562703369771     Delta-E=       -0.000121743429 Rises=F Damp=F
 DIIS: error= 1.96D-04 at cycle   4 NSaved=   4.
 NSaved= 4 IEnMin= 4 EnMin= -599.562703369771     IErMin= 4 ErrMin= 1.96D-04
 ErrMax= 1.96D-04  0.00D+00 EMaxC= 1.00D-01 BMatC= 4.41D-07 BMatP= 2.43D-05
 IDIUse=3 WtCom= 9.98D-01 WtEn= 1.96D-03
 Coeff-Com: -0.102D+00 0.135D+00-0.199D+00 0.117D+01
 Coeff-En:   0.000D+00 0.000D+00 0.000D+00 0.100D+01
 Coeff:     -0.102D+00 0.135D+00-0.199D+00 0.117D+01
 Gap=     0.187 Goal=   None    Shift=    0.000
 RMSDP=2.72D-04 MaxDP=2.21D-03 DE=-1.22D-04 OVMax= 0.00D+00

 Cycle   5  Pass 1  IDiag  1:
 E= -599.562708665709     Delta-E=       -0.000005295938 Rises=F Damp=F
 DIIS: error= 8.26D-05 at cycle   5 NSaved=   5.
 NSaved= 5 IEnMin= 5 EnMin= -599.562708665709     IErMin= 5 ErrMin= 8.26D-05
 ErrMax= 8.26D-05  0.00D+00 EMaxC= 1.00D-01 BMatC= 7.99D-08 BMatP= 4.41D-07
 IDIUse=1 WtCom= 1.00D+00 WtEn= 0.00D+00
 Coeff-Com: -0.135D-01 0.189D-01 0.274D-01-0.684D+00 0.165D+01
 Coeff:     -0.135D-01 0.189D-01 0.274D-01-0.684D+00 0.165D+01
 Gap=     0.187 Goal=   None    Shift=    0.000
 RMSDP=1.58D-04 MaxDP=1.29D-03 DE=-5.30D-06 OVMax= 0.00D+00

 Cycle   6  Pass 1  IDiag  1:
 E= -599.562709906071     Delta-E=       -0.000001240362 Rises=F Damp=F
 DIIS: error= 1.46D-05 at cycle   6 NSaved=   6.
 NSaved= 6 IEnMin= 6 EnMin= -599.562709906071     IErMin= 6 ErrMin= 1.46D-05
 ErrMax= 1.46D-05  0.00D+00 EMaxC= 1.00D-01 BMatC= 2.46D-09 BMatP= 7.99D-08
 IDIUse=1 WtCom= 1.00D+00 WtEn= 0.00D+00
 Coeff-Com: -0.585D-02 0.781D-02-0.137D-01 0.158D+00-0.465D+00 0.132D+01
 Coeff:     -0.585D-02 0.781D-02-0.137D-01 0.158D+00-0.465D+00 0.132D+01
 Gap=     0.187 Goal=   None    Shift=    0.000
 RMSDP=1.83D-05 MaxDP=1.08D-04 DE=-1.24D-06 OVMax= 0.00D+00

 Cycle   7  Pass 1  IDiag  1:
 E= -599.562709943231     Delta-E=       -0.000000037159 Rises=F Damp=F
 DIIS: error= 2.98D-06 at cycle   7 NSaved=   7.
 NSaved= 7 IEnMin= 7 EnMin= -599.562709943231     IErMin= 7 ErrMin= 2.98D-06
 ErrMax= 2.98D-06  0.00D+00 EMaxC= 1.00D-01 BMatC= 1.42D-10 BMatP= 2.46D-09
 IDIUse=1 WtCom= 1.00D+00 WtEn= 0.00D+00
 Coeff-Com: -0.866D-03 0.117D-02 0.805D-03-0.351D-01 0.119D+00-0.509D+00
 Coeff-Com:  0.142D+01
 Coeff:     -0.866D-03 0.117D-02 0.805D-03-0.351D-01 0.119D+00-0.509D+00
 Coeff:      0.142D+01
 Gap=     0.187 Goal=   None    Shift=    0.000
 RMSDP=4.90D-06 MaxDP=3.32D-05 DE=-3.72D-08 OVMax= 0.00D+00

 Cycle   8  Pass 1  IDiag  1:
 E= -599.562709945001     Delta-E=       -0.000000001770 Rises=F Damp=F
 DIIS: error= 4.24D-07 at cycle   8 NSaved=   8.
 NSaved= 8 IEnMin= 8 EnMin= -599.562709945001     IErMin= 8 ErrMin= 4.24D-07
 ErrMax= 4.24D-07  0.00D+00 EMaxC= 1.00D-01 BMatC= 2.93D-12 BMatP= 1.42D-10
 IDIUse=1 WtCom= 1.00D+00 WtEn= 0.00D+00
 Coeff-Com: -0.433D-04 0.571D-04-0.738D-03 0.146D-01-0.475D-01 0.187D+00
 Coeff-Com: -0.580D+00 0.143D+01
 Coeff:     -0.433D-04 0.571D-04-0.738D-03 0.146D-01-0.475D-01 0.187D+00
 Coeff:     -0.580D+00 0.143D+01
 Gap=     0.186 Goal=   None    Shift=    0.000
 RMSDP=7.63D-07 MaxDP=5.67D-06 DE=-1.77D-09 OVMax= 0.00D+00

 Cycle   9  Pass 1  IDiag  1:
 E= -599.562709945035     Delta-E=       -0.000000000034 Rises=F Damp=F
 DIIS: error= 2.50D-08 at cycle   9 NSaved=   9.
 NSaved= 9 IEnMin= 9 EnMin= -599.562709945035     IErMin= 9 ErrMin= 2.50D-08
 ErrMax= 2.50D-08  0.00D+00 EMaxC= 1.00D-01 BMatC= 1.07D-14 BMatP= 2.93D-12
 IDIUse=1 WtCom= 1.00D+00 WtEn= 0.00D+00
 Coeff-Com: -0.880D-05 0.120D-04 0.119D-03-0.266D-02 0.875D-02-0.356D-01
 Coeff-Com:  0.114D+00-0.313D+00 0.123D+01
 Coeff:     -0.880D-05 0.120D-04 0.119D-03-0.266D-02 0.875D-02-0.356D-01
 Coeff:      0.114D+00-0.313D+00 0.123D+01
 Gap=     0.186 Goal=   None    Shift=    0.000
 RMSDP=4.38D-08 MaxDP=3.54D-07 DE=-3.41D-11 OVMax= 0.00D+00

 Cycle  10  Pass 1  IDiag  1:
 E= -599.562709945036     Delta-E=       -0.000000000001 Rises=F Damp=F
 DIIS: error= 4.19D-09 at cycle  10 NSaved=  10.
 NSaved=10 IEnMin=10 EnMin= -599.562709945036     IErMin=10 ErrMin= 4.19D-09
 ErrMax= 4.19D-09  0.00D+00 EMaxC= 1.00D-01 BMatC= 2.10D-16 BMatP= 1.07D-14
 IDIUse=1 WtCom= 1.00D+00 WtEn= 0.00D+00
 Coeff-Com:  0.530D-06-0.750D-06-0.322D-04 0.677D-03-0.220D-02 0.895D-02
 Coeff-Com: -0.292D-01 0.795D-01-0.406D+00 0.135D+01
 Coeff:      0.530D-06-0.750D-06-0.322D-04 0.677D-03-0.220D-02 0.895D-02
 Coeff:     -0.292D-01 0.795D-01-0.406D+00 0.135D+01
 Gap=     0.186 Goal=   None    Shift=    0.000
 RMSDP=7.98D-09 MaxDP=6.57D-08 DE=-5.68D-13 OVMax= 0.00D+00

 SCF Done:  E(RHF) =  -599.562709945     A.U. after   10 cycles
            NFock= 10  Conv=0.80D-08     -V/T= 1.9999
 KE= 5.996064269982D+02 PE=-1.429633324141D+03 EE= 2.274174093164D+02
 Leave Link  502 at Mon Mar 28 14:32:07 2022, MaxMem=  9663676416 cpu:               4.0 elap:               0.1
 (Enter /nopt/nrel/apps/gaussian/g16C_1/g16/l801.exe)
 Windowed orbitals will be sorted by symmetry type.
 ExpMin= 1.65D-02 ExpMax= 3.16D+04 ExpMxC= 4.74D+03 IAcc=3 IRadAn=         5 AccDes= 0.00D+00
 HarFok:  IExCor=  205 AccDes= 0.00D+00 IRadAn=         5 IDoV=-2 UseB2=F ITyADJ=14
 ICtDFT= 12500011 ScaDFX=  1.000000  1.000000  1.000000  1.000000
 Largest valence mixing into a core orbital is  2.50D-04
 Largest core mixing into a valence orbital is  5.16D-05
 Range of M.O.s used for correlation:    10    18
 NBasis=    18 NAE=    10 NBE=    10 NFC=     9 NFV=     0
 NROrb=      9 NOA=     1 NOB=     1 NVA=     8 NVB=     8
 Leave Link  801 at Mon Mar 28 14:32:07 2022, MaxMem=  9663676416 cpu:               2.0 elap:               0.1
 (Enter /nopt/nrel/apps/gaussian/g16C_1/g16/l804.exe)
 Closed-shell transformation, MDV=  9663676416 ITran=4 ISComp=2.
 Unit  1 TFree=         12474 TCopy=        221008.
 Semi-Direct transformation.
 ModeAB=           2 MOrb=             1 LenV=    9663550188
 LASXX=           88 LTotXX=          88 LenRXX=          88
 LTotAB=         141 MaxLAS=        1539 LenRXY=        1539
 NonZer=        1755 LenScr=      785920 LnRSAI=           0
 LnScr1=           0 LExtra=      222029 Total=      1009576
 MaxDsk= 34359738368 SrtSym=           F ITran=            4
 DoSDTr:  NPSUse= 36
 JobTyp=0 Pass  1:  I=   1 to   1.
 (rs|ai) integrals will be sorted in core.
 Complete sort for first half transformation.
 First half transformation complete.
 Complete sort for second half transformation.
 Second half transformation complete.
 Spin components of T(2) and E(2):
     alpha-alpha T2 =       0.0000000000D+00 E2=      0.0000000000D+00
     alpha-beta  T2 =       0.3889427861D-01 E2=     -0.2852491890D-01
     beta-beta   T2 =       0.0000000000D+00 E2=      0.0000000000D+00
 ANorm=    0.1019261634D+01
 E2 =    -0.2852491890D-01 EUMP2 =    -0.59959123486393D+03
 Leave Link  804 at Mon Mar 28 14:32:07 2022, MaxMem=  9663676416 cpu:               2.1 elap:               0.1
 (Enter /nopt/nrel/apps/gaussian/g16C_1/g16/l913.exe)
 CIDS:  MDV=  9663676416.
 Frozen-core window:  NFC=   9 NFV=   0.
 IFCWin=0 IBDFC=1 NFBD=     0     0 NFCmp=     0     0 NFFFC=     0     0
 Using DD3R+UMP44R for 1st iteration.
 Using DD4RQ for 2nd and later iterations.
 Keep R2 and R3 ints in memory in symmetry-blocked form, NReq=7245695.
 FoFCou: FMM=F IPFlag=           0 FMFlag=           0 FMFlg1=           0
         NFxFlg=           0 DoJE=F BraDBF=F KetDBF=F FulRan=T
         wScrn=  0.000000 ICntrl=       600 IOpCl=  0 I1Cent=           0 NGrid=           0
         NMat0=    1 NMatS0=    171 NMatT0=    0 NMatD0=    1 NMtDS0=    0 NMtDT0=    0
 Petite list used in FoFCou.
 CIDS: In Core Option IDoMem=           1.
 Coupled Cluster theory with single and double substitutions
 ===========================================================
 Iterations= 200 Convergence= 0.100D-06
 Produce multiple copies of IABC intergrals
 Iteration Nr.   1
 **********************
 DD1Dir will call FoFMem   1 times, MxPair=         2
 NAB=     1 NAA=     0 NBB=     0.
 MP4(R+Q)=  0.11094561D-02
 Maximum subspace dimension=  5
 A-vector RMS=  3.0075087D-02 Max=  6.6580404D-02 conv= 1.00D-05.
 RLE energy=       -0.0512144907
 E3=       -0.13750616D-01        EUMP3=      -0.59960498548D+03
 E4(DQ)=   -0.59926225D-02        UMP4(DQ)=   -0.59961097810D+03
 E4(SDQ)=  -0.62771891D-02        UMP4(SDQ)=  -0.59961126267D+03
 VARIATIONAL ENERGIES WITH THE FIRST-ORDER WAVEFUNCTION:
 DE(Corr)= -0.41162324E-01 E(Corr)=     -599.60387227    
 NORM(A)=   0.10635211D+01
 Iteration Nr.   2
 **********************
 DD1Dir will call FoFMem   1 times, MxPair=         2
 NAB=     1 NAA=     0 NBB=     0.
 A-vector RMS=  1.4230708D-02 Max=  2.1466675D-02 conv= 1.00D-05.
 RLE energy=       -0.0508878440
 DE(Corr)= -0.51042906E-01 E(CORR)=     -599.61375285     Delta=-9.88D-03
 NORM(A)=   0.10658042D+01
 Iteration Nr.   3
 **********************
 DD1Dir will call FoFMem   1 times, MxPair=         2
 NAB=     1 NAA=     0 NBB=     0.
 A-vector RMS=  1.6416617D-02 Max=  1.9373414D-02 conv= 1.00D-05.
 RLE energy=       -0.0512189089
 DE(Corr)= -0.51001022E-01 E(CORR)=     -599.61371097     Delta= 4.19D-05
 NORM(A)=   0.10821569D+01
 Iteration Nr.   4
 **********************
 DD1Dir will call FoFMem   1 times, MxPair=         2
 NAB=     1 NAA=     0 NBB=     0.
 A-vector RMS=  6.1320947D-03 Max=  2.0221135D-02 conv= 1.00D-05.
 RLE energy=       -0.0536450362
 DE(Corr)= -0.52041319E-01 E(CORR)=     -599.61475126     Delta=-1.04D-03
 NORM(A)=   0.11101992D+01
 Iteration Nr.   5
 **********************
 DD1Dir will call FoFMem   1 times, MxPair=         2
 NAB=     1 NAA=     0 NBB=     0.
 A-vector RMS=  3.6169279D-03 Max=  5.4405943D-03 conv= 1.00D-05.
 RLE energy=       -0.0531501890
 DE(Corr)= -0.53529208E-01 E(CORR)=     -599.61623915     Delta=-1.49D-03
 NORM(A)=   0.11045128D+01
 Iteration Nr.   6
 **********************
 DD1Dir will call FoFMem   1 times, MxPair=         2
 NAB=     1 NAA=     0 NBB=     0.
 A-vector RMS=  1.4512272D-03 Max=  1.7401218D-03 conv= 1.00D-05.
 RLE energy=       -0.0532210203
 DE(Corr)= -0.53161823E-01 E(CORR)=     -599.61587177     Delta= 3.67D-04
 NORM(A)=   0.11056840D+01
 Iteration Nr.   7
 **********************
 DD1Dir will call FoFMem   1 times, MxPair=         2
 NAB=     1 NAA=     0 NBB=     0.
 A-vector RMS=  5.9237598D-04 Max=  5.1031355D-04 conv= 1.00D-05.
 RLE energy=       -0.0532898168
 DE(Corr)= -0.53226059E-01 E(CORR)=     -599.61593600     Delta=-6.42D-05
 NORM(A)=   0.11068714D+01
 Iteration Nr.   8
 **********************
 DD1Dir will call FoFMem   1 times, MxPair=         2
 NAB=     1 NAA=     0 NBB=     0.
 A-vector RMS=  4.0334323D-04 Max=  8.2336337D-04 conv= 1.00D-05.
 RLE energy=       -0.0532518567
 DE(Corr)= -0.53281514E-01 E(CORR)=     -599.61599146     Delta=-5.55D-05
 NORM(A)=   0.11064026D+01
 Iteration Nr.   9
 **********************
 DD1Dir will call FoFMem   1 times, MxPair=         2
 NAB=     1 NAA=     0 NBB=     0.
 A-vector RMS=  4.0469897D-05 Max=  5.7154726D-05 conv= 1.00D-05.
 RLE energy=       -0.0532488903
 DE(Corr)= -0.53251804E-01 E(CORR)=     -599.61596175     Delta= 2.97D-05
 NORM(A)=   0.11063513D+01
 Iteration Nr.  10
 **********************
 DD1Dir will call FoFMem   1 times, MxPair=         2
 NAB=     1 NAA=     0 NBB=     0.
 A-vector RMS=  2.2958094D-05 Max=  3.7041684D-05 conv= 1.00D-05.
 RLE energy=       -0.0532492500
 DE(Corr)= -0.53249797E-01 E(CORR)=     -599.61595974     Delta= 2.01D-06
 NORM(A)=   0.11063278D+01
 Iteration Nr.  11
 **********************
 DD1Dir will call FoFMem   1 times, MxPair=         2
 NAB=     1 NAA=     0 NBB=     0.
 A-vector RMS=  9.1358419D-06 Max=  8.4036331D-06 conv= 1.00D-05.
 RLE energy=       -0.0532484407
 DE(Corr)= -0.53249059E-01 E(CORR)=     -599.61595900     Delta= 7.38D-07
 NORM(A)=   0.11063138D+01
 Iteration Nr.  12
 **********************
 DD1Dir will call FoFMem   1 times, MxPair=         2
 NAB=     1 NAA=     0 NBB=     0.
 A-vector RMS=  4.8754632D-06 Max=  4.2922644D-06 conv= 1.00D-05.
 RLE energy=       -0.0532484869
 DE(Corr)= -0.53248368E-01 E(CORR)=     -599.61595831     Delta= 6.91D-07
 NORM(A)=   0.11063176D+01
 Iteration Nr.  13
 **********************
 DD1Dir will call FoFMem   1 times, MxPair=         2
 NAB=     1 NAA=     0 NBB=     0.
 A-vector RMS=  1.5444918D-06 Max=  1.6664634D-06 conv= 1.00D-05.
 RLE energy=       -0.0532486343
 DE(Corr)= -0.53248511E-01 E(CORR)=     -599.61595846     Delta=-1.43D-07
 NORM(A)=   0.11063200D+01
 Iteration Nr.  14
 **********************
 DD1Dir will call FoFMem   1 times, MxPair=         2
 NAB=     1 NAA=     0 NBB=     0.
 A-vector RMS=  8.1205056D-07 Max=  8.8599052D-07 conv= 1.00D-05.
 RLE energy=       -0.0532486367
 DE(Corr)= -0.53248613E-01 E(CORR)=     -599.61595856     Delta=-1.02D-07
 NORM(A)=   0.11063211D+01
 Iteration Nr.  15
 **********************
 DD1Dir will call FoFMem   1 times, MxPair=         2
 NAB=     1 NAA=     0 NBB=     0.
 A-vector RMS=  1.8542967D-07 Max=  2.7531839D-07 conv= 1.00D-05.
 RLE energy=       -0.0532486531
 DE(Corr)= -0.53248642E-01 E(CORR)=     -599.61595859     Delta=-2.89D-08
 NORM(A)=   0.11063214D+01
 CI/CC converged in   15 iterations to DelEn=-2.89D-08 Conv= 1.00D-07 ErrA1= 1.85D-07 Conv= 1.00D-05
 Wavefunction amplitudes converged. E(Corr)=     -599.61595859    
 Dominant configurations:
 ***********************
 Spin Case        I    J    A    B          Value
    AA           10        11            0.155517D+00
   ABAB          10   10   11   11      -0.103944D+00
   ABAB          10   10   11   18       0.156867D+00
   ABAB          10   10   14   18       0.108819D+00
   ABAB          10   10   18   11       0.156867D+00
   ABAB          10   10   18   14       0.108819D+00
   ABAB          10   10   18   18      -0.242861D+00
 Largest amplitude= 2.43D-01
 Discarding MO integrals.
 Leave Link  913 at Mon Mar 28 14:32:07 2022, MaxMem=  9663676416 cpu:               4.7 elap:               0.2
 (Enter /nopt/nrel/apps/gaussian/g16C_1/g16/l601.exe)
 Copying SCF densities to generalized density rwf, IOpCl= 0 IROHF=0.

 **********************************************************************

            Population analysis using the SCF Density.

 **********************************************************************

 Orbital symmetries:
       Occupied  (SG) (SG) (PI) (PI) (SG) (SG) (PI) (PI) (SG) (SG)
       Virtual   (SG) (PI) (PI) (SG) (SG) (PI) (PI) (SG)
 The electronic state is 1-SG.
 Alpha  occ. eigenvalues -- -133.54232 -14.51423 -11.54418 -11.54418 -11.54393
 Alpha  occ. eigenvalues --   -1.77250  -0.97907  -0.97907  -0.97634  -0.20021
 Alpha virt. eigenvalues --   -0.01372   0.02214   0.02214   0.06728   0.09661
 Alpha virt. eigenvalues --    0.10690   0.10690   0.21111
          Condensed to atoms (all electrons):
               1          2
     1  H    0.708979   0.238156
     2  K    0.238156  18.814709
 Mulliken charges:
               1
     1  H    0.052865
     2  K   -0.052865
 Sum of Mulliken charges =   0.00000
 Mulliken charges with hydrogens summed into heavy atoms:
               1
     2  K    0.000000
 N-N= 3.046777881055D+00 E-N=-1.429633324188D+03  KE= 5.996064269982D+02
 Symmetry A1   KE= 4.743644709176D+02
 Symmetry A2   KE= 0.000000000000D+00
 Symmetry B1   KE= 6.262097804032D+01
 Symmetry B2   KE= 6.262097804032D+01

 Atomic contributions to Alpha molecular orbitals:
 Alpha occ 1 OE=-133.542 is K2-s=1.0000
 Alpha occ 2 OE=-14.514 is K2-s=1.0000
 Alpha occ 3 OE=-11.544 is K2-p=1.0000
 Alpha occ 4 OE=-11.544 is K2-p=1.0000
 Alpha occ 5 OE=-11.544 is K2-p=1.0000
 Alpha occ 6 OE=-1.772 is K2-s=0.9995
 Alpha occ 7 OE=-0.979 is K2-p=1.0000
 Alpha occ 8 OE=-0.979 is K2-p=1.0000
 Alpha occ 9 OE=-0.976 is K2-p=0.9993
 Alpha occ 10 OE=-0.200 is H1-s=0.4735 K2-s=0.2765 K2-p=0.2500
 Alpha vir 11 OE=-0.014 is K2-s=0.5812 K2-p=0.4021
 Alpha vir 12 OE=0.022 is K2-p=1.0000
 Alpha vir 13 OE=0.022 is K2-p=1.0000
 Alpha vir 14 OE=0.067 is K2-s=0.5138 K2-p=0.4597
 Alpha vir 15 OE=0.097 is K2-s=0.5296 K2-p=0.4354
 Alpha vir 16 OE=0.107 is K2-p=1.0000
 Alpha vir 17 OE=0.107 is K2-p=1.0000
 Alpha vir 18 OE=0.211 is K2-p=0.4530 H1-s=0.4482
 
 Leave Link  601 at Mon Mar 28 14:32:07 2022, MaxMem=  9663676416 cpu:               3.0 elap:               0.1
 (Enter /nopt/nrel/apps/gaussian/g16C_1/g16/l9999.exe)

 Test job not archived.
 1\1\GINC-R102U34\SP\RCCSD-FC\Gen\H1K1\USER\28-Mar-2022\0\\#P CCSD(
 MaxCyc=200,SaveAmplitudes,ReadAmplitudes)/GEN sp pop=AllOrbitals iop(3
 /33=1,3/36=-1)\\test\\0,1\H,0,0.,0.,0.\K,0,0.,0.,3.3\\Version=ES64L-G1
 6RevC.01\State=1-SG\HF=-599.5627099\MP2=-599.5912349\MP3=-599.6049855\
 MP4D=-599.6120876\MP4DQ=-599.6109781\MP4SDQ=-599.6112627\CCSD=-599.615
 9586\RMSD=7.980e-09\PG=C*V [C*(H1K1)]\\@


                                                                                    A
                                                                                  AA
                                                                                 AAA
                                                                                AAAA
                                                                               AAAAA
                                                                              AAAAAA   KKKKKKKK
                                                                             AAAAAAA   KKKKKKKK
                                                                            AAAAAAAA   KKKKKKKK
                                       ZZZZZZZZZZZZZZZZZZZZ                AAAA  AAA   KKKKKKKK
                                       ZZZZZZZZZZZZZZZZZZZ                AAAA   AAA   KKKKKKKK          K
                                       ZZZZZZZZZZZZZZZZZZ                AAAA    AAA   KKKKKKKK         KKK
                                       ZZZZZZZZZZZZZZZZZ                AAAA     AAA   KKKKKKKK        KKKKK
                                       ZZZZZZZZZZZZZZZZ                AAAA      AAA   KKKKKKKK       KKKKKKK
                                                ZZZZZZ                AAAA       AAA   KKKKKKKK      KKKKKKK
                                               ZZZZZZ                AAAA        AAA   KKKKKKKK     KKKKKKK
                                              ZZZZZZ                AAAA         AAA   KKKKKKKK    KKKKKKK
                                             ZZZZZZ                AAAA          AAA   KKKKKKKK   KKKKKKK
                                            ZZZZZZ                AAAAAAAAAAAAAAAAAA   KKKKKKKK  KKKKKKK
                                           ZZZZZZ                AAAAAAAAAAAAAAAAAAA   KKKKKKKK KKKKKKK
                                          ZZZZZZ                AAAAAAAAAAAAAAAAAAAA   KKKKKKKKKKKKKKK
                                         ZZZZZZ                AAAAAAAAAAAAAAAAAAAAA   KKKKKKKKKKKKKK
                                        ZZZZZZ                AAAAAA        AAAAAAAA   KKKKKKKKKKKKK
                                       ZZZZZZ                AAAAAA         AAAAAAAA   KKKKKKKKKKKK
                                      ZZZZZZ                AAAAAA          AAAAAAAA   KKKKKKKKKKK
                                     ZZZZZZ                AAAAAA           AAAAAAAA   KKKKKKKKKKKK
                                    ZZZZZZ                AAAAAA            AAAAAAAA   KKKKKKKKKKKKK
                                   ZZZZZZ                AAAAAA             AAAAAAAA   KKKKKKKKKKKKKK
                                  ZZZZZZ                AAAAAA              AAAAAAAA   KKKKKKKKKKKKKKK
                                 ZZZZZZ                AAAAAA               AAAAAAAA   KKKKK KKKKKKKKKK
                                ZZZZZZ                AAAAAA                AAAAAAAA   KKKKK  KKKKKKKKKK
                               ZZZZZZ                AAAAAA                            KKKKK   KKKKKKKKKK
                              ZZZZZZ                AAAAAA                             KKKKK    KKKKKKKKKK
                             ZZZZZZ                                                    KKKKK     KKKKKKKKKK
                            ZZZZZZ                                                     KKKKK      KKKKKKKKKK
                           ZZZZZZ                                                      KKKKK       KKKKKKKKKK
                          ZZZZZZ                                                       KKKKK        KKKKKKKKKK
                         ZZZZZZZZZZZZZZZZZZZZZZZZZZZZZZZZZZZZZZZZ                      KKKKK         KKKKKKKKKK
                        ZZZZZZZZZZZZZZZZZZZZZZZZZZZZZZZZZZZZZZZZZ                      KKKKK          KKKKKKKKKK
                       ZZZZZZZZZZZZZZZZZZZZZZZZZZZZZZZZZZZZZZZZZZ                      KKKKK           KKKKKKKKKK
                       ZZZZZZZZZZZZZZZZZZZZZZZZZZZZZZZZZZZZZZZZZZ                      KKKKK            KKKKKKKKKK
                       ZZZZZZZZZZZZZZZZZZZZZZZZZZZZZZZZZZZZZZZZZZ                      KKKKK             KKKKKKKKKK
                       ZZZZZZZZZZZZZZZZZZZZZZZZZZZZZZZZZZZZZZZZZZ                      KKKKK              KKKKKKKKKK
                       ZZZZZZZZZZZZZZZZZZZZZZZZZZZZZZZZZZZZZZZZZZ                      KKKKK               KKKKKKKKKK
                       ZZZZZZZZZZZZZZZZZZZZZZZZZZZZZZZZZZZZZZZZZZ                      KKKKK                KKKKKKKKKK
                       ZZZZZZZZZZZZZZZZZZZZZZZZZZZZZZZZZZZZZZZZZZ                      KKKKK
                                                                                       KKKKK
                                                                                          (J.P.)
 Job cpu time:       0 days  0 hours  0 minutes 34.7 seconds.
 Elapsed time:       0 days  0 hours  0 minutes  1.3 seconds.
 File lengths (MBytes):  RWF=     13 Int=      0 D2E=      0 Chk=      1 Scr=      1
 Normal termination of Gaussian 16 at Mon Mar 28 14:32:07 2022.
