 Entering Gaussian System, Link 0=g16
 Initial command:
 /nopt/nrel/apps/gaussian/g16C_1/g16/l1.exe "/lustre/eaglefs/scratch/user/qc/tih-dissc-sto3g/tih-4-ccsd-1.7-321g/Gau-249663.inp" -scrdir="/lustre/eaglefs/scratch/user/qc/tih-dissc-sto3g/tih-4-ccsd-1.7-321g/"
 Default is to use a total of  36 processors:
                               36 via shared-memory
                                1 via Linda
 Entering Link 1 = /nopt/nrel/apps/gaussian/g16C_1/g16/l1.exe PID=    249664.
  
 Copyright (c) 1988-2019, Gaussian, Inc.  All Rights Reserved.
  
 This is part of the Gaussian(R) 16 program.  It is based on
 the Gaussian(R) 09 system (copyright 2009, Gaussian, Inc.),
 the Gaussian(R) 03 system (copyright 2003, Gaussian, Inc.),
 the Gaussian(R) 98 system (copyright 1998, Gaussian, Inc.),
 the Gaussian(R) 94 system (copyright 1995, Gaussian, Inc.),
 the Gaussian 92(TM) system (copyright 1992, Gaussian, Inc.),
 the Gaussian 90(TM) system (copyright 1990, Gaussian, Inc.),
 the Gaussian 88(TM) system (copyright 1988, Gaussian, Inc.),
 the Gaussian 86(TM) system (copyright 1986, Carnegie Mellon
 University), and the Gaussian 82(TM) system (copyright 1983,
 Carnegie Mellon University). Gaussian is a federally registered
 trademark of Gaussian, Inc.
  
 This software contains proprietary and confidential information,
 including trade secrets, belonging to Gaussian, Inc.
  
 This software is provided under written license and may be
 used, copied, transmitted, or stored only in accord with that
 written license.
  
 The following legend is applicable only to US Government
 contracts under FAR:
  
                    RESTRICTED RIGHTS LEGEND
  
 Use, reproduction and disclosure by the US Government is
 subject to restrictions as set forth in subparagraphs (a)
 and (c) of the Commercial Computer Software - Restricted
 Rights clause in FAR 52.227-19.
  
 Gaussian, Inc.
 340 Quinnipiac St., Bldg. 40, Wallingford CT 06492
  
  
 ---------------------------------------------------------------
 Warning -- This program may not be used in any manner that
 competes with the business of Gaussian, Inc. or will provide
 assistance to any competitor of Gaussian, Inc.  The licensee
 of this program is prohibited from giving any competitor of
 Gaussian, Inc. access to this program.  By using this program,
 the user acknowledges that Gaussian, Inc. is engaged in the
 business of creating and licensing software in the field of
 computational chemistry and represents and warrants to the
 licensee that it is not a competitor of Gaussian, Inc. and that
 it will not use this program in any manner prohibited above.
 ---------------------------------------------------------------
  

 Cite this work as:
 Gaussian 16, Revision C.01,
 M. J. Frisch, G. W. Trucks, H. B. Schlegel, G. E. Scuseria, 
 M. A. Robb, J. R. Cheeseman, G. Scalmani, V. Barone, 
 G. A. Petersson, H. Nakatsuji, X. Li, M. Caricato, A. V. Marenich, 
 J. Bloino, B. G. Janesko, R. Gomperts, B. Mennucci, H. P. Hratchian, 
 J. V. Ortiz, A. F. Izmaylov, J. L. Sonnenberg, D. Williams-Young, 
 F. Ding, F. Lipparini, F. Egidi, J. Goings, B. Peng, A. Petrone, 
 T. Henderson, D. Ranasinghe, V. G. Zakrzewski, J. Gao, N. Rega, 
 G. Zheng, W. Liang, M. Hada, M. Ehara, K. Toyota, R. Fukuda, 
 J. Hasegawa, M. Ishida, T. Nakajima, Y. Honda, O. Kitao, H. Nakai, 
 T. Vreven, K. Throssell, J. A. Montgomery, Jr., J. E. Peralta, 
 F. Ogliaro, M. J. Bearpark, J. J. Heyd, E. N. Brothers, K. N. Kudin, 
 V. N. Staroverov, T. A. Keith, R. Kobayashi, J. Normand, 
 K. Raghavachari, A. P. Rendell, J. C. Burant, S. S. Iyengar, 
 J. Tomasi, M. Cossi, J. M. Millam, M. Klene, C. Adamo, R. Cammi, 
 J. W. Ochterski, R. L. Martin, K. Morokuma, O. Farkas, 
 J. B. Foresman, and D. J. Fox, Gaussian, Inc., Wallingford CT, 2019.
 
 ******************************************
 Gaussian 16:  ES64L-G16RevC.01  3-Jul-2019
                25-Mar-2022 
 ******************************************
 %chk=molecule
 Default route: CacheSize=180224 MaxDisk=256GB
 --------------------------------------------------------------
 #P CCSD(MaxCyc=200)/GEN sp pop=AllOrbitals iop(3/33=1,3/36=-1)
 --------------------------------------------------------------
 1/4=180224,38=1,172=1/1;
 2/4=180224,12=2,17=6,18=5,40=1/2;
 3/4=180224,5=7,11=9,25=1,30=1,33=1,36=-1/1,2,3;
 4/4=180224/1;
 5/4=180224,5=2,38=5/2;
 8/4=180224,6=4,9=120000,10=1/1,4;
 9/4=180224,5=7,6=200/13;
 6/4=180224,7=2,8=2,9=2,10=2,96=-1/1;
 99/4=180224,5=1,9=1/99;
 Leave Link    1 at Fri Mar 25 15:00:32 2022, MaxMem=           0 cpu:               4.4 elap:               0.1
 (Enter /nopt/nrel/apps/gaussian/g16C_1/g16/l101.exe)
 ----
 test
 ----
 Symbolic Z-matrix:
 Charge =  0 Multiplicity = 4
 H                     0.        0.        0. 
 Ti                    0.        0.        1.7 
 
 ITRead=  0  0
 MicOpt= -1 -1
 NAtoms=      2 NQM=        2 NQMF=       0 NMMI=      0 NMMIF=      0
                NMic=       0 NMicF=      0.
                    Isotopes and Nuclear Properties:
 (Nuclear quadrupole moments (NQMom) in fm**2, nuclear magnetic moments (NMagM)
  in nuclear magnetons)

  Atom         1           2
 IAtWgt=           1          48
 AtmWgt=   1.0078250  47.9479467
 NucSpn=           1           0
 AtZEff=  -0.0000000  -0.0000000
 NQMom=    0.0000000   0.0000000
 NMagM=    2.7928460   0.0000000
 AtZNuc=   1.0000000  22.0000000
 Leave Link  101 at Fri Mar 25 15:00:32 2022, MaxMem=  9663676416 cpu:               3.0 elap:               0.1
 (Enter /nopt/nrel/apps/gaussian/g16C_1/g16/l202.exe)
                          Input orientation:                          
 ---------------------------------------------------------------------
 Center     Atomic      Atomic             Coordinates (Angstroms)
 Number     Number       Type             X           Y           Z
 ---------------------------------------------------------------------
      1          1           0        0.000000    0.000000    0.000000
      2         22           0        0.000000    0.000000    1.700000
 ---------------------------------------------------------------------
 Stoichiometry    HTi(4)
 Framework group  C*V[C*(HTi)]
 Deg. of freedom     1
 Full point group                 C*V     NOp   4
 Largest Abelian subgroup         C2V     NOp   4
 Largest concise Abelian subgroup C1      NOp   1
                         Standard orientation:                         
 ---------------------------------------------------------------------
 Center     Atomic      Atomic             Coordinates (Angstroms)
 Number     Number       Type             X           Y           Z
 ---------------------------------------------------------------------
      1          1           0        0.000000    0.000000   -1.626087
      2         22           0        0.000000    0.000000    0.073913
 ---------------------------------------------------------------------
 Rotational constants (GHZ):           0.0000000         177.1609910         177.1609910
 Leave Link  202 at Fri Mar 25 15:00:32 2022, MaxMem=  9663676416 cpu:               1.0 elap:               0.1
 (Enter /nopt/nrel/apps/gaussian/g16C_1/g16/l301.exe)
 General basis read from cards:  (5D, 7F)
                         Coordinates in L301:                         
 ---------------------------------------------------------------------
 Center     Atomic      Atomic             Coordinates (Angstroms)
 Number     Number       Type             X           Y           Z
 ---------------------------------------------------------------------
      1          1           0        0.000000    0.000000   -1.626087
      2         22           0        0.000000    0.000000    0.073913
 ---------------------------------------------------------------------
 Centers:       1
 STO-3G
 ****
 Centers:       2
 3-21G
 ****
 FixB: optimizing general contractions.
 Ernie: Thresh=  0.10000D-02 Tol=  0.10000D-05 Strict=F.
 IA=     1 ShT= 0 ShC= 0 NL=   1 NS=   0.
 IA=     1 L=0 SC=0 ISt=    0 NBk=    0 NP=    0 IndPr=    0.
 IA=     2 ShT= 0 ShC= 0 NL=   1 NS=   0.
 IA=     2 L=0 SC=0 ISt=    0 NBk=    0 NP=    0 IndPr=    0.
 IA=     2 ShT= 1 ShC= 0 NL=   4 NS=   1.
 IA=     2 L=1 SC=0 ISt=    1 NBk=    3 NP=    8 IndPr=    0.
 DoElim1:  L=1 select primitive    1 from    2 using    1 C=-1.09D-01
 DoElim1:  L=1 select primitive    1 from    3 using    1 C=-1.09D-01
 DoElim1:  L=1 select primitive    4 from    3 using    2 C=-2.86D-01
 DoElim2:  L=1 select primitive    8 from    2 using    3 C= 1.10D+00
 DoElim2:  L=1 select primitive    8 from    1 using    3 C= 1.10D+00
 DoElim2:  L=1 select primitive    6 from    1 using    2 C= 8.60D-01
 DoElim1:  L=1 select primitive    1 from    2 using    1 C= 1.37D-01
 DoElim1:  L=1 select primitive    1 from    3 using    1 C= 1.37D-01
 DoElim1:  L=1 select primitive    4 from    3 using    2 C= 1.92D-02
 DoElim2:  L=1 select primitive    8 from    2 using    3 C= 1.00D+00
 DoElim2:  L=1 select primitive    8 from    1 using    3 C= 1.00D+00
 DoElim2:  L=1 select primitive    6 from    1 using    2 C= 6.36D-01
 Delete L=1 primitive    6 from    3 C=  0.00D+00.
 Delete L=1 primitive    5 from    3 C=  0.00D+00.
 Delete L=1 primitive    4 from    3 C=  0.00D+00.
 Delete L=1 primitive    3 from    3 C=  0.00D+00.
 Delete L=1 primitive    2 from    3 C=  0.00D+00.
 Delete L=1 primitive    1 from    3 C=  0.00D+00.
 Delete L=1 primitive    8 from    2 C=  0.00D+00.
 Delete L=1 primitive    7 from    2 C=  0.00D+00.
 Delete L=1 primitive    3 from    2 C=  0.00D+00.
 Delete L=1 primitive    2 from    2 C=  0.00D+00.
 Delete L=1 primitive    1 from    2 C=  0.00D+00.
 Delete L=1 primitive    8 from    1 C=  0.00D+00.
 Delete L=1 primitive    7 from    1 C=  0.00D+00.
 Delete L=1 primitive    6 from    1 C=  0.00D+00.
 Delete L=1 primitive    5 from    1 C=  0.00D+00.
 Delete L=1 primitive    4 from    1 C=  0.00D+00.
 IA=     2 L=1 SC=0 ISt=    0 NBk=    0 NP=    0 IndPr=    8.
 IA=     2 ShT= 2 ShC= 2 NL=   2 NS=   1.
 IA=     2 L=2 SC=2 ISt=    0 NBk=    0 NP=    0 IndPr=    0.
 LdAtmC:  AtmChg=     1.000000    22.000000
 AtZEff=     -1.0000000    -23.9800000
 NEqShl: 
              1            2            3            4
     1            1            1            1            1
     2            2            2            2            2
     3            3            3            3            3
     4            4            4            4            4
     5            5            5            5            5
     6            6            6            6            6
     7            7            7            7            7
     8            8            8            8            8
 NEqBas: 
              1            2            3            4
     1            1            1            1            1
     2            2            2            2            2
     3            3            3            3            3
     4            4           -4           -4            4
     5            5           -5            5           -5
     6            6            6            6            6
     7            7            7            7            7
     8            8           -8           -8            8
     9            9           -9            9           -9
    10           10           10           10           10
    11           11           11           11           11
    12           12          -12          -12           12
    13           13          -13           13          -13
    14           14           14           14           14
    15           15           15           15           15
    16           16          -16          -16           16
    17           17          -17           17          -17
    18           18           18           18           18
    19           19           19           19           19
    20           20           20           20           20
    21           21           21           21           21
    22           22           22          -22          -22
    23           23          -23          -23           23
    24           24          -24           24          -24
    25           25           25           25           25
    26           26           26           26           26
    27           27           27           27           27
    28           28           28          -28          -28
    29           29          -29          -29           29
    30           30          -30           30          -30
 There are    16 symmetry adapted cartesian basis functions of A1  symmetry.
   1         1   1   1   1
   2         2   2   2   2
   3         3   3   3   3
   4         6   6   6   6
   5         7   7   7   7
   6        10  10  10  10
   7        11  11  11  11
   8        14  14  14  14
   9        15  15  15  15
  10        18  18  18  18
  11        19  19  19  19
  12        20  20  20  20
  13        21  21  21  21
  14        25  25  25  25
  15        26  26  26  26
  16        27  27  27  27
 There are     2 symmetry adapted cartesian basis functions of A2  symmetry.
  17        22  22  22  22
  18        28  28  28  28
 There are     6 symmetry adapted cartesian basis functions of B1  symmetry.
  19         4   4   4   4
  20         8   8   8   8
  21        12  12  12  12
  22        16  16  16  16
  23        23  23  23  23
  24        29  29  29  29
 There are     6 symmetry adapted cartesian basis functions of B2  symmetry.
  25         5   5   5   5
  26         9   9   9   9
  27        13  13  13  13
  28        17  17  17  17
  29        24  24  24  24
  30        30  30  30  30
 Order= 1 2 4 3
 Reordered character table:
              1            2            3            4            5
     1            1            1            1            1            1
     2            2            1            1           -1           -1
     3            4            1           -1           -1            1
     4            3            1           -1            1           -1
 NEqShl: 
              1            2            3            4
     1            1            1            1            1
     2            2            2            2            2
     3            3            3            3            3
     4            4            4            4            4
     5            5            5            5            5
     6            6            6            6            6
     7            7            7            7            7
     8            8            8            8            8
 NEqBas: 
              1            2            3            4
     1            1            1            1            1
     2            2            2            2            2
     3            3            3            3            3
     4            4           -4           -4            4
     5            5           -5            5           -5
     6            6            6            6            6
     7            7            7            7            7
     8            8           -8           -8            8
     9            9           -9            9           -9
    10           10           10           10           10
    11           11           11           11           11
    12           12          -12          -12           12
    13           13          -13           13          -13
    14           14           14           14           14
    15           15           15           15           15
    16           16          -16          -16           16
    17           17          -17           17          -17
    18           18           18           18           18
    19           19           19           19           19
    20           20          -20          -20           20
    21           21          -21           21          -21
    22           22           22           22           22
    23           23           23          -23          -23
    24           24           24           24           24
    25           25          -25          -25           25
    26           26          -26           26          -26
    27           27           27           27           27
    28           28           28          -28          -28
 There are    14 symmetry adapted basis functions of A1  symmetry.
   1         1   1   1   1
   2         2   2   2   2
   3         3   3   3   3
   4         6   6   6   6
   5         7   7   7   7
   6        10  10  10  10
   7        11  11  11  11
   8        14  14  14  14
   9        15  15  15  15
  10        18  18  18  18
  11        19  19  19  19
  12        22  22  22  22
  13        24  24  24  24
  14        27  27  27  27
 There are     2 symmetry adapted basis functions of A2  symmetry.
  15        23  23  23  23
  16        28  28  28  28
 There are     6 symmetry adapted basis functions of B1  symmetry.
  17         4   4   4   4
  18         8   8   8   8
  19        12  12  12  12
  20        16  16  16  16
  21        20  20  20  20
  22        25  25  25  25
 There are     6 symmetry adapted basis functions of B2  symmetry.
  23         5   5   5   5
  24         9   9   9   9
  25        13  13  13  13
  26        17  17  17  17
  27        21  21  21  21
  28        26  26  26  26
 Order= 1 2 4 3
 Reordered character table:
              1            2            3            4            5
     1            1            1            1            1            1
     2            2            1            1           -1           -1
     3            4            1           -1           -1            1
     4            3            1           -1            1           -1
    28 basis functions,    60 primitive gaussians,    30 cartesian basis functions
    13 alpha electrons       10 beta electrons
       nuclear repulsion energy         6.8481756707 Hartrees.
 IS=     1 IAt=     1 ISR=     1 T=0 IP=      1 IndIP=      1 IndIPD=      0 C=  2.769344D-01  0.000000D+00                             NZ=T
 IS=     1 IAt=     1 ISR=     1 T=0 IP=      2 IndIP=      2 IndIPD=      1 C=  2.678389D-01  0.000000D+00                             NZ=T
 IS=     1 IAt=     1 ISR=     1 T=0 IP=      3 IndIP=      3 IndIPD=      2 C=  8.347367D-02  0.000000D+00                             NZ=T
 IS=     2 IAt=     2 ISR=     1 T=0 IP=      1 IndIP=      4 IndIPD=      0 C=  1.537359D+01  0.000000D+00                             NZ=T
 IS=     2 IAt=     2 ISR=     1 T=0 IP=      2 IndIP=      5 IndIPD=      1 C=  2.196579D+01  0.000000D+00                             NZ=T
 IS=     2 IAt=     2 ISR=     1 T=0 IP=      3 IndIP=      6 IndIPD=      2 C=  1.259884D+01  0.000000D+00                             NZ=T
 IS=     3 IAt=     2 ISR=     2 T=1 IP=      1 IndIP=      7 IndIPD=      0 C= -2.459358D+00  6.155759D+01                             NZ=T
 IS=     3 IAt=     2 ISR=     2 T=1 IP=      2 IndIP=      8 IndIPD=      1 C=  7.266107D-01  3.612099D+01                             NZ=T
 IS=     3 IAt=     2 ISR=     2 T=1 IP=      3 IndIP=      9 IndIPD=      2 C=  2.742121D+00  7.115701D+00                             NZ=T
 IS=     4 IAt=     2 ISR=     3 T=1 IP=      1 IndIP=     10 IndIPD=      0 C= -8.049761D-01  2.703339D-01                             NZ=T
 IS=     4 IAt=     2 ISR=     3 T=1 IP=      2 IndIP=     11 IndIPD=      1 C=  3.851869D-01  1.489563D+00                             NZ=T
 IS=     4 IAt=     2 ISR=     3 T=1 IP=      3 IndIP=     12 IndIPD=      2 C=  4.416753D-01  5.252178D-01                             NZ=T
 IS=     5 IAt=     2 ISR=     4 T=1 IP=      1 IndIP=     13 IndIPD=      0 C= -1.138440D-01  2.076393D-04                             NZ=T
 IS=     5 IAt=     2 ISR=     4 T=1 IP=      2 IndIP=     14 IndIPD=      1 C=  1.102445D-01  5.419267D-02                             NZ=T
 IS=     6 IAt=     2 ISR=     5 T=1 IP=      1 IndIP=     15 IndIPD=      0 C=  4.686088D-02  1.526772D-02                             NZ=T
 IS=     7 IAt=     2 ISR=     6 T=2 IP=      1 IndIP=     16 IndIPD=      1 C=  0.000000D+00  0.000000D+00  1.331025D+01  0.000000D+00 NZ=T
 IS=     7 IAt=     2 ISR=     6 T=2 IP=      2 IndIP=     17 IndIPD=      2 C=  0.000000D+00  0.000000D+00  3.600378D+00  0.000000D+00 NZ=T
 IS=     8 IAt=     2 ISR=     7 T=2 IP=      1 IndIP=     18 IndIPD=      3 C=  0.000000D+00  0.000000D+00  3.518721D-01  0.000000D+00 NZ=T
 IExCor=    0 DFT=F Ex=HF Corr=None ExCW=0 ScaHFX=  1.000000
 ScaDFX=  1.000000  1.000000  1.000000  1.000000 ScalE2=  1.000000  1.000000
 IRadAn=      5 IRanWt=     -1 IRanGd=            0 ICorTp=0 IEmpDi=  4
 NAtoms=    2 NActive=    2 NUniq=    2 SFac= 1.00D+00 NAtFMM=   60 NAOKFM=F Big=F
 Integral buffers will be    131072 words long.
 Raffenetti 2 integral format.
 Two-electron integral symmetry is turned on.
 Leave Link  301 at Fri Mar 25 15:00:32 2022, MaxMem=  9663676416 cpu:               1.9 elap:               0.1
 (Enter /nopt/nrel/apps/gaussian/g16C_1/g16/l302.exe)
 NPDir=0 NMtPBC=     1 NCelOv=     1 NCel=       1 NClECP=     1 NCelD=      1
         NCelK=      1 NCelE2=     1 NClLst=     1 CellRange=     0.0.
 One-electron integrals computed using PRISM.
 One-electron integral symmetry used in STVInt
 Entering OneElI...
 Calculate overlap and kinetic energy integrals
    NBasis =  28  MinDer = 0  MaxDer = 0
 Requested accuracy = 0.1000D-12
 Symmetry will be used
 PrmmSu-InSpLW:  IPartL=    0 NPrtUS=   36 NPrtUL=    1 DoSpLW=F IThBeg=    0 IThEnd=   35 NThAct=   36.
 PrSmSu:  IncTry=   512 NBBP=             36 NTPThr=   100 NPartT=   36 Incr=           1 LDynOK=F GPUOK=F.
 PrsmSu:  NPrtUS=  36 ThrOK=T IAlg=1 LenDen=           0 ISkipM=0 DoSpLW=F IThBeg=    0 IThEnd=   35.
 Prism:   IPart=     0 DynPar=F LinDyn=F Incr=           1.
 PRISM was handed   268432135 working-precision words and    36 shell-pairs
 PRISM was handed   268432135 working-precision words and    36 shell-pairs
 PRISM was handed   268432135 working-precision words and    36 shell-pairs
 PRISM was handed   268432135 working-precision words and    36 shell-pairs
 PRISM was handed   268432135 working-precision words and    36 shell-pairs
 PRISM was handed   268432135 working-precision words and    36 shell-pairs
 PRISM was handed   268432135 working-precision words and    36 shell-pairs
 PRISM was handed   268432135 working-precision words and    36 shell-pairs
 PRISM was handed   268432135 working-precision words and    36 shell-pairs
 PRISM was handed   268432135 working-precision words and    36 shell-pairs
 IPart= 35 NShTot=           0 NBatch=           0 AvBLen=         0.0
 IPart= 27 NShTot=           0 NBatch=           0 AvBLen=         0.0
 IPart= 30 NShTot=           0 NBatch=           0 AvBLen=         0.0
 IPart=  4 NShTot=           0 NBatch=           0 AvBLen=         0.0
 IPart= 28 NShTot=           0 NBatch=           0 AvBLen=         0.0
 IPart= 21 NShTot=           0 NBatch=           0 AvBLen=         0.0
 PRISM was handed   268432135 working-precision words and    36 shell-pairs
 IPart= 13 NShTot=           0 NBatch=           0 AvBLen=         0.0
 PRISM was handed   268432135 working-precision words and    36 shell-pairs
 PRISM was handed   268432135 working-precision words and    36 shell-pairs
 IPart= 10 NShTot=           0 NBatch=           0 AvBLen=         0.0
 IPart=  2 NShTot=           3 NBatch=           3 AvBLen=         1.0
 IPart= 34 NShTot=           0 NBatch=           0 AvBLen=         0.0
 IPart= 32 NShTot=           0 NBatch=           0 AvBLen=         0.0
 PRISM was handed   268432135 working-precision words and    36 shell-pairs
 IPart=  1 NShTot=          12 NBatch=          12 AvBLen=         1.0
 PRISM was handed   268432135 working-precision words and    36 shell-pairs
 PRISM was handed   268432135 working-precision words and    36 shell-pairs
 PRISM was handed   268432135 working-precision words and    36 shell-pairs
 PRISM was handed   268432135 working-precision words and    36 shell-pairs
 PRISM was handed   268432135 working-precision words and    36 shell-pairs
 PRISM was handed   268432135 working-precision words and    36 shell-pairs
 PRISM was handed   268432135 working-precision words and    36 shell-pairs
 PRISM was handed   268432135 working-precision words and    36 shell-pairs
 PRISM was handed   268432135 working-precision words and    36 shell-pairs
 IPart=  9 NShTot=           0 NBatch=           0 AvBLen=         0.0
 PRISM was handed   268432135 working-precision words and    36 shell-pairs
 IPart= 15 NShTot=           0 NBatch=           0 AvBLen=         0.0
 PRISM was handed   268432135 working-precision words and    36 shell-pairs
 PRISM was handed   268432135 working-precision words and    36 shell-pairs
 PRISM was handed   268432135 working-precision words and    36 shell-pairs
 PRISM was handed   268432135 working-precision words and    36 shell-pairs
 PRISM was handed   268432135 working-precision words and    36 shell-pairs
 PRISM was handed   268432135 working-precision words and    36 shell-pairs
 IPart= 25 NShTot=           0 NBatch=           0 AvBLen=         0.0
 IPart= 17 NShTot=           0 NBatch=           0 AvBLen=         0.0
 IPart= 31 NShTot=           0 NBatch=           0 AvBLen=         0.0
 IPart=  8 NShTot=           0 NBatch=           0 AvBLen=         0.0
 IPart=  6 NShTot=           0 NBatch=           0 AvBLen=         0.0
 IPart= 14 NShTot=           0 NBatch=           0 AvBLen=         0.0
 IPart= 12 NShTot=           0 NBatch=           0 AvBLen=         0.0
 IPart= 33 NShTot=           0 NBatch=           0 AvBLen=         0.0
 PRISM was handed   268432135 working-precision words and    36 shell-pairs
 IPart=  0 NShTot=          20 NBatch=          20 AvBLen=         1.0
 IPart=  3 NShTot=           1 NBatch=           1 AvBLen=         1.0
 IPart= 11 NShTot=           0 NBatch=           0 AvBLen=         0.0
 PRISM was handed   268432135 working-precision words and    36 shell-pairs
 PRISM was handed   268432135 working-precision words and    36 shell-pairs
 IPart= 18 NShTot=           0 NBatch=           0 AvBLen=         0.0
 IPart= 24 NShTot=           0 NBatch=           0 AvBLen=         0.0
 IPart= 19 NShTot=           0 NBatch=           0 AvBLen=         0.0
 IPart= 23 NShTot=           0 NBatch=           0 AvBLen=         0.0
 IPart= 22 NShTot=           0 NBatch=           0 AvBLen=         0.0
 PRISM was handed   268432135 working-precision words and    36 shell-pairs
 PRISM was handed   268432135 working-precision words and    36 shell-pairs
 PRISM was handed   268432135 working-precision words and    36 shell-pairs
 IPart= 29 NShTot=           0 NBatch=           0 AvBLen=         0.0
 IPart= 20 NShTot=           0 NBatch=           0 AvBLen=         0.0
 IPart=  5 NShTot=           0 NBatch=           0 AvBLen=         0.0
 IPart=  7 NShTot=           0 NBatch=           0 AvBLen=         0.0
 IPart= 26 NShTot=           0 NBatch=           0 AvBLen=         0.0
 IPart= 16 NShTot=           0 NBatch=           0 AvBLen=         0.0
 PrSmSu:  NxtVal=             37.
 *** Overlap *** 
                1             2             3             4             5 
      1  0.100000D+01
      2  0.185130D-02  0.100000D+01
      3  0.148384D-01  0.261907D+00  0.100000D+01
      4  0.000000D+00  0.000000D+00  0.000000D+00  0.100000D+01
      5  0.000000D+00  0.000000D+00  0.000000D+00  0.000000D+00  0.100000D+01
      6 -0.426705D-02  0.000000D+00  0.000000D+00  0.000000D+00  0.000000D+00
      7  0.955528D-01  0.101215D-01  0.334950D+00  0.000000D+00  0.000000D+00
      8  0.000000D+00  0.000000D+00  0.000000D+00  0.320730D+00  0.000000D+00
      9  0.000000D+00  0.000000D+00  0.000000D+00  0.000000D+00  0.320730D+00
     10 -0.102987D+00  0.000000D+00  0.000000D+00  0.000000D+00  0.000000D+00
     11  0.382847D+00 -0.323625D-03  0.781293D-02  0.000000D+00  0.000000D+00
     12  0.000000D+00  0.000000D+00  0.000000D+00  0.126594D-01  0.000000D+00
     13  0.000000D+00  0.000000D+00  0.000000D+00  0.000000D+00  0.126594D-01
     14 -0.502678D+00  0.000000D+00  0.000000D+00  0.000000D+00  0.000000D+00
     15  0.310067D+00  0.575699D-02  0.450232D-01  0.000000D+00  0.000000D+00
     16  0.000000D+00  0.000000D+00  0.000000D+00  0.361007D-02  0.000000D+00
     17  0.000000D+00  0.000000D+00  0.000000D+00  0.000000D+00  0.361007D-02
     18 -0.291801D+00  0.000000D+00  0.000000D+00  0.000000D+00  0.000000D+00
     19  0.215391D-01  0.000000D+00  0.000000D+00  0.000000D+00  0.000000D+00
     20  0.000000D+00  0.000000D+00  0.000000D+00  0.000000D+00  0.000000D+00
     21  0.000000D+00  0.000000D+00  0.000000D+00  0.000000D+00  0.000000D+00
     22  0.000000D+00  0.000000D+00  0.000000D+00  0.000000D+00  0.000000D+00
     23  0.000000D+00  0.000000D+00  0.000000D+00  0.000000D+00  0.000000D+00
     24  0.247098D+00  0.000000D+00  0.000000D+00  0.000000D+00  0.000000D+00
     25  0.000000D+00  0.000000D+00  0.000000D+00  0.000000D+00  0.000000D+00
     26  0.000000D+00  0.000000D+00  0.000000D+00  0.000000D+00  0.000000D+00
     27  0.000000D+00  0.000000D+00  0.000000D+00  0.000000D+00  0.000000D+00
     28  0.000000D+00  0.000000D+00  0.000000D+00  0.000000D+00  0.000000D+00
                6             7             8             9            10 
      6  0.100000D+01
      7  0.000000D+00  0.100000D+01
      8  0.000000D+00  0.000000D+00  0.100000D+01
      9  0.000000D+00  0.000000D+00  0.000000D+00  0.100000D+01
     10  0.320730D+00  0.000000D+00  0.000000D+00  0.000000D+00  0.100000D+01
     11  0.000000D+00  0.254017D+00  0.000000D+00  0.000000D+00  0.000000D+00
     12  0.000000D+00  0.000000D+00  0.217564D+00  0.000000D+00  0.000000D+00
     13  0.000000D+00  0.000000D+00  0.000000D+00  0.217564D+00  0.000000D+00
     14  0.126594D-01  0.000000D+00  0.000000D+00  0.000000D+00  0.217564D+00
     15  0.000000D+00  0.230277D+00  0.000000D+00  0.000000D+00  0.000000D+00
     16  0.000000D+00  0.000000D+00  0.710789D-01  0.000000D+00  0.000000D+00
     17  0.000000D+00  0.000000D+00  0.000000D+00  0.710789D-01  0.000000D+00
     18  0.361007D-02  0.000000D+00  0.000000D+00  0.000000D+00  0.710789D-01
     19  0.000000D+00  0.000000D+00  0.000000D+00  0.000000D+00  0.000000D+00
     20  0.000000D+00  0.000000D+00  0.000000D+00  0.000000D+00  0.000000D+00
     21  0.000000D+00  0.000000D+00  0.000000D+00  0.000000D+00  0.000000D+00
     22  0.000000D+00  0.000000D+00  0.000000D+00  0.000000D+00  0.000000D+00
     23  0.000000D+00  0.000000D+00  0.000000D+00  0.000000D+00  0.000000D+00
     24  0.000000D+00  0.000000D+00  0.000000D+00  0.000000D+00  0.000000D+00
     25  0.000000D+00  0.000000D+00  0.000000D+00  0.000000D+00  0.000000D+00
     26  0.000000D+00  0.000000D+00  0.000000D+00  0.000000D+00  0.000000D+00
     27  0.000000D+00  0.000000D+00  0.000000D+00  0.000000D+00  0.000000D+00
     28  0.000000D+00  0.000000D+00  0.000000D+00  0.000000D+00  0.000000D+00
               11            12            13            14            15 
     11  0.100000D+01
     12  0.000000D+00  0.100000D+01
     13  0.000000D+00  0.000000D+00  0.100000D+01
     14  0.000000D+00  0.000000D+00  0.000000D+00  0.100000D+01
     15  0.850437D+00  0.000000D+00  0.000000D+00  0.000000D+00  0.100000D+01
     16  0.000000D+00  0.734775D+00  0.000000D+00  0.000000D+00  0.000000D+00
     17  0.000000D+00  0.000000D+00  0.734775D+00  0.000000D+00  0.000000D+00
     18  0.000000D+00  0.000000D+00  0.000000D+00  0.734775D+00  0.000000D+00
     19  0.000000D+00  0.000000D+00  0.000000D+00  0.000000D+00  0.000000D+00
     20  0.000000D+00  0.000000D+00  0.000000D+00  0.000000D+00  0.000000D+00
     21  0.000000D+00  0.000000D+00  0.000000D+00  0.000000D+00  0.000000D+00
     22  0.000000D+00  0.000000D+00  0.000000D+00  0.000000D+00  0.000000D+00
     23  0.000000D+00  0.000000D+00  0.000000D+00  0.000000D+00  0.000000D+00
     24  0.000000D+00  0.000000D+00  0.000000D+00  0.000000D+00  0.000000D+00
     25  0.000000D+00  0.000000D+00  0.000000D+00  0.000000D+00  0.000000D+00
     26  0.000000D+00  0.000000D+00  0.000000D+00  0.000000D+00  0.000000D+00
     27  0.000000D+00  0.000000D+00  0.000000D+00  0.000000D+00  0.000000D+00
     28  0.000000D+00  0.000000D+00  0.000000D+00  0.000000D+00  0.000000D+00
               16            17            18            19            20 
     16  0.100000D+01
     17  0.000000D+00  0.100000D+01
     18  0.000000D+00  0.000000D+00  0.100000D+01
     19  0.000000D+00  0.000000D+00  0.000000D+00  0.100000D+01
     20  0.000000D+00  0.000000D+00  0.000000D+00  0.000000D+00  0.100000D+01
     21  0.000000D+00  0.000000D+00  0.000000D+00  0.000000D+00  0.000000D+00
     22  0.000000D+00  0.000000D+00  0.000000D+00  0.000000D+00  0.000000D+00
     23  0.000000D+00  0.000000D+00  0.000000D+00  0.000000D+00  0.000000D+00
     24  0.000000D+00  0.000000D+00  0.000000D+00  0.395959D+00  0.000000D+00
     25  0.000000D+00  0.000000D+00  0.000000D+00  0.000000D+00  0.395959D+00
     26  0.000000D+00  0.000000D+00  0.000000D+00  0.000000D+00  0.000000D+00
     27  0.000000D+00  0.000000D+00  0.000000D+00  0.000000D+00  0.000000D+00
     28  0.000000D+00  0.000000D+00  0.000000D+00  0.000000D+00  0.000000D+00
               21            22            23            24            25 
     21  0.100000D+01
     22  0.000000D+00  0.100000D+01
     23  0.000000D+00  0.000000D+00  0.100000D+01
     24  0.000000D+00  0.000000D+00  0.000000D+00  0.100000D+01
     25  0.000000D+00  0.000000D+00  0.000000D+00  0.000000D+00  0.100000D+01
     26  0.395959D+00  0.000000D+00  0.000000D+00  0.000000D+00  0.000000D+00
     27  0.000000D+00  0.395959D+00  0.000000D+00  0.000000D+00  0.000000D+00
     28  0.000000D+00  0.000000D+00  0.395959D+00  0.000000D+00  0.000000D+00
               26            27            28 
     26  0.100000D+01
     27  0.000000D+00  0.100000D+01
     28  0.000000D+00  0.000000D+00  0.100000D+01
 *** Kinetic Energy *** 
                1             2             3             4             5 
      1  0.760032D+00
      2 -0.475183D-03  0.238140D+03
      3 -0.408383D-02 -0.849715D+01  0.110812D+02
      4  0.000000D+00  0.000000D+00  0.000000D+00  0.405624D+02
      5  0.000000D+00  0.000000D+00  0.000000D+00  0.000000D+00  0.405624D+02
      6  0.119881D-02  0.000000D+00  0.000000D+00  0.000000D+00  0.000000D+00
      7 -0.211356D-01 -0.119187D+01 -0.935732D+00  0.000000D+00  0.000000D+00
      8  0.000000D+00  0.000000D+00  0.000000D+00  0.225504D+01  0.000000D+00
      9  0.000000D+00  0.000000D+00  0.000000D+00  0.000000D+00  0.225504D+01
     10  0.658441D-02  0.000000D+00  0.000000D+00  0.000000D+00  0.000000D+00
     11  0.473658D-01 -0.207112D-01 -0.130608D+00  0.000000D+00  0.000000D+00
     12  0.000000D+00  0.000000D+00  0.000000D+00  0.467897D-02  0.000000D+00
     13  0.000000D+00  0.000000D+00  0.000000D+00  0.000000D+00  0.467897D-02
     14 -0.109807D+00  0.000000D+00  0.000000D+00  0.000000D+00  0.000000D+00
     15  0.185417D-01  0.458197D-03  0.356994D-02  0.000000D+00  0.000000D+00
     16  0.000000D+00  0.000000D+00  0.000000D+00  0.477331D-03  0.000000D+00
     17  0.000000D+00  0.000000D+00  0.000000D+00  0.000000D+00  0.477331D-03
     18 -0.314510D-01  0.000000D+00  0.000000D+00  0.000000D+00  0.000000D+00
     19 -0.512304D-02  0.000000D+00  0.000000D+00  0.000000D+00  0.000000D+00
     20  0.000000D+00  0.000000D+00  0.000000D+00  0.000000D+00  0.000000D+00
     21  0.000000D+00  0.000000D+00  0.000000D+00  0.000000D+00  0.000000D+00
     22  0.000000D+00  0.000000D+00  0.000000D+00  0.000000D+00  0.000000D+00
     23  0.000000D+00  0.000000D+00  0.000000D+00  0.000000D+00  0.000000D+00
     24  0.112751D+00  0.000000D+00  0.000000D+00  0.000000D+00  0.000000D+00
     25  0.000000D+00  0.000000D+00  0.000000D+00  0.000000D+00  0.000000D+00
     26  0.000000D+00  0.000000D+00  0.000000D+00  0.000000D+00  0.000000D+00
     27  0.000000D+00  0.000000D+00  0.000000D+00  0.000000D+00  0.000000D+00
     28  0.000000D+00  0.000000D+00  0.000000D+00  0.000000D+00  0.000000D+00
                6             7             8             9            10 
      6  0.405624D+02
      7  0.000000D+00  0.139068D+01
      8  0.000000D+00  0.000000D+00  0.266954D+01
      9  0.000000D+00  0.000000D+00  0.000000D+00  0.266954D+01
     10  0.225504D+01  0.000000D+00  0.000000D+00  0.000000D+00  0.266954D+01
     11  0.000000D+00 -0.125868D+00  0.000000D+00  0.000000D+00  0.000000D+00
     12  0.000000D+00  0.000000D+00  0.727335D-01  0.000000D+00  0.000000D+00
     13  0.000000D+00  0.000000D+00  0.000000D+00  0.727335D-01  0.000000D+00
     14  0.467897D-02  0.000000D+00  0.000000D+00  0.000000D+00  0.727335D-01
     15  0.000000D+00  0.176460D-01  0.000000D+00  0.000000D+00  0.000000D+00
     16  0.000000D+00  0.000000D+00  0.909809D-02  0.000000D+00  0.000000D+00
     17  0.000000D+00  0.000000D+00  0.000000D+00  0.909809D-02  0.000000D+00
     18  0.477331D-03  0.000000D+00  0.000000D+00  0.000000D+00  0.909809D-02
     19  0.000000D+00  0.000000D+00  0.000000D+00  0.000000D+00  0.000000D+00
     20  0.000000D+00  0.000000D+00  0.000000D+00  0.000000D+00  0.000000D+00
     21  0.000000D+00  0.000000D+00  0.000000D+00  0.000000D+00  0.000000D+00
     22  0.000000D+00  0.000000D+00  0.000000D+00  0.000000D+00  0.000000D+00
     23  0.000000D+00  0.000000D+00  0.000000D+00  0.000000D+00  0.000000D+00
     24  0.000000D+00  0.000000D+00  0.000000D+00  0.000000D+00  0.000000D+00
     25  0.000000D+00  0.000000D+00  0.000000D+00  0.000000D+00  0.000000D+00
     26  0.000000D+00  0.000000D+00  0.000000D+00  0.000000D+00  0.000000D+00
     27  0.000000D+00  0.000000D+00  0.000000D+00  0.000000D+00  0.000000D+00
     28  0.000000D+00  0.000000D+00  0.000000D+00  0.000000D+00  0.000000D+00
               11            12            13            14            15 
     11  0.130956D+00
     12  0.000000D+00  0.182825D+00
     13  0.000000D+00  0.000000D+00  0.182825D+00
     14  0.000000D+00  0.000000D+00  0.000000D+00  0.182825D+00
     15  0.485464D-01  0.000000D+00  0.000000D+00  0.000000D+00  0.398069D-01
     16  0.000000D+00  0.715354D-01  0.000000D+00  0.000000D+00  0.000000D+00
     17  0.000000D+00  0.000000D+00  0.715354D-01  0.000000D+00  0.000000D+00
     18  0.000000D+00  0.000000D+00  0.000000D+00  0.715354D-01  0.000000D+00
     19  0.000000D+00  0.000000D+00  0.000000D+00  0.000000D+00  0.000000D+00
     20  0.000000D+00  0.000000D+00  0.000000D+00  0.000000D+00  0.000000D+00
     21  0.000000D+00  0.000000D+00  0.000000D+00  0.000000D+00  0.000000D+00
     22  0.000000D+00  0.000000D+00  0.000000D+00  0.000000D+00  0.000000D+00
     23  0.000000D+00  0.000000D+00  0.000000D+00  0.000000D+00  0.000000D+00
     24  0.000000D+00  0.000000D+00  0.000000D+00  0.000000D+00  0.000000D+00
     25  0.000000D+00  0.000000D+00  0.000000D+00  0.000000D+00  0.000000D+00
     26  0.000000D+00  0.000000D+00  0.000000D+00  0.000000D+00  0.000000D+00
     27  0.000000D+00  0.000000D+00  0.000000D+00  0.000000D+00  0.000000D+00
     28  0.000000D+00  0.000000D+00  0.000000D+00  0.000000D+00  0.000000D+00
               16            17            18            19            20 
     16  0.663448D-01
     17  0.000000D+00  0.663448D-01
     18  0.000000D+00  0.000000D+00  0.663448D-01
     19  0.000000D+00  0.000000D+00  0.000000D+00  0.800995D+01
     20  0.000000D+00  0.000000D+00  0.000000D+00  0.000000D+00  0.800995D+01
     21  0.000000D+00  0.000000D+00  0.000000D+00  0.000000D+00  0.000000D+00
     22  0.000000D+00  0.000000D+00  0.000000D+00  0.000000D+00  0.000000D+00
     23  0.000000D+00  0.000000D+00  0.000000D+00  0.000000D+00  0.000000D+00
     24  0.000000D+00  0.000000D+00  0.000000D+00  0.930872D+00  0.000000D+00
     25  0.000000D+00  0.000000D+00  0.000000D+00  0.000000D+00  0.930872D+00
     26  0.000000D+00  0.000000D+00  0.000000D+00  0.000000D+00  0.000000D+00
     27  0.000000D+00  0.000000D+00  0.000000D+00  0.000000D+00  0.000000D+00
     28  0.000000D+00  0.000000D+00  0.000000D+00  0.000000D+00  0.000000D+00
               21            22            23            24            25 
     21  0.800995D+01
     22  0.000000D+00  0.800995D+01
     23  0.000000D+00  0.000000D+00  0.800995D+01
     24  0.000000D+00  0.000000D+00  0.000000D+00  0.144943D+01
     25  0.000000D+00  0.000000D+00  0.000000D+00  0.000000D+00  0.144943D+01
     26  0.930872D+00  0.000000D+00  0.000000D+00  0.000000D+00  0.000000D+00
     27  0.000000D+00  0.930872D+00  0.000000D+00  0.000000D+00  0.000000D+00
     28  0.000000D+00  0.000000D+00  0.930872D+00  0.000000D+00  0.000000D+00
               26            27            28 
     26  0.144943D+01
     27  0.000000D+00  0.144943D+01
     28  0.000000D+00  0.000000D+00  0.144943D+01
 Entering OneElI...
 Calculate potential energy integrals
    NBasis =  28  MinDer = 0  MaxDer = 0
 Requested accuracy = 0.1000D-12
 Symmetry will be used
 PrmmSu-InSpLW:  IPartL=    0 NPrtUS=   36 NPrtUL=    1 DoSpLW=F IThBeg=    0 IThEnd=   35 NThAct=   36.
 PrSmSu:  IncTry=   512 NBBP=             72 NTPThr=   100 NPartT=   36 Incr=           1 LDynOK=F GPUOK=F.
 PrsmSu:  NPrtUS=  36 ThrOK=T IAlg=1 LenDen=           0 ISkipM=0 DoSpLW=F IThBeg=    0 IThEnd=   35.
 Prism:   IPart=     0 DynPar=F LinDyn=F Incr=           1.
 PRISM was handed   268432608 working-precision words and    36 shell-pairs
 PRISM was handed   268432608 working-precision words and    36 shell-pairs
 PRISM was handed   268432608 working-precision words and    36 shell-pairs
 PRISM was handed   268432608 working-precision words and    36 shell-pairs
 PRISM was handed   268432608 working-precision words and    36 shell-pairs
 PRISM was handed   268432608 working-precision words and    36 shell-pairs
 PRISM was handed   268432608 working-precision words and    36 shell-pairs
 PRISM was handed   268432608 working-precision words and    36 shell-pairs
 PRISM was handed   268432608 working-precision words and    36 shell-pairs
 PRISM was handed   268432608 working-precision words and    36 shell-pairs
 PRISM was handed   268432608 working-precision words and    36 shell-pairs
 PRISM was handed   268432608 working-precision words and    36 shell-pairs
 PRISM was handed   268432608 working-precision words and    36 shell-pairs
 PRISM was handed   268432608 working-precision words and    36 shell-pairs
 PRISM was handed   268432608 working-precision words and    36 shell-pairs
 PRISM was handed   268432608 working-precision words and    36 shell-pairs
 PRISM was handed   268432608 working-precision words and    36 shell-pairs
 PRISM was handed   268432608 working-precision words and    36 shell-pairs
 PRISM was handed   268432608 working-precision words and    36 shell-pairs
 PRISM was handed   268432608 working-precision words and    36 shell-pairs
 PRISM was handed   268432608 working-precision words and    36 shell-pairs
 PRISM was handed   268432608 working-precision words and    36 shell-pairs
 PRISM was handed   268432608 working-precision words and    36 shell-pairs
 PRISM was handed   268432608 working-precision words and    36 shell-pairs
 PRISM was handed   268432608 working-precision words and    36 shell-pairs
 PRISM was handed   268432608 working-precision words and    36 shell-pairs
 PRISM was handed   268432608 working-precision words and    36 shell-pairs
 PRISM was handed   268432608 working-precision words and    36 shell-pairs
 PRISM was handed   268432608 working-precision words and    36 shell-pairs
 PRISM was handed   268432608 working-precision words and    36 shell-pairs
 PRISM was handed   268432608 working-precision words and    36 shell-pairs
 PRISM was handed   268432608 working-precision words and    36 shell-pairs
 PRISM was handed   268432608 working-precision words and    36 shell-pairs
 PRISM was handed   268432608 working-precision words and    36 shell-pairs
 PRISM was handed   268432608 working-precision words and    36 shell-pairs
 PRISM was handed   268432608 working-precision words and    36 shell-pairs
 IPart=  3 NShTot=           0 NBatch=           0 AvBLen=         0.0
 IPart=  2 NShTot=           4 NBatch=           2 AvBLen=         2.0
 IPart=  1 NShTot=          24 NBatch=          12 AvBLen=         2.0
 IPart=  0 NShTot=          44 NBatch=          22 AvBLen=         2.0
 IPart=  6 NShTot=           0 NBatch=           0 AvBLen=         0.0
 IPart= 23 NShTot=           0 NBatch=           0 AvBLen=         0.0
 IPart= 33 NShTot=           0 NBatch=           0 AvBLen=         0.0
 IPart= 27 NShTot=           0 NBatch=           0 AvBLen=         0.0
 IPart= 17 NShTot=           0 NBatch=           0 AvBLen=         0.0
 IPart= 15 NShTot=           0 NBatch=           0 AvBLen=         0.0
 IPart= 20 NShTot=           0 NBatch=           0 AvBLen=         0.0
 IPart= 18 NShTot=           0 NBatch=           0 AvBLen=         0.0
 IPart= 16 NShTot=           0 NBatch=           0 AvBLen=         0.0
 IPart= 25 NShTot=           0 NBatch=           0 AvBLen=         0.0
 IPart= 10 NShTot=           0 NBatch=           0 AvBLen=         0.0
 IPart=  4 NShTot=           0 NBatch=           0 AvBLen=         0.0
 IPart= 30 NShTot=           0 NBatch=           0 AvBLen=         0.0
 IPart= 11 NShTot=           0 NBatch=           0 AvBLen=         0.0
 IPart= 19 NShTot=           0 NBatch=           0 AvBLen=         0.0
 IPart=  7 NShTot=           0 NBatch=           0 AvBLen=         0.0
 IPart= 34 NShTot=           0 NBatch=           0 AvBLen=         0.0
 IPart=  8 NShTot=           0 NBatch=           0 AvBLen=         0.0
 IPart= 22 NShTot=           0 NBatch=           0 AvBLen=         0.0
 IPart= 29 NShTot=           0 NBatch=           0 AvBLen=         0.0
 IPart= 24 NShTot=           0 NBatch=           0 AvBLen=         0.0
 IPart=  5 NShTot=           0 NBatch=           0 AvBLen=         0.0
 IPart= 14 NShTot=           0 NBatch=           0 AvBLen=         0.0
 IPart= 26 NShTot=           0 NBatch=           0 AvBLen=         0.0
 IPart=  9 NShTot=           0 NBatch=           0 AvBLen=         0.0
 IPart= 32 NShTot=           0 NBatch=           0 AvBLen=         0.0
 IPart= 31 NShTot=           0 NBatch=           0 AvBLen=         0.0
 IPart= 35 NShTot=           0 NBatch=           0 AvBLen=         0.0
 IPart= 12 NShTot=           0 NBatch=           0 AvBLen=         0.0
 IPart= 28 NShTot=           0 NBatch=           0 AvBLen=         0.0
 IPart= 21 NShTot=           0 NBatch=           0 AvBLen=         0.0
 IPart= 13 NShTot=           0 NBatch=           0 AvBLen=         0.0
 PrSmSu:  NxtVal=             37.
 ***** Potential Energy ***** 
                1             2             3             4             5 
      1  0.806344D+01
      2  0.483948D+00  0.478948D+03
      3  0.924877D+00  0.594282D+02  0.852588D+02
      4  0.000000D+00  0.000000D+00  0.000000D+00  0.991208D+02
      5  0.000000D+00  0.000000D+00  0.000000D+00  0.000000D+00  0.991208D+02
      6 -0.212424D+00 -0.233734D-02 -0.165194D-01  0.000000D+00  0.000000D+00
      7  0.183097D+01  0.186174D+01  0.175914D+02  0.000000D+00  0.000000D+00
      8  0.000000D+00  0.000000D+00  0.000000D+00  0.184691D+02  0.000000D+00
      9  0.000000D+00  0.000000D+00  0.000000D+00  0.000000D+00  0.184691D+02
     10 -0.155025D+01 -0.144890D-03 -0.880797D-02  0.000000D+00  0.000000D+00
     11  0.317646D+01 -0.976331D-01  0.273851D+00  0.000000D+00  0.000000D+00
     12  0.000000D+00  0.000000D+00  0.000000D+00  0.636741D+00  0.000000D+00
     13  0.000000D+00  0.000000D+00  0.000000D+00  0.000000D+00  0.636741D+00
     14 -0.379513D+01 -0.367697D-05 -0.379758D-03  0.000000D+00  0.000000D+00
     15  0.244615D+01  0.150614D+01  0.283015D+01  0.000000D+00  0.000000D+00
     16  0.000000D+00  0.000000D+00  0.000000D+00  0.180760D+00  0.000000D+00
     17  0.000000D+00  0.000000D+00  0.000000D+00  0.000000D+00  0.180760D+00
     18 -0.196187D+01 -0.103354D-05 -0.108572D-03  0.000000D+00  0.000000D+00
     19  0.389905D+00  0.523634D-05  0.133745D-02  0.000000D+00  0.000000D+00
     20  0.000000D+00  0.000000D+00  0.000000D+00 -0.767791D-02  0.000000D+00
     21  0.000000D+00  0.000000D+00  0.000000D+00  0.000000D+00 -0.767791D-02
     22  0.000000D+00  0.000000D+00  0.000000D+00  0.000000D+00  0.000000D+00
     23  0.000000D+00  0.000000D+00  0.000000D+00  0.000000D+00  0.000000D+00
     24  0.249211D+01  0.000000D+00  0.146744D-03  0.000000D+00  0.000000D+00
     25  0.000000D+00  0.000000D+00  0.000000D+00 -0.748180D-03  0.000000D+00
     26  0.000000D+00  0.000000D+00  0.000000D+00  0.000000D+00 -0.748180D-03
     27  0.000000D+00  0.000000D+00  0.000000D+00  0.000000D+00  0.000000D+00
     28  0.000000D+00  0.000000D+00  0.000000D+00  0.000000D+00  0.000000D+00
                6             7             8             9            10 
      6  0.991226D+02
      7 -0.863324D-02  0.265944D+02
      8  0.000000D+00  0.000000D+00  0.254900D+02
      9  0.000000D+00  0.000000D+00  0.000000D+00  0.254900D+02
     10  0.184706D+02 -0.559398D-01  0.000000D+00  0.000000D+00  0.255130D+02
     11 -0.292922D-03  0.412789D+01  0.000000D+00  0.000000D+00 -0.285554D-01
     12  0.000000D+00  0.000000D+00  0.348751D+01  0.000000D+00  0.000000D+00
     13  0.000000D+00  0.000000D+00  0.000000D+00  0.348751D+01  0.000000D+00
     14  0.636816D+00 -0.154843D-01  0.000000D+00  0.000000D+00  0.349953D+01
     15 -0.107363D-02  0.472385D+01  0.000000D+00  0.000000D+00 -0.210843D-01
     16  0.000000D+00  0.000000D+00  0.109738D+01  0.000000D+00  0.000000D+00
     17  0.000000D+00  0.000000D+00  0.000000D+00  0.109738D+01  0.000000D+00
     18  0.180782D+00 -0.511943D-02  0.000000D+00  0.000000D+00  0.110160D+01
     19 -0.916637D-02  0.122088D-01  0.000000D+00  0.000000D+00 -0.476411D-01
     20  0.000000D+00  0.000000D+00 -0.364588D-01  0.000000D+00  0.000000D+00
     21  0.000000D+00  0.000000D+00  0.000000D+00 -0.364588D-01  0.000000D+00
     22  0.000000D+00  0.000000D+00  0.000000D+00  0.000000D+00  0.000000D+00
     23  0.000000D+00  0.000000D+00  0.000000D+00  0.000000D+00  0.000000D+00
     24 -0.908279D-03  0.166621D-01  0.000000D+00  0.000000D+00 -0.560089D-01
     25  0.000000D+00  0.000000D+00 -0.356473D-01  0.000000D+00  0.000000D+00
     26  0.000000D+00  0.000000D+00  0.000000D+00 -0.356473D-01  0.000000D+00
     27  0.000000D+00  0.000000D+00  0.000000D+00  0.000000D+00  0.000000D+00
     28  0.000000D+00  0.000000D+00  0.000000D+00  0.000000D+00  0.000000D+00
               11            12            13            14            15 
     11  0.796325D+01
     12  0.000000D+00  0.655269D+01
     13  0.000000D+00  0.000000D+00  0.655269D+01
     14 -0.115536D+00  0.000000D+00  0.000000D+00  0.664638D+01
     15  0.615792D+01  0.000000D+00  0.000000D+00 -0.960107D-01  0.593846D+01
     16  0.000000D+00  0.398426D+01  0.000000D+00  0.000000D+00  0.000000D+00
     17  0.000000D+00  0.000000D+00  0.398426D+01  0.000000D+00  0.000000D+00
     18 -0.619569D-01  0.000000D+00  0.000000D+00  0.403723D+01 -0.659769D-01
     19  0.377171D-02  0.000000D+00  0.000000D+00 -0.802599D-02  0.316392D-02
     20  0.000000D+00 -0.571230D-02  0.000000D+00  0.000000D+00  0.000000D+00
     21  0.000000D+00  0.000000D+00 -0.571230D-02  0.000000D+00  0.000000D+00
     22  0.000000D+00  0.000000D+00  0.000000D+00  0.000000D+00  0.000000D+00
     23  0.000000D+00  0.000000D+00  0.000000D+00  0.000000D+00  0.000000D+00
     24  0.507918D-01  0.000000D+00  0.000000D+00 -0.836842D-01  0.327149D-01
     25  0.000000D+00 -0.389462D-01  0.000000D+00  0.000000D+00  0.000000D+00
     26  0.000000D+00  0.000000D+00 -0.389462D-01  0.000000D+00  0.000000D+00
     27  0.000000D+00  0.000000D+00  0.000000D+00  0.000000D+00  0.000000D+00
     28  0.000000D+00  0.000000D+00  0.000000D+00  0.000000D+00  0.000000D+00
               16            17            18            19            20 
     16  0.396906D+01
     17  0.000000D+00  0.396906D+01
     18  0.000000D+00  0.000000D+00  0.400785D+01
     19  0.000000D+00  0.000000D+00 -0.247953D-02  0.294876D+02
     20 -0.175503D-02  0.000000D+00  0.000000D+00  0.000000D+00  0.294825D+02
     21  0.000000D+00 -0.175503D-02  0.000000D+00  0.000000D+00  0.000000D+00
     22  0.000000D+00  0.000000D+00  0.000000D+00  0.000000D+00  0.000000D+00
     23  0.000000D+00  0.000000D+00  0.000000D+00  0.000000D+00  0.000000D+00
     24  0.000000D+00  0.000000D+00 -0.331362D-01  0.805695D+01  0.000000D+00
     25 -0.149562D-01  0.000000D+00  0.000000D+00  0.000000D+00  0.805238D+01
     26  0.000000D+00 -0.149562D-01  0.000000D+00  0.000000D+00  0.000000D+00
     27  0.000000D+00  0.000000D+00  0.000000D+00  0.000000D+00  0.000000D+00
     28  0.000000D+00  0.000000D+00  0.000000D+00  0.000000D+00  0.000000D+00
               21            22            23            24            25 
     21  0.294825D+02
     22  0.000000D+00  0.294723D+02
     23  0.000000D+00  0.000000D+00  0.294723D+02
     24  0.000000D+00  0.000000D+00  0.000000D+00  0.124143D+02
     25  0.000000D+00  0.000000D+00  0.000000D+00  0.000000D+00  0.123659D+02
     26  0.805238D+01  0.000000D+00  0.000000D+00  0.000000D+00  0.000000D+00
     27  0.000000D+00  0.804512D+01  0.000000D+00  0.000000D+00  0.000000D+00
     28  0.000000D+00  0.000000D+00  0.804512D+01  0.000000D+00  0.000000D+00
               26            27            28 
     26  0.123659D+02
     27  0.000000D+00  0.123272D+02
     28  0.000000D+00  0.000000D+00  0.123272D+02
 ****** Core Hamiltonian ****** 
                1             2             3             4             5 
      1 -0.730341D+01
      2 -0.484424D+00 -0.240808D+03
      3 -0.928961D+00 -0.679253D+02 -0.741777D+02
      4  0.000000D+00  0.000000D+00  0.000000D+00 -0.585584D+02
      5  0.000000D+00  0.000000D+00  0.000000D+00  0.000000D+00 -0.585584D+02
      6  0.213623D+00  0.233734D-02  0.165194D-01  0.000000D+00  0.000000D+00
      7 -0.185210D+01 -0.305361D+01 -0.185271D+02  0.000000D+00  0.000000D+00
      8  0.000000D+00  0.000000D+00  0.000000D+00 -0.162141D+02  0.000000D+00
      9  0.000000D+00  0.000000D+00  0.000000D+00  0.000000D+00 -0.162141D+02
     10  0.155684D+01  0.144890D-03  0.880797D-02  0.000000D+00  0.000000D+00
     11 -0.312910D+01  0.769218D-01 -0.404459D+00  0.000000D+00  0.000000D+00
     12  0.000000D+00  0.000000D+00  0.000000D+00 -0.632062D+00  0.000000D+00
     13  0.000000D+00  0.000000D+00  0.000000D+00  0.000000D+00 -0.632062D+00
     14  0.368533D+01  0.367697D-05  0.379758D-03  0.000000D+00  0.000000D+00
     15 -0.242761D+01 -0.150568D+01 -0.282658D+01  0.000000D+00  0.000000D+00
     16  0.000000D+00  0.000000D+00  0.000000D+00 -0.180283D+00  0.000000D+00
     17  0.000000D+00  0.000000D+00  0.000000D+00  0.000000D+00 -0.180283D+00
     18  0.193042D+01  0.103354D-05  0.108572D-03  0.000000D+00  0.000000D+00
     19 -0.395028D+00 -0.523634D-05 -0.133745D-02  0.000000D+00  0.000000D+00
     20  0.000000D+00  0.000000D+00  0.000000D+00  0.767791D-02  0.000000D+00
     21  0.000000D+00  0.000000D+00  0.000000D+00  0.000000D+00  0.767791D-02
     22  0.000000D+00  0.000000D+00  0.000000D+00  0.000000D+00  0.000000D+00
     23  0.000000D+00  0.000000D+00  0.000000D+00  0.000000D+00  0.000000D+00
     24 -0.237936D+01  0.000000D+00 -0.146744D-03  0.000000D+00  0.000000D+00
     25  0.000000D+00  0.000000D+00  0.000000D+00  0.748180D-03  0.000000D+00
     26  0.000000D+00  0.000000D+00  0.000000D+00  0.000000D+00  0.748180D-03
     27  0.000000D+00  0.000000D+00  0.000000D+00  0.000000D+00  0.000000D+00
     28  0.000000D+00  0.000000D+00  0.000000D+00  0.000000D+00  0.000000D+00
                6             7             8             9            10 
      6 -0.585602D+02
      7  0.863324D-02 -0.252037D+02
      8  0.000000D+00  0.000000D+00 -0.228205D+02
      9  0.000000D+00  0.000000D+00  0.000000D+00 -0.228205D+02
     10 -0.162155D+02  0.559398D-01  0.000000D+00  0.000000D+00 -0.228435D+02
     11  0.292922D-03 -0.425376D+01  0.000000D+00  0.000000D+00  0.285554D-01
     12  0.000000D+00  0.000000D+00 -0.341477D+01  0.000000D+00  0.000000D+00
     13  0.000000D+00  0.000000D+00  0.000000D+00 -0.341477D+01  0.000000D+00
     14 -0.632137D+00  0.154843D-01  0.000000D+00  0.000000D+00 -0.342680D+01
     15  0.107363D-02 -0.470620D+01  0.000000D+00  0.000000D+00  0.210843D-01
     16  0.000000D+00  0.000000D+00 -0.108828D+01  0.000000D+00  0.000000D+00
     17  0.000000D+00  0.000000D+00  0.000000D+00 -0.108828D+01  0.000000D+00
     18 -0.180305D+00  0.511943D-02  0.000000D+00  0.000000D+00 -0.109250D+01
     19  0.916637D-02 -0.122088D-01  0.000000D+00  0.000000D+00  0.476411D-01
     20  0.000000D+00  0.000000D+00  0.364588D-01  0.000000D+00  0.000000D+00
     21  0.000000D+00  0.000000D+00  0.000000D+00  0.364588D-01  0.000000D+00
     22  0.000000D+00  0.000000D+00  0.000000D+00  0.000000D+00  0.000000D+00
     23  0.000000D+00  0.000000D+00  0.000000D+00  0.000000D+00  0.000000D+00
     24  0.908279D-03 -0.166621D-01  0.000000D+00  0.000000D+00  0.560089D-01
     25  0.000000D+00  0.000000D+00  0.356473D-01  0.000000D+00  0.000000D+00
     26  0.000000D+00  0.000000D+00  0.000000D+00  0.356473D-01  0.000000D+00
     27  0.000000D+00  0.000000D+00  0.000000D+00  0.000000D+00  0.000000D+00
     28  0.000000D+00  0.000000D+00  0.000000D+00  0.000000D+00  0.000000D+00
               11            12            13            14            15 
     11 -0.783230D+01
     12  0.000000D+00 -0.636986D+01
     13  0.000000D+00  0.000000D+00 -0.636986D+01
     14  0.115536D+00  0.000000D+00  0.000000D+00 -0.646356D+01
     15 -0.610937D+01  0.000000D+00  0.000000D+00  0.960107D-01 -0.589865D+01
     16  0.000000D+00 -0.391273D+01  0.000000D+00  0.000000D+00  0.000000D+00
     17  0.000000D+00  0.000000D+00 -0.391273D+01  0.000000D+00  0.000000D+00
     18  0.619569D-01  0.000000D+00  0.000000D+00 -0.396570D+01  0.659769D-01
     19 -0.377171D-02  0.000000D+00  0.000000D+00  0.802599D-02 -0.316392D-02
     20  0.000000D+00  0.571230D-02  0.000000D+00  0.000000D+00  0.000000D+00
     21  0.000000D+00  0.000000D+00  0.571230D-02  0.000000D+00  0.000000D+00
     22  0.000000D+00  0.000000D+00  0.000000D+00  0.000000D+00  0.000000D+00
     23  0.000000D+00  0.000000D+00  0.000000D+00  0.000000D+00  0.000000D+00
     24 -0.507918D-01  0.000000D+00  0.000000D+00  0.836842D-01 -0.327149D-01
     25  0.000000D+00  0.389462D-01  0.000000D+00  0.000000D+00  0.000000D+00
     26  0.000000D+00  0.000000D+00  0.389462D-01  0.000000D+00  0.000000D+00
     27  0.000000D+00  0.000000D+00  0.000000D+00  0.000000D+00  0.000000D+00
     28  0.000000D+00  0.000000D+00  0.000000D+00  0.000000D+00  0.000000D+00
               16            17            18            19            20 
     16 -0.390272D+01
     17  0.000000D+00 -0.390272D+01
     18  0.000000D+00  0.000000D+00 -0.394150D+01
     19  0.000000D+00  0.000000D+00  0.247953D-02 -0.214777D+02
     20  0.175503D-02  0.000000D+00  0.000000D+00  0.000000D+00 -0.214726D+02
     21  0.000000D+00  0.175503D-02  0.000000D+00  0.000000D+00  0.000000D+00
     22  0.000000D+00  0.000000D+00  0.000000D+00  0.000000D+00  0.000000D+00
     23  0.000000D+00  0.000000D+00  0.000000D+00  0.000000D+00  0.000000D+00
     24  0.000000D+00  0.000000D+00  0.331362D-01 -0.712608D+01  0.000000D+00
     25  0.149562D-01  0.000000D+00  0.000000D+00  0.000000D+00 -0.712150D+01
     26  0.000000D+00  0.149562D-01  0.000000D+00  0.000000D+00  0.000000D+00
     27  0.000000D+00  0.000000D+00  0.000000D+00  0.000000D+00  0.000000D+00
     28  0.000000D+00  0.000000D+00  0.000000D+00  0.000000D+00  0.000000D+00
               21            22            23            24            25 
     21 -0.214726D+02
     22  0.000000D+00 -0.214624D+02
     23  0.000000D+00  0.000000D+00 -0.214624D+02
     24  0.000000D+00  0.000000D+00  0.000000D+00 -0.109649D+02
     25  0.000000D+00  0.000000D+00  0.000000D+00  0.000000D+00 -0.109164D+02
     26 -0.712150D+01  0.000000D+00  0.000000D+00  0.000000D+00  0.000000D+00
     27  0.000000D+00 -0.711425D+01  0.000000D+00  0.000000D+00  0.000000D+00
     28  0.000000D+00  0.000000D+00 -0.711425D+01  0.000000D+00  0.000000D+00
               26            27            28 
     26 -0.109164D+02
     27  0.000000D+00 -0.108778D+02
     28  0.000000D+00  0.000000D+00 -0.108778D+02
 SVDSVc IOpt=   1 NormSV=T IR=1
 SVDSVc V= 2.35D+00 1.90D+00 1.42D+00 1.40D+00 1.36D+00 1.28D+00 9.46D-01 7.15D-01 6.71D-01 6.04D-01
 SVDSVc V= 5.58D-01 4.61D-01 1.98D-01 1.37D-01
 SVDSVc IOpt=   1 NormSV=T IR=2
 SVDSVc V= 1.40D+00 6.04D-01
 SVDSVc IOpt=   1 NormSV=T IR=3
 SVDSVc V= 1.80D+00 1.40D+00 1.28D+00 6.73D-01 6.04D-01 2.48D-01
 SVDSVc IOpt=   1 NormSV=T IR=4
 SVDSVc V= 1.80D+00 1.40D+00 1.28D+00 6.73D-01 6.04D-01 2.48D-01
 TstOVc:  Largest diagonal error= 3.00D-15 IB=1 I=   14.
 TstOVc:  Largest same sym error= 1.60D-15 IB=1 I=   14 J=   13.
 TstOVc:  Largest diff sym error= 0.00D+00 IB=0 JB=0 I=    0 J=    0.
 Orthogonalized basis functions: 
                 1             2             3             4             5 
      1   0.323047D+00 -0.950903D-01  0.108091D+00  0.000000D+00 -0.381100D-01
      2   0.131579D-01  0.314608D-01 -0.892110D-01  0.000000D+00  0.430344D+00
      3   0.536551D-01  0.952969D-01 -0.139881D+00  0.000000D+00  0.584716D+00
      4   0.000000D+00  0.000000D+00  0.000000D+00  0.000000D+00  0.000000D+00
      5   0.000000D+00  0.000000D+00  0.000000D+00  0.000000D+00  0.000000D+00
      6  -0.234019D-01  0.606558D-01  0.711936D-01  0.000000D+00 -0.366010D-01
      7   0.144317D+00  0.188044D+00 -0.108094D+00  0.000000D+00  0.321124D+00
      8   0.000000D+00  0.000000D+00  0.000000D+00  0.000000D+00  0.000000D+00
      9   0.000000D+00  0.000000D+00  0.000000D+00  0.000000D+00  0.000000D+00
     10  -0.816826D-01  0.150383D+00  0.904726D-01  0.000000D+00 -0.405356D-01
     11   0.305227D+00  0.300255D+00 -0.127839D-01  0.000000D+00 -0.173994D+00
     12   0.000000D+00  0.000000D+00  0.000000D+00  0.000000D+00  0.000000D+00
     13   0.000000D+00  0.000000D+00  0.000000D+00  0.000000D+00  0.000000D+00
     14  -0.249016D+00  0.374379D+00  0.898456D-01  0.000000D+00 -0.232652D-01
     15   0.293906D+00  0.303792D+00 -0.214664D-01  0.000000D+00 -0.157881D+00
     16   0.000000D+00  0.000000D+00  0.000000D+00  0.000000D+00  0.000000D+00
     17   0.000000D+00  0.000000D+00  0.000000D+00  0.000000D+00  0.000000D+00
     18  -0.210416D+00  0.348314D+00  0.975365D-01  0.000000D+00 -0.248778D-01
     19   0.247740D-01 -0.170324D-01  0.542062D+00  0.000000D+00  0.153224D+00
     20   0.000000D+00  0.000000D+00  0.000000D+00  0.000000D+00  0.000000D+00
     21   0.000000D+00  0.000000D+00  0.000000D+00  0.000000D+00  0.000000D+00
     22   0.000000D+00  0.000000D+00  0.000000D+00  0.598479D+00  0.000000D+00
     23   0.000000D+00  0.000000D+00  0.000000D+00  0.000000D+00  0.000000D+00
     24   0.666146D-01 -0.335732D-01  0.571868D+00  0.000000D+00  0.141872D+00
     25   0.000000D+00  0.000000D+00  0.000000D+00  0.000000D+00  0.000000D+00
     26   0.000000D+00  0.000000D+00  0.000000D+00  0.000000D+00  0.000000D+00
     27   0.000000D+00  0.000000D+00  0.000000D+00  0.598479D+00  0.000000D+00
     28   0.000000D+00  0.000000D+00  0.000000D+00  0.000000D+00  0.000000D+00
                 6             7             8             9            10 
      1   0.479021D-01  0.947227D-01 -0.587022D+00  0.123294D+00  0.000000D+00
      2   0.403200D-01  0.780839D+00  0.902210D-01 -0.180995D-01  0.000000D+00
      3   0.436753D-01 -0.139648D+00 -0.987305D-01  0.230699D-01  0.000000D+00
      4   0.000000D+00  0.000000D+00  0.000000D+00  0.000000D+00  0.000000D+00
      5   0.000000D+00  0.000000D+00  0.000000D+00  0.000000D+00  0.000000D+00
      6   0.630884D+00 -0.588805D-02 -0.178035D+00 -0.811037D+00  0.000000D+00
      7   0.894587D-02 -0.613363D+00  0.715044D-02 -0.757450D-02  0.000000D+00
      8   0.000000D+00  0.000000D+00  0.000000D+00  0.000000D+00  0.000000D+00
      9   0.000000D+00  0.000000D+00  0.000000D+00  0.000000D+00  0.000000D+00
     10   0.564337D+00  0.236955D-03  0.158326D+00  0.833756D+00  0.000000D+00
     11  -0.345016D-01  0.125189D+00  0.144880D+00 -0.274200D-01  0.000000D+00
     12   0.000000D+00  0.000000D+00  0.000000D+00  0.000000D+00  0.000000D+00
     13   0.000000D+00  0.000000D+00  0.000000D+00  0.000000D+00  0.000000D+00
     14  -0.111165D+00  0.330674D-01 -0.882420D-01  0.485615D-01  0.000000D+00
     15  -0.361143D-01  0.134249D+00  0.214571D+00 -0.428505D-01  0.000000D+00
     16   0.000000D+00  0.000000D+00  0.000000D+00  0.000000D+00  0.000000D+00
     17   0.000000D+00  0.000000D+00  0.000000D+00  0.000000D+00  0.000000D+00
     18  -0.188052D+00  0.624199D-01 -0.411220D+00 -0.170298D+00  0.000000D+00
     19  -0.650490D-01 -0.595053D-01  0.710790D+00 -0.230711D+00  0.000000D+00
     20   0.000000D+00  0.000000D+00  0.000000D+00  0.000000D+00  0.000000D+00
     21   0.000000D+00  0.000000D+00  0.000000D+00  0.000000D+00  0.000000D+00
     22   0.000000D+00  0.000000D+00  0.000000D+00  0.000000D+00  0.909812D+00
     23   0.000000D+00  0.000000D+00  0.000000D+00  0.000000D+00  0.000000D+00
     24  -0.491416D-01  0.290672D-02 -0.479102D+00  0.185028D+00  0.000000D+00
     25   0.000000D+00  0.000000D+00  0.000000D+00  0.000000D+00  0.000000D+00
     26   0.000000D+00  0.000000D+00  0.000000D+00  0.000000D+00  0.000000D+00
     27   0.000000D+00  0.000000D+00  0.000000D+00  0.000000D+00 -0.909812D+00
     28   0.000000D+00  0.000000D+00  0.000000D+00  0.000000D+00  0.000000D+00
                11            12            13            14            15 
      1   0.439985D-01  0.833623D+00  0.687272D+00 -0.513170D+00  0.000000D+00
      2  -0.516278D+00  0.274683D-01 -0.708972D-02 -0.247466D-01  0.000000D+00
      3   0.898545D+00 -0.585935D-01  0.322212D-01  0.128643D+00  0.000000D+00
      4   0.000000D+00  0.000000D+00  0.000000D+00  0.000000D+00  0.000000D+00
      5   0.000000D+00  0.000000D+00  0.000000D+00  0.000000D+00  0.000000D+00
      6  -0.843470D-02 -0.114687D+00  0.934681D-01 -0.210922D-01  0.000000D+00
      7  -0.809812D+00  0.822725D-01 -0.247760D-01 -0.108016D+00  0.000000D+00
      8   0.000000D+00  0.000000D+00  0.000000D+00  0.000000D+00  0.000000D+00
      9   0.000000D+00  0.000000D+00  0.000000D+00  0.000000D+00  0.000000D+00
     10   0.118957D-01  0.202328D+00 -0.273607D+00  0.697282D-01  0.000000D+00
     11   0.659289D-01 -0.117422D+00  0.354137D+00  0.191518D+01  0.000000D+00
     12   0.000000D+00  0.000000D+00  0.000000D+00  0.000000D+00  0.000000D+00
     13   0.000000D+00  0.000000D+00  0.000000D+00  0.000000D+00  0.000000D+00
     14   0.448021D-03 -0.137914D+00  0.157905D+01 -0.595483D+00  0.000000D+00
     15   0.179353D+00 -0.324896D+00 -0.636129D+00 -0.168099D+01  0.000000D+00
     16   0.000000D+00  0.000000D+00  0.000000D+00  0.000000D+00  0.000000D+00
     17   0.000000D+00  0.000000D+00  0.000000D+00  0.000000D+00  0.000000D+00
     18   0.264540D-01  0.613518D+00 -0.117326D+01  0.327902D+00  0.000000D+00
     19   0.100556D+00  0.537973D+00  0.113960D+00 -0.692070D-01  0.000000D+00
     20   0.000000D+00  0.000000D+00  0.000000D+00  0.000000D+00  0.000000D+00
     21   0.000000D+00  0.000000D+00  0.000000D+00  0.000000D+00  0.000000D+00
     22   0.000000D+00  0.000000D+00  0.000000D+00  0.000000D+00  0.000000D+00
     23   0.000000D+00  0.000000D+00  0.000000D+00  0.000000D+00  0.598479D+00
     24  -0.114660D+00 -0.777521D+00 -0.268118D+00  0.178723D+00  0.000000D+00
     25   0.000000D+00  0.000000D+00  0.000000D+00  0.000000D+00  0.000000D+00
     26   0.000000D+00  0.000000D+00  0.000000D+00  0.000000D+00  0.000000D+00
     27   0.000000D+00  0.000000D+00  0.000000D+00  0.000000D+00  0.000000D+00
     28   0.000000D+00  0.000000D+00  0.000000D+00  0.000000D+00  0.598479D+00
                16            17            18            19            20 
      1   0.000000D+00  0.000000D+00  0.000000D+00  0.000000D+00  0.000000D+00
      2   0.000000D+00  0.000000D+00  0.000000D+00  0.000000D+00  0.000000D+00
      3   0.000000D+00  0.000000D+00  0.000000D+00  0.000000D+00  0.000000D+00
      4   0.000000D+00  0.989007D-01  0.000000D+00  0.631613D+00 -0.834101D+00
      5   0.000000D+00  0.000000D+00  0.000000D+00  0.000000D+00  0.000000D+00
      6   0.000000D+00  0.000000D+00  0.000000D+00  0.000000D+00  0.000000D+00
      7   0.000000D+00  0.000000D+00  0.000000D+00  0.000000D+00  0.000000D+00
      8   0.000000D+00  0.221260D+00  0.000000D+00  0.556385D+00  0.851114D+00
      9   0.000000D+00  0.000000D+00  0.000000D+00  0.000000D+00  0.000000D+00
     10   0.000000D+00  0.000000D+00  0.000000D+00  0.000000D+00  0.000000D+00
     11   0.000000D+00  0.000000D+00  0.000000D+00  0.000000D+00  0.000000D+00
     12   0.000000D+00  0.509061D+00  0.000000D+00 -0.144130D+00  0.341821D-01
     13   0.000000D+00  0.000000D+00  0.000000D+00  0.000000D+00  0.000000D+00
     14   0.000000D+00  0.000000D+00  0.000000D+00  0.000000D+00  0.000000D+00
     15   0.000000D+00  0.000000D+00  0.000000D+00  0.000000D+00  0.000000D+00
     16   0.000000D+00  0.487367D+00  0.000000D+00 -0.230220D+00 -0.252838D+00
     17   0.000000D+00  0.000000D+00  0.000000D+00  0.000000D+00  0.000000D+00
     18   0.000000D+00  0.000000D+00  0.000000D+00  0.000000D+00  0.000000D+00
     19   0.000000D+00  0.000000D+00  0.000000D+00  0.000000D+00  0.000000D+00
     20   0.000000D+00  0.000000D+00  0.598479D+00  0.000000D+00  0.000000D+00
     21   0.000000D+00  0.000000D+00  0.000000D+00  0.000000D+00  0.000000D+00
     22   0.000000D+00  0.000000D+00  0.000000D+00  0.000000D+00  0.000000D+00
     23   0.909812D+00  0.000000D+00  0.000000D+00  0.000000D+00  0.000000D+00
     24   0.000000D+00  0.000000D+00  0.000000D+00  0.000000D+00  0.000000D+00
     25   0.000000D+00  0.000000D+00  0.598479D+00  0.000000D+00  0.000000D+00
     26   0.000000D+00  0.000000D+00  0.000000D+00  0.000000D+00  0.000000D+00
     27   0.000000D+00  0.000000D+00  0.000000D+00  0.000000D+00  0.000000D+00
     28  -0.909812D+00  0.000000D+00  0.000000D+00  0.000000D+00  0.000000D+00
                21            22            23            24            25 
      1   0.000000D+00  0.000000D+00  0.000000D+00  0.000000D+00  0.000000D+00
      2   0.000000D+00  0.000000D+00  0.000000D+00  0.000000D+00  0.000000D+00
      3   0.000000D+00  0.000000D+00  0.000000D+00  0.000000D+00  0.000000D+00
      4   0.000000D+00  0.126826D+00  0.000000D+00  0.000000D+00  0.000000D+00
      5   0.000000D+00  0.000000D+00  0.989007D-01  0.000000D+00  0.631613D+00
      6   0.000000D+00  0.000000D+00  0.000000D+00  0.000000D+00  0.000000D+00
      7   0.000000D+00  0.000000D+00  0.000000D+00  0.000000D+00  0.000000D+00
      8   0.000000D+00 -0.338446D+00  0.000000D+00  0.000000D+00  0.000000D+00
      9   0.000000D+00  0.000000D+00  0.221260D+00  0.000000D+00  0.556385D+00
     10   0.000000D+00  0.000000D+00  0.000000D+00  0.000000D+00  0.000000D+00
     11   0.000000D+00  0.000000D+00  0.000000D+00  0.000000D+00  0.000000D+00
     12   0.000000D+00  0.142883D+01  0.000000D+00  0.000000D+00  0.000000D+00
     13   0.000000D+00  0.000000D+00  0.509061D+00  0.000000D+00 -0.144130D+00
     14   0.000000D+00  0.000000D+00  0.000000D+00  0.000000D+00  0.000000D+00
     15   0.000000D+00  0.000000D+00  0.000000D+00  0.000000D+00  0.000000D+00
     16   0.000000D+00 -0.136452D+01  0.000000D+00  0.000000D+00  0.000000D+00
     17   0.000000D+00  0.000000D+00  0.487367D+00  0.000000D+00 -0.230220D+00
     18   0.000000D+00  0.000000D+00  0.000000D+00  0.000000D+00  0.000000D+00
     19   0.000000D+00  0.000000D+00  0.000000D+00  0.000000D+00  0.000000D+00
     20   0.909812D+00  0.000000D+00  0.000000D+00  0.000000D+00  0.000000D+00
     21   0.000000D+00  0.000000D+00  0.000000D+00  0.598479D+00  0.000000D+00
     22   0.000000D+00  0.000000D+00  0.000000D+00  0.000000D+00  0.000000D+00
     23   0.000000D+00  0.000000D+00  0.000000D+00  0.000000D+00  0.000000D+00
     24   0.000000D+00  0.000000D+00  0.000000D+00  0.000000D+00  0.000000D+00
     25  -0.909812D+00  0.000000D+00  0.000000D+00  0.000000D+00  0.000000D+00
     26   0.000000D+00  0.000000D+00  0.000000D+00  0.598479D+00  0.000000D+00
     27   0.000000D+00  0.000000D+00  0.000000D+00  0.000000D+00  0.000000D+00
     28   0.000000D+00  0.000000D+00  0.000000D+00  0.000000D+00  0.000000D+00
                26            27            28 
      1   0.000000D+00  0.000000D+00  0.000000D+00
      2   0.000000D+00  0.000000D+00  0.000000D+00
      3   0.000000D+00  0.000000D+00  0.000000D+00
      4   0.000000D+00  0.000000D+00  0.000000D+00
      5  -0.834101D+00  0.000000D+00  0.126826D+00
      6   0.000000D+00  0.000000D+00  0.000000D+00
      7   0.000000D+00  0.000000D+00  0.000000D+00
      8   0.000000D+00  0.000000D+00  0.000000D+00
      9   0.851114D+00  0.000000D+00 -0.338446D+00
     10   0.000000D+00  0.000000D+00  0.000000D+00
     11   0.000000D+00  0.000000D+00  0.000000D+00
     12   0.000000D+00  0.000000D+00  0.000000D+00
     13   0.341821D-01  0.000000D+00  0.142883D+01
     14   0.000000D+00  0.000000D+00  0.000000D+00
     15   0.000000D+00  0.000000D+00  0.000000D+00
     16   0.000000D+00  0.000000D+00  0.000000D+00
     17  -0.252838D+00  0.000000D+00 -0.136452D+01
     18   0.000000D+00  0.000000D+00  0.000000D+00
     19   0.000000D+00  0.000000D+00  0.000000D+00
     20   0.000000D+00  0.000000D+00  0.000000D+00
     21   0.000000D+00  0.909812D+00  0.000000D+00
     22   0.000000D+00  0.000000D+00  0.000000D+00
     23   0.000000D+00  0.000000D+00  0.000000D+00
     24   0.000000D+00  0.000000D+00  0.000000D+00
     25   0.000000D+00  0.000000D+00  0.000000D+00
     26   0.000000D+00 -0.909812D+00  0.000000D+00
     27   0.000000D+00  0.000000D+00  0.000000D+00
     28   0.000000D+00  0.000000D+00  0.000000D+00
 NBasis=    28 RedAO= T EigKep=  1.37D-01  NBF=    14     2     6     6
 NBsUse=    28 1.00D-06 EigRej= -1.00D+00 NBFU=    14     2     6     6
 Leave Link  302 at Fri Mar 25 15:00:32 2022, MaxMem=  9663676416 cpu:               4.0 elap:               0.1
 (Enter /nopt/nrel/apps/gaussian/g16C_1/g16/l303.exe)
 DipDrv will not compute anything.
 Fermi contact integrals: 
                 1             2 
      1   0.628247D+00  0.150405D-01
      2   0.000000D+00  0.499382D+02
      3   0.000000D+00  0.100937D+01
      4   0.000000D+00  0.000000D+00
      5   0.000000D+00  0.000000D+00
      6   0.000000D+00  0.000000D+00
      7   0.559091D-03  0.218861D-01
      8   0.000000D+00  0.000000D+00
      9   0.000000D+00  0.000000D+00
     10  -0.213583D-02  0.000000D+00
     11   0.515290D-01 -0.359953D-02
     12   0.000000D+00  0.000000D+00
     13   0.000000D+00  0.000000D+00
     14  -0.818598D-01  0.000000D+00
     15   0.356341D-01  0.468609D-01
     16   0.000000D+00  0.000000D+00
     17   0.000000D+00  0.000000D+00
     18  -0.372972D-01  0.000000D+00
     19   0.000000D+00  0.000000D+00
     20   0.000000D+00  0.000000D+00
     21   0.000000D+00  0.000000D+00
     22   0.000000D+00  0.000000D+00
     23   0.000000D+00  0.000000D+00
     24   0.505765D-01  0.000000D+00
     25   0.000000D+00  0.000000D+00
     26   0.000000D+00  0.000000D+00
     27   0.000000D+00  0.000000D+00
     28   0.000000D+00  0.000000D+00
 Leave Link  303 at Fri Mar 25 15:00:32 2022, MaxMem=  9663676416 cpu:               0.8 elap:               0.0
 (Enter /nopt/nrel/apps/gaussian/g16C_1/g16/l401.exe)
 ExpMin= 2.65D-02 ExpMax= 2.34D+03 ExpMxC= 2.34D+03 IAcc=3 IRadAn=         5 AccDes= 0.00D+00
 Harris functional with IExCor=  205 and IRadAn=       5 diagonalized for initial guess.
 HarFok:  IExCor=  205 AccDes= 0.00D+00 IRadAn=         5 IDoV= 1 UseB2=F ITyADJ=14
 ICtDFT=  3500011 ScaDFX=  1.000000  1.000000  1.000000  1.000000
 FoFCou: FMM=F IPFlag=           0 FMFlag=      100000 FMFlg1=           0
         NFxFlg=           0 DoJE=T BraDBF=F KetDBF=T FulRan=T
         wScrn=  0.000000 ICntrl=       500 IOpCl=  0 I1Cent=   200000004 NGrid=           0
         NMat0=    1 NMatS0=      1 NMatT0=    0 NMatD0=    1 NMtDS0=    0 NMtDT0=    0
 Petite list used in FoFCou.
 Harris En= -844.084738359053    
 JPrj=0 DoOrth=F DoCkMO=F.
 Initial guess orbital symmetries:
 Alpha Orbitals:
       Occupied  (SG) (SG) (SG) (PI) (PI) (SG) (SG) (PI) (PI) (SG)
                 (SG) (PI) (PI)
       Virtual   (DLTA) (DLTA) (SG) (PI) (PI) (SG) (SG) (PI) (PI)
                 (SG) (PI) (PI) (DLTA) (DLTA) (SG)
 Beta  Orbitals:
       Occupied  (SG) (SG) (SG) (PI) (PI) (SG) (SG) (PI) (PI) (SG)
       Virtual   (SG) (PI) (PI) (DLTA) (DLTA) (SG) (PI) (PI) (SG)
                 (SG) (PI) (PI) (SG) (PI) (PI) (DLTA) (DLTA) (SG)
 The electronic state of the initial guess is 4-SG.
 Initial guess <Sx>= 0.0000 <Sy>= 0.0000 <Sz>= 1.5000 <S**2>= 3.7500 S= 1.5000
 Leave Link  401 at Fri Mar 25 15:00:32 2022, MaxMem=  9663676416 cpu:               3.9 elap:               0.1
 (Enter /nopt/nrel/apps/gaussian/g16C_1/g16/l502.exe)
 Keep R1 and R2 ints in memory in symmetry-blocked form, NReq=7478675.
 FoFCou: FMM=F IPFlag=           0 FMFlag=           0 FMFlg1=           0
         NFxFlg=           0 DoJE=F BraDBF=F KetDBF=F FulRan=T
         wScrn=  0.000000 ICntrl=       600 IOpCl=  0 I1Cent=           0 NGrid=           0
         NMat0=    1 NMatS0=    406 NMatT0=    0 NMatD0=    1 NMtDS0=    0 NMtDT0=    0
 Petite list used in FoFCou.
 UHF open shell SCF:
 Using DIIS extrapolation, IDIIS=  1040.
 NGot=  9663676416 LenX=  9663625622 LenY=  9663624281
 Requested convergence on RMS density matrix=1.00D-08 within 128 cycles.
 Requested convergence on MAX density matrix=1.00D-06.
 Requested convergence on             energy=1.00D-06.
 No special actions if energy rises.

 Cycle   1  Pass 1  IDiag  1:
 E= -844.667933877555    
 DIIS: error= 3.50D-02 at cycle   1 NSaved=   1.
 NSaved= 1 IEnMin= 1 EnMin= -844.667933877555     IErMin= 1 ErrMin= 3.50D-02
 ErrMax= 3.50D-02  0.00D+00 EMaxC= 1.00D-01 BMatC= 8.93D-02 BMatP= 8.93D-02
 IDIUse=3 WtCom= 6.50D-01 WtEn= 3.50D-01
 Coeff-Com:  0.100D+01
 Coeff-En:   0.100D+01
 Coeff:      0.100D+01
 Gap=     0.221 Goal=   None    Shift=    0.000
 Gap=     0.404 Goal=   None    Shift=    0.000
 GapD=    0.221 DampG=1.000 DampE=0.250 DampFc=0.2500 IDamp=-1.
 Damping current iteration by 2.50D-01
 RMSDP=1.16D-02 MaxDP=1.53D-01              OVMax= 1.14D-01

 Cycle   2  Pass 1  IDiag  1:
 E= -844.679136135198     Delta-E=       -0.011202257642 Rises=F Damp=T
 DIIS: error= 2.84D-02 at cycle   2 NSaved=   2.
 NSaved= 2 IEnMin= 2 EnMin= -844.679136135198     IErMin= 2 ErrMin= 2.84D-02
 ErrMax= 2.84D-02  0.00D+00 EMaxC= 1.00D-01 BMatC= 5.47D-02 BMatP= 8.93D-02
 IDIUse=3 WtCom= 7.16D-01 WtEn= 2.84D-01
 Coeff-Com: -0.299D+01 0.399D+01
 Coeff-En:   0.000D+00 0.100D+01
 Coeff:     -0.214D+01 0.314D+01
 Gap=     0.221 Goal=   None    Shift=    0.000
 Gap=     0.324 Goal=   None    Shift=    0.000
 RMSDP=1.12D-02 MaxDP=1.39D-01 DE=-1.12D-02 OVMax= 1.30D-02

 Cycle   3  Pass 1  IDiag  1:
 E= -844.733772719657     Delta-E=       -0.054636584460 Rises=F Damp=F
 DIIS: error= 1.30D-02 at cycle   3 NSaved=   3.
 NSaved= 3 IEnMin= 3 EnMin= -844.733772719657     IErMin= 3 ErrMin= 1.30D-02
 ErrMax= 1.30D-02  0.00D+00 EMaxC= 1.00D-01 BMatC= 4.57D-03 BMatP= 5.47D-02
 IDIUse=3 WtCom= 8.70D-01 WtEn= 1.30D-01
 Coeff-Com:  0.298D+01-0.393D+01 0.195D+01
 Coeff-En:   0.000D+00 0.000D+00 0.100D+01
 Coeff:      0.259D+01-0.342D+01 0.183D+01
 Gap=     0.227 Goal=   None    Shift=    0.000
 Gap=     0.359 Goal=   None    Shift=    0.000
 RMSDP=4.46D-03 MaxDP=5.95D-02 DE=-5.46D-02 OVMax= 6.58D-03

 Cycle   4  Pass 1  IDiag  1:
 E= -844.743262825839     Delta-E=       -0.009490106182 Rises=F Damp=F
 DIIS: error= 6.55D-03 at cycle   4 NSaved=   4.
[...]
 RMSDP=1.36D-08 MaxDP=1.91D-07 DE=-1.48D-12 OVMax= 1.27D-07

 Cycle  16  Pass 1  IDiag  1:
 E= -844.746080991909     Delta-E=       -0.000000000000 Rises=F Damp=F
 DIIS: error= 2.92D-09 at cycle  16 NSaved=  16.
 NSaved=16 IEnMin=16 EnMin= -844.746080991909     IErMin=16 ErrMin= 2.92D-09
 ErrMax= 2.92D-09  0.00D+00 EMaxC= 1.00D-01 BMatC= 4.14D-16 BMatP= 2.11D-14
 IDIUse=1 WtCom= 1.00D+00 WtEn= 0.00D+00
 Large coefficients: NSaved= 16 BigCof=    0.00 CofMax=   10.00 Det=-7.19D-16
 Inversion failed.  Reducing to 15 matrices.
 Coeff-Com:  0.412D-08-0.950D-06 0.403D-05-0.731D-05-0.166D-04 0.120D-03
 Coeff-Com: -0.562D-04-0.635D-03 0.348D-02-0.771D-02 0.146D-01-0.398D-01
 Coeff-Com:  0.134D+00-0.355D+00 0.125D+01
 Coeff:      0.412D-08-0.950D-06 0.403D-05-0.731D-05-0.166D-04 0.120D-03
 Coeff:     -0.562D-04-0.635D-03 0.348D-02-0.771D-02 0.146D-01-0.398D-01
 Coeff:      0.134D+00-0.355D+00 0.125D+01
 Gap=     0.236 Goal=   None    Shift=    0.000
 Gap=     0.371 Goal=   None    Shift=    0.000
 RMSDP=2.01D-09 MaxDP=2.04D-08 DE=-2.27D-13 OVMax= 2.06D-08

 SCF Done:  E(UHF) =  -844.746080992     A.U. after   16 cycles
            NFock= 16  Conv=0.20D-08     -V/T= 1.9996
 <Sx>= 0.0000 <Sy>= 0.0000 <Sz>= 1.5000 <S**2>= 3.7567 S= 1.5017
 <L.S>= 0.000000000000E+00
 KE= 8.450650135066D+02 PE=-2.017976741832D+03 EE= 3.213174716631D+02
 Annihilation of the first spin contaminant:
 S**2 before annihilation     3.7567,   after     3.7500
 Leave Link  502 at Fri Mar 25 15:00:33 2022, MaxMem=  9663676416 cpu:               5.7 elap:               0.2
 (Enter /nopt/nrel/apps/gaussian/g16C_1/g16/l801.exe)
 Windowed orbitals will be sorted by symmetry type.
 ExpMin= 2.65D-02 ExpMax= 2.34D+03 ExpMxC= 2.34D+03 IAcc=3 IRadAn=         5 AccDes= 0.00D+00
 HarFok:  IExCor=  205 AccDes= 0.00D+00 IRadAn=         5 IDoV=-2 UseB2=F ITyADJ=14
 ICtDFT= 12500011 ScaDFX=  1.000000  1.000000  1.000000  1.000000
 Largest valence mixing into a core orbital is  6.12D-04
 Largest core mixing into a valence orbital is  3.33D-04
 Largest valence mixing into a core orbital is  9.24D-04
 Largest core mixing into a valence orbital is  5.84D-04
 Range of M.O.s used for correlation:    10    28
 NBasis=    28 NAE=    13 NBE=    10 NFC=     9 NFV=     0
 NROrb=     19 NOA=     4 NOB=     1 NVA=    15 NVB=    18
 Leave Link  801 at Fri Mar 25 15:00:33 2022, MaxMem=  9663676416 cpu:               2.7 elap:               0.1
 (Enter /nopt/nrel/apps/gaussian/g16C_1/g16/l804.exe)
 Open-shell transformation, MDV=  9663676416 ITran=4 ISComp=2.
 Unit  1 TFree=         51647 TCopy=        127946.
 Semi-Direct transformation.
 ModeAB=           2 MOrb=             4 LenV=    9663496168
 LASXX=         2807 LTotXX=        2807 LenRXX=        2807
 LTotAB=        3570 MaxLAS=       35340 LenRXY=       35340
 NonZer=       39444 LenScr=      785920 LnRSAI=           0
 LnScr1=           0 LExtra=      233133 Total=      1057200
 MaxDsk= 34359738368 SrtSym=           F ITran=            4
 DoSDTr:  NPSUse= 36
 JobTyp=1 Pass  1:  I=   1 to   4.
 (rs|ai) integrals will be sorted in core.
 Complete sort for first half transformation.
 First half transformation complete.
 Complete sort for second half transformation.
 Second half transformation complete.
 ModeAB=           2 MOrb=             1 LenV=    9663496168
 LASXX=          812 LTotXX=         812 LenRXX=        8835
 LTotAB=         649 MaxLAS=        8835 LenRXY=         649
 NonZer=        9861 LenScr=      785920 LnRSAI=           0
 LnScr1=           0 LExtra=      271280 Total=      1066684
 MaxDsk= 34359738368 SrtSym=           F ITran=            4
 DoSDTr:  NPSUse= 36
 JobTyp=2 Pass  1:  I=   1 to   1.
 (rs|ai) integrals will be sorted in core.
 Complete sort for first half transformation.
 First half transformation complete.
 Complete sort for second half transformation.
 Second half transformation complete.
 Spin components of T(2) and E(2):
     alpha-alpha T2 =       0.1735096787D-02 E2=     -0.4362471273D-02
     alpha-beta  T2 =       0.1023289308D-01 E2=     -0.1430012120D-01
     beta-beta   T2 =       0.0000000000D+00 E2=      0.0000000000D+00
 ANorm=    0.1005966197D+01
 E2 =    -0.1866259248D-01 EUMP2 =    -0.84476474358439D+03
 (S**2,0)=  0.37567D+01           (S**2,1)=  0.37537D+01
 E(PUHF)=      -0.84474635345D+03        E(PMP2)=      -0.84476495561D+03
 Leave Link  804 at Fri Mar 25 15:00:33 2022, MaxMem=  9663676416 cpu:               7.0 elap:               0.2
 (Enter /nopt/nrel/apps/gaussian/g16C_1/g16/l913.exe)
 CIDS:  MDV=  9663676416.
 Frozen-core window:  NFC=   9 NFV=   0.
 IFCWin=0 IBDFC=1 NFBD=     0     0 NFCmp=     0     0 NFFFC=     0     0
 Using original routines for 1st iteration.
 Using DD4UQ or CC4UQ for 2nd and later iterations.
 Keep R2 and R3 ints in memory in symmetry-blocked form, NReq=7481249.
 FoFCou: FMM=F IPFlag=           0 FMFlag=           0 FMFlg1=           0
         NFxFlg=           0 DoJE=F BraDBF=F KetDBF=F FulRan=T
         wScrn=  0.000000 ICntrl=       600 IOpCl=  0 I1Cent=           0 NGrid=           0
         NMat0=    1 NMatS0=    406 NMatT0=    0 NMatD0=    1 NMtDS0=    0 NMtDT0=    0
 Petite list used in FoFCou.
 CIDS: In Core Option IDoMem=           1.
 Coupled Cluster theory with single and double substitutions
 ===========================================================
 Iterations= 200 Convergence= 0.100D-06
 Produce multiple copies of IABC intergrals
 Iteration Nr.   1
 **********************
 DD1Dir will call FoFMem   1 times, MxPair=        14
 NAB=     4 NAA=     6 NBB=     0.
 E(PMP3)=      -0.84477118346D+03
 MP4(R+Q)=  0.17189578D-03
 Maximum subspace dimension=  5
 A-vector RMS=  6.9492448D-03 Max=  1.8854702D-02 conv= 1.00D-05.
 RLE energy=       -0.0277307195
 E3=       -0.62793852D-02        EUMP3=      -0.84477102297D+03
 E4(DQ)=   -0.24481816D-02        UMP4(DQ)=   -0.84477347115D+03
 E4(SDQ)=  -0.26503022D-02        UMP4(SDQ)=  -0.84477367327D+03
 VARIATIONAL ENERGIES WITH THE FIRST-ORDER WAVEFUNCTION:
 DE(Corr)= -0.24765384E-01 E(Corr)=     -844.77084638    
 NORM(A)=   0.10148153D+01
 Iteration Nr.   2
 **********************
 DD1Dir will call FoFMem   1 times, MxPair=        14
 NAB=     4 NAA=     6 NBB=     0.
 A-vector RMS=  4.0261368D-03 Max=  1.8037518D-02 conv= 1.00D-05.
 RLE energy=       -0.0303662710
 DE(Corr)= -0.28631991E-01 E(CORR)=     -844.77471298     Delta=-3.87D-03
 NORM(A)=   0.10214672D+01
 Iteration Nr.   3
 **********************
 DD1Dir will call FoFMem   1 times, MxPair=        14
 NAB=     4 NAA=     6 NBB=     0.
 A-vector RMS=  2.0097431D-03 Max=  1.7070282D-02 conv= 1.00D-05.
 RLE energy=       -0.0340167577
 DE(Corr)= -0.30444497E-01 E(CORR)=     -844.77652549     Delta=-1.81D-03
 NORM(A)=   0.10457003D+01
 Iteration Nr.   4
 **********************
 DD1Dir will call FoFMem   1 times, MxPair=        14
 NAB=     4 NAA=     6 NBB=     0.
 A-vector RMS=  3.3846604D-03 Max=  1.3706574D-02 conv= 1.00D-05.
 RLE energy=       -0.0383479698
 DE(Corr)= -0.34049864E-01 E(CORR)=     -844.78013086     Delta=-3.61D-03
 NORM(A)=   0.10991673D+01
 Iteration Nr.   5
 **********************
 DD1Dir will call FoFMem   1 times, MxPair=        14
 NAB=     4 NAA=     6 NBB=     0.
 A-vector RMS=  4.4339734D-03 Max=  9.8545018D-03 conv= 1.00D-05.
 RLE energy=       -0.0399920450
 DE(Corr)= -0.38221354E-01 E(CORR)=     -844.78430235     Delta=-4.17D-03
 NORM(A)=   0.11369241D+01
 Iteration Nr.   6
 **********************
 DD1Dir will call FoFMem   1 times, MxPair=        14
 NAB=     4 NAA=     6 NBB=     0.
 A-vector RMS=  2.8277691D-03 Max=  5.0871647D-03 conv= 1.00D-05.
 RLE energy=       -0.0414623370
 DE(Corr)= -0.40079434E-01 E(CORR)=     -844.78616043     Delta=-1.86D-03
 NORM(A)=   0.11658363D+01
 Iteration Nr.   7
 **********************
 DD1Dir will call FoFMem   1 times, MxPair=        14
 NAB=     4 NAA=     6 NBB=     0.
 A-vector RMS=  1.3172461D-03 Max=  2.6641426D-03 conv= 1.00D-05.
 RLE energy=       -0.0413482466
 DE(Corr)= -0.41399105E-01 E(CORR)=     -844.78748010     Delta=-1.32D-03
 NORM(A)=   0.11665860D+01
 Iteration Nr.   8
 **********************
 DD1Dir will call FoFMem   1 times, MxPair=        14
 NAB=     4 NAA=     6 NBB=     0.
 A-vector RMS=  5.1631893D-04 Max=  1.4222395D-03 conv= 1.00D-05.
 RLE energy=       -0.0416988857
 DE(Corr)= -0.41361312E-01 E(CORR)=     -844.78744230     Delta= 3.78D-05
 NORM(A)=   0.11744602D+01
 Iteration Nr.   9
 **********************
 DD1Dir will call FoFMem   1 times, MxPair=        14
 NAB=     4 NAA=     6 NBB=     0.
 A-vector RMS=  3.8259415D-04 Max=  1.0195625D-03 conv= 1.00D-05.
 RLE energy=       -0.0415694236
 DE(Corr)= -0.41689128E-01 E(CORR)=     -844.78777012     Delta=-3.28D-04
 NORM(A)=   0.11727422D+01
 Iteration Nr.  10
 **********************
 DD1Dir will call FoFMem   1 times, MxPair=        14
 NAB=     4 NAA=     6 NBB=     0.
 A-vector RMS=  2.8986501D-04 Max=  6.4275010D-04 conv= 1.00D-05.
 RLE energy=       -0.0416237781
 DE(Corr)= -0.41601047E-01 E(CORR)=     -844.78768204     Delta= 8.81D-05
 NORM(A)=   0.11732567D+01
 Iteration Nr.  11
 **********************
 DD1Dir will call FoFMem   1 times, MxPair=        14
 NAB=     4 NAA=     6 NBB=     0.
 A-vector RMS=  1.5226988D-04 Max=  3.2911122D-04 conv= 1.00D-05.
 RLE energy=       -0.0415700863
 DE(Corr)= -0.41618098E-01 E(CORR)=     -844.78769909     Delta=-1.71D-05
 NORM(A)=   0.11723522D+01
 Iteration Nr.  12
 **********************
 DD1Dir will call FoFMem   1 times, MxPair=        14
 NAB=     4 NAA=     6 NBB=     0.
 A-vector RMS=  1.0106048D-04 Max=  2.3590240D-04 conv= 1.00D-05.
 RLE energy=       -0.0415709368
 DE(Corr)= -0.41569864E-01 E(CORR)=     -844.78765086     Delta= 4.82D-05
 NORM(A)=   0.11722720D+01
 Iteration Nr.  13
 **********************
 DD1Dir will call FoFMem   1 times, MxPair=        14
 NAB=     4 NAA=     6 NBB=     0.
 A-vector RMS=  5.5496634D-05 Max=  1.3265225D-04 conv= 1.00D-05.
 RLE energy=       -0.0415704637
 DE(Corr)= -0.41565608E-01 E(CORR)=     -844.78764660     Delta= 4.26D-06
 NORM(A)=   0.11723760D+01
 Iteration Nr.  14
 **********************
 DD1Dir will call FoFMem   1 times, MxPair=        14
 NAB=     4 NAA=     6 NBB=     0.
 A-vector RMS=  3.3951386D-05 Max=  7.3901767D-05 conv= 1.00D-05.
 RLE energy=       -0.0415820849
 DE(Corr)= -0.41570455E-01 E(CORR)=     -844.78765145     Delta=-4.85D-06
 NORM(A)=   0.11725444D+01
 Iteration Nr.  15
 **********************
 DD1Dir will call FoFMem   1 times, MxPair=        14
 NAB=     4 NAA=     6 NBB=     0.
 A-vector RMS=  1.5843262D-05 Max=  2.6802235D-05 conv= 1.00D-05.
 RLE energy=       -0.0415776023
 DE(Corr)= -0.41580817E-01 E(CORR)=     -844.78766181     Delta=-1.04D-05
 NORM(A)=   0.11724872D+01
 Iteration Nr.  16
 **********************
 DD1Dir will call FoFMem   1 times, MxPair=        14
 NAB=     4 NAA=     6 NBB=     0.
 A-vector RMS=  9.3063781D-06 Max=  2.1288215D-05 conv= 1.00D-05.
 RLE energy=       -0.0415776207
 DE(Corr)= -0.41578034E-01 E(CORR)=     -844.78765903     Delta= 2.78D-06
 NORM(A)=   0.11724713D+01
 Iteration Nr.  17
 **********************
 DD1Dir will call FoFMem   1 times, MxPair=        14
 NAB=     4 NAA=     6 NBB=     0.
 A-vector RMS=  6.7488681D-06 Max=  1.3683931D-05 conv= 1.00D-05.
 RLE energy=       -0.0415770275
 DE(Corr)= -0.41577504E-01 E(CORR)=     -844.78765850     Delta= 5.30D-07
 NORM(A)=   0.11724595D+01
 Iteration Nr.  18
 **********************
 DD1Dir will call FoFMem   1 times, MxPair=        14
 NAB=     4 NAA=     6 NBB=     0.
 A-vector RMS=  3.5526458D-06 Max=  9.1178135D-06 conv= 1.00D-05.
 RLE energy=       -0.0415774972
 DE(Corr)= -0.41577017E-01 E(CORR)=     -844.78765801     Delta= 4.88D-07
 NORM(A)=   0.11724669D+01
 Iteration Nr.  19
 **********************
 DD1Dir will call FoFMem   1 times, MxPair=        14
 NAB=     4 NAA=     6 NBB=     0.
 A-vector RMS=  1.7175540D-06 Max=  3.7449619D-06 conv= 1.00D-05.
 RLE energy=       -0.0415776234
 DE(Corr)= -0.41577431E-01 E(CORR)=     -844.78765842     Delta=-4.14D-07
 NORM(A)=   0.11724712D+01
 Iteration Nr.  20
 **********************
 DD1Dir will call FoFMem   1 times, MxPair=        14
 NAB=     4 NAA=     6 NBB=     0.
 A-vector RMS=  8.7103269D-07 Max=  1.4081495D-06 conv= 1.00D-05.
 RLE energy=       -0.0415776527
 DE(Corr)= -0.41577596E-01 E(CORR)=     -844.78765859     Delta=-1.66D-07
 NORM(A)=   0.11724731D+01
 Iteration Nr.  21
 **********************
 DD1Dir will call FoFMem   1 times, MxPair=        14
 NAB=     4 NAA=     6 NBB=     0.
 A-vector RMS=  4.6769998D-07 Max=  1.3452134D-06 conv= 1.00D-05.
 RLE energy=       -0.0415776189
 DE(Corr)= -0.41577636E-01 E(CORR)=     -844.78765863     Delta=-3.92D-08
 NORM(A)=   0.11724734D+01
 CI/CC converged in   21 iterations to DelEn=-3.92D-08 Conv= 1.00D-07 ErrA1= 4.68D-07 Conv= 1.00D-05
 Wavefunction amplitudes converged. E(Corr)=     -844.78765863    
 Dominant configurations:
 ***********************
 Spin Case        I    J    A    B          Value
   AAAA          12   11   22   21      -0.574553D+00
 Largest amplitude= 5.75D-01

 S**2, projected HF & approx projected MPn energies after annihilation of
 unwanted spin states (see manual for definitions):

 spins       (S**2,0) (S**2,1)    PUHF        PMP2        PMP3        PMP4
 annihilated
 s+1         3.75000  3.75000 -844.746353 -844.764956 -844.771183

 Discarding MO integrals.
 Leave Link  913 at Fri Mar 25 15:00:33 2022, MaxMem=  9663676416 cpu:               7.9 elap:               0.3
 (Enter /nopt/nrel/apps/gaussian/g16C_1/g16/l601.exe)
 Copying SCF densities to generalized density rwf, IOpCl= 1 IROHF=0.

 **********************************************************************

            Population analysis using the SCF Density.

 **********************************************************************

 Orbital symmetries:
 Alpha Orbitals:
       Occupied  (SG) (SG) (PI) (PI) (SG) (SG) (SG) (PI) (PI) (SG)
                 (PI) (PI) (SG)
       Virtual   (PI) (PI) (SG) (SG) (PI) (PI) (SG) (DLTA) (DLTA)
                 (SG) (PI) (PI) (DLTA) (DLTA) (SG)
 Beta  Orbitals:
       Occupied  (SG) (SG) (PI) (PI) (SG) (SG) (PI) (PI) (SG) (SG)
       Virtual   (SG) (PI) (PI) (SG) (SG) (PI) (PI) (SG) (DLTA)
                 (DLTA) (PI) (PI) (SG) (DLTA) (DLTA) (PI) (PI)
                 (SG)
 The electronic state is 4-SG.
 Alpha  occ. eigenvalues -- -182.00426 -21.30032 -17.64656 -17.64656 -17.64323
 Alpha  occ. eigenvalues --   -2.90402  -1.86541  -1.82502  -1.82502  -0.39069
 Alpha  occ. eigenvalues --   -0.38315  -0.38315  -0.21592
 Alpha virt. eigenvalues --    0.01990   0.01990   0.08230   0.10959   0.15122
 Alpha virt. eigenvalues --    0.15122   0.20402   0.20591   0.20591   0.52593
 Alpha virt. eigenvalues --    1.70696   1.70696   1.80041   1.80041   1.96627
  Beta  occ. eigenvalues -- -182.00264 -21.26746 -17.62178 -17.62178 -17.59902
  Beta  occ. eigenvalues --   -2.76843  -1.69738  -1.69738  -1.62626  -0.34137
  Beta virt. eigenvalues --    0.03013   0.03958   0.03958   0.09125   0.16381
  Beta virt. eigenvalues --    0.17788   0.17788   0.25417   0.26259   0.26259
  Beta virt. eigenvalues --    0.32396   0.32396   0.57603   1.83822   1.83822
  Beta virt. eigenvalues --    1.89290   1.89290   2.00414
          Condensed to atoms (all electrons):
               1          2
     1  H    0.692043   0.362393
     2  Ti   0.362393  21.583171
          Atomic-Atomic Spin Densities.
               1          2
     1  H    0.098273  -0.002967
     2  Ti  -0.002967   2.907661
 Mulliken charges and spin densities:
               1          2
     1  H   -0.054436   0.095306
     2  Ti   0.054436   2.904694
 Sum of Mulliken charges =  -0.00000   3.00000
 Mulliken charges and spin densities with hydrogens summed into heavy atoms:
               1          2
     2  Ti  -0.000000   3.000000
 N-N= 6.848175670729D+00 E-N=-2.017976741893D+03  KE= 8.450650135066D+02
 Symmetry A1   KE= 6.516194514080D+02
 Symmetry A2   KE= 2.489928917392D-50
 Symmetry B1   KE= 9.672278104930D+01
 Symmetry B2   KE= 9.672278104930D+01
 Symmetry A1   SP= 1.000000000000D+00
 Symmetry A2   SP=-2.012205100355D-51
 Symmetry B1   SP= 1.000000000000D+00
 Symmetry B2   SP= 1.000000000000D+00

 Atomic contributions to Alpha molecular orbitals:
 Alpha occ 1 OE=-182.004 is Ti2-s=1.0000
 Alpha occ 2 OE=-21.300 is Ti2-s=1.0000
 Alpha occ 3 OE=-17.647 is Ti2-p=1.0000
 Alpha occ 4 OE=-17.647 is Ti2-p=1.0000
 Alpha occ 5 OE=-17.643 is Ti2-p=1.0000
 Alpha occ 6 OE=-2.904 is Ti2-s=0.9996
 Alpha occ 7 OE=-1.865 is Ti2-p=0.9967
 Alpha occ 8 OE=-1.825 is Ti2-p=1.0000
 Alpha occ 9 OE=-1.825 is Ti2-p=1.0000
 Alpha occ 10 OE=-0.391 is H1-s=0.5242 Ti2-s=0.3064 Ti2-p=0.1113
 Alpha occ 11 OE=-0.383 is Ti2-d=0.9992
 Alpha occ 12 OE=-0.383 is Ti2-d=0.9992
 Alpha occ 13 OE=-0.216 is Ti2-s=0.5368 Ti2-p=0.3973
 Alpha vir 14 OE=0.020 is Ti2-p=0.9995
 Alpha vir 15 OE=0.020 is Ti2-p=0.9995
 Alpha vir 16 OE=0.082 is Ti2-p=0.7276 Ti2-s=0.1840
 Alpha vir 17 OE=0.110 is Ti2-s=0.8230 Ti2-p=0.1705
 Alpha vir 18 OE=0.151 is Ti2-p=0.9996
 Alpha vir 19 OE=0.151 is Ti2-p=0.9996
 Alpha vir 20 OE=0.204 is Ti2-d=0.5746 Ti2-p=0.3713
 Alpha vir 21 OE=0.206 is Ti2-d=1.0000
 Alpha vir 22 OE=0.206 is Ti2-d=1.0000
 Alpha vir 23 OE=0.526 is H1-s=0.3834 Ti2-d=0.2988 Ti2-p=0.2221
 Alpha vir 24 OE=1.707 is Ti2-d=1.0000
 Alpha vir 25 OE=1.707 is Ti2-d=1.0000
 Alpha vir 26 OE=1.800 is Ti2-d=1.0000
 Alpha vir 27 OE=1.800 is Ti2-d=1.0000
 Alpha vir 28 OE=1.966 is Ti2-d=0.9809

 Atomic contributions to Beta  molecular orbitals:
 Beta  occ 1 OE=-182.003 is Ti2-s=1.0000
 Beta  occ 2 OE=-21.267 is Ti2-s=1.0000
 Beta  occ 3 OE=-17.622 is Ti2-p=1.0000
 Beta  occ 4 OE=-17.622 is Ti2-p=1.0000
 Beta  occ 5 OE=-17.599 is Ti2-p=1.0000
 Beta  occ 6 OE=-2.768 is Ti2-s=0.9990
 Beta  occ 7 OE=-1.697 is Ti2-p=1.0000
 Beta  occ 8 OE=-1.697 is Ti2-p=1.0000
 Beta  occ 9 OE=-1.626 is Ti2-p=0.9956
 Beta  occ 10 OE=-0.341 is H1-s=0.4746 Ti2-s=0.3116 Ti2-p=0.1688
 Beta  vir 11 OE=0.030 is Ti2-s=0.5809 Ti2-p=0.3757
 Beta  vir 12 OE=0.040 is Ti2-p=0.9999
 Beta  vir 13 OE=0.040 is Ti2-p=0.9999
 Beta  vir 14 OE=0.091 is Ti2-p=0.6312 Ti2-s=0.2977
 Beta  vir 15 OE=0.164 is Ti2-s=0.7210 Ti2-p=0.2249
 Beta  vir 16 OE=0.178 is Ti2-p=0.9997
 Beta  vir 17 OE=0.178 is Ti2-p=0.9997
 Beta  vir 18 OE=0.254 is Ti2-d=0.5895 Ti2-p=0.3790
 Beta  vir 19 OE=0.263 is Ti2-d=1.0000
 Beta  vir 20 OE=0.263 is Ti2-d=1.0000
 Beta  vir 21 OE=0.324 is Ti2-d=0.9996
 Beta  vir 22 OE=0.324 is Ti2-d=0.9996
 Beta  vir 23 OE=0.576 is H1-s=0.4031 Ti2-d=0.3045 Ti2-p=0.2228
 Beta  vir 24 OE=1.838 is Ti2-d=1.0000
 Beta  vir 25 OE=1.838 is Ti2-d=1.0000
 Beta  vir 26 OE=1.893 is Ti2-d=1.0000
 Beta  vir 27 OE=1.893 is Ti2-d=1.0000
 Beta  vir 28 OE=2.004 is Ti2-d=0.9811
 
 Leave Link  601 at Fri Mar 25 15:00:33 2022, MaxMem=  9663676416 cpu:               2.8 elap:               0.1
 (Enter /nopt/nrel/apps/gaussian/g16C_1/g16/l9999.exe)

 Test job not archived.
 1\1\GINC-R1I7N35\SP\UCCSD-FC\Gen\H1Ti1(4)\USER\25-Mar-2022\0\\#P C
 CSD(MaxCyc=200)/GEN sp pop=AllOrbitals iop(3/33=1,3/36=-1)\\test\\0,4\
 H,0,0.,0.,0.\Ti,0,0.,0.,1.7\\Version=ES64L-G16RevC.01\State=4-SG\HF=-8
 44.746081\MP2=-844.7647436\MP3=-844.771023\MP4D=-844.773643\MP4DQ=-844
 .7734712\PUHF=-844.7463535\PMP2-0=-844.7649556\PMP3-0=-844.7711835\MP4
 SDQ=-844.7736733\CCSD=-844.7876586\S2=3.756701\S2-1=3.753728\S2A=3.750
 002\RMSD=2.015e-09\PG=C*V [C*(H1Ti1)]\\@


 THE TRULY SUCCESSFUL PERFORMANCE OF RESEARCHES IN
 INORGANIC CHEMISTRY IS POSSIBLE ONLY TO ONE WHO IS NOT
 ONLY A THEORETICAL CHEMIST, BUT ALSO AN ACCOMPLISHED
 ANALYST AND, MOREOVER, NOT MERELY A PRACTICALLY TRAINED,
 MECHANICAL WORKER, BUT A THINKING CREATIVE ARTIST.
   --  CLEMENS WINKLER, BER. 33, 1697(1900)
 Job cpu time:       0 days  0 hours  0 minutes 46.2 seconds.
 Elapsed time:       0 days  0 hours  0 minutes  1.7 seconds.
 File lengths (MBytes):  RWF=     13 Int=      0 D2E=      0 Chk=      1 Scr=      1
 Normal termination of Gaussian 16 at Fri Mar 25 15:00:33 2022.
