 Entering Gaussian System, Link 0=g16
 Initial command:
 /nopt/nrel/apps/gaussian/g16C_1/g16/l1.exe "/lustre/eaglefs/scratch/user/qc/tih-dissc-sto3g/tih-2-ccsd-3.0-321g/Gau-227326.inp" -scrdir="/lustre/eaglefs/scratch/user/qc/tih-dissc-sto3g/tih-2-ccsd-3.0-321g/"
 Default is to use a total of  36 processors:
                               36 via shared-memory
                                1 via Linda
 Entering Link 1 = /nopt/nrel/apps/gaussian/g16C_1/g16/l1.exe PID=    227327.
  
 Copyright (c) 1988-2019, Gaussian, Inc.  All Rights Reserved.
  
 This is part of the Gaussian(R) 16 program.  It is based on
 the Gaussian(R) 09 system (copyright 2009, Gaussian, Inc.),
 the Gaussian(R) 03 system (copyright 2003, Gaussian, Inc.),
 the Gaussian(R) 98 system (copyright 1998, Gaussian, Inc.),
 the Gaussian(R) 94 system (copyright 1995, Gaussian, Inc.),
 the Gaussian 92(TM) system (copyright 1992, Gaussian, Inc.),
 the Gaussian 90(TM) system (copyright 1990, Gaussian, Inc.),
 the Gaussian 88(TM) system (copyright 1988, Gaussian, Inc.),
 the Gaussian 86(TM) system (copyright 1986, Carnegie Mellon
 University), and the Gaussian 82(TM) system (copyright 1983,
 Carnegie Mellon University). Gaussian is a federally registered
 trademark of Gaussian, Inc.
  
 This software contains proprietary and confidential information,
 including trade secrets, belonging to Gaussian, Inc.
  
 This software is provided under written license and may be
 used, copied, transmitted, or stored only in accord with that
 written license.
  
 The following legend is applicable only to US Government
 contracts under FAR:
  
                    RESTRICTED RIGHTS LEGEND
  
 Use, reproduction and disclosure by the US Government is
 subject to restrictions as set forth in subparagraphs (a)
 and (c) of the Commercial Computer Software - Restricted
 Rights clause in FAR 52.227-19.
  
 Gaussian, Inc.
 340 Quinnipiac St., Bldg. 40, Wallingford CT 06492
  
  
 ---------------------------------------------------------------
 Warning -- This program may not be used in any manner that
 competes with the business of Gaussian, Inc. or will provide
 assistance to any competitor of Gaussian, Inc.  The licensee
 of this program is prohibited from giving any competitor of
 Gaussian, Inc. access to this program.  By using this program,
 the user acknowledges that Gaussian, Inc. is engaged in the
 business of creating and licensing software in the field of
 computational chemistry and represents and warrants to the
 licensee that it is not a competitor of Gaussian, Inc. and that
 it will not use this program in any manner prohibited above.
 ---------------------------------------------------------------
  

 Cite this work as:
 Gaussian 16, Revision C.01,
 M. J. Frisch, G. W. Trucks, H. B. Schlegel, G. E. Scuseria, 
 M. A. Robb, J. R. Cheeseman, G. Scalmani, V. Barone, 
 G. A. Petersson, H. Nakatsuji, X. Li, M. Caricato, A. V. Marenich, 
 J. Bloino, B. G. Janesko, R. Gomperts, B. Mennucci, H. P. Hratchian, 
 J. V. Ortiz, A. F. Izmaylov, J. L. Sonnenberg, D. Williams-Young, 
 F. Ding, F. Lipparini, F. Egidi, J. Goings, B. Peng, A. Petrone, 
 T. Henderson, D. Ranasinghe, V. G. Zakrzewski, J. Gao, N. Rega, 
 G. Zheng, W. Liang, M. Hada, M. Ehara, K. Toyota, R. Fukuda, 
 J. Hasegawa, M. Ishida, T. Nakajima, Y. Honda, O. Kitao, H. Nakai, 
 T. Vreven, K. Throssell, J. A. Montgomery, Jr., J. E. Peralta, 
 F. Ogliaro, M. J. Bearpark, J. J. Heyd, E. N. Brothers, K. N. Kudin, 
 V. N. Staroverov, T. A. Keith, R. Kobayashi, J. Normand, 
 K. Raghavachari, A. P. Rendell, J. C. Burant, S. S. Iyengar, 
 J. Tomasi, M. Cossi, J. M. Millam, M. Klene, C. Adamo, R. Cammi, 
 J. W. Ochterski, R. L. Martin, K. Morokuma, O. Farkas, 
 J. B. Foresman, and D. J. Fox, Gaussian, Inc., Wallingford CT, 2019.
 
 ******************************************
 Gaussian 16:  ES64L-G16RevC.01  3-Jul-2019
                25-Mar-2022 
 ******************************************
 %chk=molecule
 Default route: CacheSize=180224 MaxDisk=256GB
 --------------------------------------------------------------
 #P CCSD(MaxCyc=200)/GEN sp pop=AllOrbitals iop(3/33=1,3/36=-1)
 --------------------------------------------------------------
 1/4=180224,38=1,172=1/1;
 2/4=180224,12=2,17=6,18=5,40=1/2;
 3/4=180224,5=7,11=9,25=1,30=1,33=1,36=-1/1,2,3;
 4/4=180224/1;
 5/4=180224,5=2,38=5/2;
 8/4=180224,6=4,9=120000,10=1/1,4;
 9/4=180224,5=7,6=200/13;
 6/4=180224,7=2,8=2,9=2,10=2,96=-1/1;
 99/4=180224,5=1,9=1/99;
 Leave Link    1 at Fri Mar 25 14:58:39 2022, MaxMem=           0 cpu:               3.3 elap:               0.1
 (Enter /nopt/nrel/apps/gaussian/g16C_1/g16/l101.exe)
 ----
 test
 ----
 Symbolic Z-matrix:
 Charge =  0 Multiplicity = 2
 H                     0.        0.        0. 
 Ti                    0.        0.        3. 
 
 ITRead=  0  0
 MicOpt= -1 -1
 NAtoms=      2 NQM=        2 NQMF=       0 NMMI=      0 NMMIF=      0
                NMic=       0 NMicF=      0.
                    Isotopes and Nuclear Properties:
 (Nuclear quadrupole moments (NQMom) in fm**2, nuclear magnetic moments (NMagM)
  in nuclear magnetons)

  Atom         1           2
 IAtWgt=           1          48
 AtmWgt=   1.0078250  47.9479467
 NucSpn=           1           0
 AtZEff=  -0.0000000  -0.0000000
 NQMom=    0.0000000   0.0000000
 NMagM=    2.7928460   0.0000000
 AtZNuc=   1.0000000  22.0000000
 Leave Link  101 at Fri Mar 25 14:58:39 2022, MaxMem=  9663676416 cpu:               3.1 elap:               0.1
 (Enter /nopt/nrel/apps/gaussian/g16C_1/g16/l202.exe)
                          Input orientation:                          
 ---------------------------------------------------------------------
 Center     Atomic      Atomic             Coordinates (Angstroms)
 Number     Number       Type             X           Y           Z
 ---------------------------------------------------------------------
      1          1           0        0.000000    0.000000    0.000000
      2         22           0        0.000000    0.000000    3.000000
 ---------------------------------------------------------------------
 Stoichiometry    HTi(2)
 Framework group  C*V[C*(HTi)]
 Deg. of freedom     1
 Full point group                 C*V     NOp   4
 Largest Abelian subgroup         C2V     NOp   4
 Largest concise Abelian subgroup C1      NOp   1
                         Standard orientation:                         
 ---------------------------------------------------------------------
 Center     Atomic      Atomic             Coordinates (Angstroms)
 Number     Number       Type             X           Y           Z
 ---------------------------------------------------------------------
      1          1           0        0.000000    0.000000   -2.869565
      2         22           0        0.000000    0.000000    0.130435
 ---------------------------------------------------------------------
 Rotational constants (GHZ):           0.0000000          56.8883627          56.8883627
 Leave Link  202 at Fri Mar 25 14:58:39 2022, MaxMem=  9663676416 cpu:               0.9 elap:               0.0
 (Enter /nopt/nrel/apps/gaussian/g16C_1/g16/l301.exe)
 General basis read from cards:  (5D, 7F)
                         Coordinates in L301:                         
 ---------------------------------------------------------------------
 Center     Atomic      Atomic             Coordinates (Angstroms)
 Number     Number       Type             X           Y           Z
 ---------------------------------------------------------------------
      1          1           0        0.000000    0.000000   -2.869565
      2         22           0        0.000000    0.000000    0.130435
 ---------------------------------------------------------------------
 Centers:       1
 STO-3G
 ****
 Centers:       2
 3-21G
 ****
 FixB: optimizing general contractions.
 Ernie: Thresh=  0.10000D-02 Tol=  0.10000D-05 Strict=F.
 IA=     1 ShT= 0 ShC= 0 NL=   1 NS=   0.
 IA=     1 L=0 SC=0 ISt=    0 NBk=    0 NP=    0 IndPr=    0.
 IA=     2 ShT= 0 ShC= 0 NL=   1 NS=   0.
 IA=     2 L=0 SC=0 ISt=    0 NBk=    0 NP=    0 IndPr=    0.
 IA=     2 ShT= 1 ShC= 0 NL=   4 NS=   1.
 IA=     2 L=1 SC=0 ISt=    1 NBk=    3 NP=    8 IndPr=    0.
 DoElim1:  L=1 select primitive    1 from    2 using    1 C=-1.09D-01
 DoElim1:  L=1 select primitive    1 from    3 using    1 C=-1.09D-01
 DoElim1:  L=1 select primitive    4 from    3 using    2 C=-2.86D-01
 DoElim2:  L=1 select primitive    8 from    2 using    3 C= 1.10D+00
 DoElim2:  L=1 select primitive    8 from    1 using    3 C= 1.10D+00
 DoElim2:  L=1 select primitive    6 from    1 using    2 C= 8.60D-01
 DoElim1:  L=1 select primitive    1 from    2 using    1 C= 1.37D-01
 DoElim1:  L=1 select primitive    1 from    3 using    1 C= 1.37D-01
 DoElim1:  L=1 select primitive    4 from    3 using    2 C= 1.92D-02
 DoElim2:  L=1 select primitive    8 from    2 using    3 C= 1.00D+00
 DoElim2:  L=1 select primitive    8 from    1 using    3 C= 1.00D+00
 DoElim2:  L=1 select primitive    6 from    1 using    2 C= 6.36D-01
 Delete L=1 primitive    6 from    3 C=  0.00D+00.
 Delete L=1 primitive    5 from    3 C=  0.00D+00.
 Delete L=1 primitive    4 from    3 C=  0.00D+00.
 Delete L=1 primitive    3 from    3 C=  0.00D+00.
 Delete L=1 primitive    2 from    3 C=  0.00D+00.
 Delete L=1 primitive    1 from    3 C=  0.00D+00.
 Delete L=1 primitive    8 from    2 C=  0.00D+00.
 Delete L=1 primitive    7 from    2 C=  0.00D+00.
 Delete L=1 primitive    3 from    2 C=  0.00D+00.
 Delete L=1 primitive    2 from    2 C=  0.00D+00.
 Delete L=1 primitive    1 from    2 C=  0.00D+00.
 Delete L=1 primitive    8 from    1 C=  0.00D+00.
 Delete L=1 primitive    7 from    1 C=  0.00D+00.
 Delete L=1 primitive    6 from    1 C=  0.00D+00.
 Delete L=1 primitive    5 from    1 C=  0.00D+00.
 Delete L=1 primitive    4 from    1 C=  0.00D+00.
 IA=     2 L=1 SC=0 ISt=    0 NBk=    0 NP=    0 IndPr=    8.
 IA=     2 ShT= 2 ShC= 2 NL=   2 NS=   1.
 IA=     2 L=2 SC=2 ISt=    0 NBk=    0 NP=    0 IndPr=    0.
 LdAtmC:  AtmChg=     1.000000    22.000000
 AtZEff=     -1.0000000    -23.9800000
 NEqShl: 
              1            2            3            4
     1            1            1            1            1
     2            2            2            2            2
     3            3            3            3            3
     4            4            4            4            4
     5            5            5            5            5
     6            6            6            6            6
     7            7            7            7            7
     8            8            8            8            8
 NEqBas: 
              1            2            3            4
     1            1            1            1            1
     2            2            2            2            2
     3            3            3            3            3
     4            4           -4           -4            4
     5            5           -5            5           -5
     6            6            6            6            6
     7            7            7            7            7
     8            8           -8           -8            8
     9            9           -9            9           -9
    10           10           10           10           10
    11           11           11           11           11
    12           12          -12          -12           12
    13           13          -13           13          -13
    14           14           14           14           14
    15           15           15           15           15
    16           16          -16          -16           16
    17           17          -17           17          -17
    18           18           18           18           18
    19           19           19           19           19
    20           20           20           20           20
    21           21           21           21           21
    22           22           22          -22          -22
    23           23          -23          -23           23
    24           24          -24           24          -24
    25           25           25           25           25
    26           26           26           26           26
    27           27           27           27           27
    28           28           28          -28          -28
    29           29          -29          -29           29
    30           30          -30           30          -30
 There are    16 symmetry adapted cartesian basis functions of A1  symmetry.
   1         1   1   1   1
   2         2   2   2   2
   3         3   3   3   3
   4         6   6   6   6
   5         7   7   7   7
   6        10  10  10  10
   7        11  11  11  11
   8        14  14  14  14
   9        15  15  15  15
  10        18  18  18  18
  11        19  19  19  19
  12        20  20  20  20
  13        21  21  21  21
  14        25  25  25  25
  15        26  26  26  26
  16        27  27  27  27
 There are     2 symmetry adapted cartesian basis functions of A2  symmetry.
  17        22  22  22  22
  18        28  28  28  28
 There are     6 symmetry adapted cartesian basis functions of B1  symmetry.
  19         4   4   4   4
  20         8   8   8   8
  21        12  12  12  12
  22        16  16  16  16
  23        23  23  23  23
  24        29  29  29  29
 There are     6 symmetry adapted cartesian basis functions of B2  symmetry.
  25         5   5   5   5
  26         9   9   9   9
  27        13  13  13  13
  28        17  17  17  17
  29        24  24  24  24
  30        30  30  30  30
 Order= 1 2 4 3
 Reordered character table:
              1            2            3            4            5
     1            1            1            1            1            1
     2            2            1            1           -1           -1
     3            4            1           -1           -1            1
     4            3            1           -1            1           -1
 NEqShl: 
              1            2            3            4
     1            1            1            1            1
     2            2            2            2            2
     3            3            3            3            3
     4            4            4            4            4
     5            5            5            5            5
     6            6            6            6            6
     7            7            7            7            7
     8            8            8            8            8
 NEqBas: 
              1            2            3            4
     1            1            1            1            1
     2            2            2            2            2
     3            3            3            3            3
     4            4           -4           -4            4
     5            5           -5            5           -5
     6            6            6            6            6
     7            7            7            7            7
     8            8           -8           -8            8
     9            9           -9            9           -9
    10           10           10           10           10
    11           11           11           11           11
    12           12          -12          -12           12
    13           13          -13           13          -13
    14           14           14           14           14
    15           15           15           15           15
    16           16          -16          -16           16
    17           17          -17           17          -17
    18           18           18           18           18
    19           19           19           19           19
    20           20          -20          -20           20
    21           21          -21           21          -21
    22           22           22           22           22
    23           23           23          -23          -23
    24           24           24           24           24
    25           25          -25          -25           25
    26           26          -26           26          -26
    27           27           27           27           27
    28           28           28          -28          -28
 There are    14 symmetry adapted basis functions of A1  symmetry.
   1         1   1   1   1
   2         2   2   2   2
   3         3   3   3   3
   4         6   6   6   6
   5         7   7   7   7
   6        10  10  10  10
   7        11  11  11  11
   8        14  14  14  14
   9        15  15  15  15
  10        18  18  18  18
  11        19  19  19  19
  12        22  22  22  22
  13        24  24  24  24
  14        27  27  27  27
 There are     2 symmetry adapted basis functions of A2  symmetry.
  15        23  23  23  23
  16        28  28  28  28
 There are     6 symmetry adapted basis functions of B1  symmetry.
  17         4   4   4   4
  18         8   8   8   8
  19        12  12  12  12
  20        16  16  16  16
  21        20  20  20  20
  22        25  25  25  25
 There are     6 symmetry adapted basis functions of B2  symmetry.
  23         5   5   5   5
  24         9   9   9   9
  25        13  13  13  13
  26        17  17  17  17
  27        21  21  21  21
  28        26  26  26  26
 Order= 1 2 4 3
 Reordered character table:
              1            2            3            4            5
     1            1            1            1            1            1
     2            2            1            1           -1           -1
     3            4            1           -1           -1            1
     4            3            1           -1            1           -1
    28 basis functions,    60 primitive gaussians,    30 cartesian basis functions
    12 alpha electrons       11 beta electrons
       nuclear repulsion energy         3.8806328801 Hartrees.
 IS=     1 IAt=     1 ISR=     1 T=0 IP=      1 IndIP=      1 IndIPD=      0 C=  2.769344D-01  0.000000D+00                             NZ=T
 IS=     1 IAt=     1 ISR=     1 T=0 IP=      2 IndIP=      2 IndIPD=      1 C=  2.678389D-01  0.000000D+00                             NZ=T
 IS=     1 IAt=     1 ISR=     1 T=0 IP=      3 IndIP=      3 IndIPD=      2 C=  8.347367D-02  0.000000D+00                             NZ=T
 IS=     2 IAt=     2 ISR=     1 T=0 IP=      1 IndIP=      4 IndIPD=      0 C=  1.537359D+01  0.000000D+00                             NZ=T
 IS=     2 IAt=     2 ISR=     1 T=0 IP=      2 IndIP=      5 IndIPD=      1 C=  2.196579D+01  0.000000D+00                             NZ=T
 IS=     2 IAt=     2 ISR=     1 T=0 IP=      3 IndIP=      6 IndIPD=      2 C=  1.259884D+01  0.000000D+00                             NZ=T
 IS=     3 IAt=     2 ISR=     2 T=1 IP=      1 IndIP=      7 IndIPD=      0 C= -2.459358D+00  6.155759D+01                             NZ=T
 IS=     3 IAt=     2 ISR=     2 T=1 IP=      2 IndIP=      8 IndIPD=      1 C=  7.266107D-01  3.612099D+01                             NZ=T
 IS=     3 IAt=     2 ISR=     2 T=1 IP=      3 IndIP=      9 IndIPD=      2 C=  2.742121D+00  7.115701D+00                             NZ=T
 IS=     4 IAt=     2 ISR=     3 T=1 IP=      1 IndIP=     10 IndIPD=      0 C= -8.049761D-01  2.703339D-01                             NZ=T
 IS=     4 IAt=     2 ISR=     3 T=1 IP=      2 IndIP=     11 IndIPD=      1 C=  3.851869D-01  1.489563D+00                             NZ=T
 IS=     4 IAt=     2 ISR=     3 T=1 IP=      3 IndIP=     12 IndIPD=      2 C=  4.416753D-01  5.252178D-01                             NZ=T
 IS=     5 IAt=     2 ISR=     4 T=1 IP=      1 IndIP=     13 IndIPD=      0 C= -1.138440D-01  2.076393D-04                             NZ=T
 IS=     5 IAt=     2 ISR=     4 T=1 IP=      2 IndIP=     14 IndIPD=      1 C=  1.102445D-01  5.419267D-02                             NZ=T
 IS=     6 IAt=     2 ISR=     5 T=1 IP=      1 IndIP=     15 IndIPD=      0 C=  4.686088D-02  1.526772D-02                             NZ=T
 IS=     7 IAt=     2 ISR=     6 T=2 IP=      1 IndIP=     16 IndIPD=      1 C=  0.000000D+00  0.000000D+00  1.331025D+01  0.000000D+00 NZ=T
 IS=     7 IAt=     2 ISR=     6 T=2 IP=      2 IndIP=     17 IndIPD=      2 C=  0.000000D+00  0.000000D+00  3.600378D+00  0.000000D+00 NZ=T
 IS=     8 IAt=     2 ISR=     7 T=2 IP=      1 IndIP=     18 IndIPD=      3 C=  0.000000D+00  0.000000D+00  3.518721D-01  0.000000D+00 NZ=T
 IExCor=    0 DFT=F Ex=HF Corr=None ExCW=0 ScaHFX=  1.000000
 ScaDFX=  1.000000  1.000000  1.000000  1.000000 ScalE2=  1.000000  1.000000
 IRadAn=      5 IRanWt=     -1 IRanGd=            0 ICorTp=0 IEmpDi=  4
 NAtoms=    2 NActive=    2 NUniq=    2 SFac= 1.00D+00 NAtFMM=   60 NAOKFM=F Big=F
 Integral buffers will be    131072 words long.
 Raffenetti 2 integral format.
 Two-electron integral symmetry is turned on.
 Leave Link  301 at Fri Mar 25 14:58:39 2022, MaxMem=  9663676416 cpu:               2.2 elap:               0.1
 (Enter /nopt/nrel/apps/gaussian/g16C_1/g16/l302.exe)
 NPDir=0 NMtPBC=     1 NCelOv=     1 NCel=       1 NClECP=     1 NCelD=      1
         NCelK=      1 NCelE2=     1 NClLst=     1 CellRange=     0.0.
 One-electron integrals computed using PRISM.
 One-electron integral symmetry used in STVInt
 Entering OneElI...
 Calculate overlap and kinetic energy integrals
    NBasis =  28  MinDer = 0  MaxDer = 0
 Requested accuracy = 0.1000D-12
 Symmetry will be used
 PrmmSu-InSpLW:  IPartL=    0 NPrtUS=   36 NPrtUL=    1 DoSpLW=F IThBeg=    0 IThEnd=   35 NThAct=   36.
 PrSmSu:  IncTry=   512 NBBP=             36 NTPThr=   100 NPartT=   36 Incr=           1 LDynOK=F GPUOK=F.
 PrsmSu:  NPrtUS=  36 ThrOK=T IAlg=1 LenDen=           0 ISkipM=0 DoSpLW=F IThBeg=    0 IThEnd=   35.
 Prism:   IPart=     0 DynPar=F LinDyn=F Incr=           1.
 PRISM was handed   268432204 working-precision words and    36 shell-pairs
 PRISM was handed   268432204 working-precision words and    36 shell-pairs
 PRISM was handed   268432204 working-precision words and    36 shell-pairs
 PRISM was handed   268432204 working-precision words and    36 shell-pairs
 PRISM was handed   268432204 working-precision words and    36 shell-pairs
 PRISM was handed   268432204 working-precision words and    36 shell-pairs
 PRISM was handed   268432204 working-precision words and    36 shell-pairs
 PRISM was handed   268432204 working-precision words and    36 shell-pairs
 PRISM was handed   268432204 working-precision words and    36 shell-pairs
 PRISM was handed   268432204 working-precision words and    36 shell-pairs
 PRISM was handed   268432204 working-precision words and    36 shell-pairs
 PRISM was handed   268432204 working-precision words and    36 shell-pairs
 PRISM was handed   268432204 working-precision words and    36 shell-pairs
 PRISM was handed   268432204 working-precision words and    36 shell-pairs
 IPart= 12 NShTot=           0 NBatch=           0 AvBLen=         0.0
 IPart= 28 NShTot=           0 NBatch=           0 AvBLen=         0.0
 IPart= 16 NShTot=           0 NBatch=           0 AvBLen=         0.0
 IPart= 20 NShTot=           0 NBatch=           0 AvBLen=         0.0
 IPart= 26 NShTot=           0 NBatch=           0 AvBLen=         0.0
 IPart= 31 NShTot=           0 NBatch=           0 AvBLen=         0.0
 IPart= 14 NShTot=           0 NBatch=           0 AvBLen=         0.0
 IPart= 32 NShTot=           0 NBatch=           0 AvBLen=         0.0
 IPart= 27 NShTot=           0 NBatch=           0 AvBLen=         0.0
 IPart= 10 NShTot=           0 NBatch=           0 AvBLen=         0.0
 IPart= 30 NShTot=           0 NBatch=           0 AvBLen=         0.0
 PRISM was handed   268432204 working-precision words and    36 shell-pairs
 PRISM was handed   268432204 working-precision words and    36 shell-pairs
 PRISM was handed   268432204 working-precision words and    36 shell-pairs
 PRISM was handed   268432204 working-precision words and    36 shell-pairs
 PRISM was handed   268432204 working-precision words and    36 shell-pairs
 IPart=  2 NShTot=           2 NBatch=           2 AvBLen=         1.0
 IPart=  5 NShTot=           0 NBatch=           0 AvBLen=         0.0
 IPart=  1 NShTot=          11 NBatch=          11 AvBLen=         1.0
 IPart=  6 NShTot=           0 NBatch=           0 AvBLen=         0.0
 IPart= 34 NShTot=           0 NBatch=           0 AvBLen=         0.0
 PRISM was handed   268432204 working-precision words and    36 shell-pairs
 PRISM was handed   268432204 working-precision words and    36 shell-pairs
 PRISM was handed   268432204 working-precision words and    36 shell-pairs
 PRISM was handed   268432204 working-precision words and    36 shell-pairs
 PRISM was handed   268432204 working-precision words and    36 shell-pairs
 PRISM was handed   268432204 working-precision words and    36 shell-pairs
 PRISM was handed   268432204 working-precision words and    36 shell-pairs
 PRISM was handed   268432204 working-precision words and    36 shell-pairs
 IPart= 22 NShTot=           0 NBatch=           0 AvBLen=         0.0
 IPart= 29 NShTot=           0 NBatch=           0 AvBLen=         0.0
 IPart= 13 NShTot=           0 NBatch=           0 AvBLen=         0.0
 PRISM was handed   268432204 working-precision words and    36 shell-pairs
 PRISM was handed   268432204 working-precision words and    36 shell-pairs
 PRISM was handed   268432204 working-precision words and    36 shell-pairs
 IPart= 23 NShTot=           0 NBatch=           0 AvBLen=         0.0
 IPart= 15 NShTot=           0 NBatch=           0 AvBLen=         0.0
 IPart=  3 NShTot=           0 NBatch=           0 AvBLen=         0.0
 IPart= 11 NShTot=           0 NBatch=           0 AvBLen=         0.0
 IPart= 25 NShTot=           0 NBatch=           0 AvBLen=         0.0
 IPart= 35 NShTot=           0 NBatch=           0 AvBLen=         0.0
 IPart=  4 NShTot=           0 NBatch=           0 AvBLen=         0.0
 PRISM was handed   268432204 working-precision words and    36 shell-pairs
 PRISM was handed   268432204 working-precision words and    36 shell-pairs
 PRISM was handed   268432204 working-precision words and    36 shell-pairs
 PRISM was handed   268432204 working-precision words and    36 shell-pairs
 PRISM was handed   268432204 working-precision words and    36 shell-pairs
 PRISM was handed   268432204 working-precision words and    36 shell-pairs
 IPart= 33 NShTot=           0 NBatch=           0 AvBLen=         0.0
 IPart=  7 NShTot=           0 NBatch=           0 AvBLen=         0.0
 IPart=  9 NShTot=           0 NBatch=           0 AvBLen=         0.0
 IPart=  0 NShTot=          23 NBatch=          23 AvBLen=         1.0
 IPart= 18 NShTot=           0 NBatch=           0 AvBLen=         0.0
 IPart= 21 NShTot=           0 NBatch=           0 AvBLen=         0.0
 IPart= 24 NShTot=           0 NBatch=           0 AvBLen=         0.0
 IPart= 17 NShTot=           0 NBatch=           0 AvBLen=         0.0
 IPart=  8 NShTot=           0 NBatch=           0 AvBLen=         0.0
 IPart= 19 NShTot=           0 NBatch=           0 AvBLen=         0.0
 PrSmSu:  NxtVal=             37.
 *** Overlap *** 
                1             2             3             4             5 
      1  0.100000D+01
      2  0.454475D-04  0.100000D+01
      3  0.391553D-03  0.261907D+00  0.100000D+01
      4  0.000000D+00  0.000000D+00  0.000000D+00  0.100000D+01
      5  0.000000D+00  0.000000D+00  0.000000D+00  0.000000D+00  0.100000D+01
      6 -0.178668D-03  0.000000D+00  0.000000D+00  0.000000D+00  0.000000D+00
      7  0.404941D-02  0.101215D-01  0.334950D+00  0.000000D+00  0.000000D+00
      8  0.000000D+00  0.000000D+00  0.000000D+00  0.320730D+00  0.000000D+00
      9  0.000000D+00  0.000000D+00  0.000000D+00  0.000000D+00  0.320730D+00
     10 -0.597392D-02  0.000000D+00  0.000000D+00  0.000000D+00  0.000000D+00
     11  0.119337D+00 -0.323625D-03  0.781293D-02  0.000000D+00  0.000000D+00
     12  0.000000D+00  0.000000D+00  0.000000D+00  0.126594D-01  0.000000D+00
     13  0.000000D+00  0.000000D+00  0.000000D+00  0.000000D+00  0.126594D-01
     14 -0.255520D+00  0.000000D+00  0.000000D+00  0.000000D+00  0.000000D+00
     15  0.184294D+00  0.575699D-02  0.450232D-01  0.000000D+00  0.000000D+00
     16  0.000000D+00  0.000000D+00  0.000000D+00  0.361007D-02  0.000000D+00
     17  0.000000D+00  0.000000D+00  0.000000D+00  0.000000D+00  0.361007D-02
     18 -0.305633D+00  0.000000D+00  0.000000D+00  0.000000D+00  0.000000D+00
     19  0.123770D-02  0.000000D+00  0.000000D+00  0.000000D+00  0.000000D+00
     20  0.000000D+00  0.000000D+00  0.000000D+00  0.000000D+00  0.000000D+00
     21  0.000000D+00  0.000000D+00  0.000000D+00  0.000000D+00  0.000000D+00
     22  0.000000D+00  0.000000D+00  0.000000D+00  0.000000D+00  0.000000D+00
     23  0.000000D+00  0.000000D+00  0.000000D+00  0.000000D+00  0.000000D+00
     24  0.229214D-01  0.000000D+00  0.000000D+00  0.000000D+00  0.000000D+00
     25  0.000000D+00  0.000000D+00  0.000000D+00  0.000000D+00  0.000000D+00
     26  0.000000D+00  0.000000D+00  0.000000D+00  0.000000D+00  0.000000D+00
     27  0.000000D+00  0.000000D+00  0.000000D+00  0.000000D+00  0.000000D+00
     28  0.000000D+00  0.000000D+00  0.000000D+00  0.000000D+00  0.000000D+00
                6             7             8             9            10 
      6  0.100000D+01
      7  0.000000D+00  0.100000D+01
      8  0.000000D+00  0.000000D+00  0.100000D+01
      9  0.000000D+00  0.000000D+00  0.000000D+00  0.100000D+01
     10  0.320730D+00  0.000000D+00  0.000000D+00  0.000000D+00  0.100000D+01
     11  0.000000D+00  0.254017D+00  0.000000D+00  0.000000D+00  0.000000D+00
     12  0.000000D+00  0.000000D+00  0.217564D+00  0.000000D+00  0.000000D+00
     13  0.000000D+00  0.000000D+00  0.000000D+00  0.217564D+00  0.000000D+00
     14  0.126594D-01  0.000000D+00  0.000000D+00  0.000000D+00  0.217564D+00
     15  0.000000D+00  0.230277D+00  0.000000D+00  0.000000D+00  0.000000D+00
     16  0.000000D+00  0.000000D+00  0.710789D-01  0.000000D+00  0.000000D+00
     17  0.000000D+00  0.000000D+00  0.000000D+00  0.710789D-01  0.000000D+00
     18  0.361007D-02  0.000000D+00  0.000000D+00  0.000000D+00  0.710789D-01
     19  0.000000D+00  0.000000D+00  0.000000D+00  0.000000D+00  0.000000D+00
     20  0.000000D+00  0.000000D+00  0.000000D+00  0.000000D+00  0.000000D+00
     21  0.000000D+00  0.000000D+00  0.000000D+00  0.000000D+00  0.000000D+00
     22  0.000000D+00  0.000000D+00  0.000000D+00  0.000000D+00  0.000000D+00
     23  0.000000D+00  0.000000D+00  0.000000D+00  0.000000D+00  0.000000D+00
     24  0.000000D+00  0.000000D+00  0.000000D+00  0.000000D+00  0.000000D+00
     25  0.000000D+00  0.000000D+00  0.000000D+00  0.000000D+00  0.000000D+00
     26  0.000000D+00  0.000000D+00  0.000000D+00  0.000000D+00  0.000000D+00
     27  0.000000D+00  0.000000D+00  0.000000D+00  0.000000D+00  0.000000D+00
     28  0.000000D+00  0.000000D+00  0.000000D+00  0.000000D+00  0.000000D+00
               11            12            13            14            15 
     11  0.100000D+01
     12  0.000000D+00  0.100000D+01
     13  0.000000D+00  0.000000D+00  0.100000D+01
     14  0.000000D+00  0.000000D+00  0.000000D+00  0.100000D+01
     15  0.850437D+00  0.000000D+00  0.000000D+00  0.000000D+00  0.100000D+01
     16  0.000000D+00  0.734775D+00  0.000000D+00  0.000000D+00  0.000000D+00
     17  0.000000D+00  0.000000D+00  0.734775D+00  0.000000D+00  0.000000D+00
     18  0.000000D+00  0.000000D+00  0.000000D+00  0.734775D+00  0.000000D+00
     19  0.000000D+00  0.000000D+00  0.000000D+00  0.000000D+00  0.000000D+00
     20  0.000000D+00  0.000000D+00  0.000000D+00  0.000000D+00  0.000000D+00
     21  0.000000D+00  0.000000D+00  0.000000D+00  0.000000D+00  0.000000D+00
     22  0.000000D+00  0.000000D+00  0.000000D+00  0.000000D+00  0.000000D+00
     23  0.000000D+00  0.000000D+00  0.000000D+00  0.000000D+00  0.000000D+00
     24  0.000000D+00  0.000000D+00  0.000000D+00  0.000000D+00  0.000000D+00
     25  0.000000D+00  0.000000D+00  0.000000D+00  0.000000D+00  0.000000D+00
     26  0.000000D+00  0.000000D+00  0.000000D+00  0.000000D+00  0.000000D+00
     27  0.000000D+00  0.000000D+00  0.000000D+00  0.000000D+00  0.000000D+00
     28  0.000000D+00  0.000000D+00  0.000000D+00  0.000000D+00  0.000000D+00
               16            17            18            19            20 
     16  0.100000D+01
     17  0.000000D+00  0.100000D+01
     18  0.000000D+00  0.000000D+00  0.100000D+01
     19  0.000000D+00  0.000000D+00  0.000000D+00  0.100000D+01
     20  0.000000D+00  0.000000D+00  0.000000D+00  0.000000D+00  0.100000D+01
     21  0.000000D+00  0.000000D+00  0.000000D+00  0.000000D+00  0.000000D+00
     22  0.000000D+00  0.000000D+00  0.000000D+00  0.000000D+00  0.000000D+00
     23  0.000000D+00  0.000000D+00  0.000000D+00  0.000000D+00  0.000000D+00
     24  0.000000D+00  0.000000D+00  0.000000D+00  0.395959D+00  0.000000D+00
     25  0.000000D+00  0.000000D+00  0.000000D+00  0.000000D+00  0.395959D+00
     26  0.000000D+00  0.000000D+00  0.000000D+00  0.000000D+00  0.000000D+00
     27  0.000000D+00  0.000000D+00  0.000000D+00  0.000000D+00  0.000000D+00
     28  0.000000D+00  0.000000D+00  0.000000D+00  0.000000D+00  0.000000D+00
               21            22            23            24            25 
     21  0.100000D+01
     22  0.000000D+00  0.100000D+01
     23  0.000000D+00  0.000000D+00  0.100000D+01
     24  0.000000D+00  0.000000D+00  0.000000D+00  0.100000D+01
     25  0.000000D+00  0.000000D+00  0.000000D+00  0.000000D+00  0.100000D+01
     26  0.395959D+00  0.000000D+00  0.000000D+00  0.000000D+00  0.000000D+00
     27  0.000000D+00  0.395959D+00  0.000000D+00  0.000000D+00  0.000000D+00
     28  0.000000D+00  0.000000D+00  0.395959D+00  0.000000D+00  0.000000D+00
               26            27            28 
     26  0.100000D+01
     27  0.000000D+00  0.100000D+01
     28  0.000000D+00  0.000000D+00  0.100000D+01
 *** Kinetic Energy *** 
                1             2             3             4             5 
      1  0.760032D+00
      2 -0.599976D-04  0.238140D+03
      3 -0.488525D-03 -0.849715D+01  0.110812D+02
      4  0.000000D+00  0.000000D+00  0.000000D+00  0.405624D+02
      5  0.000000D+00  0.000000D+00  0.000000D+00  0.000000D+00  0.405624D+02
      6  0.165690D-03  0.000000D+00  0.000000D+00  0.000000D+00  0.000000D+00
      7 -0.319178D-02 -0.119187D+01 -0.935732D+00  0.000000D+00  0.000000D+00
      8  0.000000D+00  0.000000D+00  0.000000D+00  0.225504D+01  0.000000D+00
      9  0.000000D+00  0.000000D+00  0.000000D+00  0.000000D+00  0.225504D+01
     10  0.332890D-02  0.000000D+00  0.000000D+00  0.000000D+00  0.000000D+00
     11 -0.329347D-02 -0.207112D-01 -0.130608D+00  0.000000D+00  0.000000D+00
     12  0.000000D+00  0.000000D+00  0.000000D+00  0.467897D-02  0.000000D+00
     13  0.000000D+00  0.000000D+00  0.000000D+00  0.000000D+00  0.467897D-02
     14 -0.189199D-01  0.000000D+00  0.000000D+00  0.000000D+00  0.000000D+00
     15  0.642993D-02  0.458197D-03  0.356994D-02  0.000000D+00  0.000000D+00
     16  0.000000D+00  0.000000D+00  0.000000D+00  0.477331D-03  0.000000D+00
     17  0.000000D+00  0.000000D+00  0.000000D+00  0.000000D+00  0.477331D-03
     18 -0.252651D-01  0.000000D+00  0.000000D+00  0.000000D+00  0.000000D+00
     19 -0.565781D-03  0.000000D+00  0.000000D+00  0.000000D+00  0.000000D+00
     20  0.000000D+00  0.000000D+00  0.000000D+00  0.000000D+00  0.000000D+00
     21  0.000000D+00  0.000000D+00  0.000000D+00  0.000000D+00  0.000000D+00
     22  0.000000D+00  0.000000D+00  0.000000D+00  0.000000D+00  0.000000D+00
     23  0.000000D+00  0.000000D+00  0.000000D+00  0.000000D+00  0.000000D+00
     24 -0.619646D-02  0.000000D+00  0.000000D+00  0.000000D+00  0.000000D+00
     25  0.000000D+00  0.000000D+00  0.000000D+00  0.000000D+00  0.000000D+00
     26  0.000000D+00  0.000000D+00  0.000000D+00  0.000000D+00  0.000000D+00
     27  0.000000D+00  0.000000D+00  0.000000D+00  0.000000D+00  0.000000D+00
     28  0.000000D+00  0.000000D+00  0.000000D+00  0.000000D+00  0.000000D+00
                6             7             8             9            10 
      6  0.405624D+02
      7  0.000000D+00  0.139068D+01
      8  0.000000D+00  0.000000D+00  0.266954D+01
      9  0.000000D+00  0.000000D+00  0.000000D+00  0.266954D+01
     10  0.225504D+01  0.000000D+00  0.000000D+00  0.000000D+00  0.266954D+01
     11  0.000000D+00 -0.125868D+00  0.000000D+00  0.000000D+00  0.000000D+00
     12  0.000000D+00  0.000000D+00  0.727335D-01  0.000000D+00  0.000000D+00
     13  0.000000D+00  0.000000D+00  0.000000D+00  0.727335D-01  0.000000D+00
     14  0.467897D-02  0.000000D+00  0.000000D+00  0.000000D+00  0.727335D-01
     15  0.000000D+00  0.176460D-01  0.000000D+00  0.000000D+00  0.000000D+00
     16  0.000000D+00  0.000000D+00  0.909809D-02  0.000000D+00  0.000000D+00
     17  0.000000D+00  0.000000D+00  0.000000D+00  0.909809D-02  0.000000D+00
     18  0.477331D-03  0.000000D+00  0.000000D+00  0.000000D+00  0.909809D-02
     19  0.000000D+00  0.000000D+00  0.000000D+00  0.000000D+00  0.000000D+00
     20  0.000000D+00  0.000000D+00  0.000000D+00  0.000000D+00  0.000000D+00
     21  0.000000D+00  0.000000D+00  0.000000D+00  0.000000D+00  0.000000D+00
     22  0.000000D+00  0.000000D+00  0.000000D+00  0.000000D+00  0.000000D+00
     23  0.000000D+00  0.000000D+00  0.000000D+00  0.000000D+00  0.000000D+00
     24  0.000000D+00  0.000000D+00  0.000000D+00  0.000000D+00  0.000000D+00
     25  0.000000D+00  0.000000D+00  0.000000D+00  0.000000D+00  0.000000D+00
     26  0.000000D+00  0.000000D+00  0.000000D+00  0.000000D+00  0.000000D+00
     27  0.000000D+00  0.000000D+00  0.000000D+00  0.000000D+00  0.000000D+00
     28  0.000000D+00  0.000000D+00  0.000000D+00  0.000000D+00  0.000000D+00
               11            12            13            14            15 
     11  0.130956D+00
     12  0.000000D+00  0.182825D+00
     13  0.000000D+00  0.000000D+00  0.182825D+00
     14  0.000000D+00  0.000000D+00  0.000000D+00  0.182825D+00
     15  0.485464D-01  0.000000D+00  0.000000D+00  0.000000D+00  0.398069D-01
     16  0.000000D+00  0.715354D-01  0.000000D+00  0.000000D+00  0.000000D+00
     17  0.000000D+00  0.000000D+00  0.715354D-01  0.000000D+00  0.000000D+00
     18  0.000000D+00  0.000000D+00  0.000000D+00  0.715354D-01  0.000000D+00
     19  0.000000D+00  0.000000D+00  0.000000D+00  0.000000D+00  0.000000D+00
     20  0.000000D+00  0.000000D+00  0.000000D+00  0.000000D+00  0.000000D+00
     21  0.000000D+00  0.000000D+00  0.000000D+00  0.000000D+00  0.000000D+00
     22  0.000000D+00  0.000000D+00  0.000000D+00  0.000000D+00  0.000000D+00
     23  0.000000D+00  0.000000D+00  0.000000D+00  0.000000D+00  0.000000D+00
     24  0.000000D+00  0.000000D+00  0.000000D+00  0.000000D+00  0.000000D+00
     25  0.000000D+00  0.000000D+00  0.000000D+00  0.000000D+00  0.000000D+00
     26  0.000000D+00  0.000000D+00  0.000000D+00  0.000000D+00  0.000000D+00
     27  0.000000D+00  0.000000D+00  0.000000D+00  0.000000D+00  0.000000D+00
     28  0.000000D+00  0.000000D+00  0.000000D+00  0.000000D+00  0.000000D+00
               16            17            18            19            20 
     16  0.663448D-01
     17  0.000000D+00  0.663448D-01
     18  0.000000D+00  0.000000D+00  0.663448D-01
     19  0.000000D+00  0.000000D+00  0.000000D+00  0.800995D+01
     20  0.000000D+00  0.000000D+00  0.000000D+00  0.000000D+00  0.800995D+01
     21  0.000000D+00  0.000000D+00  0.000000D+00  0.000000D+00  0.000000D+00
     22  0.000000D+00  0.000000D+00  0.000000D+00  0.000000D+00  0.000000D+00
     23  0.000000D+00  0.000000D+00  0.000000D+00  0.000000D+00  0.000000D+00
     24  0.000000D+00  0.000000D+00  0.000000D+00  0.930872D+00  0.000000D+00
     25  0.000000D+00  0.000000D+00  0.000000D+00  0.000000D+00  0.930872D+00
     26  0.000000D+00  0.000000D+00  0.000000D+00  0.000000D+00  0.000000D+00
     27  0.000000D+00  0.000000D+00  0.000000D+00  0.000000D+00  0.000000D+00
     28  0.000000D+00  0.000000D+00  0.000000D+00  0.000000D+00  0.000000D+00
               21            22            23            24            25 
     21  0.800995D+01
     22  0.000000D+00  0.800995D+01
     23  0.000000D+00  0.000000D+00  0.800995D+01
     24  0.000000D+00  0.000000D+00  0.000000D+00  0.144943D+01
     25  0.000000D+00  0.000000D+00  0.000000D+00  0.000000D+00  0.144943D+01
     26  0.930872D+00  0.000000D+00  0.000000D+00  0.000000D+00  0.000000D+00
     27  0.000000D+00  0.930872D+00  0.000000D+00  0.000000D+00  0.000000D+00
     28  0.000000D+00  0.000000D+00  0.930872D+00  0.000000D+00  0.000000D+00
               26            27            28 
     26  0.144943D+01
     27  0.000000D+00  0.144943D+01
     28  0.000000D+00  0.000000D+00  0.144943D+01
 Entering OneElI...
 Calculate potential energy integrals
    NBasis =  28  MinDer = 0  MaxDer = 0
 Requested accuracy = 0.1000D-12
 Symmetry will be used
 PrmmSu-InSpLW:  IPartL=    0 NPrtUS=   36 NPrtUL=    1 DoSpLW=F IThBeg=    0 IThEnd=   35 NThAct=   36.
 PrSmSu:  IncTry=   512 NBBP=             72 NTPThr=   100 NPartT=   36 Incr=           1 LDynOK=F GPUOK=F.
 PrsmSu:  NPrtUS=  36 ThrOK=T IAlg=1 LenDen=           0 ISkipM=0 DoSpLW=F IThBeg=    0 IThEnd=   35.
 Prism:   IPart=     0 DynPar=F LinDyn=F Incr=           1.
 PRISM was handed   268432661 working-precision words and    36 shell-pairs
 PRISM was handed   268432661 working-precision words and    36 shell-pairs
 PRISM was handed   268432661 working-precision words and    36 shell-pairs
 PRISM was handed   268432661 working-precision words and    36 shell-pairs
 PRISM was handed   268432661 working-precision words and    36 shell-pairs
 PRISM was handed   268432661 working-precision words and    36 shell-pairs
 PRISM was handed   268432661 working-precision words and    36 shell-pairs
 PRISM was handed   268432661 working-precision words and    36 shell-pairs
 PRISM was handed   268432661 working-precision words and    36 shell-pairs
 PRISM was handed   268432661 working-precision words and    36 shell-pairs
 PRISM was handed   268432661 working-precision words and    36 shell-pairs
 PRISM was handed   268432661 working-precision words and    36 shell-pairs
 PRISM was handed   268432661 working-precision words and    36 shell-pairs
 PRISM was handed   268432661 working-precision words and    36 shell-pairs
 PRISM was handed   268432661 working-precision words and    36 shell-pairs
 PRISM was handed   268432661 working-precision words and    36 shell-pairs
 PRISM was handed   268432661 working-precision words and    36 shell-pairs
 PRISM was handed   268432661 working-precision words and    36 shell-pairs
 PRISM was handed   268432661 working-precision words and    36 shell-pairs
 PRISM was handed   268432661 working-precision words and    36 shell-pairs
 PRISM was handed   268432661 working-precision words and    36 shell-pairs
 PRISM was handed   268432661 working-precision words and    36 shell-pairs
 PRISM was handed   268432661 working-precision words and    36 shell-pairs
 PRISM was handed   268432661 working-precision words and    36 shell-pairs
 PRISM was handed   268432661 working-precision words and    36 shell-pairs
 PRISM was handed   268432661 working-precision words and    36 shell-pairs
 PRISM was handed   268432661 working-precision words and    36 shell-pairs
 PRISM was handed   268432661 working-precision words and    36 shell-pairs
 PRISM was handed   268432661 working-precision words and    36 shell-pairs
 PRISM was handed   268432661 working-precision words and    36 shell-pairs
 PRISM was handed   268432661 working-precision words and    36 shell-pairs
 PRISM was handed   268432661 working-precision words and    36 shell-pairs
 PRISM was handed   268432661 working-precision words and    36 shell-pairs
 PRISM was handed   268432661 working-precision words and    36 shell-pairs
 PRISM was handed   268432661 working-precision words and    36 shell-pairs
 PRISM was handed   268432661 working-precision words and    36 shell-pairs
 IPart=  0 NShTot=          46 NBatch=          23 AvBLen=         2.0
 IPart=  1 NShTot=          22 NBatch=          11 AvBLen=         2.0
 IPart=  2 NShTot=           4 NBatch=           2 AvBLen=         2.0
 IPart= 26 NShTot=           0 NBatch=           0 AvBLen=         0.0
 IPart= 30 NShTot=           0 NBatch=           0 AvBLen=         0.0
 IPart= 18 NShTot=           0 NBatch=           0 AvBLen=         0.0
 IPart= 10 NShTot=           0 NBatch=           0 AvBLen=         0.0
 IPart=  6 NShTot=           0 NBatch=           0 AvBLen=         0.0
 IPart= 17 NShTot=           0 NBatch=           0 AvBLen=         0.0
 IPart= 21 NShTot=           0 NBatch=           0 AvBLen=         0.0
 IPart= 24 NShTot=           0 NBatch=           0 AvBLen=         0.0
 IPart= 33 NShTot=           0 NBatch=           0 AvBLen=         0.0
 IPart=  3 NShTot=           0 NBatch=           0 AvBLen=         0.0
 IPart= 12 NShTot=           0 NBatch=           0 AvBLen=         0.0
 IPart= 28 NShTot=           0 NBatch=           0 AvBLen=         0.0
 IPart= 29 NShTot=           0 NBatch=           0 AvBLen=         0.0
 IPart=  7 NShTot=           0 NBatch=           0 AvBLen=         0.0
 IPart= 27 NShTot=           0 NBatch=           0 AvBLen=         0.0
 IPart= 16 NShTot=           0 NBatch=           0 AvBLen=         0.0
 IPart= 31 NShTot=           0 NBatch=           0 AvBLen=         0.0
 IPart= 35 NShTot=           0 NBatch=           0 AvBLen=         0.0
 IPart= 19 NShTot=           0 NBatch=           0 AvBLen=         0.0
 IPart= 23 NShTot=           0 NBatch=           0 AvBLen=         0.0
 IPart= 20 NShTot=           0 NBatch=           0 AvBLen=         0.0
 IPart=  9 NShTot=           0 NBatch=           0 AvBLen=         0.0
 IPart= 14 NShTot=           0 NBatch=           0 AvBLen=         0.0
 IPart=  8 NShTot=           0 NBatch=           0 AvBLen=         0.0
 IPart= 11 NShTot=           0 NBatch=           0 AvBLen=         0.0
 IPart=  5 NShTot=           0 NBatch=           0 AvBLen=         0.0
 IPart= 34 NShTot=           0 NBatch=           0 AvBLen=         0.0
 IPart= 25 NShTot=           0 NBatch=           0 AvBLen=         0.0
 IPart= 15 NShTot=           0 NBatch=           0 AvBLen=         0.0
 IPart= 32 NShTot=           0 NBatch=           0 AvBLen=         0.0
 IPart= 22 NShTot=           0 NBatch=           0 AvBLen=         0.0
 IPart=  4 NShTot=           0 NBatch=           0 AvBLen=         0.0
 IPart= 13 NShTot=           0 NBatch=           0 AvBLen=         0.0
 PrSmSu:  NxtVal=             37.
 ***** Potential Energy ***** 
                1             2             3             4             5 
      1  0.510724D+01
      2  0.118442D-01  0.478813D+03
      3  0.237650D-01  0.593929D+02  0.851239D+02
      4  0.000000D+00  0.000000D+00  0.000000D+00  0.989864D+02
      5  0.000000D+00  0.000000D+00  0.000000D+00  0.000000D+00  0.989864D+02
      6 -0.874730D-02 -0.750545D-03 -0.530455D-02  0.000000D+00  0.000000D+00
      7  0.672992D-01  0.186038D+01  0.175462D+02  0.000000D+00  0.000000D+00
      8  0.000000D+00  0.000000D+00  0.000000D+00  0.184262D+02  0.000000D+00
      9  0.000000D+00  0.000000D+00  0.000000D+00  0.000000D+00  0.184262D+02
     10 -0.811409D-01 -0.465256D-04 -0.282834D-02  0.000000D+00  0.000000D+00
     11  0.675046D+00 -0.975894D-01  0.272797D+00  0.000000D+00  0.000000D+00
     12  0.000000D+00  0.000000D+00  0.000000D+00  0.635054D+00  0.000000D+00
     13  0.000000D+00  0.000000D+00  0.000000D+00  0.000000D+00  0.635054D+00
     14 -0.134950D+01 -0.118072D-05 -0.121945D-03  0.000000D+00  0.000000D+00
     15  0.918376D+00  0.150536D+01  0.282408D+01  0.000000D+00  0.000000D+00
     16  0.000000D+00  0.000000D+00  0.000000D+00  0.180279D+00  0.000000D+00
     17  0.000000D+00  0.000000D+00  0.000000D+00  0.000000D+00  0.180279D+00
     18 -0.142881D+01  0.000000D+00 -0.348638D-04  0.000000D+00  0.000000D+00
     19  0.217979D-01  0.000000D+00  0.243367D-03  0.000000D+00  0.000000D+00
     20  0.000000D+00  0.000000D+00  0.000000D+00 -0.248817D-02  0.000000D+00
     21  0.000000D+00  0.000000D+00  0.000000D+00  0.000000D+00 -0.248817D-02
     22  0.000000D+00  0.000000D+00  0.000000D+00  0.000000D+00  0.000000D+00
     23  0.000000D+00  0.000000D+00  0.000000D+00  0.000000D+00  0.000000D+00
     24  0.193830D+00  0.000000D+00  0.267019D-04  0.000000D+00  0.000000D+00
     25  0.000000D+00  0.000000D+00  0.000000D+00 -0.243598D-03  0.000000D+00
     26  0.000000D+00  0.000000D+00  0.000000D+00  0.000000D+00 -0.243598D-03
     27  0.000000D+00  0.000000D+00  0.000000D+00  0.000000D+00  0.000000D+00
     28  0.000000D+00  0.000000D+00  0.000000D+00  0.000000D+00  0.000000D+00
                6             7             8             9            10 
      6  0.989867D+02
      7 -0.277223D-02  0.264595D+02
      8  0.000000D+00  0.000000D+00  0.253614D+02
      9  0.000000D+00  0.000000D+00  0.000000D+00  0.253614D+02
     10  0.184265D+02 -0.179630D-01  0.000000D+00  0.000000D+00  0.253656D+02
     11 -0.940604D-04  0.409365D+01  0.000000D+00  0.000000D+00 -0.919163D-02
     12  0.000000D+00  0.000000D+00  0.346147D+01  0.000000D+00  0.000000D+00
     13  0.000000D+00  0.000000D+00  0.000000D+00  0.346147D+01  0.000000D+00
     14  0.635068D+00 -0.498136D-02  0.000000D+00  0.000000D+00  0.346368D+01
     15 -0.344756D-03  0.469280D+01  0.000000D+00  0.000000D+00 -0.678792D-02
     16  0.000000D+00  0.000000D+00  0.108896D+01  0.000000D+00  0.000000D+00
     17  0.000000D+00  0.000000D+00  0.000000D+00  0.108896D+01  0.000000D+00
     18  0.180283D+00 -0.164871D-02  0.000000D+00  0.000000D+00  0.108974D+01
     19 -0.290409D-02  0.222155D-02  0.000000D+00  0.000000D+00 -0.145732D-01
     20  0.000000D+00  0.000000D+00 -0.121258D-01  0.000000D+00  0.000000D+00
     21  0.000000D+00  0.000000D+00  0.000000D+00 -0.121258D-01  0.000000D+00
     22  0.000000D+00  0.000000D+00  0.000000D+00  0.000000D+00  0.000000D+00
     23  0.000000D+00  0.000000D+00  0.000000D+00  0.000000D+00  0.000000D+00
     24 -0.285857D-03  0.303348D-02  0.000000D+00  0.000000D+00 -0.160500D-01
     25  0.000000D+00  0.000000D+00 -0.125707D-01  0.000000D+00  0.000000D+00
     26  0.000000D+00  0.000000D+00  0.000000D+00 -0.125707D-01  0.000000D+00
     27  0.000000D+00  0.000000D+00  0.000000D+00  0.000000D+00  0.000000D+00
     28  0.000000D+00  0.000000D+00  0.000000D+00  0.000000D+00  0.000000D+00
               11            12            13            14            15 
     11  0.785889D+01
     12  0.000000D+00  0.648776D+01
     13  0.000000D+00  0.000000D+00  0.648776D+01
     14 -0.601524D-01  0.000000D+00  0.000000D+00  0.653875D+01
     15  0.608449D+01  0.000000D+00  0.000000D+00 -0.636129D-01  0.588406D+01
     16  0.000000D+00  0.394884D+01  0.000000D+00  0.000000D+00  0.000000D+00
     17  0.000000D+00  0.000000D+00  0.394884D+01  0.000000D+00  0.000000D+00
     18 -0.416200D-01  0.000000D+00  0.000000D+00  0.399322D+01 -0.637548D-01
     19  0.686312D-03  0.000000D+00  0.000000D+00 -0.239019D-02  0.575718D-03
     20  0.000000D+00 -0.194227D-02  0.000000D+00  0.000000D+00  0.000000D+00
     21  0.000000D+00  0.000000D+00 -0.194227D-02  0.000000D+00  0.000000D+00
     22  0.000000D+00  0.000000D+00  0.000000D+00  0.000000D+00  0.000000D+00
     23  0.000000D+00  0.000000D+00  0.000000D+00  0.000000D+00  0.000000D+00
     24  0.100520D-01  0.000000D+00  0.000000D+00 -0.234048D-01  0.665339D-02
     25  0.000000D+00 -0.160259D-01  0.000000D+00  0.000000D+00  0.000000D+00
     26  0.000000D+00  0.000000D+00 -0.160259D-01  0.000000D+00  0.000000D+00
     27  0.000000D+00  0.000000D+00  0.000000D+00  0.000000D+00  0.000000D+00
     28  0.000000D+00  0.000000D+00  0.000000D+00  0.000000D+00  0.000000D+00
               16            17            18            19            20 
     16  0.394318D+01
     17  0.000000D+00  0.394318D+01
     18  0.000000D+00  0.000000D+00  0.399951D+01
     19  0.000000D+00  0.000000D+00 -0.736954D-03  0.293460D+02
     20 -0.597768D-03  0.000000D+00  0.000000D+00  0.000000D+00  0.293452D+02
     21  0.000000D+00 -0.597768D-03  0.000000D+00  0.000000D+00  0.000000D+00
     22  0.000000D+00  0.000000D+00  0.000000D+00  0.000000D+00  0.000000D+00
     23  0.000000D+00  0.000000D+00  0.000000D+00  0.000000D+00  0.000000D+00
     24  0.000000D+00  0.000000D+00 -0.949434D-02  0.799804D+01  0.000000D+00
     25 -0.634396D-02  0.000000D+00  0.000000D+00  0.000000D+00  0.799743D+01
     26  0.000000D+00 -0.634396D-02  0.000000D+00  0.000000D+00  0.000000D+00
     27  0.000000D+00  0.000000D+00  0.000000D+00  0.000000D+00  0.000000D+00
     28  0.000000D+00  0.000000D+00  0.000000D+00  0.000000D+00  0.000000D+00
               21            22            23            24            25 
     21  0.293452D+02
     22  0.000000D+00  0.293433D+02
     23  0.000000D+00  0.000000D+00  0.293433D+02
     24  0.000000D+00  0.000000D+00  0.000000D+00  0.122333D+02
     25  0.000000D+00  0.000000D+00  0.000000D+00  0.000000D+00  0.122281D+02
     26  0.799743D+01  0.000000D+00  0.000000D+00  0.000000D+00  0.000000D+00
     27  0.000000D+00  0.799600D+01  0.000000D+00  0.000000D+00  0.000000D+00
     28  0.000000D+00  0.000000D+00  0.799600D+01  0.000000D+00  0.000000D+00
               26            27            28 
     26  0.122281D+02
     27  0.000000D+00  0.122191D+02
     28  0.000000D+00  0.000000D+00  0.122191D+02
 ****** Core Hamiltonian ****** 
                1             2             3             4             5 
      1 -0.434721D+01
      2 -0.119042D-01 -0.240674D+03
      3 -0.242535D-01 -0.678900D+02 -0.740428D+02
      4  0.000000D+00  0.000000D+00  0.000000D+00 -0.584240D+02
      5  0.000000D+00  0.000000D+00  0.000000D+00  0.000000D+00 -0.584240D+02
      6  0.891299D-02  0.750545D-03  0.530455D-02  0.000000D+00  0.000000D+00
      7 -0.704910D-01 -0.305224D+01 -0.184819D+02  0.000000D+00  0.000000D+00
      8  0.000000D+00  0.000000D+00  0.000000D+00 -0.161712D+02  0.000000D+00
      9  0.000000D+00  0.000000D+00  0.000000D+00  0.000000D+00 -0.161712D+02
     10  0.844698D-01  0.465256D-04  0.282834D-02  0.000000D+00  0.000000D+00
     11 -0.678340D+00  0.768782D-01 -0.403405D+00  0.000000D+00  0.000000D+00
     12  0.000000D+00  0.000000D+00  0.000000D+00 -0.630375D+00  0.000000D+00
     13  0.000000D+00  0.000000D+00  0.000000D+00  0.000000D+00 -0.630375D+00
     14  0.133058D+01  0.118072D-05  0.121945D-03  0.000000D+00  0.000000D+00
     15 -0.911946D+00 -0.150490D+01 -0.282051D+01  0.000000D+00  0.000000D+00
     16  0.000000D+00  0.000000D+00  0.000000D+00 -0.179802D+00  0.000000D+00
     17  0.000000D+00  0.000000D+00  0.000000D+00  0.000000D+00 -0.179802D+00
     18  0.140355D+01  0.000000D+00  0.348638D-04  0.000000D+00  0.000000D+00
     19 -0.223637D-01  0.000000D+00 -0.243367D-03  0.000000D+00  0.000000D+00
     20  0.000000D+00  0.000000D+00  0.000000D+00  0.248817D-02  0.000000D+00
     21  0.000000D+00  0.000000D+00  0.000000D+00  0.000000D+00  0.248817D-02
     22  0.000000D+00  0.000000D+00  0.000000D+00  0.000000D+00  0.000000D+00
     23  0.000000D+00  0.000000D+00  0.000000D+00  0.000000D+00  0.000000D+00
     24 -0.200027D+00  0.000000D+00 -0.267019D-04  0.000000D+00  0.000000D+00
     25  0.000000D+00  0.000000D+00  0.000000D+00  0.243598D-03  0.000000D+00
     26  0.000000D+00  0.000000D+00  0.000000D+00  0.000000D+00  0.243598D-03
     27  0.000000D+00  0.000000D+00  0.000000D+00  0.000000D+00  0.000000D+00
     28  0.000000D+00  0.000000D+00  0.000000D+00  0.000000D+00  0.000000D+00
                6             7             8             9            10 
      6 -0.584243D+02
      7  0.277223D-02 -0.250688D+02
      8  0.000000D+00  0.000000D+00 -0.226919D+02
      9  0.000000D+00  0.000000D+00  0.000000D+00 -0.226919D+02
     10 -0.161715D+02  0.179630D-01  0.000000D+00  0.000000D+00 -0.226961D+02
     11  0.940604D-04 -0.421951D+01  0.000000D+00  0.000000D+00  0.919163D-02
     12  0.000000D+00  0.000000D+00 -0.338874D+01  0.000000D+00  0.000000D+00
     13  0.000000D+00  0.000000D+00  0.000000D+00 -0.338874D+01  0.000000D+00
     14 -0.630389D+00  0.498136D-02  0.000000D+00  0.000000D+00 -0.339095D+01
     15  0.344756D-03 -0.467515D+01  0.000000D+00  0.000000D+00  0.678792D-02
     16  0.000000D+00  0.000000D+00 -0.107986D+01  0.000000D+00  0.000000D+00
     17  0.000000D+00  0.000000D+00  0.000000D+00 -0.107986D+01  0.000000D+00
     18 -0.179806D+00  0.164871D-02  0.000000D+00  0.000000D+00 -0.108064D+01
     19  0.290409D-02 -0.222155D-02  0.000000D+00  0.000000D+00  0.145732D-01
     20  0.000000D+00  0.000000D+00  0.121258D-01  0.000000D+00  0.000000D+00
     21  0.000000D+00  0.000000D+00  0.000000D+00  0.121258D-01  0.000000D+00
     22  0.000000D+00  0.000000D+00  0.000000D+00  0.000000D+00  0.000000D+00
     23  0.000000D+00  0.000000D+00  0.000000D+00  0.000000D+00  0.000000D+00
     24  0.285857D-03 -0.303348D-02  0.000000D+00  0.000000D+00  0.160500D-01
     25  0.000000D+00  0.000000D+00  0.125707D-01  0.000000D+00  0.000000D+00
     26  0.000000D+00  0.000000D+00  0.000000D+00  0.125707D-01  0.000000D+00
     27  0.000000D+00  0.000000D+00  0.000000D+00  0.000000D+00  0.000000D+00
     28  0.000000D+00  0.000000D+00  0.000000D+00  0.000000D+00  0.000000D+00
               11            12            13            14            15 
     11 -0.772793D+01
     12  0.000000D+00 -0.630493D+01
     13  0.000000D+00  0.000000D+00 -0.630493D+01
     14  0.601524D-01  0.000000D+00  0.000000D+00 -0.635592D+01
     15 -0.603594D+01  0.000000D+00  0.000000D+00  0.636129D-01 -0.584425D+01
     16  0.000000D+00 -0.387730D+01  0.000000D+00  0.000000D+00  0.000000D+00
     17  0.000000D+00  0.000000D+00 -0.387730D+01  0.000000D+00  0.000000D+00
     18  0.416200D-01  0.000000D+00  0.000000D+00 -0.392169D+01  0.637548D-01
     19 -0.686312D-03  0.000000D+00  0.000000D+00  0.239019D-02 -0.575718D-03
     20  0.000000D+00  0.194227D-02  0.000000D+00  0.000000D+00  0.000000D+00
     21  0.000000D+00  0.000000D+00  0.194227D-02  0.000000D+00  0.000000D+00
     22  0.000000D+00  0.000000D+00  0.000000D+00  0.000000D+00  0.000000D+00
     23  0.000000D+00  0.000000D+00  0.000000D+00  0.000000D+00  0.000000D+00
     24 -0.100520D-01  0.000000D+00  0.000000D+00  0.234048D-01 -0.665339D-02
     25  0.000000D+00  0.160259D-01  0.000000D+00  0.000000D+00  0.000000D+00
     26  0.000000D+00  0.000000D+00  0.160259D-01  0.000000D+00  0.000000D+00
     27  0.000000D+00  0.000000D+00  0.000000D+00  0.000000D+00  0.000000D+00
     28  0.000000D+00  0.000000D+00  0.000000D+00  0.000000D+00  0.000000D+00
               16            17            18            19            20 
     16 -0.387683D+01
     17  0.000000D+00 -0.387683D+01
     18  0.000000D+00  0.000000D+00 -0.393317D+01
     19  0.000000D+00  0.000000D+00  0.736954D-03 -0.213360D+02
     20  0.597768D-03  0.000000D+00  0.000000D+00  0.000000D+00 -0.213353D+02
     21  0.000000D+00  0.597768D-03  0.000000D+00  0.000000D+00  0.000000D+00
     22  0.000000D+00  0.000000D+00  0.000000D+00  0.000000D+00  0.000000D+00
     23  0.000000D+00  0.000000D+00  0.000000D+00  0.000000D+00  0.000000D+00
     24  0.000000D+00  0.000000D+00  0.949434D-02 -0.706716D+01  0.000000D+00
     25  0.634396D-02  0.000000D+00  0.000000D+00  0.000000D+00 -0.706656D+01
     26  0.000000D+00  0.634396D-02  0.000000D+00  0.000000D+00  0.000000D+00
     27  0.000000D+00  0.000000D+00  0.000000D+00  0.000000D+00  0.000000D+00
     28  0.000000D+00  0.000000D+00  0.000000D+00  0.000000D+00  0.000000D+00
               21            22            23            24            25 
     21 -0.213353D+02
     22  0.000000D+00 -0.213333D+02
     23  0.000000D+00  0.000000D+00 -0.213333D+02
     24  0.000000D+00  0.000000D+00  0.000000D+00 -0.107838D+02
     25  0.000000D+00  0.000000D+00  0.000000D+00  0.000000D+00 -0.107787D+02
     26 -0.706656D+01  0.000000D+00  0.000000D+00  0.000000D+00  0.000000D+00
     27  0.000000D+00 -0.706513D+01  0.000000D+00  0.000000D+00  0.000000D+00
     28  0.000000D+00  0.000000D+00 -0.706513D+01  0.000000D+00  0.000000D+00
               26            27            28 
     26 -0.107787D+02
     27  0.000000D+00 -0.107697D+02
     28  0.000000D+00  0.000000D+00 -0.107697D+02
 SVDSVc IOpt=   1 NormSV=T IR=1
 SVDSVc V= 2.07D+00 1.91D+00 1.40D+00 1.40D+00 1.36D+00 1.30D+00 9.53D-01 8.03D-01 6.58D-01 6.04D-01
 SVDSVc V= 6.03D-01 5.53D-01 2.47D-01 1.45D-01
 SVDSVc IOpt=   1 NormSV=T IR=2
 SVDSVc V= 1.40D+00 6.04D-01
 SVDSVc IOpt=   1 NormSV=T IR=3
 SVDSVc V= 1.80D+00 1.40D+00 1.28D+00 6.73D-01 6.04D-01 2.48D-01
 SVDSVc IOpt=   1 NormSV=T IR=4
 SVDSVc V= 1.80D+00 1.40D+00 1.28D+00 6.73D-01 6.04D-01 2.48D-01
 TstOVc:  Largest diagonal error= 1.11D-15 IB=1 I=    9.
 TstOVc:  Largest same sym error= 9.26D-15 IB=1 I=   11 J=    4.
 TstOVc:  Largest diff sym error= 0.00D+00 IB=0 JB=0 I=    0 J=    0.
 Orthogonalized basis functions: 
                 1             2             3             4             5 
      1   0.220396D+00 -0.170139D+00  0.249840D-01  0.000000D+00 -0.932284D-01
      2   0.253400D-01  0.256100D-01 -0.199892D-01  0.000000D+00  0.431517D+00
      3   0.879234D-01  0.780456D-01 -0.295814D-01  0.000000D+00  0.589716D+00
      4   0.000000D+00  0.000000D+00  0.000000D+00  0.000000D+00  0.000000D+00
      5   0.000000D+00  0.000000D+00  0.000000D+00  0.000000D+00  0.000000D+00
      6  -0.226961D-01  0.607118D-01  0.196061D-01  0.000000D+00 -0.975917D-01
      7   0.200772D+00  0.154828D+00 -0.201173D-01  0.000000D+00  0.328949D+00
      8   0.000000D+00  0.000000D+00  0.000000D+00  0.000000D+00  0.000000D+00
      9   0.000000D+00  0.000000D+00  0.000000D+00  0.000000D+00  0.000000D+00
     10  -0.649981D-01  0.151321D+00  0.236736D-01  0.000000D+00 -0.109087D+00
     11   0.377992D+00  0.240534D+00  0.386433D-02  0.000000D+00 -0.173347D+00
     12   0.000000D+00  0.000000D+00  0.000000D+00  0.000000D+00  0.000000D+00
     13   0.000000D+00  0.000000D+00  0.000000D+00  0.000000D+00  0.000000D+00
     14  -0.211421D+00  0.407467D+00  0.123144D-01  0.000000D+00 -0.357194D-01
     15   0.384741D+00  0.233901D+00  0.456863D-02  0.000000D+00 -0.164532D+00
     16   0.000000D+00  0.000000D+00  0.000000D+00  0.000000D+00  0.000000D+00
     17   0.000000D+00  0.000000D+00  0.000000D+00  0.000000D+00  0.000000D+00
     18  -0.212151D+00  0.398833D+00  0.798531D-02  0.000000D+00 -0.161129D-01
     19   0.231065D-02 -0.259519D-02  0.596565D+00  0.000000D+00  0.360966D-01
     20   0.000000D+00  0.000000D+00  0.000000D+00  0.000000D+00  0.000000D+00
     21   0.000000D+00  0.000000D+00  0.000000D+00  0.000000D+00  0.000000D+00
     22   0.000000D+00  0.000000D+00  0.000000D+00  0.598479D+00  0.000000D+00
     23   0.000000D+00  0.000000D+00  0.000000D+00  0.000000D+00  0.000000D+00
     24   0.556637D-02 -0.542320D-02  0.597248D+00  0.000000D+00  0.334351D-01
     25   0.000000D+00  0.000000D+00  0.000000D+00  0.000000D+00  0.000000D+00
     26   0.000000D+00  0.000000D+00  0.000000D+00  0.000000D+00  0.000000D+00
     27   0.000000D+00  0.000000D+00  0.000000D+00  0.598479D+00  0.000000D+00
     28   0.000000D+00  0.000000D+00  0.000000D+00  0.000000D+00  0.000000D+00
                 6             7             8             9            10 
      1   0.141999D+00  0.237088D+00  0.896277D+00 -0.350140D+00  0.000000D+00
      2   0.926212D-01  0.756696D+00 -0.225892D+00  0.715365D-01  0.000000D+00
      3   0.105308D+00 -0.116581D+00  0.168044D+00 -0.951496D-01  0.000000D+00
      4   0.000000D+00  0.000000D+00  0.000000D+00  0.000000D+00  0.000000D+00
      5   0.000000D+00  0.000000D+00  0.000000D+00  0.000000D+00  0.000000D+00
      6   0.608334D+00 -0.767744D-01 -0.356950D+00 -0.764657D+00  0.000000D+00
      7   0.295653D-01 -0.596810D+00  0.962463D-01  0.385714D-01  0.000000D+00
      8   0.000000D+00  0.000000D+00  0.000000D+00  0.000000D+00  0.000000D+00
      9   0.000000D+00  0.000000D+00  0.000000D+00  0.000000D+00  0.000000D+00
     10   0.569639D+00  0.691223D-02  0.205442D+00  0.822659D+00  0.000000D+00
     11  -0.631428D-01  0.103454D+00 -0.202356D+00  0.650200D-01  0.000000D+00
     12   0.000000D+00  0.000000D+00  0.000000D+00  0.000000D+00  0.000000D+00
     13   0.000000D+00  0.000000D+00  0.000000D+00  0.000000D+00  0.000000D+00
     14  -0.618512D-01  0.934531D-01  0.307942D+00 -0.732524D-01  0.000000D+00
     15  -0.518207D-01  0.140598D+00 -0.109312D+00  0.123337D-01  0.000000D+00
     16   0.000000D+00  0.000000D+00  0.000000D+00  0.000000D+00  0.000000D+00
     17   0.000000D+00  0.000000D+00  0.000000D+00  0.000000D+00  0.000000D+00
     18  -0.154860D+00  0.757088D-01  0.174510D+00 -0.318036D+00  0.000000D+00
     19  -0.197430D-01 -0.138335D-01 -0.670638D-01  0.766409D-01  0.000000D+00
     20   0.000000D+00  0.000000D+00  0.000000D+00  0.000000D+00  0.000000D+00
     21   0.000000D+00  0.000000D+00  0.000000D+00  0.000000D+00  0.000000D+00
     22   0.000000D+00  0.000000D+00  0.000000D+00  0.000000D+00  0.909812D+00
     23   0.000000D+00  0.000000D+00  0.000000D+00  0.000000D+00  0.000000D+00
     24  -0.153066D-01  0.911199D-03  0.305362D-01 -0.651847D-01  0.000000D+00
     25   0.000000D+00  0.000000D+00  0.000000D+00  0.000000D+00  0.000000D+00
     26   0.000000D+00  0.000000D+00  0.000000D+00  0.000000D+00  0.000000D+00
     27   0.000000D+00  0.000000D+00  0.000000D+00  0.000000D+00 -0.909812D+00
     28   0.000000D+00  0.000000D+00  0.000000D+00  0.000000D+00  0.000000D+00
                11            12            13            14            15 
      1  -0.945371D-01 -0.163551D+00 -0.858502D-01 -0.162766D+00  0.000000D+00
      2   0.314714D-01 -0.505227D+00 -0.149017D-02  0.247061D-01  0.000000D+00
      3  -0.489011D-01  0.888732D+00  0.506023D-02 -0.127534D+00  0.000000D+00
      4   0.000000D+00  0.000000D+00  0.000000D+00  0.000000D+00  0.000000D+00
      5   0.000000D+00  0.000000D+00  0.000000D+00  0.000000D+00  0.000000D+00
      6  -0.406395D-01 -0.373063D-01  0.123992D+00 -0.120221D-02  0.000000D+00
      7   0.335860D-01 -0.819351D+00 -0.862070D-02  0.100583D+00  0.000000D+00
      8   0.000000D+00  0.000000D+00  0.000000D+00  0.000000D+00  0.000000D+00
      9   0.000000D+00  0.000000D+00  0.000000D+00  0.000000D+00  0.000000D+00
     10   0.516677D-01  0.541705D-01 -0.331519D+00  0.369503D-02  0.000000D+00
     11   0.154004D-01  0.107012D+00  0.360654D-01 -0.184825D+01  0.000000D+00
     12   0.000000D+00  0.000000D+00  0.000000D+00  0.000000D+00  0.000000D+00
     13   0.000000D+00  0.000000D+00  0.000000D+00  0.000000D+00  0.000000D+00
     14  -0.260833D-01 -0.462447D-01  0.141493D+01  0.261682D-02  0.000000D+00
     15  -0.349556D-02  0.203137D+00 -0.173695D-01  0.185254D+01  0.000000D+00
     16   0.000000D+00  0.000000D+00  0.000000D+00  0.000000D+00  0.000000D+00
     17   0.000000D+00  0.000000D+00  0.000000D+00  0.000000D+00  0.000000D+00
     18  -0.333779D-01 -0.441686D-01 -0.138436D+01 -0.607214D-01  0.000000D+00
     19  -0.903770D+00 -0.327172D-01 -0.170264D-02 -0.227129D-02  0.000000D+00
     20   0.000000D+00  0.000000D+00  0.000000D+00  0.000000D+00  0.000000D+00
     21   0.000000D+00  0.000000D+00  0.000000D+00  0.000000D+00  0.000000D+00
     22   0.000000D+00  0.000000D+00  0.000000D+00  0.000000D+00  0.000000D+00
     23   0.000000D+00  0.000000D+00  0.000000D+00  0.000000D+00  0.598479D+00
     24   0.906649D+00  0.374072D-01  0.350740D-02  0.541426D-02  0.000000D+00
     25   0.000000D+00  0.000000D+00  0.000000D+00  0.000000D+00  0.000000D+00
     26   0.000000D+00  0.000000D+00  0.000000D+00  0.000000D+00  0.000000D+00
     27   0.000000D+00  0.000000D+00  0.000000D+00  0.000000D+00  0.000000D+00
     28   0.000000D+00  0.000000D+00  0.000000D+00  0.000000D+00  0.598479D+00
                16            17            18            19            20 
      1   0.000000D+00  0.000000D+00  0.000000D+00  0.000000D+00  0.000000D+00
      2   0.000000D+00  0.000000D+00  0.000000D+00  0.000000D+00  0.000000D+00
      3   0.000000D+00  0.000000D+00  0.000000D+00  0.000000D+00  0.000000D+00
      4   0.000000D+00  0.989007D-01  0.000000D+00  0.631613D+00 -0.834101D+00
      5   0.000000D+00  0.000000D+00  0.000000D+00  0.000000D+00  0.000000D+00
      6   0.000000D+00  0.000000D+00  0.000000D+00  0.000000D+00  0.000000D+00
      7   0.000000D+00  0.000000D+00  0.000000D+00  0.000000D+00  0.000000D+00
      8   0.000000D+00  0.221260D+00  0.000000D+00  0.556385D+00  0.851114D+00
      9   0.000000D+00  0.000000D+00  0.000000D+00  0.000000D+00  0.000000D+00
     10   0.000000D+00  0.000000D+00  0.000000D+00  0.000000D+00  0.000000D+00
     11   0.000000D+00  0.000000D+00  0.000000D+00  0.000000D+00  0.000000D+00
     12   0.000000D+00  0.509061D+00  0.000000D+00 -0.144130D+00  0.341821D-01
     13   0.000000D+00  0.000000D+00  0.000000D+00  0.000000D+00  0.000000D+00
     14   0.000000D+00  0.000000D+00  0.000000D+00  0.000000D+00  0.000000D+00
     15   0.000000D+00  0.000000D+00  0.000000D+00  0.000000D+00  0.000000D+00
     16   0.000000D+00  0.487367D+00  0.000000D+00 -0.230220D+00 -0.252838D+00
     17   0.000000D+00  0.000000D+00  0.000000D+00  0.000000D+00  0.000000D+00
     18   0.000000D+00  0.000000D+00  0.000000D+00  0.000000D+00  0.000000D+00
     19   0.000000D+00  0.000000D+00  0.000000D+00  0.000000D+00  0.000000D+00
     20   0.000000D+00  0.000000D+00  0.598479D+00  0.000000D+00  0.000000D+00
     21   0.000000D+00  0.000000D+00  0.000000D+00  0.000000D+00  0.000000D+00
     22   0.000000D+00  0.000000D+00  0.000000D+00  0.000000D+00  0.000000D+00
     23   0.909812D+00  0.000000D+00  0.000000D+00  0.000000D+00  0.000000D+00
     24   0.000000D+00  0.000000D+00  0.000000D+00  0.000000D+00  0.000000D+00
     25   0.000000D+00  0.000000D+00  0.598479D+00  0.000000D+00  0.000000D+00
     26   0.000000D+00  0.000000D+00  0.000000D+00  0.000000D+00  0.000000D+00
     27   0.000000D+00  0.000000D+00  0.000000D+00  0.000000D+00  0.000000D+00
     28  -0.909812D+00  0.000000D+00  0.000000D+00  0.000000D+00  0.000000D+00
                21            22            23            24            25 
      1   0.000000D+00  0.000000D+00  0.000000D+00  0.000000D+00  0.000000D+00
      2   0.000000D+00  0.000000D+00  0.000000D+00  0.000000D+00  0.000000D+00
      3   0.000000D+00  0.000000D+00  0.000000D+00  0.000000D+00  0.000000D+00
      4   0.000000D+00  0.126826D+00  0.000000D+00  0.000000D+00  0.000000D+00
      5   0.000000D+00  0.000000D+00  0.989007D-01  0.000000D+00  0.631613D+00
      6   0.000000D+00  0.000000D+00  0.000000D+00  0.000000D+00  0.000000D+00
      7   0.000000D+00  0.000000D+00  0.000000D+00  0.000000D+00  0.000000D+00
      8   0.000000D+00 -0.338446D+00  0.000000D+00  0.000000D+00  0.000000D+00
      9   0.000000D+00  0.000000D+00  0.221260D+00  0.000000D+00  0.556385D+00
     10   0.000000D+00  0.000000D+00  0.000000D+00  0.000000D+00  0.000000D+00
     11   0.000000D+00  0.000000D+00  0.000000D+00  0.000000D+00  0.000000D+00
     12   0.000000D+00  0.142883D+01  0.000000D+00  0.000000D+00  0.000000D+00
     13   0.000000D+00  0.000000D+00  0.509061D+00  0.000000D+00 -0.144130D+00
     14   0.000000D+00  0.000000D+00  0.000000D+00  0.000000D+00  0.000000D+00
     15   0.000000D+00  0.000000D+00  0.000000D+00  0.000000D+00  0.000000D+00
     16   0.000000D+00 -0.136452D+01  0.000000D+00  0.000000D+00  0.000000D+00
     17   0.000000D+00  0.000000D+00  0.487367D+00  0.000000D+00 -0.230220D+00
     18   0.000000D+00  0.000000D+00  0.000000D+00  0.000000D+00  0.000000D+00
     19   0.000000D+00  0.000000D+00  0.000000D+00  0.000000D+00  0.000000D+00
     20   0.909812D+00  0.000000D+00  0.000000D+00  0.000000D+00  0.000000D+00
     21   0.000000D+00  0.000000D+00  0.000000D+00  0.598479D+00  0.000000D+00
     22   0.000000D+00  0.000000D+00  0.000000D+00  0.000000D+00  0.000000D+00
     23   0.000000D+00  0.000000D+00  0.000000D+00  0.000000D+00  0.000000D+00
     24   0.000000D+00  0.000000D+00  0.000000D+00  0.000000D+00  0.000000D+00
     25  -0.909812D+00  0.000000D+00  0.000000D+00  0.000000D+00  0.000000D+00
     26   0.000000D+00  0.000000D+00  0.000000D+00  0.598479D+00  0.000000D+00
     27   0.000000D+00  0.000000D+00  0.000000D+00  0.000000D+00  0.000000D+00
     28   0.000000D+00  0.000000D+00  0.000000D+00  0.000000D+00  0.000000D+00
                26            27            28 
      1   0.000000D+00  0.000000D+00  0.000000D+00
      2   0.000000D+00  0.000000D+00  0.000000D+00
      3   0.000000D+00  0.000000D+00  0.000000D+00
      4   0.000000D+00  0.000000D+00  0.000000D+00
      5  -0.834101D+00  0.000000D+00  0.126826D+00
      6   0.000000D+00  0.000000D+00  0.000000D+00
      7   0.000000D+00  0.000000D+00  0.000000D+00
      8   0.000000D+00  0.000000D+00  0.000000D+00
      9   0.851114D+00  0.000000D+00 -0.338446D+00
     10   0.000000D+00  0.000000D+00  0.000000D+00
     11   0.000000D+00  0.000000D+00  0.000000D+00
     12   0.000000D+00  0.000000D+00  0.000000D+00
     13   0.341821D-01  0.000000D+00  0.142883D+01
     14   0.000000D+00  0.000000D+00  0.000000D+00
     15   0.000000D+00  0.000000D+00  0.000000D+00
     16   0.000000D+00  0.000000D+00  0.000000D+00
     17  -0.252838D+00  0.000000D+00 -0.136452D+01
     18   0.000000D+00  0.000000D+00  0.000000D+00
     19   0.000000D+00  0.000000D+00  0.000000D+00
     20   0.000000D+00  0.000000D+00  0.000000D+00
     21   0.000000D+00  0.909812D+00  0.000000D+00
     22   0.000000D+00  0.000000D+00  0.000000D+00
     23   0.000000D+00  0.000000D+00  0.000000D+00
     24   0.000000D+00  0.000000D+00  0.000000D+00
     25   0.000000D+00  0.000000D+00  0.000000D+00
     26   0.000000D+00 -0.909812D+00  0.000000D+00
     27   0.000000D+00  0.000000D+00  0.000000D+00
     28   0.000000D+00  0.000000D+00  0.000000D+00
 NBasis=    28 RedAO= T EigKep=  1.45D-01  NBF=    14     2     6     6
 NBsUse=    28 1.00D-06 EigRej= -1.00D+00 NBFU=    14     2     6     6
 Leave Link  302 at Fri Mar 25 14:58:39 2022, MaxMem=  9663676416 cpu:               3.4 elap:               0.1
 (Enter /nopt/nrel/apps/gaussian/g16C_1/g16/l303.exe)
 DipDrv will not compute anything.
 Fermi contact integrals: 
                 1             2 
      1   0.628247D+00  0.366994D-03
      2   0.000000D+00  0.499382D+02
      3   0.000000D+00  0.100937D+01
      4   0.000000D+00  0.000000D+00
      5   0.000000D+00  0.000000D+00
      6   0.000000D+00  0.000000D+00
      7   0.000000D+00  0.218861D-01
      8   0.000000D+00  0.000000D+00
      9   0.000000D+00  0.000000D+00
     10   0.000000D+00  0.000000D+00
     11   0.105136D-01 -0.359953D-02
     12   0.000000D+00  0.000000D+00
     13   0.000000D+00  0.000000D+00
     14  -0.292993D-01  0.000000D+00
     15   0.199707D-01  0.468609D-01
     16   0.000000D+00  0.000000D+00
     17   0.000000D+00  0.000000D+00
     18  -0.368873D-01  0.000000D+00
     19   0.000000D+00  0.000000D+00
     20   0.000000D+00  0.000000D+00
     21   0.000000D+00  0.000000D+00
     22   0.000000D+00  0.000000D+00
     23   0.000000D+00  0.000000D+00
     24   0.187536D-04  0.000000D+00
     25   0.000000D+00  0.000000D+00
     26   0.000000D+00  0.000000D+00
     27   0.000000D+00  0.000000D+00
     28   0.000000D+00  0.000000D+00
 Leave Link  303 at Fri Mar 25 14:58:39 2022, MaxMem=  9663676416 cpu:               1.0 elap:               0.0
 (Enter /nopt/nrel/apps/gaussian/g16C_1/g16/l401.exe)
 ExpMin= 2.65D-02 ExpMax= 2.34D+03 ExpMxC= 2.34D+03 IAcc=3 IRadAn=         5 AccDes= 0.00D+00
 Harris functional with IExCor=  205 and IRadAn=       5 diagonalized for initial guess.
 HarFok:  IExCor=  205 AccDes= 0.00D+00 IRadAn=         5 IDoV= 1 UseB2=F ITyADJ=14
 ICtDFT=  3500011 ScaDFX=  1.000000  1.000000  1.000000  1.000000
 FoFCou: FMM=F IPFlag=           0 FMFlag=      100000 FMFlg1=           0
         NFxFlg=           0 DoJE=T BraDBF=F KetDBF=T FulRan=T
         wScrn=  0.000000 ICntrl=       500 IOpCl=  0 I1Cent=   200000004 NGrid=           0
         NMat0=    1 NMatS0=      1 NMatT0=    0 NMatD0=    1 NMtDS0=    0 NMtDT0=    0
 Petite list used in FoFCou.
 Harris En= -844.016195728759    
 JPrj=0 DoOrth=F DoCkMO=F.
 Initial guess orbital symmetries:
 Alpha Orbitals:
       Occupied  (SG) (SG) (SG) (PI) (PI) (SG) (SG) (PI) (PI) (SG)
                 (SG) (PI)
       Virtual   (PI) (DLTA) (DLTA) (SG) (PI) (PI) (SG) (SG) (SG)
                 (PI) (PI) (PI) (PI) (DLTA) (DLTA) (SG)
 Beta  Orbitals:
       Occupied  (SG) (SG) (SG) (PI) (PI) (SG) (SG) (PI) (PI) (SG)
                 (SG)
       Virtual   (PI) (PI) (DLTA) (DLTA) (SG) (PI) (PI) (SG) (SG)
                 (SG) (PI) (PI) (PI) (PI) (DLTA) (DLTA) (SG)
 Initial guess <Sx>= 0.0000 <Sy>= 0.0000 <Sz>= 0.5000 <S**2>= 0.7500 S= 0.5000
 Leave Link  401 at Fri Mar 25 14:58:39 2022, MaxMem=  9663676416 cpu:               5.4 elap:               0.2
 (Enter /nopt/nrel/apps/gaussian/g16C_1/g16/l502.exe)
 Keep R1 and R2 ints in memory in symmetry-blocked form, NReq=7478207.
 FoFCou: FMM=F IPFlag=           0 FMFlag=           0 FMFlg1=           0
         NFxFlg=           0 DoJE=F BraDBF=F KetDBF=F FulRan=T
         wScrn=  0.000000 ICntrl=       600 IOpCl=  0 I1Cent=           0 NGrid=           0
         NMat0=    1 NMatS0=    406 NMatT0=    0 NMatD0=    1 NMtDS0=    0 NMtDT0=    0
 Petite list used in FoFCou.
 UHF open shell SCF:
 Using DIIS extrapolation, IDIIS=  1040.
 NGot=  9663676416 LenX=  9663625622 LenY=  9663624281
 Requested convergence on RMS density matrix=1.00D-08 within 128 cycles.
 Requested convergence on MAX density matrix=1.00D-06.
 Requested convergence on             energy=1.00D-06.
 No special actions if energy rises.

 Cycle   1  Pass 1  IDiag  1:
 E= -844.439203849902    
 DIIS: error= 8.74D-02 at cycle   1 NSaved=   1.
 NSaved= 1 IEnMin= 1 EnMin= -844.439203849902     IErMin= 1 ErrMin= 8.74D-02
 ErrMax= 8.74D-02  0.00D+00 EMaxC= 1.00D-01 BMatC= 2.28D-01 BMatP= 2.28D-01
 IDIUse=3 WtCom= 1.26D-01 WtEn= 8.74D-01
 Coeff-Com:  0.100D+01
 Coeff-En:   0.100D+01
 Coeff:      0.100D+01
 Gap=     0.096 Goal=   None    Shift=    0.000
 Gap=     0.117 Goal=   None    Shift=    0.000
 GapD=    0.096 DampG=0.500 DampE=0.250 DampFc=0.1250 IDamp=-1.
 Damping current iteration by 1.25D-01
 RMSDP=2.61D-02 MaxDP=4.14D-01              OVMax= 2.50D-02

 Cycle   2  Pass 1  IDiag  1:
 E= -844.454481831770     Delta-E=       -0.015277981869 Rises=F Damp=T
 DIIS: error= 7.23D-02 at cycle   2 NSaved=   2.
 NSaved= 2 IEnMin= 2 EnMin= -844.454481831770     IErMin= 2 ErrMin= 7.23D-02
 ErrMax= 7.23D-02  0.00D+00 EMaxC= 1.00D-01 BMatC= 1.54D-01 BMatP= 2.28D-01
 IDIUse=3 WtCom= 2.77D-01 WtEn= 7.23D-01
 Coeff-Com: -0.433D+01 0.533D+01
 Coeff-En:   0.000D+00 0.100D+01
 Coeff:     -0.120D+01 0.220D+01
 Gap=     0.107 Goal=   None    Shift=    0.000
 Gap=     0.155 Goal=   None    Shift=    0.000
 RMSDP=1.88D-02 MaxDP=3.09D-01 DE=-1.53D-02 OVMax= 3.01D-03

 Cycle   3  Pass 1  IDiag  1:
 E= -844.552152866458     Delta-E=       -0.097671034688 Rises=F Damp=F
 DIIS: error= 1.66D-02 at cycle   3 NSaved=   3.
 NSaved= 3 IEnMin= 3 EnMin= -844.552152866458     IErMin= 3 ErrMin= 1.66D-02
 ErrMax= 1.66D-02  0.00D+00 EMaxC= 1.00D-01 BMatC= 1.62D-02 BMatP= 1.54D-01
 IDIUse=3 WtCom= 8.34D-01 WtEn= 1.66D-01
 Coeff-Com: -0.162D+01 0.210D+01 0.519D+00
 Coeff-En:   0.000D+00 0.000D+00 0.100D+01
 Coeff:     -0.135D+01 0.175D+01 0.599D+00
 Gap=     0.202 Goal=   None    Shift=    0.000
 Gap=     0.267 Goal=   None    Shift=    0.000
 RMSDP=6.83D-03 MaxDP=1.20D-01 DE=-9.77D-02 OVMax= 4.06D-03

 Cycle   4  Pass 1  IDiag  1:
 E= -844.573868518661     Delta-E=       -0.021715652202 Rises=F Damp=F
 DIIS: error= 1.32D-02 at cycle   4 NSaved=   4.
[...]
 NAB=     6 NAA=     3 NBB=     1.
 A-vector RMS=  1.5156446D-05 Max=  3.8376634D-05 conv= 1.00D-05.
 RLE energy=       -0.0328820580
 DE(Corr)= -0.32882617E-01 E(CORR)=     -844.74632759     Delta= 1.35D-06
 NORM(A)=   0.10838500D+01
 Iteration Nr.  62
 **********************
 DD1Dir will call FoFMem   1 times, MxPair=        16
 NAB=     6 NAA=     3 NBB=     1.
 A-vector RMS=  1.1156821D-05 Max=  3.4613100D-05 conv= 1.00D-05.
 RLE energy=       -0.0328822249
 DE(Corr)= -0.32881514E-01 E(CORR)=     -844.74632648     Delta= 1.10D-06
 NORM(A)=   0.10836705D+01
 Iteration Nr.  63
 **********************
 DD1Dir will call FoFMem   1 times, MxPair=        16
 NAB=     6 NAA=     3 NBB=     1.
 A-vector RMS=  7.1985906D-06 Max=  3.1058908D-05 conv= 1.00D-05.
 RLE energy=       -0.0328828774
 DE(Corr)= -0.32881605E-01 E(CORR)=     -844.74632658     Delta=-9.13D-08
 NORM(A)=   0.10835592D+01
 Iteration Nr.  64
 **********************
 DD1Dir will call FoFMem   1 times, MxPair=        16
 NAB=     6 NAA=     3 NBB=     1.
 A-vector RMS=  7.1792227D-06 Max=  2.7061132D-05 conv= 1.00D-05.
 RLE energy=       -0.0328835347
 DE(Corr)= -0.32882374E-01 E(CORR)=     -844.74632734     Delta=-7.68D-07
 NORM(A)=   0.10834777D+01
 Iteration Nr.  65
 **********************
 DD1Dir will call FoFMem   1 times, MxPair=        16
 NAB=     6 NAA=     3 NBB=     1.
 A-vector RMS=  7.4903356D-06 Max=  2.3929245D-05 conv= 1.00D-05.
 RLE energy=       -0.0328836091
 DE(Corr)= -0.32883109E-01 E(CORR)=     -844.74632808     Delta=-7.36D-07
 NORM(A)=   0.10833994D+01
 Iteration Nr.  66
 **********************
 DD1Dir will call FoFMem   1 times, MxPair=        16
 NAB=     6 NAA=     3 NBB=     1.
 A-vector RMS=  7.6289924D-06 Max=  2.0129785D-05 conv= 1.00D-05.
 RLE energy=       -0.0328832677
 DE(Corr)= -0.32883195E-01 E(CORR)=     -844.74632816     Delta=-8.53D-08
 NORM(A)=   0.10833330D+01
 Iteration Nr.  67
 **********************
 DD1Dir will call FoFMem   1 times, MxPair=        16
 NAB=     6 NAA=     3 NBB=     1.
 A-vector RMS=  7.8030746D-06 Max=  1.6059059D-05 conv= 1.00D-05.
 RLE energy=       -0.0328829426
 DE(Corr)= -0.32882705E-01 E(CORR)=     -844.74632768     Delta= 4.89D-07
 NORM(A)=   0.10832890D+01
 Iteration Nr.  68
 **********************
 DD1Dir will call FoFMem   1 times, MxPair=        16
 NAB=     6 NAA=     3 NBB=     1.
 A-vector RMS=  6.3850337D-06 Max=  1.4021359D-05 conv= 1.00D-05.
 RLE energy=       -0.0328831634
 DE(Corr)= -0.32882296E-01 E(CORR)=     -844.74632727     Delta= 4.09D-07
 NORM(A)=   0.10832673D+01
 Iteration Nr.  69
 **********************
 DD1Dir will call FoFMem   1 times, MxPair=        16
 NAB=     6 NAA=     3 NBB=     1.
 A-vector RMS=  4.5209147D-06 Max=  1.4182518D-05 conv= 1.00D-05.
 RLE energy=       -0.0328835862
 DE(Corr)= -0.32882511E-01 E(CORR)=     -844.74632748     Delta=-2.14D-07
 NORM(A)=   0.10832604D+01
 Iteration Nr.  70
 **********************
 DD1Dir will call FoFMem   1 times, MxPair=        16
 NAB=     6 NAA=     3 NBB=     1.
 A-vector RMS=  4.8667832D-06 Max=  1.4311074D-05 conv= 1.00D-05.
 RLE energy=       -0.0328839520
 DE(Corr)= -0.32883023E-01 E(CORR)=     -844.74632799     Delta=-5.12D-07
 NORM(A)=   0.10832576D+01
 Iteration Nr.  71
 **********************
 DD1Dir will call FoFMem   1 times, MxPair=        16
 NAB=     6 NAA=     3 NBB=     1.
 A-vector RMS=  4.3449202D-06 Max=  1.4429871D-05 conv= 1.00D-05.
 RLE energy=       -0.0328839834
 DE(Corr)= -0.32883448E-01 E(CORR)=     -844.74632842     Delta=-4.25D-07
 NORM(A)=   0.10832537D+01
 Iteration Nr.  72
 **********************
 DD1Dir will call FoFMem   1 times, MxPair=        16
 NAB=     6 NAA=     3 NBB=     1.
 A-vector RMS=  3.5415534D-06 Max=  1.4504945D-05 conv= 1.00D-05.
 RLE energy=       -0.0328838613
 DE(Corr)= -0.32883493E-01 E(CORR)=     -844.74632846     Delta=-4.48D-08
 NORM(A)=   0.10832516D+01
 Iteration Nr.  73
 **********************
 DD1Dir will call FoFMem   1 times, MxPair=        16
 NAB=     6 NAA=     3 NBB=     1.
 A-vector RMS=  3.5134651D-06 Max=  1.4496973D-05 conv= 1.00D-05.
 RLE energy=       -0.0328837450
 DE(Corr)= -0.32883323E-01 E(CORR)=     -844.74632829     Delta= 1.69D-07
 NORM(A)=   0.10832544D+01
 Iteration Nr.  74
 **********************
 DD1Dir will call FoFMem   1 times, MxPair=        16
 NAB=     6 NAA=     3 NBB=     1.
 A-vector RMS=  2.9906986D-06 Max=  1.4419092D-05 conv= 1.00D-05.
 RLE energy=       -0.0328838991
 DE(Corr)= -0.32883179E-01 E(CORR)=     -844.74632815     Delta= 1.44D-07
 NORM(A)=   0.10832672D+01
 Iteration Nr.  75
 **********************
 DD1Dir will call FoFMem   1 times, MxPair=        16
 NAB=     6 NAA=     3 NBB=     1.
 A-vector RMS=  3.4873953D-06 Max=  1.4276995D-05 conv= 1.00D-05.
 RLE energy=       -0.0328842198
 DE(Corr)= -0.32883344E-01 E(CORR)=     -844.74632831     Delta=-1.65D-07
 NORM(A)=   0.10832884D+01
 Iteration Nr.  76
 **********************
 DD1Dir will call FoFMem   1 times, MxPair=        16
 NAB=     6 NAA=     3 NBB=     1.
 A-vector RMS=  4.6194646D-06 Max=  1.4114242D-05 conv= 1.00D-05.
 RLE energy=       -0.0328846238
 DE(Corr)= -0.32883741E-01 E(CORR)=     -844.74632871     Delta=-3.97D-07
 NORM(A)=   0.10833245D+01
 Iteration Nr.  77
 **********************
 DD1Dir will call FoFMem   1 times, MxPair=        16
 NAB=     6 NAA=     3 NBB=     1.
 A-vector RMS=  4.5074305D-06 Max=  1.3860874D-05 conv= 1.00D-05.
 RLE energy=       -0.0328846613
 DE(Corr)= -0.32884226E-01 E(CORR)=     -844.74632920     Delta=-4.85D-07
 NORM(A)=   0.10833625D+01
 Iteration Nr.  78
 **********************
 DD1Dir will call FoFMem   1 times, MxPair=        16
 NAB=     6 NAA=     3 NBB=     1.
 A-vector RMS=  4.0004254D-06 Max=  1.3546085D-05 conv= 1.00D-05.
 RLE energy=       -0.0328844933
 DE(Corr)= -0.32884289E-01 E(CORR)=     -844.74632926     Delta=-6.31D-08
 NORM(A)=   0.10833966D+01
 Iteration Nr.  79
 **********************
 DD1Dir will call FoFMem   1 times, MxPair=        16
 NAB=     6 NAA=     3 NBB=     1.
 A-vector RMS=  4.1707587D-06 Max=  1.3194413D-05 conv= 1.00D-05.
 RLE energy=       -0.0328843565
 DE(Corr)= -0.32884060E-01 E(CORR)=     -844.74632903     Delta= 2.29D-07
 NORM(A)=   0.10834323D+01
 Iteration Nr.  80
 **********************
 DD1Dir will call FoFMem   1 times, MxPair=        16
 NAB=     6 NAA=     3 NBB=     1.
 A-vector RMS=  3.4479571D-06 Max=  1.2800850D-05 conv= 1.00D-05.
 RLE energy=       -0.0328845418
 DE(Corr)= -0.32883894E-01 E(CORR)=     -844.74632886     Delta= 1.66D-07
 NORM(A)=   0.10834746D+01
 Iteration Nr.  81
 **********************
 DD1Dir will call FoFMem   1 times, MxPair=        16
 NAB=     6 NAA=     3 NBB=     1.
 A-vector RMS=  3.0715816D-06 Max=  1.2380245D-05 conv= 1.00D-05.
 RLE energy=       -0.0328849033
 DE(Corr)= -0.32884103E-01 E(CORR)=     -844.74632907     Delta=-2.09D-07
 NORM(A)=   0.10835286D+01
 Iteration Nr.  82
 **********************
 DD1Dir will call FoFMem   1 times, MxPair=        16
 NAB=     6 NAA=     3 NBB=     1.
 A-vector RMS=  4.1223141D-06 Max=  1.1905653D-05 conv= 1.00D-05.
 RLE energy=       -0.0328853542
 DE(Corr)= -0.32884561E-01 E(CORR)=     -844.74632953     Delta=-4.58D-07
 NORM(A)=   0.10836194D+01
 Iteration Nr.  83
 **********************
 DD1Dir will call FoFMem   1 times, MxPair=        16
 NAB=     6 NAA=     3 NBB=     1.
 A-vector RMS=  4.1459523D-06 Max=  1.1456588D-05 conv= 1.00D-05.
 RLE energy=       -0.0328853916
 DE(Corr)= -0.32885118E-01 E(CORR)=     -844.74633009     Delta=-5.56D-07
 NORM(A)=   0.10837322D+01
 Iteration Nr.  84
 **********************
 DD1Dir will call FoFMem   1 times, MxPair=        16
 NAB=     6 NAA=     3 NBB=     1.
 A-vector RMS=  4.5165220D-06 Max=  1.3032393D-05 conv= 1.00D-05.
 RLE energy=       -0.0328851443
 DE(Corr)= -0.32885197E-01 E(CORR)=     -844.74633017     Delta=-7.97D-08
 NORM(A)=   0.10838636D+01
 Iteration Nr.  85
 **********************
 DD1Dir will call FoFMem   1 times, MxPair=        16
 NAB=     6 NAA=     3 NBB=     1.
 A-vector RMS=  5.4588319D-06 Max=  1.4491663D-05 conv= 1.00D-05.
 RLE energy=       -0.0328849484
 DE(Corr)= -0.32884871E-01 E(CORR)=     -844.74632984     Delta= 3.26D-07
 NORM(A)=   0.10839945D+01
 Iteration Nr.  86
 **********************
 DD1Dir will call FoFMem   1 times, MxPair=        16
 NAB=     6 NAA=     3 NBB=     1.
 A-vector RMS=  4.9986975D-06 Max=  1.5451028D-05 conv= 1.00D-05.
 RLE energy=       -0.0328852818
 DE(Corr)= -0.32884650E-01 E(CORR)=     -844.74632962     Delta= 2.21D-07
 NORM(A)=   0.10841402D+01
 Iteration Nr.  87
 **********************
 DD1Dir will call FoFMem   1 times, MxPair=        16
 NAB=     6 NAA=     3 NBB=     1.
 A-vector RMS=  4.7824162D-06 Max=  1.5560293D-05 conv= 1.00D-05.
 RLE energy=       -0.0328858841
 DE(Corr)= -0.32885050E-01 E(CORR)=     -844.74633002     Delta=-3.99D-07
 NORM(A)=   0.10843064D+01
 Iteration Nr.  88
 **********************
 DD1Dir will call FoFMem   1 times, MxPair=        16
 NAB=     6 NAA=     3 NBB=     1.
 A-vector RMS=  5.8249376D-06 Max=  1.5982707D-05 conv= 1.00D-05.
 RLE energy=       -0.0328863835
 DE(Corr)= -0.32885843E-01 E(CORR)=     -844.74633081     Delta=-7.94D-07
 NORM(A)=   0.10844958D+01
 Iteration Nr.  89
 **********************
 DD1Dir will call FoFMem   1 times, MxPair=        16
 NAB=     6 NAA=     3 NBB=     1.
 A-vector RMS=  5.0226795D-06 Max=  1.6271031D-05 conv= 1.00D-05.
 RLE energy=       -0.0328862967
 DE(Corr)= -0.32886485E-01 E(CORR)=     -844.74633145     Delta=-6.41D-07
 NORM(A)=   0.10846672D+01
 Iteration Nr.  90
 **********************
 DD1Dir will call FoFMem   1 times, MxPair=        16
 NAB=     6 NAA=     3 NBB=     1.
 A-vector RMS=  3.5249670D-06 Max=  1.5819156D-05 conv= 1.00D-05.
 RLE energy=       -0.0328859924
 DE(Corr)= -0.32886432E-01 E(CORR)=     -844.74633140     Delta= 5.29D-08
 NORM(A)=   0.10848039D+01
 Iteration Nr.  91
 **********************
 DD1Dir will call FoFMem   1 times, MxPair=        16
 NAB=     6 NAA=     3 NBB=     1.
 A-vector RMS=  3.5594446D-06 Max=  1.5222410D-05 conv= 1.00D-05.
 RLE energy=       -0.0328857957
 DE(Corr)= -0.32886048E-01 E(CORR)=     -844.74633102     Delta= 3.84D-07
 NORM(A)=   0.10848987D+01
 Iteration Nr.  92
 **********************
 DD1Dir will call FoFMem   1 times, MxPair=        16
 NAB=     6 NAA=     3 NBB=     1.
 A-vector RMS=  3.3064556D-06 Max=  1.4287431D-05 conv= 1.00D-05.
 RLE energy=       -0.0328859646
 DE(Corr)= -0.32885830E-01 E(CORR)=     -844.74633080     Delta= 2.18D-07
 NORM(A)=   0.10849926D+01
 Iteration Nr.  93
 **********************
 DD1Dir will call FoFMem   1 times, MxPair=        16
 NAB=     6 NAA=     3 NBB=     1.
 A-vector RMS=  3.8479490D-06 Max=  1.2671523D-05 conv= 1.00D-05.
 RLE energy=       -0.0328862893
 DE(Corr)= -0.32886041E-01 E(CORR)=     -844.74633101     Delta=-2.11D-07
 NORM(A)=   0.10850884D+01
 Iteration Nr.  94
 **********************
 DD1Dir will call FoFMem   1 times, MxPair=        16
 NAB=     6 NAA=     3 NBB=     1.
 A-vector RMS=  4.8465636D-06 Max=  1.4905854D-05 conv= 1.00D-05.
 RLE energy=       -0.0328864552
 DE(Corr)= -0.32886492E-01 E(CORR)=     -844.74633146     Delta=-4.51D-07
 NORM(A)=   0.10851739D+01
 Iteration Nr.  95
 **********************
 DD1Dir will call FoFMem   1 times, MxPair=        16
 NAB=     6 NAA=     3 NBB=     1.
 A-vector RMS=  4.0712056D-06 Max=  1.2133491D-05 conv= 1.00D-05.
 RLE energy=       -0.0328862379
 DE(Corr)= -0.32886718E-01 E(CORR)=     -844.74633169     Delta=-2.26D-07
 NORM(A)=   0.10852355D+01
 Iteration Nr.  96
 **********************
 DD1Dir will call FoFMem   1 times, MxPair=        16
 NAB=     6 NAA=     3 NBB=     1.
 A-vector RMS=  2.5434634D-06 Max=  8.1695692D-06 conv= 1.00D-05.
 RLE energy=       -0.0328859926
 DE(Corr)= -0.32886485E-01 E(CORR)=     -844.74633145     Delta= 2.33D-07
 NORM(A)=   0.10852721D+01
 Iteration Nr.  97
 **********************
 DD1Dir will call FoFMem   1 times, MxPair=        16
 NAB=     6 NAA=     3 NBB=     1.
 A-vector RMS=  2.1207263D-06 Max=  6.6199726D-06 conv= 1.00D-05.
 RLE energy=       -0.0328858845
 DE(Corr)= -0.32886174E-01 E(CORR)=     -844.74633114     Delta= 3.11D-07
 NORM(A)=   0.10852901D+01
 Iteration Nr.  98
 **********************
 DD1Dir will call FoFMem   1 times, MxPair=        16
 NAB=     6 NAA=     3 NBB=     1.
 A-vector RMS=  1.7239409D-06 Max=  5.8815473D-06 conv= 1.00D-05.
 RLE energy=       -0.0328859214
 DE(Corr)= -0.32886050E-01 E(CORR)=     -844.74633102     Delta= 1.24D-07
 NORM(A)=   0.10853058D+01
 Iteration Nr.  99
 **********************
 DD1Dir will call FoFMem   1 times, MxPair=        16
 NAB=     6 NAA=     3 NBB=     1.
 A-vector RMS=  1.4854784D-06 Max=  5.0743688D-06 conv= 1.00D-05.
 RLE energy=       -0.0328860029
 DE(Corr)= -0.32886095E-01 E(CORR)=     -844.74633107     Delta=-4.59D-08
 NORM(A)=   0.10853194D+01
 CI/CC converged in   99 iterations to DelEn=-4.59D-08 Conv= 1.00D-07 ErrA1= 1.49D-06 Conv= 1.00D-05
 Wavefunction amplitudes converged. E(Corr)=     -844.74633107    
 Dominant configurations:
 ***********************
 Spin Case        I    J    A    B          Value
   AAAA          10   11   20   22      -0.154820D+00
   ABAB          12   10   23   14      -0.149686D+00
 Largest amplitude= 1.55D-01

 S**2, projected HF & approx projected MPn energies after annihilation of
 unwanted spin states (see manual for definitions):

 spins       (S**2,0) (S**2,1)    PUHF        PMP2        PMP3        PMP4
 annihilated
 s+1         0.18682  0.32508 -844.725480 -844.739347 -844.745783
 s+1,s+2     0.75001  0.75001 -844.718590 -844.732572 -844.739156

 Discarding MO integrals.
 Leave Link  913 at Fri Mar 25 14:58:41 2022, MaxMem=  9663676416 cpu:              22.5 elap:               0.7
 (Enter /nopt/nrel/apps/gaussian/g16C_1/g16/l601.exe)
 Copying SCF densities to generalized density rwf, IOpCl= 1 IROHF=0.

 **********************************************************************

            Population analysis using the SCF Density.

 **********************************************************************

 Orbital symmetries:
 Alpha Orbitals:
       Occupied  (SG) (SG) (PI) (SG) (PI) (SG) (PI) (PI) (SG) (?A)
                 (?B) (SG)
       Virtual   (SG) (PI) (PI) (SG) (?B) (?B) (?A) (?A) (?A) (?B)
                 (?A) (?A) (?B) (?A) (?B) (?A)
 Beta  Orbitals:
       Occupied  (SG) (SG) (SG) (PI) (PI) (SG) (SG) (PI) (PI) (SG)
                 (SG)
       Virtual   (PI) (PI) (SG) (SG) (SG) (PI) (PI) (?A) (PI) (?A)
                 (?A) (PI) (?B) (PI) (?B) (?B) (PI)
 Unable to determine electronic state:  an orbital has unidentified symmetry.
 Alpha  occ. eigenvalues -- -182.04233 -21.33652 -17.68183 -17.68170 -17.68155
 Alpha  occ. eigenvalues --   -2.93054  -1.86408  -1.86265  -1.86032  -0.42330
 Alpha  occ. eigenvalues --   -0.42219  -0.23850
 Alpha virt. eigenvalues --    0.01989   0.02635   0.02655   0.10786   0.15703
 Alpha virt. eigenvalues --    0.15760   0.15899   0.21335   0.21377   0.21420
 Alpha virt. eigenvalues --    0.34069   1.67732   1.67800   1.80094   1.80147
 Alpha virt. eigenvalues --    1.80303
  Beta  occ. eigenvalues -- -182.04215 -21.30505 -17.65161 -17.65123 -17.65055
  Beta  occ. eigenvalues --   -2.80002  -1.70225  -1.70222  -1.70056  -0.46278
  Beta  occ. eigenvalues --   -0.21719
  Beta virt. eigenvalues --    0.02555   0.02561   0.08356   0.12623   0.16478
  Beta virt. eigenvalues --    0.16491   0.16496   0.25756   0.25885   0.26010
  Beta virt. eigenvalues --    0.28708   0.28816   1.82933   1.82977   1.83096
  Beta virt. eigenvalues --    1.85568   1.85638
          Condensed to atoms (all electrons):
               1          2
     1  H    0.851283   0.085108
     2  Ti   0.085108  21.978500
          Atomic-Atomic Spin Densities.
               1          2
     1  H   -0.827852  -0.036806
     2  Ti  -0.036806   1.901464
 Mulliken charges and spin densities:
               1          2
     1  H    0.063608  -0.864658
     2  Ti  -0.063608   1.864658
 Sum of Mulliken charges =  -0.00000   1.00000
 Mulliken charges and spin densities with hydrogens summed into heavy atoms:
               1          2
     2  Ti  -0.000000   1.000000
 N-N= 3.880632880080D+00 E-N=-2.011140320935D+03  KE= 8.448632674263D+02
 Symmetry A1   KE= 6.552170777495D+02
 Symmetry A2   KE= 9.048493268377D-32
 Symmetry B1   KE= 9.679348648999D+01
 Symmetry B2   KE= 9.285270318679D+01
 Symmetry A1   SP= 1.632842089202D-14
 Symmetry A2   SP= 2.298995394945D-32
 Symmetry B1   SP= 1.000000000000D+00
 Symmetry B2   SP= 7.502398875888D-15

 Atomic contributions to Alpha molecular orbitals:
 Alpha occ 1 OE=-182.042 is Ti2-s=1.0000
 Alpha occ 2 OE=-21.337 is Ti2-s=1.0000
 Alpha occ 3 OE=-17.682 is Ti2-p=1.0000
 Alpha occ 4 OE=-17.682 is Ti2-p=1.0000
 Alpha occ 5 OE=-17.682 is Ti2-p=1.0000
 Alpha occ 6 OE=-2.931 is Ti2-s=1.0000
 Alpha occ 7 OE=-1.864 is Ti2-p=1.0000
 Alpha occ 8 OE=-1.863 is Ti2-p=1.0000
 Alpha occ 9 OE=-1.860 is Ti2-p=1.0000
 Alpha occ 10 OE=-0.423 is Ti2-d=0.9996
 Alpha occ 11 OE=-0.422 is Ti2-d=0.9996
 Alpha occ 12 OE=-0.239 is Ti2-s=0.8678
 Alpha vir 13 OE=0.020 is Ti2-p=0.8342 Ti2-s=0.1048
 Alpha vir 14 OE=0.026 is Ti2-p=0.9997
 Alpha vir 15 OE=0.027 is Ti2-p=0.9998
 Alpha vir 16 OE=0.108 is Ti2-s=0.9556
 Alpha vir 17 OE=0.157 is Ti2-p=0.9960
 Alpha vir 18 OE=0.158 is Ti2-p=0.9998
 Alpha vir 19 OE=0.159 is Ti2-p=0.9276
 Alpha vir 20 OE=0.213 is Ti2-d=1.0000
 Alpha vir 21 OE=0.214 is Ti2-d=0.9746
 Alpha vir 22 OE=0.214 is Ti2-d=0.9957
 Alpha vir 23 OE=0.341 is H1-s=0.8702
 Alpha vir 24 OE=1.677 is Ti2-d=0.9999
 Alpha vir 25 OE=1.678 is Ti2-d=1.0000
 Alpha vir 26 OE=1.801 is Ti2-d=1.0000
 Alpha vir 27 OE=1.801 is Ti2-d=1.0000
 Alpha vir 28 OE=1.803 is Ti2-d=0.9997

 Atomic contributions to Beta  molecular orbitals:
 Beta  occ 1 OE=-182.042 is Ti2-s=1.0000
 Beta  occ 2 OE=-21.305 is Ti2-s=1.0000
 Beta  occ 3 OE=-17.652 is Ti2-p=1.0000
 Beta  occ 4 OE=-17.651 is Ti2-p=1.0000
 Beta  occ 5 OE=-17.651 is Ti2-p=1.0000
 Beta  occ 6 OE=-2.800 is Ti2-s=1.0000
 Beta  occ 7 OE=-1.702 is Ti2-p=1.0000
 Beta  occ 8 OE=-1.702 is Ti2-p=1.0000
 Beta  occ 9 OE=-1.701 is Ti2-p=1.0000
 Beta  occ 10 OE=-0.463 is H1-s=0.8916
 Beta  occ 11 OE=-0.217 is Ti2-s=0.8571 Ti2-p=0.1340
 Beta  vir 12 OE=0.026 is Ti2-p=0.9998
 Beta  vir 13 OE=0.026 is Ti2-p=0.9998
 Beta  vir 14 OE=0.084 is Ti2-p=0.7862 Ti2-s=0.1461
 Beta  vir 15 OE=0.126 is Ti2-s=0.9105
 Beta  vir 16 OE=0.165 is Ti2-p=0.9512
 Beta  vir 17 OE=0.165 is Ti2-p=0.9989
 Beta  vir 18 OE=0.165 is Ti2-p=0.9982
 Beta  vir 19 OE=0.258 is Ti2-d=1.0000
 Beta  vir 20 OE=0.259 is Ti2-d=0.9981
 Beta  vir 21 OE=0.260 is Ti2-d=0.9936
 Beta  vir 22 OE=0.287 is Ti2-d=0.9983
 Beta  vir 23 OE=0.288 is Ti2-d=0.9987
 Beta  vir 24 OE=1.829 is Ti2-d=1.0000
 Beta  vir 25 OE=1.830 is Ti2-d=1.0000
 Beta  vir 26 OE=1.831 is Ti2-d=0.9999
 Beta  vir 27 OE=1.856 is Ti2-d=1.0000
 Beta  vir 28 OE=1.856 is Ti2-d=1.0000
 
 Leave Link  601 at Fri Mar 25 14:58:41 2022, MaxMem=  9663676416 cpu:               0.7 elap:               0.0
 (Enter /nopt/nrel/apps/gaussian/g16C_1/g16/l9999.exe)

 Test job not archived.
 1\1\GINC-R1I7N35\SP\UCCSD-FC\Gen\H1Ti1(2)\USER\25-Mar-2022\0\\#P C
 CSD(MaxCyc=200)/GEN sp pop=AllOrbitals iop(3/33=1,3/36=-1)\\test\\0,2\
 H,0,0.,0.,0.\Ti,0,0.,0.,3.\\Version=ES64L-G16RevC.01\HF=-844.713445\MP
 2=-844.7274792\MP3=-844.7341357\MP4D=-844.7377475\MP4DQ=-844.737548\PU
 HF=-844.7254803\PMP2-0=-844.7393473\PMP3-0=-844.7457826\MP4SDQ=-844.73
 78417\CCSD=-844.7463311\S2=1.996318\S2-1=1.946042\S2A=1.540334\RMSD=6.
 508e-09\PG=C*V [C*(H1Ti1)]\\@


 FOR THE NATURE OF THE CHEMICAL BOND
 IS THE PROBLEM AT THE HEART OF ALL CHEMISTRY.

                     -- BRYCE CRAWFORD, JR., 1953
 Job cpu time:       0 days  0 hours  1 minutes  5.1 seconds.
 Elapsed time:       0 days  0 hours  0 minutes  2.2 seconds.
 File lengths (MBytes):  RWF=     13 Int=      0 D2E=      0 Chk=      1 Scr=      1
 Normal termination of Gaussian 16 at Fri Mar 25 14:58:41 2022.
