 Entering Gaussian System, Link 0=g16
 Initial command:
 /nopt/nrel/apps/gaussian/g16C_1/g16/l1.exe "/lustre/eaglefs/scratch/user/qc/kh-dissc/kh-3-ccsd-1.5-321g/Gau-21604.inp" -scrdir="/lustre/eaglefs/scratch/user/qc/kh-dissc/kh-3-ccsd-1.5-321g/"
 Default is to use a total of  36 processors:
                               36 via shared-memory
                                1 via Linda
 Entering Link 1 = /nopt/nrel/apps/gaussian/g16C_1/g16/l1.exe PID=     21605.
  
 Copyright (c) 1988-2019, Gaussian, Inc.  All Rights Reserved.
  
 This is part of the Gaussian(R) 16 program.  It is based on
 the Gaussian(R) 09 system (copyright 2009, Gaussian, Inc.),
 the Gaussian(R) 03 system (copyright 2003, Gaussian, Inc.),
 the Gaussian(R) 98 system (copyright 1998, Gaussian, Inc.),
 the Gaussian(R) 94 system (copyright 1995, Gaussian, Inc.),
 the Gaussian 92(TM) system (copyright 1992, Gaussian, Inc.),
 the Gaussian 90(TM) system (copyright 1990, Gaussian, Inc.),
 the Gaussian 88(TM) system (copyright 1988, Gaussian, Inc.),
 the Gaussian 86(TM) system (copyright 1986, Carnegie Mellon
 University), and the Gaussian 82(TM) system (copyright 1983,
 Carnegie Mellon University). Gaussian is a federally registered
 trademark of Gaussian, Inc.
  
 This software contains proprietary and confidential information,
 including trade secrets, belonging to Gaussian, Inc.
  
 This software is provided under written license and may be
 used, copied, transmitted, or stored only in accord with that
 written license.
  
 The following legend is applicable only to US Government
 contracts under FAR:
  
                    RESTRICTED RIGHTS LEGEND
  
 Use, reproduction and disclosure by the US Government is
 subject to restrictions as set forth in subparagraphs (a)
 and (c) of the Commercial Computer Software - Restricted
 Rights clause in FAR 52.227-19.
  
 Gaussian, Inc.
 340 Quinnipiac St., Bldg. 40, Wallingford CT 06492
  
  
 ---------------------------------------------------------------
 Warning -- This program may not be used in any manner that
 competes with the business of Gaussian, Inc. or will provide
 assistance to any competitor of Gaussian, Inc.  The licensee
 of this program is prohibited from giving any competitor of
 Gaussian, Inc. access to this program.  By using this program,
 the user acknowledges that Gaussian, Inc. is engaged in the
 business of creating and licensing software in the field of
 computational chemistry and represents and warrants to the
 licensee that it is not a competitor of Gaussian, Inc. and that
 it will not use this program in any manner prohibited above.
 ---------------------------------------------------------------
  

 Cite this work as:
 Gaussian 16, Revision C.01,
 M. J. Frisch, G. W. Trucks, H. B. Schlegel, G. E. Scuseria, 
 M. A. Robb, J. R. Cheeseman, G. Scalmani, V. Barone, 
 G. A. Petersson, H. Nakatsuji, X. Li, M. Caricato, A. V. Marenich, 
 J. Bloino, B. G. Janesko, R. Gomperts, B. Mennucci, H. P. Hratchian, 
 J. V. Ortiz, A. F. Izmaylov, J. L. Sonnenberg, D. Williams-Young, 
 F. Ding, F. Lipparini, F. Egidi, J. Goings, B. Peng, A. Petrone, 
 T. Henderson, D. Ranasinghe, V. G. Zakrzewski, J. Gao, N. Rega, 
 G. Zheng, W. Liang, M. Hada, M. Ehara, K. Toyota, R. Fukuda, 
 J. Hasegawa, M. Ishida, T. Nakajima, Y. Honda, O. Kitao, H. Nakai, 
 T. Vreven, K. Throssell, J. A. Montgomery, Jr., J. E. Peralta, 
 F. Ogliaro, M. J. Bearpark, J. J. Heyd, E. N. Brothers, K. N. Kudin, 
 V. N. Staroverov, T. A. Keith, R. Kobayashi, J. Normand, 
 K. Raghavachari, A. P. Rendell, J. C. Burant, S. S. Iyengar, 
 J. Tomasi, M. Cossi, J. M. Millam, M. Klene, C. Adamo, R. Cammi, 
 J. W. Ochterski, R. L. Martin, K. Morokuma, O. Farkas, 
 J. B. Foresman, and D. J. Fox, Gaussian, Inc., Wallingford CT, 2019.
 
 ******************************************
 Gaussian 16:  ES64L-G16RevC.01  3-Jul-2019
                28-Mar-2022 
 ******************************************
 %chk=molecule
 Default route: CacheSize=180224 MaxDisk=256GB
 ----------------------------------------------------------------------
 #P CCSD(MaxCyc=200,SaveAmplitudes,ReadAmplitudes)/GEN sp pop=AllOrbita
 ls iop(3/33=1,3/36=-1)
 ----------------------------------------------------------------------
 1/4=180224,38=1,172=1/1;
 2/4=180224,12=2,17=6,18=5,40=1/2;
 3/4=180224,5=7,11=9,25=1,30=1,33=1,36=-1/1,2,3;
 4/4=180224/1;
 5/4=180224,5=2,38=5/2;
 8/4=180224,6=4,9=120000,10=1,24=1/1,4;
 9/4=180224,5=7,6=200,77=1/13;
 6/4=180224,7=2,8=2,9=2,10=2,96=-1/1;
 99/4=180224,5=1,9=1/99;
 Leave Link    1 at Mon Mar 28 14:38:40 2022, MaxMem=           0 cpu:               2.2 elap:               0.1
 (Enter /nopt/nrel/apps/gaussian/g16C_1/g16/l101.exe)
 ----
 test
 ----
 Symbolic Z-matrix:
 Charge =  0 Multiplicity = 3
 H                     0.        0.        0. 
 K                     0.        0.        1.5 
 
 ITRead=  0  0
 MicOpt= -1 -1
 NAtoms=      2 NQM=        2 NQMF=       0 NMMI=      0 NMMIF=      0
                NMic=       0 NMicF=      0.
                    Isotopes and Nuclear Properties:
 (Nuclear quadrupole moments (NQMom) in fm**2, nuclear magnetic moments (NMagM)
  in nuclear magnetons)

  Atom         1           2
 IAtWgt=           1          39
 AtmWgt=   1.0078250  38.9637079
 NucSpn=           1           3
 AtZEff=  -0.0000000  -0.0000000
 NQMom=    0.0000000   5.8500000
 NMagM=    2.7928460   0.3914660
 AtZNuc=   1.0000000  19.0000000
 Leave Link  101 at Mon Mar 28 14:38:40 2022, MaxMem=  9663676416 cpu:               3.0 elap:               0.1
 (Enter /nopt/nrel/apps/gaussian/g16C_1/g16/l202.exe)
                          Input orientation:                          
 ---------------------------------------------------------------------
 Center     Atomic      Atomic             Coordinates (Angstroms)
 Number     Number       Type             X           Y           Z
 ---------------------------------------------------------------------
      1          1           0        0.000000    0.000000    0.000000
      2         19           0        0.000000    0.000000    1.500000
 ---------------------------------------------------------------------
 Stoichiometry    HK(3)
 Framework group  C*V[C*(HK)]
 Deg. of freedom     1
 Full point group                 C*V     NOp   4
 Largest Abelian subgroup         C2V     NOp   4
 Largest concise Abelian subgroup C1      NOp   1
                         Standard orientation:                         
 ---------------------------------------------------------------------
 Center     Atomic      Atomic             Coordinates (Angstroms)
 Number     Number       Type             X           Y           Z
 ---------------------------------------------------------------------
      1          1           0        0.000000    0.000000   -1.425000
      2         19           0        0.000000    0.000000    0.075000
 ---------------------------------------------------------------------
 Rotational constants (GHZ):           0.0000000         228.6336047         228.6336047
 Leave Link  202 at Mon Mar 28 14:38:40 2022, MaxMem=  9663676416 cpu:               1.8 elap:               0.1
 (Enter /nopt/nrel/apps/gaussian/g16C_1/g16/l301.exe)
 General basis read from cards:  (5D, 7F)
                         Coordinates in L301:                         
 ---------------------------------------------------------------------
 Center     Atomic      Atomic             Coordinates (Angstroms)
 Number     Number       Type             X           Y           Z
 ---------------------------------------------------------------------
      1          1           0        0.000000    0.000000   -1.425000
      2         19           0        0.000000    0.000000    0.075000
 ---------------------------------------------------------------------
 Centers:       1
 STO-3G
 ****
 Centers:       2
 3-21G
 ****
 FixB: optimizing general contractions.
 Ernie: Thresh=  0.10000D-02 Tol=  0.10000D-05 Strict=F.
 IA=     1 ShT= 0 ShC= 0 NL=   1 NS=   0.
 IA=     1 L=0 SC=0 ISt=    0 NBk=    0 NP=    0 IndPr=    0.
 IA=     2 ShT= 0 ShC= 0 NL=   1 NS=   0.
 IA=     2 L=0 SC=0 ISt=    0 NBk=    0 NP=    0 IndPr=    0.
 IA=     2 ShT= 1 ShC= 0 NL=   4 NS=   1.
 IA=     2 L=1 SC=0 ISt=    1 NBk=    3 NP=    8 IndPr=    0.
 DoElim1:  L=1 select primitive    1 from    2 using    1 C=-1.09D-01
 DoElim1:  L=1 select primitive    1 from    3 using    1 C=-1.09D-01
 DoElim1:  L=1 select primitive    4 from    3 using    2 C=-2.70D-01
 DoElim2:  L=1 select primitive    8 from    2 using    3 C= 1.13D+00
 DoElim2:  L=1 select primitive    8 from    1 using    3 C= 1.13D+00
 DoElim2:  L=1 select primitive    6 from    1 using    2 C= 8.11D-01
 DoElim1:  L=1 select primitive    1 from    2 using    1 C= 1.34D-01
 DoElim1:  L=1 select primitive    1 from    3 using    1 C= 1.34D-01
 DoElim1:  L=1 select primitive    4 from    3 using    2 C= 1.99D-02
 DoElim2:  L=1 select primitive    8 from    2 using    3 C= 1.00D+00
 DoElim2:  L=1 select primitive    8 from    1 using    3 C= 1.00D+00
 DoElim2:  L=1 select primitive    6 from    1 using    2 C= 6.45D-01
 Delete L=1 primitive    6 from    3 C=  0.00D+00.
 Delete L=1 primitive    5 from    3 C=  0.00D+00.
 Delete L=1 primitive    4 from    3 C=  0.00D+00.
 Delete L=1 primitive    3 from    3 C=  0.00D+00.
 Delete L=1 primitive    2 from    3 C=  0.00D+00.
 Delete L=1 primitive    1 from    3 C=  0.00D+00.
 Delete L=1 primitive    8 from    2 C=  0.00D+00.
 Delete L=1 primitive    7 from    2 C=  0.00D+00.
 Delete L=1 primitive    3 from    2 C=  0.00D+00.
 Delete L=1 primitive    2 from    2 C=  0.00D+00.
 Delete L=1 primitive    1 from    2 C=  0.00D+00.
 Delete L=1 primitive    8 from    1 C=  0.00D+00.
 Delete L=1 primitive    7 from    1 C=  0.00D+00.
 Delete L=1 primitive    6 from    1 C=  0.00D+00.
 Delete L=1 primitive    5 from    1 C=  0.00D+00.
 Delete L=1 primitive    4 from    1 C=  0.00D+00.
 IA=     2 L=1 SC=0 ISt=    0 NBk=    0 NP=    0 IndPr=    8.
 LdAtmC:  AtmChg=     1.000000    19.000000
 AtZEff=     -1.0000000    -22.4200000
 NEqShl: 
              1            2            3            4
     1            1            1            1            1
     2            2            2            2            2
     3            3            3            3            3
     4            4            4            4            4
     5            5            5            5            5
     6            6            6            6            6
 NEqBas: 
              1            2            3            4
     1            1            1            1            1
     2            2            2            2            2
     3            3            3            3            3
     4            4           -4           -4            4
     5            5           -5            5           -5
     6            6            6            6            6
     7            7            7            7            7
     8            8           -8           -8            8
     9            9           -9            9           -9
    10           10           10           10           10
    11           11           11           11           11
    12           12          -12          -12           12
    13           13          -13           13          -13
    14           14           14           14           14
    15           15           15           15           15
    16           16          -16          -16           16
    17           17          -17           17          -17
    18           18           18           18           18
 There are    10 symmetry adapted cartesian basis functions of A1  symmetry.
   1         1   1   1   1
   2         2   2   2   2
   3         3   3   3   3
   4         6   6   6   6
   5         7   7   7   7
   6        10  10  10  10
   7        11  11  11  11
   8        14  14  14  14
   9        15  15  15  15
  10        18  18  18  18
 There are     0 symmetry adapted cartesian basis functions of A2  symmetry.
 There are     4 symmetry adapted cartesian basis functions of B1  symmetry.
  11         4   4   4   4
  12         8   8   8   8
  13        12  12  12  12
  14        16  16  16  16
 There are     4 symmetry adapted cartesian basis functions of B2  symmetry.
  15         5   5   5   5
  16         9   9   9   9
  17        13  13  13  13
  18        17  17  17  17
 Order= 1 2 4 3
 Reordered character table:
              1            2            3            4            5
     1            1            1            1            1            1
     2            2            1            1           -1           -1
     3            4            1           -1           -1            1
     4            3            1           -1            1           -1
 NEqShl: 
              1            2            3            4
     1            1            1            1            1
     2            2            2            2            2
     3            3            3            3            3
     4            4            4            4            4
     5            5            5            5            5
     6            6            6            6            6
 NEqBas: 
              1            2            3            4
     1            1            1            1            1
     2            2            2            2            2
     3            3            3            3            3
     4            4           -4           -4            4
     5            5           -5            5           -5
     6            6            6            6            6
     7            7            7            7            7
     8            8           -8           -8            8
     9            9           -9            9           -9
    10           10           10           10           10
    11           11           11           11           11
    12           12          -12          -12           12
    13           13          -13           13          -13
    14           14           14           14           14
    15           15           15           15           15
    16           16          -16          -16           16
    17           17          -17           17          -17
    18           18           18           18           18
 There are    10 symmetry adapted basis functions of A1  symmetry.
   1         1   1   1   1
   2         2   2   2   2
   3         3   3   3   3
   4         6   6   6   6
   5         7   7   7   7
   6        10  10  10  10
   7        11  11  11  11
   8        14  14  14  14
   9        15  15  15  15
  10        18  18  18  18
 There are     0 symmetry adapted basis functions of A2  symmetry.
 There are     4 symmetry adapted basis functions of B1  symmetry.
  11         4   4   4   4
  12         8   8   8   8
  13        12  12  12  12
  14        16  16  16  16
 There are     4 symmetry adapted basis functions of B2  symmetry.
  15         5   5   5   5
  16         9   9   9   9
  17        13  13  13  13
  18        17  17  17  17
 Order= 1 2 4 3
 Reordered character table:
              1            2            3            4            5
     1            1            1            1            1            1
     2            2            1            1           -1           -1
     3            4            1           -1           -1            1
     4            3            1           -1            1           -1
    18 basis functions,    42 primitive gaussians,    18 cartesian basis functions
    11 alpha electrons        9 beta electrons
       nuclear repulsion energy         6.7029113383 Hartrees.
 IS=     1 IAt=     1 ISR=     1 T=0 IP=      1 IndIP=      1 IndIPD=      0 C=  2.769344D-01  0.000000D+00                             NZ=T
 IS=     1 IAt=     1 ISR=     1 T=0 IP=      2 IndIP=      2 IndIPD=      1 C=  2.678389D-01  0.000000D+00                             NZ=T
 IS=     1 IAt=     1 ISR=     1 T=0 IP=      3 IndIP=      3 IndIPD=      2 C=  8.347367D-02  0.000000D+00                             NZ=T
 IS=     2 IAt=     2 ISR=     1 T=0 IP=      1 IndIP=      4 IndIPD=      0 C=  1.235533D+01  0.000000D+00                             NZ=T
 IS=     2 IAt=     2 ISR=     1 T=0 IP=      2 IndIP=      5 IndIPD=      1 C=  1.757620D+01  0.000000D+00                             NZ=T
 IS=     2 IAt=     2 ISR=     1 T=0 IP=      3 IndIP=      6 IndIPD=      2 C=  9.965255D+00  0.000000D+00                             NZ=T
 IS=     3 IAt=     2 ISR=     2 T=1 IP=      1 IndIP=      7 IndIPD=      0 C= -1.917303D+00  3.974198D+01                             NZ=T
 IS=     3 IAt=     2 ISR=     2 T=1 IP=      2 IndIP=      8 IndIPD=      1 C=  6.276214D-01  2.313166D+01                             NZ=T
 IS=     3 IAt=     2 ISR=     2 T=1 IP=      3 IndIP=      9 IndIPD=      2 C=  2.074825D+00  4.747626D+00                             NZ=T
 IS=     4 IAt=     2 ISR=     3 T=1 IP=      1 IndIP=     10 IndIPD=      0 C= -5.565498D-01  1.669766D-01                             NZ=T
 IS=     4 IAt=     2 ISR=     3 T=1 IP=      2 IndIP=     11 IndIPD=      1 C=  2.958337D-01  7.678126D-01                             NZ=T
 IS=     4 IAt=     2 ISR=     3 T=1 IP=      3 IndIP=     12 IndIPD=      2 C=  2.772726D-01  2.705395D-01                             NZ=T
 IS=     5 IAt=     2 ISR=     4 T=1 IP=      1 IndIP=     13 IndIPD=      0 C= -6.663323D-02  7.553623D-05                             NZ=T
 IS=     5 IAt=     2 ISR=     4 T=1 IP=      2 IndIP=     14 IndIPD=      1 C=  7.057644D-02  2.467884D-02                             NZ=T
 IS=     6 IAt=     2 ISR=     5 T=1 IP=      1 IndIP=     15 IndIPD=      0 C=  3.215666D-02  8.150947D-03                             NZ=T
 IExCor=    0 DFT=F Ex=HF Corr=None ExCW=0 ScaHFX=  1.000000
 ScaDFX=  1.000000  1.000000  1.000000  1.000000 ScalE2=  1.000000  1.000000
 IRadAn=      5 IRanWt=     -1 IRanGd=            0 ICorTp=0 IEmpDi=  4
 NAtoms=    2 NActive=    2 NUniq=    2 SFac= 1.00D+00 NAtFMM=   60 NAOKFM=F Big=F
 Integral buffers will be    131072 words long.
 Raffenetti 2 integral format.
 Two-electron integral symmetry is turned on.
 Leave Link  301 at Mon Mar 28 14:38:40 2022, MaxMem=  9663676416 cpu:               2.1 elap:               0.1
 (Enter /nopt/nrel/apps/gaussian/g16C_1/g16/l302.exe)
 NPDir=0 NMtPBC=     1 NCelOv=     1 NCel=       1 NClECP=     1 NCelD=      1
         NCelK=      1 NCelE2=     1 NClLst=     1 CellRange=     0.0.
 One-electron integrals computed using PRISM.
 One-electron integral symmetry used in STVInt
 Entering OneElI...
 Calculate overlap and kinetic energy integrals
    NBasis =  18  MinDer = 0  MaxDer = 0
 Requested accuracy = 0.1000D-12
 Symmetry will be used
 PrmmSu-InSpLW:  IPartL=    0 NPrtUS=   36 NPrtUL=    1 DoSpLW=F IThBeg=    0 IThEnd=   35 NThAct=   36.
 PrSmSu:  IncTry=   512 NBBP=             21 NTPThr=   100 NPartT=   36 Incr=           1 LDynOK=F GPUOK=F.
 PrsmSu:  NPrtUS=  36 ThrOK=T IAlg=1 LenDen=           0 ISkipM=0 DoSpLW=F IThBeg=    0 IThEnd=   35.
 Prism:   IPart=     0 DynPar=F LinDyn=F Incr=           1.
 PRISM was handed   268433216 working-precision words and    21 shell-pairs
 PRISM was handed   268433216 working-precision words and    21 shell-pairs
 PRISM was handed   268433216 working-precision words and    21 shell-pairs
 PRISM was handed   268433216 working-precision words and    21 shell-pairs
 PRISM was handed   268433216 working-precision words and    21 shell-pairs
 PRISM was handed   268433216 working-precision words and    21 shell-pairs
 PRISM was handed   268433216 working-precision words and    21 shell-pairs
 PRISM was handed   268433216 working-precision words and    21 shell-pairs
 PRISM was handed   268433216 working-precision words and    21 shell-pairs
 PRISM was handed   268433216 working-precision words and    21 shell-pairs
 PRISM was handed   268433216 working-precision words and    21 shell-pairs
 PRISM was handed   268433216 working-precision words and    21 shell-pairs
 PRISM was handed   268433216 working-precision words and    21 shell-pairs
 IPart= 10 NShTot=           0 NBatch=           0 AvBLen=         0.0
 IPart= 32 NShTot=           0 NBatch=           0 AvBLen=         0.0
 IPart=  7 NShTot=           0 NBatch=           0 AvBLen=         0.0
 IPart= 12 NShTot=           0 NBatch=           0 AvBLen=         0.0
 IPart=  5 NShTot=           0 NBatch=           0 AvBLen=         0.0
 IPart=  6 NShTot=           0 NBatch=           0 AvBLen=         0.0
 IPart=  9 NShTot=           0 NBatch=           0 AvBLen=         0.0
 IPart= 16 NShTot=           0 NBatch=           0 AvBLen=         0.0
 PRISM was handed   268433216 working-precision words and    21 shell-pairs
 IPart= 15 NShTot=           0 NBatch=           0 AvBLen=         0.0
 IPart=  8 NShTot=           0 NBatch=           0 AvBLen=         0.0
 PRISM was handed   268433216 working-precision words and    21 shell-pairs
 PRISM was handed   268433216 working-precision words and    21 shell-pairs
 PRISM was handed   268433216 working-precision words and    21 shell-pairs
 PRISM was handed   268433216 working-precision words and    21 shell-pairs
 PRISM was handed   268433216 working-precision words and    21 shell-pairs
 PRISM was handed   268433216 working-precision words and    21 shell-pairs
 IPart=  3 NShTot=           1 NBatch=           1 AvBLen=         1.0
 IPart=  2 NShTot=           3 NBatch=           3 AvBLen=         1.0
 IPart= 21 NShTot=           0 NBatch=           0 AvBLen=         0.0
 IPart= 13 NShTot=           0 NBatch=           0 AvBLen=         0.0
 IPart=  1 NShTot=           7 NBatch=           7 AvBLen=         1.0
 PRISM was handed   268433216 working-precision words and    21 shell-pairs
 IPart= 27 NShTot=           0 NBatch=           0 AvBLen=         0.0
 IPart= 24 NShTot=           0 NBatch=           0 AvBLen=         0.0
 IPart= 25 NShTot=           0 NBatch=           0 AvBLen=         0.0
 IPart= 34 NShTot=           0 NBatch=           0 AvBLen=         0.0
 PRISM was handed   268433216 working-precision words and    21 shell-pairs
 PRISM was handed   268433216 working-precision words and    21 shell-pairs
 PRISM was handed   268433216 working-precision words and    21 shell-pairs
 PRISM was handed   268433216 working-precision words and    21 shell-pairs
 IPart= 18 NShTot=           0 NBatch=           0 AvBLen=         0.0
 PRISM was handed   268433216 working-precision words and    21 shell-pairs
 PRISM was handed   268433216 working-precision words and    21 shell-pairs
 IPart= 29 NShTot=           0 NBatch=           0 AvBLen=         0.0
 IPart= 19 NShTot=           0 NBatch=           0 AvBLen=         0.0
 IPart= 20 NShTot=           0 NBatch=           0 AvBLen=         0.0
 IPart= 14 NShTot=           0 NBatch=           0 AvBLen=         0.0
 PRISM was handed   268433216 working-precision words and    21 shell-pairs
 IPart= 26 NShTot=           0 NBatch=           0 AvBLen=         0.0
 IPart= 30 NShTot=           0 NBatch=           0 AvBLen=         0.0
 PRISM was handed   268433216 working-precision words and    21 shell-pairs
 PRISM was handed   268433216 working-precision words and    21 shell-pairs
 PRISM was handed   268433216 working-precision words and    21 shell-pairs
 PRISM was handed   268433216 working-precision words and    21 shell-pairs
 PRISM was handed   268433216 working-precision words and    21 shell-pairs
 PRISM was handed   268433216 working-precision words and    21 shell-pairs
 IPart= 17 NShTot=           0 NBatch=           0 AvBLen=         0.0
 PRISM was handed   268433216 working-precision words and    21 shell-pairs
 IPart= 22 NShTot=           0 NBatch=           0 AvBLen=         0.0
 PRISM was handed   268433216 working-precision words and    21 shell-pairs
 IPart=  4 NShTot=           0 NBatch=           0 AvBLen=         0.0
 IPart=  0 NShTot=          10 NBatch=          10 AvBLen=         1.0
 IPart= 23 NShTot=           0 NBatch=           0 AvBLen=         0.0
 IPart= 28 NShTot=           0 NBatch=           0 AvBLen=         0.0
 IPart= 31 NShTot=           0 NBatch=           0 AvBLen=         0.0
 IPart= 33 NShTot=           0 NBatch=           0 AvBLen=         0.0
 IPart= 11 NShTot=           0 NBatch=           0 AvBLen=         0.0
 IPart= 35 NShTot=           0 NBatch=           0 AvBLen=         0.0
 PrSmSu:  NxtVal=             37.
 *** Overlap *** 
                1             2             3             4             5 
      1  0.100000D+01
      2  0.360503D-02  0.100000D+01
      3  0.303176D-01  0.255104D+00  0.100000D+01
      4  0.000000D+00  0.000000D+00  0.000000D+00  0.100000D+01
      5  0.000000D+00  0.000000D+00  0.000000D+00  0.000000D+00  0.100000D+01
      6 -0.107132D-01  0.000000D+00  0.000000D+00  0.000000D+00  0.000000D+00
      7  0.216827D+00  0.851285D-02  0.305620D+00  0.000000D+00  0.000000D+00
      8  0.000000D+00  0.000000D+00  0.000000D+00  0.282859D+00  0.000000D+00
      9  0.000000D+00  0.000000D+00  0.000000D+00  0.000000D+00  0.282859D+00
     10 -0.267854D+00  0.000000D+00  0.000000D+00  0.000000D+00  0.000000D+00
     11  0.341623D+00  0.657633D-03  0.101668D-01  0.000000D+00  0.000000D+00
     12  0.000000D+00  0.000000D+00  0.000000D+00  0.931227D-02  0.000000D+00
     13  0.000000D+00  0.000000D+00  0.000000D+00  0.000000D+00  0.931227D-02
     14 -0.363985D+00  0.000000D+00  0.000000D+00  0.000000D+00  0.000000D+00
     15  0.256500D+00  0.496746D-02  0.403235D-01  0.000000D+00  0.000000D+00
     16  0.000000D+00  0.000000D+00  0.000000D+00  0.310109D-02  0.000000D+00
     17  0.000000D+00  0.000000D+00  0.000000D+00  0.000000D+00  0.310109D-02
     18 -0.172356D+00  0.000000D+00  0.000000D+00  0.000000D+00  0.000000D+00
                6             7             8             9            10 
      6  0.100000D+01
      7  0.000000D+00  0.100000D+01
      8  0.000000D+00  0.000000D+00  0.100000D+01
      9  0.000000D+00  0.000000D+00  0.000000D+00  0.100000D+01
     10  0.282859D+00  0.000000D+00  0.000000D+00  0.000000D+00  0.100000D+01
     11  0.000000D+00  0.215867D+00  0.000000D+00  0.000000D+00  0.000000D+00
     12  0.000000D+00  0.000000D+00  0.200079D+00  0.000000D+00  0.000000D+00
     13  0.000000D+00  0.000000D+00  0.000000D+00  0.200079D+00  0.000000D+00
     14  0.931227D-02  0.000000D+00  0.000000D+00  0.000000D+00  0.200079D+00
     15  0.000000D+00  0.230714D+00  0.000000D+00  0.000000D+00  0.000000D+00
     16  0.000000D+00  0.000000D+00  0.749696D-01  0.000000D+00  0.000000D+00
     17  0.000000D+00  0.000000D+00  0.000000D+00  0.749696D-01  0.000000D+00
     18  0.310109D-02  0.000000D+00  0.000000D+00  0.000000D+00  0.749696D-01
               11            12            13            14            15 
     11  0.100000D+01
     12  0.000000D+00  0.100000D+01
     13  0.000000D+00  0.000000D+00  0.100000D+01
     14  0.000000D+00  0.000000D+00  0.000000D+00  0.100000D+01
     15  0.889160D+00  0.000000D+00  0.000000D+00  0.000000D+00  0.100000D+01
     16  0.000000D+00  0.788263D+00  0.000000D+00  0.000000D+00  0.000000D+00
     17  0.000000D+00  0.000000D+00  0.788263D+00  0.000000D+00  0.000000D+00
     18  0.000000D+00  0.000000D+00  0.000000D+00  0.788263D+00  0.000000D+00
               16            17            18 
     16  0.100000D+01
     17  0.000000D+00  0.100000D+01
     18  0.000000D+00  0.000000D+00  0.100000D+01
 *** Kinetic Energy *** 
                1             2             3             4             5 
      1  0.760032D+00
      2 -0.105479D-02  0.176298D+03
      3 -0.913239D-02 -0.620687D+01  0.781415D+01
      4  0.000000D+00  0.000000D+00  0.000000D+00  0.280311D+02
      5  0.000000D+00  0.000000D+00  0.000000D+00  0.000000D+00  0.280311D+02
      6  0.388295D-02  0.000000D+00  0.000000D+00  0.000000D+00  0.000000D+00
      7 -0.305823D-02 -0.709406D+00 -0.685499D+00  0.000000D+00  0.000000D+00
      8  0.000000D+00  0.000000D+00  0.000000D+00  0.125035D+01  0.000000D+00
      9  0.000000D+00  0.000000D+00  0.000000D+00  0.000000D+00  0.125035D+01
     10 -0.658197D-01  0.000000D+00  0.000000D+00  0.000000D+00  0.000000D+00
     11  0.273088D-01 -0.621117D-02 -0.439131D-01  0.000000D+00  0.000000D+00
     12  0.000000D+00  0.000000D+00  0.000000D+00  0.182620D-02  0.000000D+00
     13  0.000000D+00  0.000000D+00  0.000000D+00  0.000000D+00  0.182620D-02
     14 -0.547677D-01  0.000000D+00  0.000000D+00  0.000000D+00  0.000000D+00
     15  0.106283D-01  0.239311D-03  0.193628D-02  0.000000D+00  0.000000D+00
     16  0.000000D+00  0.000000D+00  0.000000D+00  0.248286D-03  0.000000D+00
     17  0.000000D+00  0.000000D+00  0.000000D+00  0.000000D+00  0.248286D-03
     18 -0.123322D-01  0.000000D+00  0.000000D+00  0.000000D+00  0.000000D+00
                6             7             8             9            10 
      6  0.280311D+02
      7  0.000000D+00  0.856984D+00
      8  0.000000D+00  0.000000D+00  0.155517D+01
      9  0.000000D+00  0.000000D+00  0.000000D+00  0.155517D+01
     10  0.125035D+01  0.000000D+00  0.000000D+00  0.000000D+00  0.155517D+01
     11  0.000000D+00 -0.669248D-01  0.000000D+00  0.000000D+00  0.000000D+00
     12  0.000000D+00  0.000000D+00  0.358731D-01  0.000000D+00  0.000000D+00
     13  0.000000D+00  0.000000D+00  0.000000D+00  0.358731D-01  0.000000D+00
     14  0.182620D-02  0.000000D+00  0.000000D+00  0.000000D+00  0.358731D-01
     15  0.000000D+00  0.106939D-01  0.000000D+00  0.000000D+00  0.000000D+00
     16  0.000000D+00  0.000000D+00  0.579876D-02  0.000000D+00  0.000000D+00
     17  0.000000D+00  0.000000D+00  0.000000D+00  0.579876D-02  0.000000D+00
     18  0.248286D-03  0.000000D+00  0.000000D+00  0.000000D+00  0.579876D-02
               11            12            13            14            15 
     11  0.660420D-01
     12  0.000000D+00  0.974466D-01
     13  0.000000D+00  0.000000D+00  0.974466D-01
     14  0.000000D+00  0.000000D+00  0.000000D+00  0.974466D-01
     15  0.293463D-01  0.000000D+00  0.000000D+00  0.000000D+00  0.240938D-01
     16  0.000000D+00  0.448313D-01  0.000000D+00  0.000000D+00  0.000000D+00
     17  0.000000D+00  0.000000D+00  0.448313D-01  0.000000D+00  0.000000D+00
     18  0.000000D+00  0.000000D+00  0.000000D+00  0.448313D-01  0.000000D+00
               16            17            18 
     16  0.401564D-01
     17  0.000000D+00  0.401564D-01
     18  0.000000D+00  0.000000D+00  0.401564D-01
 Entering OneElI...
 Calculate potential energy integrals
    NBasis =  18  MinDer = 0  MaxDer = 0
 Requested accuracy = 0.1000D-12
 Symmetry will be used
 PrmmSu-InSpLW:  IPartL=    0 NPrtUS=   36 NPrtUL=    1 DoSpLW=F IThBeg=    0 IThEnd=   35 NThAct=   36.
 PrSmSu:  IncTry=   512 NBBP=             42 NTPThr=   100 NPartT=   36 Incr=           1 LDynOK=F GPUOK=F.
 PrsmSu:  NPrtUS=  36 ThrOK=T IAlg=1 LenDen=           0 ISkipM=0 DoSpLW=F IThBeg=    0 IThEnd=   35.
 Prism:   IPart=     0 DynPar=F LinDyn=F Incr=           1.
 PRISM was handed   268433378 working-precision words and    21 shell-pairs
 PRISM was handed   268433378 working-precision words and    21 shell-pairs
 PRISM was handed   268433378 working-precision words and    21 shell-pairs
 PRISM was handed   268433378 working-precision words and    21 shell-pairs
 PRISM was handed   268433378 working-precision words and    21 shell-pairs
 PRISM was handed   268433378 working-precision words and    21 shell-pairs
 PRISM was handed   268433378 working-precision words and    21 shell-pairs
 PRISM was handed   268433378 working-precision words and    21 shell-pairs
 PRISM was handed   268433378 working-precision words and    21 shell-pairs
 PRISM was handed   268433378 working-precision words and    21 shell-pairs
 PRISM was handed   268433378 working-precision words and    21 shell-pairs
 PRISM was handed   268433378 working-precision words and    21 shell-pairs
 PRISM was handed   268433378 working-precision words and    21 shell-pairs
 PRISM was handed   268433378 working-precision words and    21 shell-pairs
 PRISM was handed   268433378 working-precision words and    21 shell-pairs
 PRISM was handed   268433378 working-precision words and    21 shell-pairs
 PRISM was handed   268433378 working-precision words and    21 shell-pairs
 PRISM was handed   268433378 working-precision words and    21 shell-pairs
 PRISM was handed   268433378 working-precision words and    21 shell-pairs
 PRISM was handed   268433378 working-precision words and    21 shell-pairs
 PRISM was handed   268433378 working-precision words and    21 shell-pairs
 PRISM was handed   268433378 working-precision words and    21 shell-pairs
 PRISM was handed   268433378 working-precision words and    21 shell-pairs
 PRISM was handed   268433378 working-precision words and    21 shell-pairs
 PRISM was handed   268433378 working-precision words and    21 shell-pairs
 PRISM was handed   268433378 working-precision words and    21 shell-pairs
 PRISM was handed   268433378 working-precision words and    21 shell-pairs
 PRISM was handed   268433378 working-precision words and    21 shell-pairs
 PRISM was handed   268433378 working-precision words and    21 shell-pairs
 PRISM was handed   268433378 working-precision words and    21 shell-pairs
 PRISM was handed   268433378 working-precision words and    21 shell-pairs
 PRISM was handed   268433378 working-precision words and    21 shell-pairs
 PRISM was handed   268433378 working-precision words and    21 shell-pairs
 PRISM was handed   268433378 working-precision words and    21 shell-pairs
 PRISM was handed   268433378 working-precision words and    21 shell-pairs
 PRISM was handed   268433378 working-precision words and    21 shell-pairs
 IPart= 24 NShTot=           0 NBatch=           0 AvBLen=         0.0
 IPart= 25 NShTot=           0 NBatch=           0 AvBLen=         0.0
 IPart= 32 NShTot=           0 NBatch=           0 AvBLen=         0.0
 IPart= 15 NShTot=           0 NBatch=           0 AvBLen=         0.0
 IPart= 20 NShTot=           0 NBatch=           0 AvBLen=         0.0
 IPart= 14 NShTot=           0 NBatch=           0 AvBLen=         0.0
 IPart= 33 NShTot=           0 NBatch=           0 AvBLen=         0.0
 IPart= 30 NShTot=           0 NBatch=           0 AvBLen=         0.0
 IPart= 34 NShTot=           0 NBatch=           0 AvBLen=         0.0
 IPart= 28 NShTot=           0 NBatch=           0 AvBLen=         0.0
 IPart= 11 NShTot=           0 NBatch=           0 AvBLen=         0.0
 IPart= 26 NShTot=           0 NBatch=           0 AvBLen=         0.0
 IPart= 29 NShTot=           0 NBatch=           0 AvBLen=         0.0
 IPart= 31 NShTot=           0 NBatch=           0 AvBLen=         0.0
 IPart= 19 NShTot=           0 NBatch=           0 AvBLen=         0.0
 IPart=  8 NShTot=           0 NBatch=           0 AvBLen=         0.0
 IPart= 18 NShTot=           0 NBatch=           0 AvBLen=         0.0
 IPart= 13 NShTot=           0 NBatch=           0 AvBLen=         0.0
 IPart= 35 NShTot=           0 NBatch=           0 AvBLen=         0.0
 IPart= 21 NShTot=           0 NBatch=           0 AvBLen=         0.0
 IPart=  4 NShTot=           0 NBatch=           0 AvBLen=         0.0
 IPart= 23 NShTot=           0 NBatch=           0 AvBLen=         0.0
 IPart= 27 NShTot=           0 NBatch=           0 AvBLen=         0.0
 IPart= 17 NShTot=           0 NBatch=           0 AvBLen=         0.0
 IPart=  9 NShTot=           0 NBatch=           0 AvBLen=         0.0
 IPart= 22 NShTot=           0 NBatch=           0 AvBLen=         0.0
 IPart=  0 NShTot=          22 NBatch=          11 AvBLen=         2.0
 IPart=  5 NShTot=           0 NBatch=           0 AvBLen=         0.0
 IPart=  7 NShTot=           0 NBatch=           0 AvBLen=         0.0
 IPart=  3 NShTot=           2 NBatch=           1 AvBLen=         2.0
 IPart= 10 NShTot=           0 NBatch=           0 AvBLen=         0.0
 IPart=  2 NShTot=           4 NBatch=           2 AvBLen=         2.0
 IPart=  6 NShTot=           0 NBatch=           0 AvBLen=         0.0
 IPart=  1 NShTot=          14 NBatch=           7 AvBLen=         2.0
 IPart= 16 NShTot=           0 NBatch=           0 AvBLen=         0.0
 IPart= 12 NShTot=           0 NBatch=           0 AvBLen=         0.0
 PrSmSu:  NxtVal=             37.
 ***** Potential Energy ***** 
                1             2             3             4             5 
      1  0.790239D+01
      2  0.698974D+00  0.356025D+03
      3  0.136775D+01  0.428922D+02  0.621878D+02
      4  0.000000D+00  0.000000D+00  0.000000D+00  0.712578D+02
      5  0.000000D+00  0.000000D+00  0.000000D+00  0.000000D+00  0.712578D+02
      6 -0.381448D+00 -0.337177D-02 -0.254792D-01  0.000000D+00  0.000000D+00
      7  0.293538D+01  0.118266D+01  0.115545D+02  0.000000D+00  0.000000D+00
      8  0.000000D+00  0.000000D+00  0.000000D+00  0.115335D+02  0.000000D+00
      9  0.000000D+00  0.000000D+00  0.000000D+00  0.000000D+00  0.115335D+02
     10 -0.297447D+01 -0.169143D-03 -0.117522D-01  0.000000D+00  0.000000D+00
     11  0.236149D+01  0.123704D+00  0.389400D+00  0.000000D+00  0.000000D+00
     12  0.000000D+00  0.000000D+00  0.000000D+00  0.335497D+00  0.000000D+00
     13  0.000000D+00  0.000000D+00  0.000000D+00  0.000000D+00  0.335497D+00
     14 -0.237320D+01 -0.367568D-05 -0.416406D-03  0.000000D+00  0.000000D+00
     15  0.186722D+01  0.964194D+00  0.184099D+01  0.000000D+00  0.000000D+00
     16  0.000000D+00  0.000000D+00  0.000000D+00  0.111372D+00  0.000000D+00
     17  0.000000D+00  0.000000D+00  0.000000D+00  0.000000D+00  0.111372D+00
     18 -0.104969D+01 -0.121152D-05 -0.138895D-03  0.000000D+00  0.000000D+00
                6             7             8             9            10 
      6  0.712615D+02
      7 -0.126794D-01  0.183725D+02
      8  0.000000D+00  0.000000D+00  0.169561D+02
      9  0.000000D+00  0.000000D+00  0.000000D+00  0.169561D+02
     10  0.115363D+02 -0.919143D-01  0.000000D+00  0.000000D+00  0.170127D+02
     11 -0.470131D-03  0.242828D+01  0.000000D+00  0.000000D+00 -0.385992D-01
     12  0.000000D+00  0.000000D+00  0.211968D+01  0.000000D+00  0.000000D+00
     13  0.000000D+00  0.000000D+00  0.000000D+00  0.211968D+01  0.000000D+00
     14  0.335615D+00 -0.210360D-01  0.000000D+00  0.000000D+00  0.214148D+01
     15 -0.152264D-02  0.322401D+01  0.000000D+00  0.000000D+00 -0.337299D-01
     16  0.000000D+00  0.000000D+00  0.769338D+00  0.000000D+00  0.000000D+00
     17  0.000000D+00  0.000000D+00  0.000000D+00  0.769338D+00  0.000000D+00
     18  0.111412D+00 -0.783292D-02  0.000000D+00  0.000000D+00  0.777690D+00
               11            12            13            14            15 
     11  0.499115D+01
     12  0.000000D+00  0.417809D+01
     13  0.000000D+00  0.000000D+00  0.417809D+01
     14 -0.818368D-01  0.000000D+00  0.000000D+00  0.422902D+01
     15  0.413673D+01  0.000000D+00  0.000000D+00 -0.661230D-01  0.402876D+01
     16  0.000000D+00  0.277113D+01  0.000000D+00  0.000000D+00  0.000000D+00
     17  0.000000D+00  0.000000D+00  0.277113D+01  0.000000D+00  0.000000D+00
     18 -0.438044D-01  0.000000D+00  0.000000D+00  0.279817D+01 -0.415836D-01
               16            17            18 
     16  0.269000D+01
     17  0.000000D+00  0.269000D+01
     18  0.000000D+00  0.000000D+00  0.270740D+01
 ****** Core Hamiltonian ****** 
                1             2             3             4             5 
      1 -0.714236D+01
      2 -0.700029D+00 -0.179728D+03
      3 -0.137688D+01 -0.490990D+02 -0.543736D+02
      4  0.000000D+00  0.000000D+00  0.000000D+00 -0.432267D+02
      5  0.000000D+00  0.000000D+00  0.000000D+00  0.000000D+00 -0.432267D+02
      6  0.385331D+00  0.337177D-02  0.254792D-01  0.000000D+00  0.000000D+00
      7 -0.293844D+01 -0.189206D+01 -0.122400D+02  0.000000D+00  0.000000D+00
      8  0.000000D+00  0.000000D+00  0.000000D+00 -0.102831D+02  0.000000D+00
      9  0.000000D+00  0.000000D+00  0.000000D+00  0.000000D+00 -0.102831D+02
     10  0.290865D+01  0.169143D-03  0.117522D-01  0.000000D+00  0.000000D+00
     11 -0.233418D+01 -0.129915D+00 -0.433313D+00  0.000000D+00  0.000000D+00
     12  0.000000D+00  0.000000D+00  0.000000D+00 -0.333671D+00  0.000000D+00
     13  0.000000D+00  0.000000D+00  0.000000D+00  0.000000D+00 -0.333671D+00
     14  0.231843D+01  0.367568D-05  0.416406D-03  0.000000D+00  0.000000D+00
     15 -0.185660D+01 -0.963955D+00 -0.183905D+01  0.000000D+00  0.000000D+00
     16  0.000000D+00  0.000000D+00  0.000000D+00 -0.111124D+00  0.000000D+00
     17  0.000000D+00  0.000000D+00  0.000000D+00  0.000000D+00 -0.111124D+00
     18  0.103736D+01  0.121152D-05  0.138895D-03  0.000000D+00  0.000000D+00
                6             7             8             9            10 
      6 -0.432305D+02
      7  0.126794D-01 -0.175155D+02
      8  0.000000D+00  0.000000D+00 -0.154009D+02
      9  0.000000D+00  0.000000D+00  0.000000D+00 -0.154009D+02
     10 -0.102859D+02  0.919143D-01  0.000000D+00  0.000000D+00 -0.154575D+02
     11  0.470131D-03 -0.249520D+01  0.000000D+00  0.000000D+00  0.385992D-01
     12  0.000000D+00  0.000000D+00 -0.208381D+01  0.000000D+00  0.000000D+00
     13  0.000000D+00  0.000000D+00  0.000000D+00 -0.208381D+01  0.000000D+00
     14 -0.333789D+00  0.210360D-01  0.000000D+00  0.000000D+00 -0.210561D+01
     15  0.152264D-02 -0.321332D+01  0.000000D+00  0.000000D+00  0.337299D-01
     16  0.000000D+00  0.000000D+00 -0.763539D+00  0.000000D+00  0.000000D+00
     17  0.000000D+00  0.000000D+00  0.000000D+00 -0.763539D+00  0.000000D+00
     18 -0.111163D+00  0.783292D-02  0.000000D+00  0.000000D+00 -0.771891D+00
               11            12            13            14            15 
     11 -0.492511D+01
     12  0.000000D+00 -0.408064D+01
     13  0.000000D+00  0.000000D+00 -0.408064D+01
     14  0.818368D-01  0.000000D+00  0.000000D+00 -0.413158D+01
     15 -0.410739D+01  0.000000D+00  0.000000D+00  0.661230D-01 -0.400467D+01
     16  0.000000D+00 -0.272630D+01  0.000000D+00  0.000000D+00  0.000000D+00
     17  0.000000D+00  0.000000D+00 -0.272630D+01  0.000000D+00  0.000000D+00
     18  0.438044D-01  0.000000D+00  0.000000D+00 -0.275334D+01  0.415836D-01
               16            17            18 
     16 -0.264985D+01
     17  0.000000D+00 -0.264985D+01
     18  0.000000D+00  0.000000D+00 -0.266724D+01
 SVDSVc IOpt=   1 NormSV=T IR=1
 SVDSVc V= 2.28D+00 1.90D+00 1.35D+00 1.26D+00 9.56D-01 8.24D-01 6.10D-01 5.34D-01 1.81D-01 1.03D-01
 SVDSVc IOpt=   1 NormSV=T IR=3
 SVDSVc V= 1.84D+00 1.25D+00 7.08D-01 2.01D-01
 SVDSVc IOpt=   1 NormSV=T IR=4
 SVDSVc V= 1.84D+00 1.25D+00 7.08D-01 2.01D-01
 TstOVc:  Largest diagonal error= 2.00D-15 IB=1 I=   10.
 TstOVc:  Largest same sym error= 9.71D-16 IB=3 I=   14 J=   13.
 TstOVc:  Largest diff sym error= 0.00D+00 IB=0 JB=0 I=    0 J=    0.
 Orthogonalized basis functions: 
                 1             2             3             4             5 
      1   0.296126D+00 -0.877384D-01 -0.951166D-02 -0.102279D+00 -0.160165D+00
      2   0.168746D-01  0.196290D-01  0.455522D+00  0.411002D-02  0.731921D+00
      3   0.671254D-01  0.607503D-01  0.608857D+00  0.446464D-02 -0.108491D+00
      4   0.000000D+00  0.000000D+00  0.000000D+00  0.000000D+00  0.000000D+00
      5   0.000000D+00  0.000000D+00  0.000000D+00  0.000000D+00  0.000000D+00
      6  -0.290294D-01  0.595661D-01  0.457353D-02  0.607017D+00 -0.111656D+00
      7   0.182982D+00  0.128695D+00  0.334326D+00  0.226930D-02 -0.612430D+00
      8   0.000000D+00  0.000000D+00  0.000000D+00  0.000000D+00  0.000000D+00
      9   0.000000D+00  0.000000D+00  0.000000D+00  0.000000D+00  0.000000D+00
     10  -0.111397D+00  0.169203D+00  0.552806D-02  0.565341D+00  0.132317D-01
     11   0.339608D+00  0.258141D+00 -0.173204D+00  0.438614D-01  0.195947D+00
     12   0.000000D+00  0.000000D+00  0.000000D+00  0.000000D+00  0.000000D+00
     13   0.000000D+00  0.000000D+00  0.000000D+00  0.000000D+00  0.000000D+00
     14  -0.209830D+00  0.416083D+00 -0.641605D-02 -0.161986D+00 -0.316795D-01
     15   0.330210D+00  0.264438D+00 -0.152062D+00  0.515896D-01  0.201182D+00
     16   0.000000D+00  0.000000D+00  0.000000D+00  0.000000D+00  0.000000D+00
     17   0.000000D+00  0.000000D+00  0.000000D+00  0.000000D+00  0.000000D+00
     18  -0.175581D+00  0.393430D+00 -0.865930D-02 -0.251627D+00 -0.742208D-01
                 6             7             8             9            10 
      1   0.601678D+00 -0.400982D+00  0.754729D+00  0.422184D+00 -0.375408D+00
      2   0.222469D+00 -0.455078D+00 -0.274741D+00 -0.920472D-02 -0.517543D-02
      3  -0.153722D+00  0.714822D+00  0.514019D+00  0.321857D-01  0.562373D-01
      4   0.000000D+00  0.000000D+00  0.000000D+00  0.000000D+00  0.000000D+00
      5   0.000000D+00  0.000000D+00  0.000000D+00  0.000000D+00  0.000000D+00
      6   0.659011D+00  0.372697D+00 -0.365880D+00  0.440349D-01  0.170015D-01
      7  -0.130138D+00 -0.526178D+00 -0.609453D+00 -0.844329D-01  0.816565D-01
      8   0.000000D+00  0.000000D+00  0.000000D+00  0.000000D+00  0.000000D+00
      9   0.000000D+00  0.000000D+00  0.000000D+00  0.000000D+00  0.000000D+00
     10  -0.393490D+00 -0.528367D+00  0.629113D+00 -0.150475D+00 -0.592193D-01
     11  -0.987944D-01  0.126439D+00 -0.552884D-02  0.195859D+00  0.221816D+01
     12   0.000000D+00  0.000000D+00  0.000000D+00  0.000000D+00  0.000000D+00
     13   0.000000D+00  0.000000D+00  0.000000D+00  0.000000D+00  0.000000D+00
     14   0.882901D-01 -0.151537D-01 -0.114708D-01  0.169000D+01 -0.351623D+00
     15  -0.178451D+00  0.218472D+00 -0.144792D+00 -0.322520D+00 -0.211445D+01
     16   0.000000D+00  0.000000D+00  0.000000D+00  0.000000D+00  0.000000D+00
     17   0.000000D+00  0.000000D+00  0.000000D+00  0.000000D+00  0.000000D+00
     18   0.350230D+00 -0.479449D-01  0.199916D+00 -0.152373D+01  0.241702D+00
                11            12            13            14            15 
      1   0.000000D+00  0.000000D+00  0.000000D+00  0.000000D+00  0.000000D+00
      2   0.000000D+00  0.000000D+00  0.000000D+00  0.000000D+00  0.000000D+00
      3   0.000000D+00  0.000000D+00  0.000000D+00  0.000000D+00  0.000000D+00
      4   0.709850D-01  0.645112D+00 -0.813656D+00  0.880868D-01  0.000000D+00
      5   0.000000D+00  0.000000D+00  0.000000D+00  0.000000D+00  0.709850D-01
      6   0.000000D+00  0.000000D+00  0.000000D+00  0.000000D+00  0.000000D+00
      7   0.000000D+00  0.000000D+00  0.000000D+00  0.000000D+00  0.000000D+00
      8   0.188890D+00  0.576969D+00  0.841851D+00 -0.284389D+00  0.000000D+00
      9   0.000000D+00  0.000000D+00  0.000000D+00  0.000000D+00  0.188890D+00
     10   0.000000D+00  0.000000D+00  0.000000D+00  0.000000D+00  0.000000D+00
     11   0.000000D+00  0.000000D+00  0.000000D+00  0.000000D+00  0.000000D+00
     12   0.508568D+00 -0.118274D+00 -0.151283D-02  0.158900D+01  0.000000D+00
     13   0.000000D+00  0.000000D+00  0.000000D+00  0.000000D+00  0.508568D+00
     14   0.000000D+00  0.000000D+00  0.000000D+00  0.000000D+00  0.000000D+00
     15   0.000000D+00  0.000000D+00  0.000000D+00  0.000000D+00  0.000000D+00
     16   0.493792D+00 -0.191632D+00 -0.203508D+00 -0.154043D+01  0.000000D+00
     17   0.000000D+00  0.000000D+00  0.000000D+00  0.000000D+00  0.493792D+00
     18   0.000000D+00  0.000000D+00  0.000000D+00  0.000000D+00  0.000000D+00
                16            17            18 
      1   0.000000D+00  0.000000D+00  0.000000D+00
      2   0.000000D+00  0.000000D+00  0.000000D+00
      3   0.000000D+00  0.000000D+00  0.000000D+00
      4   0.000000D+00  0.000000D+00  0.000000D+00
      5   0.645112D+00 -0.813656D+00  0.880868D-01
      6   0.000000D+00  0.000000D+00  0.000000D+00
      7   0.000000D+00  0.000000D+00  0.000000D+00
      8   0.000000D+00  0.000000D+00  0.000000D+00
      9   0.576969D+00  0.841851D+00 -0.284389D+00
     10   0.000000D+00  0.000000D+00  0.000000D+00
     11   0.000000D+00  0.000000D+00  0.000000D+00
     12   0.000000D+00  0.000000D+00  0.000000D+00
     13  -0.118274D+00 -0.151283D-02  0.158900D+01
     14   0.000000D+00  0.000000D+00  0.000000D+00
     15   0.000000D+00  0.000000D+00  0.000000D+00
     16   0.000000D+00  0.000000D+00  0.000000D+00
     17  -0.191632D+00 -0.203508D+00 -0.154043D+01
     18   0.000000D+00  0.000000D+00  0.000000D+00
 NBasis=    18 RedAO= T EigKep=  1.03D-01  NBF=    10     0     4     4
 NBsUse=    18 1.00D-06 EigRej= -1.00D+00 NBFU=    10     0     4     4
 Leave Link  302 at Mon Mar 28 14:38:40 2022, MaxMem=  9663676416 cpu:               3.3 elap:               0.1
 (Enter /nopt/nrel/apps/gaussian/g16C_1/g16/l303.exe)
 DipDrv will not compute anything.
 Fermi contact integrals: 
                 1             2 
      1   0.628247D+00  0.232757D-01
      2   0.000000D+00  0.398968D+02
      3   0.000000D+00  0.785144D+00
      4   0.000000D+00  0.000000D+00
      5   0.000000D+00  0.000000D+00
      6   0.000000D+00  0.000000D+00
      7   0.135726D-01  0.165565D-01
      8   0.000000D+00  0.000000D+00
      9   0.000000D+00  0.000000D+00
     10  -0.376352D-01  0.000000D+00
     11   0.422644D-01  0.394321D-02
     12   0.000000D+00  0.000000D+00
     13   0.000000D+00  0.000000D+00
     14  -0.511773D-01  0.000000D+00
     15   0.282631D-01  0.321567D-01
     16   0.000000D+00  0.000000D+00
     17   0.000000D+00  0.000000D+00
     18  -0.203071D-01  0.000000D+00
 Leave Link  303 at Mon Mar 28 14:38:40 2022, MaxMem=  9663676416 cpu:               1.1 elap:               0.1
 (Enter /nopt/nrel/apps/gaussian/g16C_1/g16/l401.exe)
 ExpMin= 1.61D-02 ExpMax= 1.72D+03 ExpMxC= 1.72D+03 IAcc=3 IRadAn=         5 AccDes= 0.00D+00
 Harris functional with IExCor=  205 and IRadAn=       5 diagonalized for initial guess.
 HarFok:  IExCor=  205 AccDes= 0.00D+00 IRadAn=         5 IDoV= 1 UseB2=F ITyADJ=14
 ICtDFT=  3500011 ScaDFX=  1.000000  1.000000  1.000000  1.000000
 FoFCou: FMM=F IPFlag=           0 FMFlag=      100000 FMFlg1=           0
         NFxFlg=           0 DoJE=T BraDBF=F KetDBF=T FulRan=T
         wScrn=  0.000000 ICntrl=       500 IOpCl=  0 I1Cent=   200000004 NGrid=           0
         NMat0=    1 NMatS0=      1 NMatT0=    0 NMatD0=    1 NMtDS0=    0 NMtDT0=    0
 Petite list used in FoFCou.
 Harris En= -595.828835148016    
 JPrj=0 DoOrth=F DoCkMO=F.
 Initial guess orbital symmetries:
 Alpha Orbitals:
       Occupied  (SG) (SG) (SG) (PI) (PI) (SG) (SG) (PI) (PI) (SG)
                 (SG)
       Virtual   (PI) (PI) (SG) (SG) (PI) (PI) (SG)
 Beta  Orbitals:
       Occupied  (SG) (SG) (SG) (PI) (PI) (SG) (SG) (PI) (PI)
       Virtual   (SG) (SG) (PI) (PI) (SG) (SG) (PI) (PI) (SG)
 The electronic state of the initial guess is 3-SG.
 Initial guess <Sx>= 0.0000 <Sy>= 0.0000 <Sz>= 1.0000 <S**2>= 2.0000 S= 1.0000
 Leave Link  401 at Mon Mar 28 14:38:40 2022, MaxMem=  9663676416 cpu:               4.1 elap:               0.1
 (Enter /nopt/nrel/apps/gaussian/g16C_1/g16/l502.exe)
 Keep R1 and R2 ints in memory in symmetry-blocked form, NReq=7226195.
 FoFCou: FMM=F IPFlag=           0 FMFlag=           0 FMFlg1=           0
         NFxFlg=           0 DoJE=F BraDBF=F KetDBF=F FulRan=T
         wScrn=  0.000000 ICntrl=       600 IOpCl=  0 I1Cent=           0 NGrid=           0
         NMat0=    1 NMatS0=    171 NMatT0=    0 NMatD0=    1 NMtDS0=    0 NMtDT0=    0
 Petite list used in FoFCou.
 UHF open shell SCF:
 Using DIIS extrapolation, IDIIS=  1040.
 NGot=  9663676416 LenX=  9663664010 LenY=  9663663128
 Requested convergence on RMS density matrix=1.00D-08 within 128 cycles.
 Requested convergence on MAX density matrix=1.00D-06.
 Requested convergence on             energy=1.00D-06.
 No special actions if energy rises.

 Cycle   1  Pass 1  IDiag  1:
 E= -596.472732548515    
 DIIS: error= 3.68D-02 at cycle   1 NSaved=   1.
 NSaved= 1 IEnMin= 1 EnMin= -596.472732548515     IErMin= 1 ErrMin= 3.68D-02
 ErrMax= 3.68D-02  0.00D+00 EMaxC= 1.00D-01 BMatC= 5.39D-02 BMatP= 5.39D-02
 IDIUse=3 WtCom= 6.32D-01 WtEn= 3.68D-01
 Coeff-Com:  0.100D+01
 Coeff-En:   0.100D+01
 Coeff:      0.100D+01
 Gap=     0.164 Goal=   None    Shift=    0.000
 Gap=     1.029 Goal=   None    Shift=    0.000
 GapD=    0.164 DampG=1.000 DampE=0.500 DampFc=0.5000 IDamp=-1.
 Damping current iteration by 5.00D-01
 RMSDP=1.44D-02 MaxDP=1.54D-01              OVMax= 0.00D+00

 Cycle   2  Pass 1  IDiag  1:
 E= -596.483575183155     Delta-E=       -0.010842634640 Rises=F Damp=T
 DIIS: error= 2.30D-02 at cycle   2 NSaved=   2.
 NSaved= 2 IEnMin= 2 EnMin= -596.483575183155     IErMin= 2 ErrMin= 2.30D-02
 ErrMax= 2.30D-02  0.00D+00 EMaxC= 1.00D-01 BMatC= 1.96D-02 BMatP= 5.39D-02
 IDIUse=3 WtCom= 7.70D-01 WtEn= 2.30D-01
 Coeff-Com: -0.131D+01 0.231D+01
 Coeff-En:   0.000D+00 0.100D+01
 Coeff:     -0.101D+01 0.201D+01
 Gap=     0.145 Goal=   None    Shift=    0.000
 Gap=     0.966 Goal=   None    Shift=    0.000
 RMSDP=1.29D-02 MaxDP=1.48D-01 DE=-1.08D-02 OVMax= 0.00D+00

 Cycle   3  Pass 1  IDiag  1:
 E= -596.501130080367     Delta-E=       -0.017554897212 Rises=F Damp=F
 DIIS: error= 3.79D-03 at cycle   3 NSaved=   3.
 NSaved= 3 IEnMin= 3 EnMin= -596.501130080367     IErMin= 3 ErrMin= 3.79D-03
 ErrMax= 3.79D-03  0.00D+00 EMaxC= 1.00D-01 BMatC= 8.20D-04 BMatP= 1.96D-02
 IDIUse=3 WtCom= 9.62D-01 WtEn= 3.79D-02
 Coeff-Com:  0.826D+00-0.161D+01 0.178D+01
 Coeff-En:   0.000D+00 0.000D+00 0.100D+01
 Coeff:      0.794D+00-0.155D+01 0.175D+01
 Gap=     0.142 Goal=   None    Shift=    0.000
 Gap=     0.959 Goal=   None    Shift=    0.000
 RMSDP=5.93D-03 MaxDP=7.05D-02 DE=-1.76D-02 OVMax= 0.00D+00

 Cycle   4  Pass 1  IDiag  1:
 E= -596.502175236069     Delta-E=       -0.001045155703 Rises=F Damp=F
 DIIS: error= 4.25D-04 at cycle   4 NSaved=   4.
 NSaved= 4 IEnMin= 4 EnMin= -596.502175236069     IErMin= 4 ErrMin= 4.25D-04
 ErrMax= 4.25D-04  0.00D+00 EMaxC= 1.00D-01 BMatC= 9.96D-06 BMatP= 8.20D-04
 IDIUse=3 WtCom= 9.96D-01 WtEn= 4.25D-03
 Coeff-Com: -0.218D+00 0.427D+00-0.541D+00 0.133D+01
 Coeff-En:   0.000D+00 0.000D+00 0.000D+00 0.100D+01
 Coeff:     -0.217D+00 0.425D+00-0.539D+00 0.133D+01
 Gap=     0.142 Goal=   None    Shift=    0.000
 Gap=     0.961 Goal=   None    Shift=    0.000
 RMSDP=1.45D-03 MaxDP=2.51D-02 DE=-1.05D-03 OVMax= 0.00D+00

 Cycle   5  Pass 1  IDiag  1:
 E= -596.502217909616     Delta-E=       -0.000042673547 Rises=F Damp=F
 DIIS: error= 1.91D-04 at cycle   5 NSaved=   5.
 NSaved= 5 IEnMin= 5 EnMin= -596.502217909616     IErMin= 5 ErrMin= 1.91D-04
 ErrMax= 1.91D-04  0.00D+00 EMaxC= 1.00D-01 BMatC= 1.67D-06 BMatP= 9.96D-06
 IDIUse=3 WtCom= 9.98D-01 WtEn= 1.91D-03
 Coeff-Com:  0.147D+00-0.291D+00 0.374D+00-0.127D+01 0.204D+01
 Coeff-En:   0.000D+00 0.000D+00 0.000D+00 0.000D+00 0.100D+01
 Coeff:      0.147D+00-0.290D+00 0.373D+00-0.127D+01 0.204D+01
 Gap=     0.141 Goal=   None    Shift=    0.000
 Gap=     0.962 Goal=   None    Shift=    0.000
 RMSDP=1.05D-03 MaxDP=1.93D-02 DE=-4.27D-05 OVMax= 0.00D+00

 Cycle   6  Pass 1  IDiag  1:
 E= -596.502229567720     Delta-E=       -0.000011658104 Rises=F Damp=F
 DIIS: error= 4.24D-05 at cycle   6 NSaved=   6.
 NSaved= 6 IEnMin= 6 EnMin= -596.502229567720     IErMin= 6 ErrMin= 4.24D-05
 ErrMax= 4.24D-05  0.00D+00 EMaxC= 1.00D-01 BMatC= 5.23D-08 BMatP= 1.67D-06
 IDIUse=1 WtCom= 1.00D+00 WtEn= 0.00D+00
 Coeff-Com: -0.249D-01 0.491D-01-0.630D-01 0.251D+00-0.534D+00 0.132D+01
 Coeff:     -0.249D-01 0.491D-01-0.630D-01 0.251D+00-0.534D+00 0.132D+01
 Gap=     0.141 Goal=   None    Shift=    0.000
 Gap=     0.962 Goal=   None    Shift=    0.000
 RMSDP=1.34D-04 MaxDP=2.19D-03 DE=-1.17D-05 OVMax= 0.00D+00

 Cycle   7  Pass 1  IDiag  1:
 E= -596.502229944670     Delta-E=       -0.000000376950 Rises=F Damp=F
 DIIS: error= 1.34D-05 at cycle   7 NSaved=   7.
 NSaved= 7 IEnMin= 7 EnMin= -596.502229944670     IErMin= 7 ErrMin= 1.34D-05
 ErrMax= 1.34D-05  0.00D+00 EMaxC= 1.00D-01 BMatC= 7.57D-09 BMatP= 5.23D-08
 IDIUse=1 WtCom= 1.00D+00 WtEn= 0.00D+00
 Coeff-Com:  0.915D-02-0.180D-01 0.223D-01-0.102D+00 0.256D+00-0.990D+00
 Coeff-Com:  0.182D+01
 Coeff:      0.915D-02-0.180D-01 0.223D-01-0.102D+00 0.256D+00-0.990D+00
 Coeff:      0.182D+01
 Gap=     0.141 Goal=   None    Shift=    0.000
 Gap=     0.962 Goal=   None    Shift=    0.000
 RMSDP=5.19D-05 MaxDP=5.80D-04 DE=-3.77D-07 OVMax= 0.00D+00

 Cycle   8  Pass 1  IDiag  1:
 E= -596.502229998415     Delta-E=       -0.000000053745 Rises=F Damp=F
 DIIS: error= 2.77D-06 at cycle   8 NSaved=   8.
 NSaved= 8 IEnMin= 8 EnMin= -596.502229998415     IErMin= 8 ErrMin= 2.77D-06
 ErrMax= 2.77D-06  0.00D+00 EMaxC= 1.00D-01 BMatC= 3.62D-10 BMatP= 7.57D-09
 IDIUse=1 WtCom= 1.00D+00 WtEn= 0.00D+00
 Coeff-Com: -0.717D-03 0.140D-02-0.139D-02 0.112D-01-0.439D-01 0.276D+00
 Coeff-Com: -0.737D+00 0.149D+01
 Coeff:     -0.717D-03 0.140D-02-0.139D-02 0.112D-01-0.439D-01 0.276D+00
 Coeff:     -0.737D+00 0.149D+01
 Gap=     0.141 Goal=   None    Shift=    0.000
 Gap=     0.962 Goal=   None    Shift=    0.000
 RMSDP=1.18D-05 MaxDP=1.15D-04 DE=-5.37D-08 OVMax= 0.00D+00

 Cycle   9  Pass 1  IDiag  1:
 E= -596.502230000353     Delta-E=       -0.000000001938 Rises=F Damp=F
 DIIS: error= 6.96D-07 at cycle   9 NSaved=   9.
 NSaved= 9 IEnMin= 9 EnMin= -596.502230000353     IErMin= 9 ErrMin= 6.96D-07
 ErrMax= 6.96D-07  0.00D+00 EMaxC= 1.00D-01 BMatC= 8.39D-12 BMatP= 3.62D-10
 IDIUse=1 WtCom= 1.00D+00 WtEn= 0.00D+00
 Coeff-Com:  0.281D-03-0.546D-03 0.548D-03-0.357D-02 0.129D-01-0.750D-01
 Coeff-Com:  0.213D+00-0.518D+00 0.137D+01
 Coeff:      0.281D-03-0.546D-03 0.548D-03-0.357D-02 0.129D-01-0.750D-01
 Coeff:      0.213D+00-0.518D+00 0.137D+01
 Gap=     0.141 Goal=   None    Shift=    0.000
 Gap=     0.962 Goal=   None    Shift=    0.000
 RMSDP=1.85D-06 MaxDP=2.95D-05 DE=-1.94D-09 OVMax= 0.00D+00

 Cycle  10  Pass 1  IDiag  1:
 E= -596.502230000380     Delta-E=       -0.000000000027 Rises=F Damp=F
 DIIS: error= 1.03D-07 at cycle  10 NSaved=  10.
 NSaved=10 IEnMin=10 EnMin= -596.502230000380     IErMin=10 ErrMin= 1.03D-07
 ErrMax= 1.03D-07  0.00D+00 EMaxC= 1.00D-01 BMatC= 2.71D-13 BMatP= 8.39D-12
 IDIUse=1 WtCom= 1.00D+00 WtEn= 0.00D+00
 Coeff-Com:  0.141D-05-0.430D-05 0.413D-04 0.127D-03-0.128D-02 0.109D-01
 Coeff-Com: -0.370D-01 0.111D+00-0.443D+00 0.136D+01
 Coeff:      0.141D-05-0.430D-05 0.413D-04 0.127D-03-0.128D-02 0.109D-01
 Coeff:     -0.370D-01 0.111D+00-0.443D+00 0.136D+01
 Gap=     0.141 Goal=   None    Shift=    0.000
 Gap=     0.962 Goal=   None    Shift=    0.000
 RMSDP=3.34D-07 MaxDP=5.31D-06 DE=-2.66D-11 OVMax= 0.00D+00

 Cycle  11  Pass 1  IDiag  1:
 E= -596.502230000381     Delta-E=       -0.000000000001 Rises=F Damp=F
 DIIS: error= 7.31D-09 at cycle  11 NSaved=  11.
 NSaved=11 IEnMin=11 EnMin= -596.502230000381     IErMin=11 ErrMin= 7.31D-09
 ErrMax= 7.31D-09  0.00D+00 EMaxC= 1.00D-01 BMatC= 2.35D-15 BMatP= 2.71D-13
 IDIUse=1 WtCom= 1.00D+00 WtEn= 0.00D+00
 Coeff-Com: -0.212D-05 0.437D-05-0.103D-04 0.887D-05 0.911D-04-0.979D-03
 Coeff-Com:  0.378D-02-0.129D-01 0.632D-01-0.271D+00 0.122D+01
 Coeff:     -0.212D-05 0.437D-05-0.103D-04 0.887D-05 0.911D-04-0.979D-03
 Coeff:      0.378D-02-0.129D-01 0.632D-01-0.271D+00 0.122D+01
 Gap=     0.141 Goal=   None    Shift=    0.000
 Gap=     0.962 Goal=   None    Shift=    0.000
 RMSDP=2.52D-08 MaxDP=4.14D-07 DE=-1.36D-12 OVMax= 0.00D+00

 Cycle  12  Pass 1  IDiag  1:
 E= -596.502230000380     Delta-E=        0.000000000001 Rises=F Damp=F
 DIIS: error= 4.35D-10 at cycle  12 NSaved=  12.
 NSaved=12 IEnMin=11 EnMin= -596.502230000381     IErMin=12 ErrMin= 4.35D-10
 ErrMax= 4.35D-10  0.00D+00 EMaxC= 1.00D-01 BMatC= 1.48D-17 BMatP= 2.35D-15
 IDIUse=1 WtCom= 1.00D+00 WtEn= 0.00D+00
 Coeff-Com:  0.162D-06-0.341D-06 0.108D-05-0.435D-06-0.115D-04 0.114D-03
 Coeff-Com: -0.443D-03 0.156D-02-0.821D-02 0.403D-01-0.230D+00 0.120D+01
 Coeff:      0.162D-06-0.341D-06 0.108D-05-0.435D-06-0.115D-04 0.114D-03
 Coeff:     -0.443D-03 0.156D-02-0.821D-02 0.403D-01-0.230D+00 0.120D+01
 Gap=     0.141 Goal=   None    Shift=    0.000
 Gap=     0.962 Goal=   None    Shift=    0.000
 RMSDP=1.13D-09 MaxDP=1.95D-08 DE= 6.82D-13 OVMax= 0.00D+00

 SCF Done:  E(UHF) =  -596.502230000     A.U. after   12 cycles
            NFock= 12  Conv=0.11D-08     -V/T= 1.9995
 <Sx>= 0.0000 <Sy>= 0.0000 <Sz>= 1.0000 <S**2>= 2.0008 S= 1.0003
 <L.S>= 0.000000000000E+00
 KE= 5.967968872344D+02 PE=-1.430086842503D+03 EE= 2.300848139295D+02
 Annihilation of the first spin contaminant:
 S**2 before annihilation     2.0008,   after     2.0000
 Leave Link  502 at Mon Mar 28 14:38:40 2022, MaxMem=  9663676416 cpu:               3.4 elap:               0.1
 (Enter /nopt/nrel/apps/gaussian/g16C_1/g16/l801.exe)
 Windowed orbitals will be sorted by symmetry type.
 ExpMin= 1.61D-02 ExpMax= 1.72D+03 ExpMxC= 1.72D+03 IAcc=3 IRadAn=         5 AccDes= 0.00D+00
 HarFok:  IExCor=  205 AccDes= 0.00D+00 IRadAn=         5 IDoV=-2 UseB2=F ITyADJ=14
 ICtDFT= 12500011 ScaDFX=  1.000000  1.000000  1.000000  1.000000
 Largest valence mixing into a core orbital is  5.37D-02
 Largest core mixing into a valence orbital is  5.20D-02
 Range of M.O.s used for correlation:    10    18
 NBasis=    18 NAE=    11 NBE=     9 NFC=     9 NFV=     0
 NROrb=      9 NOA=     2 NOB=     0 NVA=     7 NVB=     9
 Leave Link  801 at Mon Mar 28 14:38:40 2022, MaxMem=  9663676416 cpu:               1.8 elap:               0.1
 (Enter /nopt/nrel/apps/gaussian/g16C_1/g16/l804.exe)
 Open-shell transformation, MDV=  9663676416 ITran=4 ISComp=2.
 Unit  1 TFree=         22650 TCopy=          3942.
 Semi-Direct transformation.
 ModeAB=           2 MOrb=             2 LenV=    9663554113
 LASXX=          158 LTotXX=         158 LenRXX=         158
 LTotAB=         269 MaxLAS=        3078 LenRXY=        3078
 NonZer=        3510 LenScr=      785920 LnRSAI=           0
 LnScr1=           0 LExtra=      223048 Total=      1012204
 MaxDsk= 34359738368 SrtSym=           F ITran=            4
 DoSDTr:  NPSUse= 36
 JobTyp=1 Pass  1:  I=   1 to   2.
 (rs|ai) integrals will be sorted in core.
 Complete sort for first half transformation.
 First half transformation complete.
 Complete sort for second half transformation.
 Second half transformation complete.
 Spin components of T(2) and E(2):
     alpha-alpha T2 =       0.1687296240D-04 E2=     -0.1326992884D-04
     alpha-beta  T2 =       0.0000000000D+00 E2=      0.0000000000D+00
     beta-beta   T2 =       0.0000000000D+00 E2=      0.0000000000D+00
 ANorm=    0.1000008436D+01
 E2 =    -0.1326992884D-04 EUMP2 =    -0.59650224327031D+03
 Leave Link  804 at Mon Mar 28 14:38:40 2022, MaxMem=  9663676416 cpu:               1.6 elap:               0.1
 (Enter /nopt/nrel/apps/gaussian/g16C_1/g16/l913.exe)
 CIDS:  MDV=  9663676416.
 Frozen-core window:  NFC=   9 NFV=   0.
 IFCWin=0 IBDFC=1 NFBD=     0     0 NFCmp=     0     0 NFFFC=     0     0
 Using original routines for 1st iteration.
 Using DD4UQ or CC4UQ for 2nd and later iterations.
 Keep R2 and R3 ints in memory in symmetry-blocked form, NReq=7228613.
 FoFCou: FMM=F IPFlag=           0 FMFlag=           0 FMFlg1=           0
         NFxFlg=           0 DoJE=F BraDBF=F KetDBF=F FulRan=T
         wScrn=  0.000000 ICntrl=       600 IOpCl=  0 I1Cent=           0 NGrid=           0
         NMat0=    1 NMatS0=    171 NMatT0=    0 NMatD0=    1 NMtDS0=    0 NMtDT0=    0
 Petite list used in FoFCou.
 CIDS: In Core Option IDoMem=           1.
 Coupled Cluster theory with single and double substitutions
 ===========================================================
 Iterations= 200 Convergence= 0.100D-06
 Produce multiple copies of IABC intergrals
 Iteration Nr.   1
 **********************
 DD1Dir will call FoFMem   1 times, MxPair=         2
 NAB=     0 NAA=     1 NBB=     0.
 MP4(R+Q)=  0.22390301D-09
 Maximum subspace dimension=  5
 A-vector RMS=  3.4366709D-04 Max=  7.7495123D-04 conv= 1.00D-05.
 RLE energy=       -0.0000203292
 E3=       -0.46081964D-05        EUMP3=      -0.59650224788D+03
 E4(DQ)=   -0.16104913D-05        UMP4(DQ)=   -0.59650224949D+03
 E4(SDQ)=  -0.16157722D-05        UMP4(SDQ)=  -0.59650224949D+03
 VARIATIONAL ENERGIES WITH THE FIRST-ORDER WAVEFUNCTION:
 DE(Corr)= -0.17877888E-04 E(Corr)=     -596.50224788    
 NORM(A)=   0.10000198D+01
 Iteration Nr.   2
 **********************
 DD1Dir will call FoFMem   1 times, MxPair=         2
 NAB=     0 NAA=     1 NBB=     0.
 A-vector RMS=  3.8393266D-05 Max=  6.2867857D-05 conv= 1.00D-05.
 RLE energy=       -0.0000203906
 DE(Corr)= -0.20353121E-04 E(CORR)=     -596.50225035     Delta=-2.48D-06
 NORM(A)=   0.10000199D+01
 Iteration Nr.   3
 **********************
 DD1Dir will call FoFMem   1 times, MxPair=         2
 NAB=     0 NAA=     1 NBB=     0.
 A-vector RMS=  5.4074204D-06 Max=  1.7236585D-05 conv= 1.00D-05.
 RLE energy=       -0.0000203916
 DE(Corr)= -0.20390694E-04 E(CORR)=     -596.50225039     Delta=-3.76D-08
 NORM(A)=   0.10000199D+01
 Iteration Nr.   4
 **********************
 DD1Dir will call FoFMem   1 times, MxPair=         2
 NAB=     0 NAA=     1 NBB=     0.
 A-vector RMS=  2.3626416D-06 Max=  7.6387861D-06 conv= 1.00D-05.
 RLE energy=       -0.0000203915
 DE(Corr)= -0.20391538E-04 E(CORR)=     -596.50225039     Delta=-8.44D-10
 NORM(A)=   0.10000199D+01
 CI/CC converged in    4 iterations to DelEn=-8.44D-10 Conv= 1.00D-07 ErrA1= 2.36D-06 Conv= 1.00D-05
 Wavefunction amplitudes converged. E(Corr)=     -596.50225039    
 Largest amplitude= 3.52D-03
 Discarding MO integrals.
 Leave Link  913 at Mon Mar 28 14:38:41 2022, MaxMem=  9663676416 cpu:               4.0 elap:               0.1
 (Enter /nopt/nrel/apps/gaussian/g16C_1/g16/l601.exe)
 Copying SCF densities to generalized density rwf, IOpCl= 1 IROHF=0.

 **********************************************************************

            Population analysis using the SCF Density.

 **********************************************************************

 Orbital symmetries:
 Alpha Orbitals:
       Occupied  (SG) (SG) (SG) (PI) (PI) (SG) (SG) (PI) (PI) (SG)
                 (SG)
       Virtual   (PI) (PI) (SG) (SG) (PI) (PI) (SG)
 Beta  Orbitals:
       Occupied  (SG) (SG) (PI) (PI) (SG) (SG) (SG) (PI) (PI)
       Virtual   (SG) (PI) (PI) (SG) (SG) (PI) (PI) (SG) (SG)
 The electronic state is 3-SG.
 Alpha  occ. eigenvalues -- -132.64453 -14.44639 -11.46449 -11.45973 -11.45973
 Alpha  occ. eigenvalues --   -1.79631  -1.05110  -0.98347  -0.98347  -0.52239
 Alpha  occ. eigenvalues --   -0.13066
 Alpha virt. eigenvalues --    0.01064   0.01064   0.01778   0.08612   0.09722
 Alpha virt. eigenvalues --    0.09722   0.16165
  Beta  occ. eigenvalues -- -132.64111 -14.44213 -11.45792 -11.45792 -11.45543
  Beta  occ. eigenvalues --   -1.77589  -0.99342  -0.97712  -0.97712
  Beta virt. eigenvalues --   -0.01519   0.02985   0.02985   0.04047   0.06384
  Beta virt. eigenvalues --    0.11858   0.11858   0.13193   0.35779
          Condensed to atoms (all electrons):
               1          2
     1  H    1.005596  -0.041286
     2  K   -0.041286  19.076975
          Atomic-Atomic Spin Densities.
               1          2
     1  H    0.985918  -0.100711
     2  K   -0.100711   1.215503
 Mulliken charges and spin densities:
               1          2
     1  H    0.035689   0.885208
     2  K   -0.035689   1.114792
 Sum of Mulliken charges =   0.00000   2.00000
 Mulliken charges and spin densities with hydrogens summed into heavy atoms:
               1          2
     2  K    0.000000   2.000000
 N-N= 6.702911338320D+00 E-N=-1.430086842508D+03  KE= 5.967968872344D+02
 Symmetry A1   KE= 4.716064927212D+02
 Symmetry A2   KE= 0.000000000000D+00
 Symmetry B1   KE= 6.259519725661D+01
 Symmetry B2   KE= 6.259519725661D+01
 Symmetry A1   SP= 2.000000000000D+00
 Symmetry A2   SP= 0.000000000000D+00
 Symmetry B1   SP= 3.724998242282D-16
 Symmetry B2   SP=-1.914760183902D-15

 Atomic contributions to Alpha molecular orbitals:
 Alpha occ 1 OE=-132.645 is K2-s=1.0000
 Alpha occ 2 OE=-14.446 is K2-s=1.0001
 Alpha occ 3 OE=-11.464 is K2-p=1.0001
 Alpha occ 4 OE=-11.460 is K2-p=1.0000
 Alpha occ 5 OE=-11.460 is K2-p=1.0000
 Alpha occ 6 OE=-1.796 is K2-s=0.9865
 Alpha occ 7 OE=-1.051 is K2-p=0.8689 H1-s=0.1244
 Alpha occ 8 OE=-0.983 is K2-p=1.0000
 Alpha occ 9 OE=-0.983 is K2-p=1.0000
 Alpha occ 10 OE=-0.522 is H1-s=0.7792 K2-p=0.1555
 Alpha occ 11 OE=-0.131 is K2-s=0.7936 K2-p=0.1960
 Alpha vir 12 OE=0.011 is K2-p=1.0000
 Alpha vir 13 OE=0.011 is K2-p=1.0000
 Alpha vir 14 OE=0.018 is K2-p=0.7786 K2-s=0.2138
 Alpha vir 15 OE=0.086 is K2-s=0.6909 K2-p=0.3075
 Alpha vir 16 OE=0.097 is K2-p=1.0000
 Alpha vir 17 OE=0.097 is K2-p=1.0000
 Alpha vir 18 OE=0.162 is K2-p=0.6908 K2-s=0.2432

 Atomic contributions to Beta  molecular orbitals:
 Beta  occ 1 OE=-132.641 is K2-s=1.0000
 Beta  occ 2 OE=-14.442 is K2-s=1.0001
 Beta  occ 3 OE=-11.458 is K2-p=1.0000
 Beta  occ 4 OE=-11.458 is K2-p=1.0000
 Beta  occ 5 OE=-11.455 is K2-p=1.0001
 Beta  occ 6 OE=-1.776 is K2-s=0.9930
 Beta  occ 7 OE=-0.993 is K2-p=0.9635
 Beta  occ 8 OE=-0.977 is K2-p=1.0000
 Beta  occ 9 OE=-0.977 is K2-p=1.0000
 Beta  vir 10 OE=-0.015 is K2-s=0.7224 K2-p=0.2020
 Beta  vir 11 OE=0.030 is K2-p=1.0000
 Beta  vir 12 OE=0.030 is K2-p=1.0000
 Beta  vir 13 OE=0.040 is K2-p=0.8440 K2-s=0.1545
 Beta  vir 14 OE=0.064 is K2-s=0.7099 K2-p=0.1921
 Beta  vir 15 OE=0.119 is K2-p=1.0000
 Beta  vir 16 OE=0.119 is K2-p=1.0000
 Beta  vir 17 OE=0.132 is K2-p=0.6590 K2-s=0.3305
 Beta  vir 18 OE=0.358 is H1-s=0.7747 K2-p=0.1381
 
 Leave Link  601 at Mon Mar 28 14:38:41 2022, MaxMem=  9663676416 cpu:               1.1 elap:               0.1
 (Enter /nopt/nrel/apps/gaussian/g16C_1/g16/l9999.exe)

 Test job not archived.
 1\1\GINC-R102U34\SP\UCCSD-FC\Gen\H1K1(3)\USER\28-Mar-2022\0\\#P CC
 SD(MaxCyc=200,SaveAmplitudes,ReadAmplitudes)/GEN sp pop=AllOrbitals io
 p(3/33=1,3/36=-1)\\test\\0,3\H,0,0.,0.,0.\K,0,0.,0.,1.5\\Version=ES64L
 -G16RevC.01\State=3-SG\HF=-596.50223\MP2=-596.5022433\MP3=-596.5022479
 \MP4D=-596.5022495\MP4DQ=-596.5022495\MP4SDQ=-596.5022495\CCSD=-596.50
 22504\S2=2.000836\S2-1=0.\S2A=2.\RMSD=1.130e-09\PG=C*V [C*(H1K1)]\\@


 ... A MOLECULAR SYSTEM ... (PASSES) ... FROM ONE STATE OF EQUILIBRIUM 
 TO ANOTHER ... BY MEANS OF ALL POSSIBLE INTERMEDIATE PATHS, 
 BUT THE PATH MOST ECONOMICAL OF ENERGY WILL BE THE MORE OFTEN TRAVELED.

                      -- HENRY EYRING, 1945
 Job cpu time:       0 days  0 hours  0 minutes 31.2 seconds.
 Elapsed time:       0 days  0 hours  0 minutes  1.2 seconds.
 File lengths (MBytes):  RWF=     13 Int=      0 D2E=      0 Chk=      1 Scr=      1
 Normal termination of Gaussian 16 at Mon Mar 28 14:38:41 2022.
