 Entering Gaussian System, Link 0=g16
 Initial command:
 /nopt/nrel/apps/gaussian/g16C_1/g16/l1.exe "/lustre/eaglefs/scratch/user/qc/tih-dissc-sto3g/tih-6-ccsd-2.3-321g/Gau-262952.inp" -scrdir="/lustre/eaglefs/scratch/user/qc/tih-dissc-sto3g/tih-6-ccsd-2.3-321g/"
 Default is to use a total of  36 processors:
                               36 via shared-memory
                                1 via Linda
 Entering Link 1 = /nopt/nrel/apps/gaussian/g16C_1/g16/l1.exe PID=    262953.
  
 Copyright (c) 1988-2019, Gaussian, Inc.  All Rights Reserved.
  
 This is part of the Gaussian(R) 16 program.  It is based on
 the Gaussian(R) 09 system (copyright 2009, Gaussian, Inc.),
 the Gaussian(R) 03 system (copyright 2003, Gaussian, Inc.),
 the Gaussian(R) 98 system (copyright 1998, Gaussian, Inc.),
 the Gaussian(R) 94 system (copyright 1995, Gaussian, Inc.),
 the Gaussian 92(TM) system (copyright 1992, Gaussian, Inc.),
 the Gaussian 90(TM) system (copyright 1990, Gaussian, Inc.),
 the Gaussian 88(TM) system (copyright 1988, Gaussian, Inc.),
 the Gaussian 86(TM) system (copyright 1986, Carnegie Mellon
 University), and the Gaussian 82(TM) system (copyright 1983,
 Carnegie Mellon University). Gaussian is a federally registered
 trademark of Gaussian, Inc.
  
 This software contains proprietary and confidential information,
 including trade secrets, belonging to Gaussian, Inc.
  
 This software is provided under written license and may be
 used, copied, transmitted, or stored only in accord with that
 written license.
  
 The following legend is applicable only to US Government
 contracts under FAR:
  
                    RESTRICTED RIGHTS LEGEND
  
 Use, reproduction and disclosure by the US Government is
 subject to restrictions as set forth in subparagraphs (a)
 and (c) of the Commercial Computer Software - Restricted
 Rights clause in FAR 52.227-19.
  
 Gaussian, Inc.
 340 Quinnipiac St., Bldg. 40, Wallingford CT 06492
  
  
 ---------------------------------------------------------------
 Warning -- This program may not be used in any manner that
 competes with the business of Gaussian, Inc. or will provide
 assistance to any competitor of Gaussian, Inc.  The licensee
 of this program is prohibited from giving any competitor of
 Gaussian, Inc. access to this program.  By using this program,
 the user acknowledges that Gaussian, Inc. is engaged in the
 business of creating and licensing software in the field of
 computational chemistry and represents and warrants to the
 licensee that it is not a competitor of Gaussian, Inc. and that
 it will not use this program in any manner prohibited above.
 ---------------------------------------------------------------
  

 Cite this work as:
 Gaussian 16, Revision C.01,
 M. J. Frisch, G. W. Trucks, H. B. Schlegel, G. E. Scuseria, 
 M. A. Robb, J. R. Cheeseman, G. Scalmani, V. Barone, 
 G. A. Petersson, H. Nakatsuji, X. Li, M. Caricato, A. V. Marenich, 
 J. Bloino, B. G. Janesko, R. Gomperts, B. Mennucci, H. P. Hratchian, 
 J. V. Ortiz, A. F. Izmaylov, J. L. Sonnenberg, D. Williams-Young, 
 F. Ding, F. Lipparini, F. Egidi, J. Goings, B. Peng, A. Petrone, 
 T. Henderson, D. Ranasinghe, V. G. Zakrzewski, J. Gao, N. Rega, 
 G. Zheng, W. Liang, M. Hada, M. Ehara, K. Toyota, R. Fukuda, 
 J. Hasegawa, M. Ishida, T. Nakajima, Y. Honda, O. Kitao, H. Nakai, 
 T. Vreven, K. Throssell, J. A. Montgomery, Jr., J. E. Peralta, 
 F. Ogliaro, M. J. Bearpark, J. J. Heyd, E. N. Brothers, K. N. Kudin, 
 V. N. Staroverov, T. A. Keith, R. Kobayashi, J. Normand, 
 K. Raghavachari, A. P. Rendell, J. C. Burant, S. S. Iyengar, 
 J. Tomasi, M. Cossi, J. M. Millam, M. Klene, C. Adamo, R. Cammi, 
 J. W. Ochterski, R. L. Martin, K. Morokuma, O. Farkas, 
 J. B. Foresman, and D. J. Fox, Gaussian, Inc., Wallingford CT, 2019.
 
 ******************************************
 Gaussian 16:  ES64L-G16RevC.01  3-Jul-2019
                28-Mar-2022 
 ******************************************
 %chk=molecule
 Default route: CacheSize=180224 MaxDisk=256GB
 ----------------------------------------------------------------------
 #P CCSD(MaxCyc=300,SaveAmplitudes,ReadAmplitudes)/GEN sp pop=AllOrbita
 ls iop(3/33=1,3/36=-1)
 ----------------------------------------------------------------------
 1/4=180224,38=1,172=1/1;
 2/4=180224,12=2,17=6,18=5,40=1/2;
 3/4=180224,5=7,11=9,25=1,30=1,33=1,36=-1/1,2,3;
 4/4=180224/1;
 5/4=180224,5=2,38=5/2;
 8/4=180224,6=4,9=120000,10=1,24=1/1,4;
 9/4=180224,5=7,6=300,77=1/13;
 6/4=180224,7=2,8=2,9=2,10=2,96=-1/1;
 99/4=180224,5=1,9=1/99;
 Leave Link    1 at Mon Mar 28 12:46:57 2022, MaxMem=           0 cpu:               2.1 elap:               0.1
 (Enter /nopt/nrel/apps/gaussian/g16C_1/g16/l101.exe)
 ----
 test
 ----
 Symbolic Z-matrix:
 Charge =  0 Multiplicity = 6
 H                     0.        0.        0. 
 Ti                    0.        0.        2.3 
 
 ITRead=  0  0
 MicOpt= -1 -1
 NAtoms=      2 NQM=        2 NQMF=       0 NMMI=      0 NMMIF=      0
                NMic=       0 NMicF=      0.
                    Isotopes and Nuclear Properties:
 (Nuclear quadrupole moments (NQMom) in fm**2, nuclear magnetic moments (NMagM)
  in nuclear magnetons)

  Atom         1           2
 IAtWgt=           1          48
 AtmWgt=   1.0078250  47.9479467
 NucSpn=           1           0
 AtZEff=  -0.0000000  -0.0000000
 NQMom=    0.0000000   0.0000000
 NMagM=    2.7928460   0.0000000
 AtZNuc=   1.0000000  22.0000000
 Leave Link  101 at Mon Mar 28 12:46:57 2022, MaxMem=  9663676416 cpu:               2.6 elap:               0.1
 (Enter /nopt/nrel/apps/gaussian/g16C_1/g16/l202.exe)
                          Input orientation:                          
 ---------------------------------------------------------------------
 Center     Atomic      Atomic             Coordinates (Angstroms)
 Number     Number       Type             X           Y           Z
 ---------------------------------------------------------------------
      1          1           0        0.000000    0.000000    0.000000
      2         22           0        0.000000    0.000000    2.300000
 ---------------------------------------------------------------------
 Stoichiometry    HTi(6)
 Framework group  C*V[C*(HTi)]
 Deg. of freedom     1
 Full point group                 C*V     NOp   4
 Largest Abelian subgroup         C2V     NOp   4
 Largest concise Abelian subgroup C1      NOp   1
                         Standard orientation:                         
 ---------------------------------------------------------------------
 Center     Atomic      Atomic             Coordinates (Angstroms)
 Number     Number       Type             X           Y           Z
 ---------------------------------------------------------------------
      1          1           0        0.000000    0.000000   -2.200000
      2         22           0        0.000000    0.000000    0.100000
 ---------------------------------------------------------------------
 Rotational constants (GHZ):           0.0000000          96.7854941          96.7854941
 Leave Link  202 at Mon Mar 28 12:46:57 2022, MaxMem=  9663676416 cpu:               0.5 elap:               0.0
 (Enter /nopt/nrel/apps/gaussian/g16C_1/g16/l301.exe)
 General basis read from cards:  (5D, 7F)
                         Coordinates in L301:                         
 ---------------------------------------------------------------------
 Center     Atomic      Atomic             Coordinates (Angstroms)
 Number     Number       Type             X           Y           Z
 ---------------------------------------------------------------------
      1          1           0        0.000000    0.000000   -2.200000
      2         22           0        0.000000    0.000000    0.100000
 ---------------------------------------------------------------------
 Centers:       1
 STO-3G
 ****
 Centers:       2
 3-21G
 ****
 FixB: optimizing general contractions.
 Ernie: Thresh=  0.10000D-02 Tol=  0.10000D-05 Strict=F.
 IA=     1 ShT= 0 ShC= 0 NL=   1 NS=   0.
 IA=     1 L=0 SC=0 ISt=    0 NBk=    0 NP=    0 IndPr=    0.
 IA=     2 ShT= 0 ShC= 0 NL=   1 NS=   0.
 IA=     2 L=0 SC=0 ISt=    0 NBk=    0 NP=    0 IndPr=    0.
 IA=     2 ShT= 1 ShC= 0 NL=   4 NS=   1.
 IA=     2 L=1 SC=0 ISt=    1 NBk=    3 NP=    8 IndPr=    0.
 DoElim1:  L=1 select primitive    1 from    2 using    1 C=-1.09D-01
 DoElim1:  L=1 select primitive    1 from    3 using    1 C=-1.09D-01
 DoElim1:  L=1 select primitive    4 from    3 using    2 C=-2.86D-01
 DoElim2:  L=1 select primitive    8 from    2 using    3 C= 1.10D+00
 DoElim2:  L=1 select primitive    8 from    1 using    3 C= 1.10D+00
 DoElim2:  L=1 select primitive    6 from    1 using    2 C= 8.60D-01
 DoElim1:  L=1 select primitive    1 from    2 using    1 C= 1.37D-01
 DoElim1:  L=1 select primitive    1 from    3 using    1 C= 1.37D-01
 DoElim1:  L=1 select primitive    4 from    3 using    2 C= 1.92D-02
 DoElim2:  L=1 select primitive    8 from    2 using    3 C= 1.00D+00
 DoElim2:  L=1 select primitive    8 from    1 using    3 C= 1.00D+00
 DoElim2:  L=1 select primitive    6 from    1 using    2 C= 6.36D-01
 Delete L=1 primitive    6 from    3 C=  0.00D+00.
 Delete L=1 primitive    5 from    3 C=  0.00D+00.
 Delete L=1 primitive    4 from    3 C=  0.00D+00.
 Delete L=1 primitive    3 from    3 C=  0.00D+00.
 Delete L=1 primitive    2 from    3 C=  0.00D+00.
 Delete L=1 primitive    1 from    3 C=  0.00D+00.
 Delete L=1 primitive    8 from    2 C=  0.00D+00.
 Delete L=1 primitive    7 from    2 C=  0.00D+00.
 Delete L=1 primitive    3 from    2 C=  0.00D+00.
 Delete L=1 primitive    2 from    2 C=  0.00D+00.
 Delete L=1 primitive    1 from    2 C=  0.00D+00.
 Delete L=1 primitive    8 from    1 C=  0.00D+00.
 Delete L=1 primitive    7 from    1 C=  0.00D+00.
 Delete L=1 primitive    6 from    1 C=  0.00D+00.
 Delete L=1 primitive    5 from    1 C=  0.00D+00.
 Delete L=1 primitive    4 from    1 C=  0.00D+00.
 IA=     2 L=1 SC=0 ISt=    0 NBk=    0 NP=    0 IndPr=    8.
 IA=     2 ShT= 2 ShC= 2 NL=   2 NS=   1.
 IA=     2 L=2 SC=2 ISt=    0 NBk=    0 NP=    0 IndPr=    0.
 LdAtmC:  AtmChg=     1.000000    22.000000
 AtZEff=     -1.0000000    -23.9800000
 NEqShl: 
              1            2            3            4
     1            1            1            1            1
     2            2            2            2            2
     3            3            3            3            3
     4            4            4            4            4
     5            5            5            5            5
     6            6            6            6            6
     7            7            7            7            7
     8            8            8            8            8
 NEqBas: 
              1            2            3            4
     1            1            1            1            1
     2            2            2            2            2
     3            3            3            3            3
     4            4           -4           -4            4
     5            5           -5            5           -5
     6            6            6            6            6
     7            7            7            7            7
     8            8           -8           -8            8
     9            9           -9            9           -9
    10           10           10           10           10
    11           11           11           11           11
    12           12          -12          -12           12
    13           13          -13           13          -13
    14           14           14           14           14
    15           15           15           15           15
    16           16          -16          -16           16
    17           17          -17           17          -17
    18           18           18           18           18
    19           19           19           19           19
    20           20           20           20           20
    21           21           21           21           21
    22           22           22          -22          -22
    23           23          -23          -23           23
    24           24          -24           24          -24
    25           25           25           25           25
    26           26           26           26           26
    27           27           27           27           27
    28           28           28          -28          -28
    29           29          -29          -29           29
    30           30          -30           30          -30
 There are    16 symmetry adapted cartesian basis functions of A1  symmetry.
   1         1   1   1   1
   2         2   2   2   2
   3         3   3   3   3
   4         6   6   6   6
   5         7   7   7   7
   6        10  10  10  10
   7        11  11  11  11
   8        14  14  14  14
   9        15  15  15  15
  10        18  18  18  18
  11        19  19  19  19
  12        20  20  20  20
  13        21  21  21  21
  14        25  25  25  25
  15        26  26  26  26
  16        27  27  27  27
 There are     2 symmetry adapted cartesian basis functions of A2  symmetry.
  17        22  22  22  22
  18        28  28  28  28
 There are     6 symmetry adapted cartesian basis functions of B1  symmetry.
  19         4   4   4   4
  20         8   8   8   8
  21        12  12  12  12
  22        16  16  16  16
  23        23  23  23  23
  24        29  29  29  29
 There are     6 symmetry adapted cartesian basis functions of B2  symmetry.
  25         5   5   5   5
  26         9   9   9   9
  27        13  13  13  13
  28        17  17  17  17
  29        24  24  24  24
  30        30  30  30  30
 Order= 1 2 4 3
 Reordered character table:
              1            2            3            4            5
     1            1            1            1            1            1
     2            2            1            1           -1           -1
     3            4            1           -1           -1            1
     4            3            1           -1            1           -1
 NEqShl: 
              1            2            3            4
     1            1            1            1            1
     2            2            2            2            2
     3            3            3            3            3
     4            4            4            4            4
     5            5            5            5            5
     6            6            6            6            6
     7            7            7            7            7
     8            8            8            8            8
 NEqBas: 
              1            2            3            4
     1            1            1            1            1
     2            2            2            2            2
     3            3            3            3            3
     4            4           -4           -4            4
     5            5           -5            5           -5
     6            6            6            6            6
     7            7            7            7            7
     8            8           -8           -8            8
     9            9           -9            9           -9
    10           10           10           10           10
    11           11           11           11           11
    12           12          -12          -12           12
    13           13          -13           13          -13
    14           14           14           14           14
    15           15           15           15           15
    16           16          -16          -16           16
    17           17          -17           17          -17
    18           18           18           18           18
    19           19           19           19           19
    20           20          -20          -20           20
    21           21          -21           21          -21
    22           22           22           22           22
    23           23           23          -23          -23
    24           24           24           24           24
    25           25          -25          -25           25
    26           26          -26           26          -26
    27           27           27           27           27
    28           28           28          -28          -28
 There are    14 symmetry adapted basis functions of A1  symmetry.
   1         1   1   1   1
   2         2   2   2   2
   3         3   3   3   3
   4         6   6   6   6
   5         7   7   7   7
   6        10  10  10  10
   7        11  11  11  11
   8        14  14  14  14
   9        15  15  15  15
  10        18  18  18  18
  11        19  19  19  19
  12        22  22  22  22
  13        24  24  24  24
  14        27  27  27  27
 There are     2 symmetry adapted basis functions of A2  symmetry.
  15        23  23  23  23
  16        28  28  28  28
 There are     6 symmetry adapted basis functions of B1  symmetry.
  17         4   4   4   4
  18         8   8   8   8
  19        12  12  12  12
  20        16  16  16  16
  21        20  20  20  20
  22        25  25  25  25
 There are     6 symmetry adapted basis functions of B2  symmetry.
  23         5   5   5   5
  24         9   9   9   9
  25        13  13  13  13
  26        17  17  17  17
  27        21  21  21  21
  28        26  26  26  26
 Order= 1 2 4 3
 Reordered character table:
              1            2            3            4            5
     1            1            1            1            1            1
     2            2            1            1           -1           -1
     3            4            1           -1           -1            1
     4            3            1           -1            1           -1
    28 basis functions,    60 primitive gaussians,    30 cartesian basis functions
    14 alpha electrons        9 beta electrons
       nuclear repulsion energy         5.0616950610 Hartrees.
 IS=     1 IAt=     1 ISR=     1 T=0 IP=      1 IndIP=      1 IndIPD=      0 C=  2.769344D-01  0.000000D+00                             NZ=T
 IS=     1 IAt=     1 ISR=     1 T=0 IP=      2 IndIP=      2 IndIPD=      1 C=  2.678389D-01  0.000000D+00                             NZ=T
 IS=     1 IAt=     1 ISR=     1 T=0 IP=      3 IndIP=      3 IndIPD=      2 C=  8.347367D-02  0.000000D+00                             NZ=T
 IS=     2 IAt=     2 ISR=     1 T=0 IP=      1 IndIP=      4 IndIPD=      0 C=  1.537359D+01  0.000000D+00                             NZ=T
 IS=     2 IAt=     2 ISR=     1 T=0 IP=      2 IndIP=      5 IndIPD=      1 C=  2.196579D+01  0.000000D+00                             NZ=T
 IS=     2 IAt=     2 ISR=     1 T=0 IP=      3 IndIP=      6 IndIPD=      2 C=  1.259884D+01  0.000000D+00                             NZ=T
 IS=     3 IAt=     2 ISR=     2 T=1 IP=      1 IndIP=      7 IndIPD=      0 C= -2.459358D+00  6.155759D+01                             NZ=T
 IS=     3 IAt=     2 ISR=     2 T=1 IP=      2 IndIP=      8 IndIPD=      1 C=  7.266107D-01  3.612099D+01                             NZ=T
 IS=     3 IAt=     2 ISR=     2 T=1 IP=      3 IndIP=      9 IndIPD=      2 C=  2.742121D+00  7.115701D+00                             NZ=T
 IS=     4 IAt=     2 ISR=     3 T=1 IP=      1 IndIP=     10 IndIPD=      0 C= -8.049761D-01  2.703339D-01                             NZ=T
 IS=     4 IAt=     2 ISR=     3 T=1 IP=      2 IndIP=     11 IndIPD=      1 C=  3.851869D-01  1.489563D+00                             NZ=T
 IS=     4 IAt=     2 ISR=     3 T=1 IP=      3 IndIP=     12 IndIPD=      2 C=  4.416753D-01  5.252178D-01                             NZ=T
 IS=     5 IAt=     2 ISR=     4 T=1 IP=      1 IndIP=     13 IndIPD=      0 C= -1.138440D-01  2.076393D-04                             NZ=T
 IS=     5 IAt=     2 ISR=     4 T=1 IP=      2 IndIP=     14 IndIPD=      1 C=  1.102445D-01  5.419267D-02                             NZ=T
 IS=     6 IAt=     2 ISR=     5 T=1 IP=      1 IndIP=     15 IndIPD=      0 C=  4.686088D-02  1.526772D-02                             NZ=T
 IS=     7 IAt=     2 ISR=     6 T=2 IP=      1 IndIP=     16 IndIPD=      1 C=  0.000000D+00  0.000000D+00  1.331025D+01  0.000000D+00 NZ=T
 IS=     7 IAt=     2 ISR=     6 T=2 IP=      2 IndIP=     17 IndIPD=      2 C=  0.000000D+00  0.000000D+00  3.600378D+00  0.000000D+00 NZ=T
 IS=     8 IAt=     2 ISR=     7 T=2 IP=      1 IndIP=     18 IndIPD=      3 C=  0.000000D+00  0.000000D+00  3.518721D-01  0.000000D+00 NZ=T
 IExCor=    0 DFT=F Ex=HF Corr=None ExCW=0 ScaHFX=  1.000000
 ScaDFX=  1.000000  1.000000  1.000000  1.000000 ScalE2=  1.000000  1.000000
 IRadAn=      5 IRanWt=     -1 IRanGd=            0 ICorTp=0 IEmpDi=  4
 NAtoms=    2 NActive=    2 NUniq=    2 SFac= 1.00D+00 NAtFMM=   60 NAOKFM=F Big=F
 Integral buffers will be    131072 words long.
 Raffenetti 2 integral format.
 Two-electron integral symmetry is turned on.
 Leave Link  301 at Mon Mar 28 12:46:57 2022, MaxMem=  9663676416 cpu:               2.2 elap:               0.1
 (Enter /nopt/nrel/apps/gaussian/g16C_1/g16/l302.exe)
 NPDir=0 NMtPBC=     1 NCelOv=     1 NCel=       1 NClECP=     1 NCelD=      1
         NCelK=      1 NCelE2=     1 NClLst=     1 CellRange=     0.0.
 One-electron integrals computed using PRISM.
 One-electron integral symmetry used in STVInt
 Entering OneElI...
 Calculate overlap and kinetic energy integrals
    NBasis =  28  MinDer = 0  MaxDer = 0
 Requested accuracy = 0.1000D-12
 Symmetry will be used
 PrmmSu-InSpLW:  IPartL=    0 NPrtUS=   36 NPrtUL=    1 DoSpLW=F IThBeg=    0 IThEnd=   35 NThAct=   36.
 PrSmSu:  IncTry=   512 NBBP=             36 NTPThr=   100 NPartT=   36 Incr=           1 LDynOK=F GPUOK=F.
 PrsmSu:  NPrtUS=  36 ThrOK=T IAlg=1 LenDen=           0 ISkipM=0 DoSpLW=F IThBeg=    0 IThEnd=   35.
 Prism:   IPart=     0 DynPar=F LinDyn=F Incr=           1.
 PRISM was handed   268432168 working-precision words and    36 shell-pairs
 PRISM was handed   268432168 working-precision words and    36 shell-pairs
 PRISM was handed   268432168 working-precision words and    36 shell-pairs
 PRISM was handed   268432168 working-precision words and    36 shell-pairs
 PRISM was handed   268432168 working-precision words and    36 shell-pairs
 PRISM was handed   268432168 working-precision words and    36 shell-pairs
 PRISM was handed   268432168 working-precision words and    36 shell-pairs
 PRISM was handed   268432168 working-precision words and    36 shell-pairs
 PRISM was handed   268432168 working-precision words and    36 shell-pairs
 PRISM was handed   268432168 working-precision words and    36 shell-pairs
 PRISM was handed   268432168 working-precision words and    36 shell-pairs
 PRISM was handed   268432168 working-precision words and    36 shell-pairs
 PRISM was handed   268432168 working-precision words and    36 shell-pairs
 IPart= 32 NShTot=           0 NBatch=           0 AvBLen=         0.0
 IPart= 30 NShTot=           0 NBatch=           0 AvBLen=         0.0
 IPart=  5 NShTot=           0 NBatch=           0 AvBLen=         0.0
 IPart= 22 NShTot=           0 NBatch=           0 AvBLen=         0.0
 IPart= 26 NShTot=           0 NBatch=           0 AvBLen=         0.0
 IPart= 35 NShTot=           0 NBatch=           0 AvBLen=         0.0
 IPart= 13 NShTot=           0 NBatch=           0 AvBLen=         0.0
 PRISM was handed   268432168 working-precision words and    36 shell-pairs
 PRISM was handed   268432168 working-precision words and    36 shell-pairs
 PRISM was handed   268432168 working-precision words and    36 shell-pairs
 PRISM was handed   268432168 working-precision words and    36 shell-pairs
 PRISM was handed   268432168 working-precision words and    36 shell-pairs
 IPart= 24 NShTot=           0 NBatch=           0 AvBLen=         0.0
 IPart= 12 NShTot=           0 NBatch=           0 AvBLen=         0.0
 IPart= 29 NShTot=           0 NBatch=           0 AvBLen=         0.0
 IPart=  6 NShTot=           0 NBatch=           0 AvBLen=         0.0
 IPart= 23 NShTot=           0 NBatch=           0 AvBLen=         0.0
 PRISM was handed   268432168 working-precision words and    36 shell-pairs
 PRISM was handed   268432168 working-precision words and    36 shell-pairs
 PRISM was handed   268432168 working-precision words and    36 shell-pairs
 PRISM was handed   268432168 working-precision words and    36 shell-pairs
 PRISM was handed   268432168 working-precision words and    36 shell-pairs
 PRISM was handed   268432168 working-precision words and    36 shell-pairs
 PRISM was handed   268432168 working-precision words and    36 shell-pairs
 IPart= 28 NShTot=           0 NBatch=           0 AvBLen=         0.0
 PRISM was handed   268432168 working-precision words and    36 shell-pairs
 IPart=  4 NShTot=           0 NBatch=           0 AvBLen=         0.0
 PRISM was handed   268432168 working-precision words and    36 shell-pairs
 PRISM was handed   268432168 working-precision words and    36 shell-pairs
 IPart= 10 NShTot=           0 NBatch=           0 AvBLen=         0.0
 IPart=  9 NShTot=           0 NBatch=           0 AvBLen=         0.0
 IPart= 25 NShTot=           0 NBatch=           0 AvBLen=         0.0
 PRISM was handed   268432168 working-precision words and    36 shell-pairs
 PRISM was handed   268432168 working-precision words and    36 shell-pairs
 PRISM was handed   268432168 working-precision words and    36 shell-pairs
 IPart= 27 NShTot=           0 NBatch=           0 AvBLen=         0.0
 IPart= 19 NShTot=           0 NBatch=           0 AvBLen=         0.0
 IPart= 15 NShTot=           0 NBatch=           0 AvBLen=         0.0
 IPart= 33 NShTot=           0 NBatch=           0 AvBLen=         0.0
 IPart= 17 NShTot=           0 NBatch=           0 AvBLen=         0.0
 PRISM was handed   268432168 working-precision words and    36 shell-pairs
 IPart=  2 NShTot=           2 NBatch=           2 AvBLen=         1.0
 IPart= 21 NShTot=           0 NBatch=           0 AvBLen=         0.0
 IPart= 16 NShTot=           0 NBatch=           0 AvBLen=         0.0
 IPart= 18 NShTot=           0 NBatch=           0 AvBLen=         0.0
 IPart=  1 NShTot=          12 NBatch=          12 AvBLen=         1.0
 IPart= 34 NShTot=           0 NBatch=           0 AvBLen=         0.0
 IPart= 20 NShTot=           0 NBatch=           0 AvBLen=         0.0
 PRISM was handed   268432168 working-precision words and    36 shell-pairs
 PRISM was handed   268432168 working-precision words and    36 shell-pairs
 PRISM was handed   268432168 working-precision words and    36 shell-pairs
 IPart=  3 NShTot=           0 NBatch=           0 AvBLen=         0.0
 IPart=  7 NShTot=           0 NBatch=           0 AvBLen=         0.0
 PRISM was handed   268432168 working-precision words and    36 shell-pairs
 IPart=  8 NShTot=           0 NBatch=           0 AvBLen=         0.0
 IPart= 14 NShTot=           0 NBatch=           0 AvBLen=         0.0
 IPart= 11 NShTot=           0 NBatch=           0 AvBLen=         0.0
 IPart=  0 NShTot=          22 NBatch=          22 AvBLen=         1.0
 IPart= 31 NShTot=           0 NBatch=           0 AvBLen=         0.0
 PrSmSu:  NxtVal=             37.
 *** Overlap *** 
                1             2             3             4             5 
      1  0.100000D+01
      2  0.424116D-03  0.100000D+01
      3  0.347067D-02  0.261907D+00  0.100000D+01
      4  0.000000D+00  0.000000D+00  0.000000D+00  0.100000D+01
      5  0.000000D+00  0.000000D+00  0.000000D+00  0.000000D+00  0.100000D+01
      6 -0.122656D-02  0.000000D+00  0.000000D+00  0.000000D+00  0.000000D+00
      7  0.253257D-01  0.101215D-01  0.334950D+00  0.000000D+00  0.000000D+00
      8  0.000000D+00  0.000000D+00  0.000000D+00  0.320730D+00  0.000000D+00
      9  0.000000D+00  0.000000D+00  0.000000D+00  0.000000D+00  0.320730D+00
     10 -0.307065D-01  0.000000D+00  0.000000D+00  0.000000D+00  0.000000D+00
     11  0.245468D+00 -0.323625D-03  0.781293D-02  0.000000D+00  0.000000D+00
     12  0.000000D+00  0.000000D+00  0.000000D+00  0.126594D-01  0.000000D+00
     13  0.000000D+00  0.000000D+00  0.000000D+00  0.000000D+00  0.126594D-01
     14 -0.415799D+00  0.000000D+00  0.000000D+00  0.000000D+00  0.000000D+00
     15  0.252736D+00  0.575699D-02  0.450232D-01  0.000000D+00  0.000000D+00
     16  0.000000D+00  0.000000D+00  0.000000D+00  0.361007D-02  0.000000D+00
     17  0.000000D+00  0.000000D+00  0.000000D+00  0.000000D+00  0.361007D-02
     18 -0.321614D+00  0.000000D+00  0.000000D+00  0.000000D+00  0.000000D+00
     19  0.594992D-02  0.000000D+00  0.000000D+00  0.000000D+00  0.000000D+00
     20  0.000000D+00  0.000000D+00  0.000000D+00  0.000000D+00  0.000000D+00
     21  0.000000D+00  0.000000D+00  0.000000D+00  0.000000D+00  0.000000D+00
     22  0.000000D+00  0.000000D+00  0.000000D+00  0.000000D+00  0.000000D+00
     23  0.000000D+00  0.000000D+00  0.000000D+00  0.000000D+00  0.000000D+00
     24  0.921510D-01  0.000000D+00  0.000000D+00  0.000000D+00  0.000000D+00
     25  0.000000D+00  0.000000D+00  0.000000D+00  0.000000D+00  0.000000D+00
     26  0.000000D+00  0.000000D+00  0.000000D+00  0.000000D+00  0.000000D+00
     27  0.000000D+00  0.000000D+00  0.000000D+00  0.000000D+00  0.000000D+00
     28  0.000000D+00  0.000000D+00  0.000000D+00  0.000000D+00  0.000000D+00
                6             7             8             9            10 
      6  0.100000D+01
      7  0.000000D+00  0.100000D+01
      8  0.000000D+00  0.000000D+00  0.100000D+01
      9  0.000000D+00  0.000000D+00  0.000000D+00  0.100000D+01
     10  0.320730D+00  0.000000D+00  0.000000D+00  0.000000D+00  0.100000D+01
     11  0.000000D+00  0.254017D+00  0.000000D+00  0.000000D+00  0.000000D+00
     12  0.000000D+00  0.000000D+00  0.217564D+00  0.000000D+00  0.000000D+00
     13  0.000000D+00  0.000000D+00  0.000000D+00  0.217564D+00  0.000000D+00
     14  0.126594D-01  0.000000D+00  0.000000D+00  0.000000D+00  0.217564D+00
     15  0.000000D+00  0.230277D+00  0.000000D+00  0.000000D+00  0.000000D+00
     16  0.000000D+00  0.000000D+00  0.710789D-01  0.000000D+00  0.000000D+00
     17  0.000000D+00  0.000000D+00  0.000000D+00  0.710789D-01  0.000000D+00
     18  0.361007D-02  0.000000D+00  0.000000D+00  0.000000D+00  0.710789D-01
     19  0.000000D+00  0.000000D+00  0.000000D+00  0.000000D+00  0.000000D+00
     20  0.000000D+00  0.000000D+00  0.000000D+00  0.000000D+00  0.000000D+00
     21  0.000000D+00  0.000000D+00  0.000000D+00  0.000000D+00  0.000000D+00
     22  0.000000D+00  0.000000D+00  0.000000D+00  0.000000D+00  0.000000D+00
     23  0.000000D+00  0.000000D+00  0.000000D+00  0.000000D+00  0.000000D+00
     24  0.000000D+00  0.000000D+00  0.000000D+00  0.000000D+00  0.000000D+00
     25  0.000000D+00  0.000000D+00  0.000000D+00  0.000000D+00  0.000000D+00
     26  0.000000D+00  0.000000D+00  0.000000D+00  0.000000D+00  0.000000D+00
     27  0.000000D+00  0.000000D+00  0.000000D+00  0.000000D+00  0.000000D+00
     28  0.000000D+00  0.000000D+00  0.000000D+00  0.000000D+00  0.000000D+00
               11            12            13            14            15 
     11  0.100000D+01
     12  0.000000D+00  0.100000D+01
     13  0.000000D+00  0.000000D+00  0.100000D+01
     14  0.000000D+00  0.000000D+00  0.000000D+00  0.100000D+01
     15  0.850437D+00  0.000000D+00  0.000000D+00  0.000000D+00  0.100000D+01
     16  0.000000D+00  0.734775D+00  0.000000D+00  0.000000D+00  0.000000D+00
     17  0.000000D+00  0.000000D+00  0.734775D+00  0.000000D+00  0.000000D+00
     18  0.000000D+00  0.000000D+00  0.000000D+00  0.734775D+00  0.000000D+00
     19  0.000000D+00  0.000000D+00  0.000000D+00  0.000000D+00  0.000000D+00
     20  0.000000D+00  0.000000D+00  0.000000D+00  0.000000D+00  0.000000D+00
     21  0.000000D+00  0.000000D+00  0.000000D+00  0.000000D+00  0.000000D+00
     22  0.000000D+00  0.000000D+00  0.000000D+00  0.000000D+00  0.000000D+00
     23  0.000000D+00  0.000000D+00  0.000000D+00  0.000000D+00  0.000000D+00
     24  0.000000D+00  0.000000D+00  0.000000D+00  0.000000D+00  0.000000D+00
     25  0.000000D+00  0.000000D+00  0.000000D+00  0.000000D+00  0.000000D+00
     26  0.000000D+00  0.000000D+00  0.000000D+00  0.000000D+00  0.000000D+00
     27  0.000000D+00  0.000000D+00  0.000000D+00  0.000000D+00  0.000000D+00
     28  0.000000D+00  0.000000D+00  0.000000D+00  0.000000D+00  0.000000D+00
               16            17            18            19            20 
     16  0.100000D+01
     17  0.000000D+00  0.100000D+01
     18  0.000000D+00  0.000000D+00  0.100000D+01
     19  0.000000D+00  0.000000D+00  0.000000D+00  0.100000D+01
     20  0.000000D+00  0.000000D+00  0.000000D+00  0.000000D+00  0.100000D+01
     21  0.000000D+00  0.000000D+00  0.000000D+00  0.000000D+00  0.000000D+00
     22  0.000000D+00  0.000000D+00  0.000000D+00  0.000000D+00  0.000000D+00
     23  0.000000D+00  0.000000D+00  0.000000D+00  0.000000D+00  0.000000D+00
     24  0.000000D+00  0.000000D+00  0.000000D+00  0.395959D+00  0.000000D+00
     25  0.000000D+00  0.000000D+00  0.000000D+00  0.000000D+00  0.395959D+00
     26  0.000000D+00  0.000000D+00  0.000000D+00  0.000000D+00  0.000000D+00
     27  0.000000D+00  0.000000D+00  0.000000D+00  0.000000D+00  0.000000D+00
     28  0.000000D+00  0.000000D+00  0.000000D+00  0.000000D+00  0.000000D+00
               21            22            23            24            25 
     21  0.100000D+01
     22  0.000000D+00  0.100000D+01
     23  0.000000D+00  0.000000D+00  0.100000D+01
     24  0.000000D+00  0.000000D+00  0.000000D+00  0.100000D+01
     25  0.000000D+00  0.000000D+00  0.000000D+00  0.000000D+00  0.100000D+01
     26  0.395959D+00  0.000000D+00  0.000000D+00  0.000000D+00  0.000000D+00
     27  0.000000D+00  0.395959D+00  0.000000D+00  0.000000D+00  0.000000D+00
     28  0.000000D+00  0.000000D+00  0.395959D+00  0.000000D+00  0.000000D+00
               26            27            28 
     26  0.100000D+01
     27  0.000000D+00  0.100000D+01
     28  0.000000D+00  0.000000D+00  0.100000D+01
 *** Kinetic Energy *** 
                1             2             3             4             5 
      1  0.760032D+00
      2 -0.243946D-03  0.238140D+03
      3 -0.188679D-02 -0.849715D+01  0.110812D+02
      4  0.000000D+00  0.000000D+00  0.000000D+00  0.405624D+02
      5  0.000000D+00  0.000000D+00  0.000000D+00  0.000000D+00  0.405624D+02
      6  0.301861D-03  0.000000D+00  0.000000D+00  0.000000D+00  0.000000D+00
      7 -0.103097D-01 -0.119187D+01 -0.935732D+00  0.000000D+00  0.000000D+00
      8  0.000000D+00  0.000000D+00  0.000000D+00  0.225504D+01  0.000000D+00
      9  0.000000D+00  0.000000D+00  0.000000D+00  0.000000D+00  0.225504D+01
     10  0.769894D-02  0.000000D+00  0.000000D+00  0.000000D+00  0.000000D+00
     11  0.148789D-01 -0.207112D-01 -0.130608D+00  0.000000D+00  0.000000D+00
     12  0.000000D+00  0.000000D+00  0.000000D+00  0.467897D-02  0.000000D+00
     13  0.000000D+00  0.000000D+00  0.000000D+00  0.000000D+00  0.467897D-02
     14 -0.666368D-01  0.000000D+00  0.000000D+00  0.000000D+00  0.000000D+00
     15  0.126361D-01  0.458197D-03  0.356994D-02  0.000000D+00  0.000000D+00
     16  0.000000D+00  0.000000D+00  0.000000D+00  0.477331D-03  0.000000D+00
     17  0.000000D+00  0.000000D+00  0.000000D+00  0.000000D+00  0.477331D-03
     18 -0.314854D-01  0.000000D+00  0.000000D+00  0.000000D+00  0.000000D+00
     19 -0.700050D-03  0.000000D+00  0.000000D+00  0.000000D+00  0.000000D+00
     20  0.000000D+00  0.000000D+00  0.000000D+00  0.000000D+00  0.000000D+00
     21  0.000000D+00  0.000000D+00  0.000000D+00  0.000000D+00  0.000000D+00
     22  0.000000D+00  0.000000D+00  0.000000D+00  0.000000D+00  0.000000D+00
     23  0.000000D+00  0.000000D+00  0.000000D+00  0.000000D+00  0.000000D+00
     24 -0.310532D-02  0.000000D+00  0.000000D+00  0.000000D+00  0.000000D+00
     25  0.000000D+00  0.000000D+00  0.000000D+00  0.000000D+00  0.000000D+00
     26  0.000000D+00  0.000000D+00  0.000000D+00  0.000000D+00  0.000000D+00
     27  0.000000D+00  0.000000D+00  0.000000D+00  0.000000D+00  0.000000D+00
     28  0.000000D+00  0.000000D+00  0.000000D+00  0.000000D+00  0.000000D+00
                6             7             8             9            10 
      6  0.405624D+02
      7  0.000000D+00  0.139068D+01
      8  0.000000D+00  0.000000D+00  0.266954D+01
      9  0.000000D+00  0.000000D+00  0.000000D+00  0.266954D+01
     10  0.225504D+01  0.000000D+00  0.000000D+00  0.000000D+00  0.266954D+01
     11  0.000000D+00 -0.125868D+00  0.000000D+00  0.000000D+00  0.000000D+00
     12  0.000000D+00  0.000000D+00  0.727335D-01  0.000000D+00  0.000000D+00
     13  0.000000D+00  0.000000D+00  0.000000D+00  0.727335D-01  0.000000D+00
     14  0.467897D-02  0.000000D+00  0.000000D+00  0.000000D+00  0.727335D-01
     15  0.000000D+00  0.176460D-01  0.000000D+00  0.000000D+00  0.000000D+00
     16  0.000000D+00  0.000000D+00  0.909809D-02  0.000000D+00  0.000000D+00
     17  0.000000D+00  0.000000D+00  0.000000D+00  0.909809D-02  0.000000D+00
     18  0.477331D-03  0.000000D+00  0.000000D+00  0.000000D+00  0.909809D-02
     19  0.000000D+00  0.000000D+00  0.000000D+00  0.000000D+00  0.000000D+00
     20  0.000000D+00  0.000000D+00  0.000000D+00  0.000000D+00  0.000000D+00
     21  0.000000D+00  0.000000D+00  0.000000D+00  0.000000D+00  0.000000D+00
     22  0.000000D+00  0.000000D+00  0.000000D+00  0.000000D+00  0.000000D+00
     23  0.000000D+00  0.000000D+00  0.000000D+00  0.000000D+00  0.000000D+00
     24  0.000000D+00  0.000000D+00  0.000000D+00  0.000000D+00  0.000000D+00
     25  0.000000D+00  0.000000D+00  0.000000D+00  0.000000D+00  0.000000D+00
     26  0.000000D+00  0.000000D+00  0.000000D+00  0.000000D+00  0.000000D+00
     27  0.000000D+00  0.000000D+00  0.000000D+00  0.000000D+00  0.000000D+00
     28  0.000000D+00  0.000000D+00  0.000000D+00  0.000000D+00  0.000000D+00
               11            12            13            14            15 
     11  0.130956D+00
     12  0.000000D+00  0.182825D+00
     13  0.000000D+00  0.000000D+00  0.182825D+00
     14  0.000000D+00  0.000000D+00  0.000000D+00  0.182825D+00
     15  0.485464D-01  0.000000D+00  0.000000D+00  0.000000D+00  0.398069D-01
     16  0.000000D+00  0.715354D-01  0.000000D+00  0.000000D+00  0.000000D+00
     17  0.000000D+00  0.000000D+00  0.715354D-01  0.000000D+00  0.000000D+00
     18  0.000000D+00  0.000000D+00  0.000000D+00  0.715354D-01  0.000000D+00
     19  0.000000D+00  0.000000D+00  0.000000D+00  0.000000D+00  0.000000D+00
     20  0.000000D+00  0.000000D+00  0.000000D+00  0.000000D+00  0.000000D+00
     21  0.000000D+00  0.000000D+00  0.000000D+00  0.000000D+00  0.000000D+00
     22  0.000000D+00  0.000000D+00  0.000000D+00  0.000000D+00  0.000000D+00
     23  0.000000D+00  0.000000D+00  0.000000D+00  0.000000D+00  0.000000D+00
     24  0.000000D+00  0.000000D+00  0.000000D+00  0.000000D+00  0.000000D+00
     25  0.000000D+00  0.000000D+00  0.000000D+00  0.000000D+00  0.000000D+00
     26  0.000000D+00  0.000000D+00  0.000000D+00  0.000000D+00  0.000000D+00
     27  0.000000D+00  0.000000D+00  0.000000D+00  0.000000D+00  0.000000D+00
     28  0.000000D+00  0.000000D+00  0.000000D+00  0.000000D+00  0.000000D+00
               16            17            18            19            20 
     16  0.663448D-01
     17  0.000000D+00  0.663448D-01
     18  0.000000D+00  0.000000D+00  0.663448D-01
     19  0.000000D+00  0.000000D+00  0.000000D+00  0.800995D+01
     20  0.000000D+00  0.000000D+00  0.000000D+00  0.000000D+00  0.800995D+01
     21  0.000000D+00  0.000000D+00  0.000000D+00  0.000000D+00  0.000000D+00
     22  0.000000D+00  0.000000D+00  0.000000D+00  0.000000D+00  0.000000D+00
     23  0.000000D+00  0.000000D+00  0.000000D+00  0.000000D+00  0.000000D+00
     24  0.000000D+00  0.000000D+00  0.000000D+00  0.930872D+00  0.000000D+00
     25  0.000000D+00  0.000000D+00  0.000000D+00  0.000000D+00  0.930872D+00
     26  0.000000D+00  0.000000D+00  0.000000D+00  0.000000D+00  0.000000D+00
     27  0.000000D+00  0.000000D+00  0.000000D+00  0.000000D+00  0.000000D+00
     28  0.000000D+00  0.000000D+00  0.000000D+00  0.000000D+00  0.000000D+00
               21            22            23            24            25 
     21  0.800995D+01
     22  0.000000D+00  0.800995D+01
     23  0.000000D+00  0.000000D+00  0.800995D+01
     24  0.000000D+00  0.000000D+00  0.000000D+00  0.144943D+01
     25  0.000000D+00  0.000000D+00  0.000000D+00  0.000000D+00  0.144943D+01
     26  0.930872D+00  0.000000D+00  0.000000D+00  0.000000D+00  0.000000D+00
     27  0.000000D+00  0.930872D+00  0.000000D+00  0.000000D+00  0.000000D+00
     28  0.000000D+00  0.000000D+00  0.930872D+00  0.000000D+00  0.000000D+00
               26            27            28 
     26  0.144943D+01
     27  0.000000D+00  0.144943D+01
     28  0.000000D+00  0.000000D+00  0.144943D+01
 Entering OneElI...
 Calculate potential energy integrals
    NBasis =  28  MinDer = 0  MaxDer = 0
 Requested accuracy = 0.1000D-12
 Symmetry will be used
 PrmmSu-InSpLW:  IPartL=    0 NPrtUS=   36 NPrtUL=    1 DoSpLW=F IThBeg=    0 IThEnd=   35 NThAct=   36.
 PrSmSu:  IncTry=   512 NBBP=             72 NTPThr=   100 NPartT=   36 Incr=           1 LDynOK=F GPUOK=F.
 PrsmSu:  NPrtUS=  36 ThrOK=T IAlg=1 LenDen=           0 ISkipM=0 DoSpLW=F IThBeg=    0 IThEnd=   35.
 Prism:   IPart=     0 DynPar=F LinDyn=F Incr=           1.
 PRISM was handed   268432644 working-precision words and    36 shell-pairs
 PRISM was handed   268432644 working-precision words and    36 shell-pairs
 PRISM was handed   268432644 working-precision words and    36 shell-pairs
 PRISM was handed   268432644 working-precision words and    36 shell-pairs
 PRISM was handed   268432644 working-precision words and    36 shell-pairs
 PRISM was handed   268432644 working-precision words and    36 shell-pairs
 PRISM was handed   268432644 working-precision words and    36 shell-pairs
 PRISM was handed   268432644 working-precision words and    36 shell-pairs
 PRISM was handed   268432644 working-precision words and    36 shell-pairs
 PRISM was handed   268432644 working-precision words and    36 shell-pairs
 PRISM was handed   268432644 working-precision words and    36 shell-pairs
 PRISM was handed   268432644 working-precision words and    36 shell-pairs
 PRISM was handed   268432644 working-precision words and    36 shell-pairs
 PRISM was handed   268432644 working-precision words and    36 shell-pairs
 PRISM was handed   268432644 working-precision words and    36 shell-pairs
 PRISM was handed   268432644 working-precision words and    36 shell-pairs
 PRISM was handed   268432644 working-precision words and    36 shell-pairs
 PRISM was handed   268432644 working-precision words and    36 shell-pairs
 PRISM was handed   268432644 working-precision words and    36 shell-pairs
 PRISM was handed   268432644 working-precision words and    36 shell-pairs
 PRISM was handed   268432644 working-precision words and    36 shell-pairs
 PRISM was handed   268432644 working-precision words and    36 shell-pairs
 PRISM was handed   268432644 working-precision words and    36 shell-pairs
 PRISM was handed   268432644 working-precision words and    36 shell-pairs
 PRISM was handed   268432644 working-precision words and    36 shell-pairs
 PRISM was handed   268432644 working-precision words and    36 shell-pairs
 PRISM was handed   268432644 working-precision words and    36 shell-pairs
 PRISM was handed   268432644 working-precision words and    36 shell-pairs
 PRISM was handed   268432644 working-precision words and    36 shell-pairs
 PRISM was handed   268432644 working-precision words and    36 shell-pairs
 PRISM was handed   268432644 working-precision words and    36 shell-pairs
 PRISM was handed   268432644 working-precision words and    36 shell-pairs
 PRISM was handed   268432644 working-precision words and    36 shell-pairs
 PRISM was handed   268432644 working-precision words and    36 shell-pairs
 PRISM was handed   268432644 working-precision words and    36 shell-pairs
 PRISM was handed   268432644 working-precision words and    36 shell-pairs
 IPart= 27 NShTot=           0 NBatch=           0 AvBLen=         0.0
 IPart= 17 NShTot=           0 NBatch=           0 AvBLen=         0.0
 IPart= 30 NShTot=           0 NBatch=           0 AvBLen=         0.0
 IPart= 10 NShTot=           0 NBatch=           0 AvBLen=         0.0
 IPart= 12 NShTot=           0 NBatch=           0 AvBLen=         0.0
 IPart=  8 NShTot=           0 NBatch=           0 AvBLen=         0.0
 IPart=  3 NShTot=           0 NBatch=           0 AvBLen=         0.0
 IPart= 35 NShTot=           0 NBatch=           0 AvBLen=         0.0
 IPart= 23 NShTot=           0 NBatch=           0 AvBLen=         0.0
 IPart= 24 NShTot=           0 NBatch=           0 AvBLen=         0.0
 IPart= 29 NShTot=           0 NBatch=           0 AvBLen=         0.0
 IPart= 15 NShTot=           0 NBatch=           0 AvBLen=         0.0
 IPart=  4 NShTot=           0 NBatch=           0 AvBLen=         0.0
 IPart= 25 NShTot=           0 NBatch=           0 AvBLen=         0.0
 IPart= 26 NShTot=           0 NBatch=           0 AvBLen=         0.0
 IPart= 31 NShTot=           0 NBatch=           0 AvBLen=         0.0
 IPart= 32 NShTot=           0 NBatch=           0 AvBLen=         0.0
 IPart=  5 NShTot=           0 NBatch=           0 AvBLen=         0.0
 IPart= 33 NShTot=           0 NBatch=           0 AvBLen=         0.0
 IPart= 34 NShTot=           0 NBatch=           0 AvBLen=         0.0
 IPart= 19 NShTot=           0 NBatch=           0 AvBLen=         0.0
 IPart=  7 NShTot=           0 NBatch=           0 AvBLen=         0.0
 IPart=  6 NShTot=           0 NBatch=           0 AvBLen=         0.0
 IPart= 21 NShTot=           0 NBatch=           0 AvBLen=         0.0
 IPart= 28 NShTot=           0 NBatch=           0 AvBLen=         0.0
 IPart= 18 NShTot=           0 NBatch=           0 AvBLen=         0.0
 IPart= 14 NShTot=           0 NBatch=           0 AvBLen=         0.0
 IPart= 20 NShTot=           0 NBatch=           0 AvBLen=         0.0
 IPart= 13 NShTot=           0 NBatch=           0 AvBLen=         0.0
 IPart= 16 NShTot=           0 NBatch=           0 AvBLen=         0.0
 IPart= 11 NShTot=           0 NBatch=           0 AvBLen=         0.0
 IPart=  9 NShTot=           0 NBatch=           0 AvBLen=         0.0
 IPart= 22 NShTot=           0 NBatch=           0 AvBLen=         0.0
 IPart=  2 NShTot=           4 NBatch=           2 AvBLen=         2.0
 IPart=  1 NShTot=          22 NBatch=          11 AvBLen=         2.0
 IPart=  0 NShTot=          46 NBatch=          23 AvBLen=         2.0
 PrSmSu:  NxtVal=             37.
 ***** Potential Energy ***** 
                1             2             3             4             5 
      1  0.628795D+01
      2  0.110749D+00  0.478867D+03
      3  0.214542D+00  0.594069D+02  0.851776D+02
      4  0.000000D+00  0.000000D+00  0.000000D+00  0.990400D+02
      5  0.000000D+00  0.000000D+00  0.000000D+00  0.000000D+00  0.990400D+02
      6 -0.609311D-01 -0.127692D-02 -0.902475D-02  0.000000D+00  0.000000D+00
      7  0.463733D+00  0.186092D+01  0.175642D+02  0.000000D+00  0.000000D+00
      8  0.000000D+00  0.000000D+00  0.000000D+00  0.184433D+02  0.000000D+00
      9  0.000000D+00  0.000000D+00  0.000000D+00  0.000000D+00  0.184433D+02
     10 -0.445896D+00 -0.791551D-04 -0.481192D-02  0.000000D+00  0.000000D+00
     11  0.168821D+01 -0.976068D-01  0.273217D+00  0.000000D+00  0.000000D+00
     12  0.000000D+00  0.000000D+00  0.000000D+00  0.635728D+00  0.000000D+00
     13  0.000000D+00  0.000000D+00  0.000000D+00  0.000000D+00  0.635728D+00
     14 -0.262931D+01 -0.200878D-05 -0.207467D-03  0.000000D+00  0.000000D+00
     15  0.157782D+01  0.150567D+01  0.282649D+01  0.000000D+00  0.000000D+00
     16  0.000000D+00  0.000000D+00  0.000000D+00  0.180471D+00  0.000000D+00
     17  0.000000D+00  0.000000D+00  0.000000D+00  0.000000D+00  0.180471D+00
     18 -0.180503D+01  0.000000D+00 -0.593146D-04  0.000000D+00  0.000000D+00
     19  0.107368D+00  0.211442D-05  0.540059D-03  0.000000D+00  0.000000D+00
     20  0.000000D+00  0.000000D+00  0.000000D+00 -0.422036D-02  0.000000D+00
     21  0.000000D+00  0.000000D+00  0.000000D+00  0.000000D+00 -0.422036D-02
     22  0.000000D+00  0.000000D+00  0.000000D+00  0.000000D+00  0.000000D+00
     23  0.000000D+00  0.000000D+00  0.000000D+00  0.000000D+00  0.000000D+00
     24  0.826683D+00  0.000000D+00  0.592547D-04  0.000000D+00  0.000000D+00
     25  0.000000D+00  0.000000D+00  0.000000D+00 -0.412549D-03  0.000000D+00
     26  0.000000D+00  0.000000D+00  0.000000D+00  0.000000D+00 -0.412549D-03
     27  0.000000D+00  0.000000D+00  0.000000D+00  0.000000D+00  0.000000D+00
     28  0.000000D+00  0.000000D+00  0.000000D+00  0.000000D+00  0.000000D+00
                6             7             8             9            10 
      6  0.990407D+02
      7 -0.471646D-02  0.265132D+02
      8  0.000000D+00  0.000000D+00  0.254134D+02
      9  0.000000D+00  0.000000D+00  0.000000D+00  0.254134D+02
     10  0.184439D+02 -0.305608D-01  0.000000D+00  0.000000D+00  0.254227D+02
     11 -0.160027D-03  0.410728D+01  0.000000D+00  0.000000D+00 -0.156378D-01
     12  0.000000D+00  0.000000D+00  0.347225D+01  0.000000D+00  0.000000D+00
     13  0.000000D+00  0.000000D+00  0.000000D+00  0.347225D+01  0.000000D+00
     14  0.635758D+00 -0.847485D-02  0.000000D+00  0.000000D+00  0.347716D+01
     15 -0.586541D-03  0.470516D+01  0.000000D+00  0.000000D+00 -0.115483D-01
     16  0.000000D+00  0.000000D+00  0.109246D+01  0.000000D+00  0.000000D+00
     17  0.000000D+00  0.000000D+00  0.000000D+00  0.109246D+01  0.000000D+00
     18  0.180480D+00 -0.280495D-02  0.000000D+00  0.000000D+00  0.109419D+01
     19 -0.496300D-02  0.492988D-02  0.000000D+00  0.000000D+00 -0.252028D-01
     20  0.000000D+00  0.000000D+00 -0.203938D-01  0.000000D+00  0.000000D+00
     21  0.000000D+00  0.000000D+00  0.000000D+00 -0.203938D-01  0.000000D+00
     22  0.000000D+00  0.000000D+00  0.000000D+00  0.000000D+00  0.000000D+00
     23  0.000000D+00  0.000000D+00  0.000000D+00  0.000000D+00  0.000000D+00
     24 -0.489609D-03  0.673164D-02  0.000000D+00  0.000000D+00 -0.284050D-01
     25  0.000000D+00  0.000000D+00 -0.207524D-01  0.000000D+00  0.000000D+00
     26  0.000000D+00  0.000000D+00  0.000000D+00 -0.207524D-01  0.000000D+00
     27  0.000000D+00  0.000000D+00  0.000000D+00  0.000000D+00  0.000000D+00
     28  0.000000D+00  0.000000D+00  0.000000D+00  0.000000D+00  0.000000D+00
               11            12            13            14            15 
     11  0.790782D+01
     12  0.000000D+00  0.651989D+01
     13  0.000000D+00  0.000000D+00  0.651989D+01
     14 -0.902023D-01  0.000000D+00  0.000000D+00  0.660043D+01
     15  0.612097D+01  0.000000D+00  0.000000D+00 -0.850066D-01  0.591309D+01
     16  0.000000D+00  0.396728D+01  0.000000D+00  0.000000D+00  0.000000D+00
     17  0.000000D+00  0.000000D+00  0.396728D+01  0.000000D+00  0.000000D+00
     18 -0.554193D-01  0.000000D+00  0.000000D+00  0.402336D+01 -0.696515D-01
     19  0.152301D-02  0.000000D+00  0.000000D+00 -0.417205D-02  0.127758D-02
     20  0.000000D+00 -0.324349D-02  0.000000D+00  0.000000D+00  0.000000D+00
     21  0.000000D+00  0.000000D+00 -0.324349D-02  0.000000D+00  0.000000D+00
     22  0.000000D+00  0.000000D+00  0.000000D+00  0.000000D+00  0.000000D+00
     23  0.000000D+00  0.000000D+00  0.000000D+00  0.000000D+00  0.000000D+00
     24  0.222462D-01  0.000000D+00  0.000000D+00 -0.431835D-01  0.146881D-01
     25  0.000000D+00 -0.252412D-01  0.000000D+00  0.000000D+00  0.000000D+00
     26  0.000000D+00  0.000000D+00 -0.252412D-01  0.000000D+00  0.000000D+00
     27  0.000000D+00  0.000000D+00  0.000000D+00  0.000000D+00  0.000000D+00
     28  0.000000D+00  0.000000D+00  0.000000D+00  0.000000D+00  0.000000D+00
               16            17            18            19            20 
     16  0.395755D+01
     17  0.000000D+00  0.395755D+01
     18  0.000000D+00  0.000000D+00  0.400973D+01
     19  0.000000D+00  0.000000D+00 -0.128724D-02  0.294014D+02
     20 -0.997691D-03  0.000000D+00  0.000000D+00  0.000000D+00  0.293996D+02
     21  0.000000D+00 -0.997691D-03  0.000000D+00  0.000000D+00  0.000000D+00
     22  0.000000D+00  0.000000D+00  0.000000D+00  0.000000D+00  0.000000D+00
     23  0.000000D+00  0.000000D+00  0.000000D+00  0.000000D+00  0.000000D+00
     24  0.000000D+00  0.000000D+00 -0.175838D-01  0.802068D+01  0.000000D+00
     25 -0.989772D-02  0.000000D+00  0.000000D+00  0.000000D+00  0.801917D+01
     26  0.000000D+00 -0.989772D-02  0.000000D+00  0.000000D+00  0.000000D+00
     27  0.000000D+00  0.000000D+00  0.000000D+00  0.000000D+00  0.000000D+00
     28  0.000000D+00  0.000000D+00  0.000000D+00  0.000000D+00  0.000000D+00
               21            22            23            24            25 
     21  0.293996D+02
     22  0.000000D+00  0.293954D+02
     23  0.000000D+00  0.000000D+00  0.293954D+02
     24  0.000000D+00  0.000000D+00  0.000000D+00  0.122981D+02
     25  0.000000D+00  0.000000D+00  0.000000D+00  0.000000D+00  0.122837D+02
     26  0.801917D+01  0.000000D+00  0.000000D+00  0.000000D+00  0.000000D+00
     27  0.000000D+00  0.801608D+01  0.000000D+00  0.000000D+00  0.000000D+00
     28  0.000000D+00  0.000000D+00  0.801608D+01  0.000000D+00  0.000000D+00
               26            27            28 
     26  0.122837D+02
     27  0.000000D+00  0.122652D+02
     28  0.000000D+00  0.000000D+00  0.122652D+02
 ****** Core Hamiltonian ****** 
                1             2             3             4             5 
      1 -0.552792D+01
      2 -0.110993D+00 -0.240727D+03
      3 -0.216429D+00 -0.679041D+02 -0.740965D+02
      4  0.000000D+00  0.000000D+00  0.000000D+00 -0.584776D+02
      5  0.000000D+00  0.000000D+00  0.000000D+00  0.000000D+00 -0.584776D+02
      6  0.612329D-01  0.127692D-02  0.902475D-02  0.000000D+00  0.000000D+00
      7 -0.474043D+00 -0.305279D+01 -0.184999D+02  0.000000D+00  0.000000D+00
      8  0.000000D+00  0.000000D+00  0.000000D+00 -0.161883D+02  0.000000D+00
      9  0.000000D+00  0.000000D+00  0.000000D+00  0.000000D+00 -0.161883D+02
     10  0.453594D+00  0.791551D-04  0.481192D-02  0.000000D+00  0.000000D+00
     11 -0.167334D+01  0.768956D-01 -0.403825D+00  0.000000D+00  0.000000D+00
     12  0.000000D+00  0.000000D+00  0.000000D+00 -0.631049D+00  0.000000D+00
     13  0.000000D+00  0.000000D+00  0.000000D+00  0.000000D+00 -0.631049D+00
     14  0.256267D+01  0.200878D-05  0.207467D-03  0.000000D+00  0.000000D+00
     15 -0.156518D+01 -0.150521D+01 -0.282292D+01  0.000000D+00  0.000000D+00
     16  0.000000D+00  0.000000D+00  0.000000D+00 -0.179994D+00  0.000000D+00
     17  0.000000D+00  0.000000D+00  0.000000D+00  0.000000D+00 -0.179994D+00
     18  0.177355D+01  0.000000D+00  0.593146D-04  0.000000D+00  0.000000D+00
     19 -0.108068D+00 -0.211442D-05 -0.540059D-03  0.000000D+00  0.000000D+00
     20  0.000000D+00  0.000000D+00  0.000000D+00  0.422036D-02  0.000000D+00
     21  0.000000D+00  0.000000D+00  0.000000D+00  0.000000D+00  0.422036D-02
     22  0.000000D+00  0.000000D+00  0.000000D+00  0.000000D+00  0.000000D+00
     23  0.000000D+00  0.000000D+00  0.000000D+00  0.000000D+00  0.000000D+00
     24 -0.829789D+00  0.000000D+00 -0.592547D-04  0.000000D+00  0.000000D+00
     25  0.000000D+00  0.000000D+00  0.000000D+00  0.412549D-03  0.000000D+00
     26  0.000000D+00  0.000000D+00  0.000000D+00  0.000000D+00  0.412549D-03
     27  0.000000D+00  0.000000D+00  0.000000D+00  0.000000D+00  0.000000D+00
     28  0.000000D+00  0.000000D+00  0.000000D+00  0.000000D+00  0.000000D+00
                6             7             8             9            10 
      6 -0.584783D+02
      7  0.471646D-02 -0.251225D+02
      8  0.000000D+00  0.000000D+00 -0.227439D+02
      9  0.000000D+00  0.000000D+00  0.000000D+00 -0.227439D+02
     10 -0.161889D+02  0.305608D-01  0.000000D+00  0.000000D+00 -0.227532D+02
     11  0.160027D-03 -0.423315D+01  0.000000D+00  0.000000D+00  0.156378D-01
     12  0.000000D+00  0.000000D+00 -0.339952D+01  0.000000D+00  0.000000D+00
     13  0.000000D+00  0.000000D+00  0.000000D+00 -0.339952D+01  0.000000D+00
     14 -0.631079D+00  0.847485D-02  0.000000D+00  0.000000D+00 -0.340443D+01
     15  0.586541D-03 -0.468752D+01  0.000000D+00  0.000000D+00  0.115483D-01
     16  0.000000D+00  0.000000D+00 -0.108336D+01  0.000000D+00  0.000000D+00
     17  0.000000D+00  0.000000D+00  0.000000D+00 -0.108336D+01  0.000000D+00
     18 -0.180003D+00  0.280495D-02  0.000000D+00  0.000000D+00 -0.108509D+01
     19  0.496300D-02 -0.492988D-02  0.000000D+00  0.000000D+00  0.252028D-01
     20  0.000000D+00  0.000000D+00  0.203938D-01  0.000000D+00  0.000000D+00
     21  0.000000D+00  0.000000D+00  0.000000D+00  0.203938D-01  0.000000D+00
     22  0.000000D+00  0.000000D+00  0.000000D+00  0.000000D+00  0.000000D+00
     23  0.000000D+00  0.000000D+00  0.000000D+00  0.000000D+00  0.000000D+00
     24  0.489609D-03 -0.673164D-02  0.000000D+00  0.000000D+00  0.284050D-01
     25  0.000000D+00  0.000000D+00  0.207524D-01  0.000000D+00  0.000000D+00
     26  0.000000D+00  0.000000D+00  0.000000D+00  0.207524D-01  0.000000D+00
     27  0.000000D+00  0.000000D+00  0.000000D+00  0.000000D+00  0.000000D+00
     28  0.000000D+00  0.000000D+00  0.000000D+00  0.000000D+00  0.000000D+00
               11            12            13            14            15 
     11 -0.777686D+01
     12  0.000000D+00 -0.633707D+01
     13  0.000000D+00  0.000000D+00 -0.633707D+01
     14  0.902023D-01  0.000000D+00  0.000000D+00 -0.641761D+01
     15 -0.607242D+01  0.000000D+00  0.000000D+00  0.850066D-01 -0.587329D+01
     16  0.000000D+00 -0.389575D+01  0.000000D+00  0.000000D+00  0.000000D+00
     17  0.000000D+00  0.000000D+00 -0.389575D+01  0.000000D+00  0.000000D+00
     18  0.554193D-01  0.000000D+00  0.000000D+00 -0.395182D+01  0.696515D-01
     19 -0.152301D-02  0.000000D+00  0.000000D+00  0.417205D-02 -0.127758D-02
     20  0.000000D+00  0.324349D-02  0.000000D+00  0.000000D+00  0.000000D+00
     21  0.000000D+00  0.000000D+00  0.324349D-02  0.000000D+00  0.000000D+00
     22  0.000000D+00  0.000000D+00  0.000000D+00  0.000000D+00  0.000000D+00
     23  0.000000D+00  0.000000D+00  0.000000D+00  0.000000D+00  0.000000D+00
     24 -0.222462D-01  0.000000D+00  0.000000D+00  0.431835D-01 -0.146881D-01
     25  0.000000D+00  0.252412D-01  0.000000D+00  0.000000D+00  0.000000D+00
     26  0.000000D+00  0.000000D+00  0.252412D-01  0.000000D+00  0.000000D+00
     27  0.000000D+00  0.000000D+00  0.000000D+00  0.000000D+00  0.000000D+00
     28  0.000000D+00  0.000000D+00  0.000000D+00  0.000000D+00  0.000000D+00
               16            17            18            19            20 
     16 -0.389120D+01
     17  0.000000D+00 -0.389120D+01
     18  0.000000D+00  0.000000D+00 -0.394338D+01
     19  0.000000D+00  0.000000D+00  0.128724D-02 -0.213914D+02
     20  0.997691D-03  0.000000D+00  0.000000D+00  0.000000D+00 -0.213897D+02
     21  0.000000D+00  0.997691D-03  0.000000D+00  0.000000D+00  0.000000D+00
     22  0.000000D+00  0.000000D+00  0.000000D+00  0.000000D+00  0.000000D+00
     23  0.000000D+00  0.000000D+00  0.000000D+00  0.000000D+00  0.000000D+00
     24  0.000000D+00  0.000000D+00  0.175838D-01 -0.708981D+01  0.000000D+00
     25  0.989772D-02  0.000000D+00  0.000000D+00  0.000000D+00 -0.708830D+01
     26  0.000000D+00  0.989772D-02  0.000000D+00  0.000000D+00  0.000000D+00
     27  0.000000D+00  0.000000D+00  0.000000D+00  0.000000D+00  0.000000D+00
     28  0.000000D+00  0.000000D+00  0.000000D+00  0.000000D+00  0.000000D+00
               21            22            23            24            25 
     21 -0.213897D+02
     22  0.000000D+00 -0.213854D+02
     23  0.000000D+00  0.000000D+00 -0.213854D+02
     24  0.000000D+00  0.000000D+00  0.000000D+00 -0.108487D+02
     25  0.000000D+00  0.000000D+00  0.000000D+00  0.000000D+00 -0.108343D+02
     26 -0.708830D+01  0.000000D+00  0.000000D+00  0.000000D+00  0.000000D+00
     27  0.000000D+00 -0.708520D+01  0.000000D+00  0.000000D+00  0.000000D+00
     28  0.000000D+00  0.000000D+00 -0.708520D+01  0.000000D+00  0.000000D+00
               26            27            28 
     26 -0.108343D+02
     27  0.000000D+00 -0.108158D+02
     28  0.000000D+00  0.000000D+00 -0.108158D+02
 SVDSVc IOpt=   1 NormSV=T IR=1
 SVDSVc V= 2.20D+00 1.92D+00 1.40D+00 1.40D+00 1.37D+00 1.29D+00 9.51D-01 7.06D-01 6.57D-01 6.04D-01
 SVDSVc V= 5.79D-01 5.40D-01 2.37D-01 1.48D-01
 SVDSVc IOpt=   1 NormSV=T IR=2
 SVDSVc V= 1.40D+00 6.04D-01
 SVDSVc IOpt=   1 NormSV=T IR=3
 SVDSVc V= 1.80D+00 1.40D+00 1.28D+00 6.73D-01 6.04D-01 2.48D-01
 SVDSVc IOpt=   1 NormSV=T IR=4
 SVDSVc V= 1.80D+00 1.40D+00 1.28D+00 6.73D-01 6.04D-01 2.48D-01
 TstOVc:  Largest diagonal error= 1.55D-15 IB=1 I=    9.
 TstOVc:  Largest same sym error= 4.20D-15 IB=1 I=    6 J=    5.
 TstOVc:  Largest diff sym error= 0.00D+00 IB=0 JB=0 I=    0 J=    0.
 Orthogonalized basis functions: 
                 1             2             3             4             5 
      1   0.296335D+00 -0.119316D+00  0.673039D-01  0.000000D+00 -0.763628D-01
      2   0.158426D-01  0.317790D-01 -0.723584D-01  0.000000D+00  0.423249D+00
      3   0.599805D-01  0.974684D-01 -0.108346D+00  0.000000D+00  0.581193D+00
      4   0.000000D+00  0.000000D+00  0.000000D+00  0.000000D+00  0.000000D+00
      5   0.000000D+00  0.000000D+00  0.000000D+00  0.000000D+00  0.000000D+00
      6  -0.243213D-01  0.540937D-01  0.599974D-01  0.000000D+00 -0.909647D-01
      7   0.150245D+00  0.194664D+00 -0.755541D-01  0.000000D+00  0.328314D+00
      8   0.000000D+00  0.000000D+00  0.000000D+00  0.000000D+00  0.000000D+00
      9   0.000000D+00  0.000000D+00  0.000000D+00  0.000000D+00  0.000000D+00
     10  -0.768538D-01  0.135834D+00  0.732355D-01  0.000000D+00 -0.102095D+00
     11   0.316016D+00  0.306794D+00  0.110983D-01  0.000000D+00 -0.165256D+00
     12   0.000000D+00  0.000000D+00  0.000000D+00  0.000000D+00  0.000000D+00
     13   0.000000D+00  0.000000D+00  0.000000D+00  0.000000D+00  0.000000D+00
     14  -0.267043D+00  0.362974D+00  0.434689D-01  0.000000D+00 -0.382398D-01
     15   0.316462D+00  0.305849D+00  0.935018D-02  0.000000D+00 -0.152220D+00
     16   0.000000D+00  0.000000D+00  0.000000D+00  0.000000D+00  0.000000D+00
     17   0.000000D+00  0.000000D+00  0.000000D+00  0.000000D+00  0.000000D+00
     18  -0.246727D+00  0.343816D+00  0.391292D-01  0.000000D+00 -0.304359D-01
     19   0.100047D-01 -0.733452D-02  0.576713D+00  0.000000D+00  0.127194D+00
     20   0.000000D+00  0.000000D+00  0.000000D+00  0.000000D+00  0.000000D+00
     21   0.000000D+00  0.000000D+00  0.000000D+00  0.000000D+00  0.000000D+00
     22   0.000000D+00  0.000000D+00  0.000000D+00  0.598479D+00  0.000000D+00
     23   0.000000D+00  0.000000D+00  0.000000D+00  0.000000D+00  0.000000D+00
     24   0.259698D-01 -0.151742D-01  0.583987D+00  0.000000D+00  0.118549D+00
     25   0.000000D+00  0.000000D+00  0.000000D+00  0.000000D+00  0.000000D+00
     26   0.000000D+00  0.000000D+00  0.000000D+00  0.000000D+00  0.000000D+00
     27   0.000000D+00  0.000000D+00  0.000000D+00  0.598479D+00  0.000000D+00
     28   0.000000D+00  0.000000D+00  0.000000D+00  0.000000D+00  0.000000D+00
                 6             7             8             9            10 
      1   0.991026D-01  0.155659D+00  0.691350D+00 -0.453325D+00  0.000000D+00
      2   0.907673D-01  0.772772D+00 -0.165716D+00  0.116368D+00  0.000000D+00
      3   0.101797D+00 -0.122698D+00  0.188267D+00 -0.155497D+00  0.000000D+00
      4   0.000000D+00  0.000000D+00  0.000000D+00  0.000000D+00  0.000000D+00
      5   0.000000D+00  0.000000D+00  0.000000D+00  0.000000D+00  0.000000D+00
      6   0.615667D+00 -0.465980D-01 -0.569811D+00 -0.613724D+00  0.000000D+00
      7   0.266811D-01 -0.608423D+00 -0.200260D-01  0.604624D-01  0.000000D+00
      8   0.000000D+00  0.000000D+00  0.000000D+00  0.000000D+00  0.000000D+00
      9   0.000000D+00  0.000000D+00  0.000000D+00  0.000000D+00  0.000000D+00
     10   0.568759D+00  0.424222D-02  0.514860D+00  0.661671D+00  0.000000D+00
     11  -0.631473D-01  0.112228D+00 -0.160580D+00  0.952017D-01  0.000000D+00
     12   0.000000D+00  0.000000D+00  0.000000D+00  0.000000D+00  0.000000D+00
     13   0.000000D+00  0.000000D+00  0.000000D+00  0.000000D+00  0.000000D+00
     14  -0.759183D-01  0.624350D-01  0.185967D+00 -0.680305D-01  0.000000D+00
     15  -0.592781D-01  0.131818D+00 -0.139933D+00  0.758766D-01  0.000000D+00
     16   0.000000D+00  0.000000D+00  0.000000D+00  0.000000D+00  0.000000D+00
     17   0.000000D+00  0.000000D+00  0.000000D+00  0.000000D+00  0.000000D+00
     18  -0.153272D+00  0.835078D-01  0.174300D+00 -0.410128D+00  0.000000D+00
     19  -0.537010D-01 -0.364877D-01 -0.340141D+00  0.398182D+00  0.000000D+00
     20   0.000000D+00  0.000000D+00  0.000000D+00  0.000000D+00  0.000000D+00
     21   0.000000D+00  0.000000D+00  0.000000D+00  0.000000D+00  0.000000D+00
     22   0.000000D+00  0.000000D+00  0.000000D+00  0.000000D+00  0.909812D+00
     23   0.000000D+00  0.000000D+00  0.000000D+00  0.000000D+00  0.000000D+00
     24  -0.413129D-01  0.213331D-02  0.241778D+00 -0.337990D+00  0.000000D+00
     25   0.000000D+00  0.000000D+00  0.000000D+00  0.000000D+00  0.000000D+00
     26   0.000000D+00  0.000000D+00  0.000000D+00  0.000000D+00  0.000000D+00
     27   0.000000D+00  0.000000D+00  0.000000D+00  0.000000D+00 -0.909812D+00
     28   0.000000D+00  0.000000D+00  0.000000D+00  0.000000D+00  0.000000D+00
                11            12            13            14            15 
      1  -0.406719D+00 -0.507331D+00  0.301041D+00  0.164227D-01  0.000000D+00
      2   0.303562D+00 -0.396496D+00  0.368658D-02 -0.256324D-01  0.000000D+00
      3  -0.502079D+00  0.718582D+00 -0.113803D-01  0.130015D+00  0.000000D+00
      4   0.000000D+00  0.000000D+00  0.000000D+00  0.000000D+00  0.000000D+00
      5   0.000000D+00  0.000000D+00  0.000000D+00  0.000000D+00  0.000000D+00
      6  -0.639654D-01 -0.445268D-01  0.129987D+00  0.785378D-03  0.000000D+00
      7   0.399402D+00 -0.709939D+00  0.271382D-01 -0.108717D+00  0.000000D+00
      8   0.000000D+00  0.000000D+00  0.000000D+00  0.000000D+00  0.000000D+00
      9   0.000000D+00  0.000000D+00  0.000000D+00  0.000000D+00  0.000000D+00
     10   0.872254D-01  0.672810D-01 -0.353131D+00 -0.245699D-02  0.000000D+00
     11   0.474784D-01  0.166039D+00 -0.568984D-01  0.184781D+01  0.000000D+00
     12   0.000000D+00  0.000000D+00  0.000000D+00  0.000000D+00  0.000000D+00
     13   0.000000D+00  0.000000D+00  0.000000D+00  0.000000D+00  0.000000D+00
     14  -0.597560D-01 -0.604079D-01  0.151321D+01  0.121059D-01  0.000000D+00
     15  -0.206718D-01  0.261989D+00 -0.438538D-01 -0.182565D+01  0.000000D+00
     16   0.000000D+00  0.000000D+00  0.000000D+00  0.000000D+00  0.000000D+00
     17   0.000000D+00  0.000000D+00  0.000000D+00  0.000000D+00  0.000000D+00
     18  -0.220653D+00 -0.268455D+00 -0.129833D+01 -0.403726D-02  0.000000D+00
     19  -0.679048D+00 -0.314147D+00  0.226230D-01  0.905338D-03  0.000000D+00
     20   0.000000D+00  0.000000D+00  0.000000D+00  0.000000D+00  0.000000D+00
     21   0.000000D+00  0.000000D+00  0.000000D+00  0.000000D+00  0.000000D+00
     22   0.000000D+00  0.000000D+00  0.000000D+00  0.000000D+00  0.000000D+00
     23   0.000000D+00  0.000000D+00  0.000000D+00  0.000000D+00  0.598479D+00
     24   0.727894D+00  0.372314D+00 -0.481083D-01 -0.219585D-02  0.000000D+00
     25   0.000000D+00  0.000000D+00  0.000000D+00  0.000000D+00  0.000000D+00
     26   0.000000D+00  0.000000D+00  0.000000D+00  0.000000D+00  0.000000D+00
     27   0.000000D+00  0.000000D+00  0.000000D+00  0.000000D+00  0.000000D+00
     28   0.000000D+00  0.000000D+00  0.000000D+00  0.000000D+00  0.598479D+00
                16            17            18            19            20 
      1   0.000000D+00  0.000000D+00  0.000000D+00  0.000000D+00  0.000000D+00
      2   0.000000D+00  0.000000D+00  0.000000D+00  0.000000D+00  0.000000D+00
      3   0.000000D+00  0.000000D+00  0.000000D+00  0.000000D+00  0.000000D+00
      4   0.000000D+00  0.989007D-01  0.000000D+00  0.631613D+00 -0.834101D+00
      5   0.000000D+00  0.000000D+00  0.000000D+00  0.000000D+00  0.000000D+00
      6   0.000000D+00  0.000000D+00  0.000000D+00  0.000000D+00  0.000000D+00
      7   0.000000D+00  0.000000D+00  0.000000D+00  0.000000D+00  0.000000D+00
      8   0.000000D+00  0.221260D+00  0.000000D+00  0.556385D+00  0.851114D+00
      9   0.000000D+00  0.000000D+00  0.000000D+00  0.000000D+00  0.000000D+00
     10   0.000000D+00  0.000000D+00  0.000000D+00  0.000000D+00  0.000000D+00
     11   0.000000D+00  0.000000D+00  0.000000D+00  0.000000D+00  0.000000D+00
     12   0.000000D+00  0.509061D+00  0.000000D+00 -0.144130D+00  0.341821D-01
     13   0.000000D+00  0.000000D+00  0.000000D+00  0.000000D+00  0.000000D+00
     14   0.000000D+00  0.000000D+00  0.000000D+00  0.000000D+00  0.000000D+00
     15   0.000000D+00  0.000000D+00  0.000000D+00  0.000000D+00  0.000000D+00
     16   0.000000D+00  0.487367D+00  0.000000D+00 -0.230220D+00 -0.252838D+00
     17   0.000000D+00  0.000000D+00  0.000000D+00  0.000000D+00  0.000000D+00
     18   0.000000D+00  0.000000D+00  0.000000D+00  0.000000D+00  0.000000D+00
     19   0.000000D+00  0.000000D+00  0.000000D+00  0.000000D+00  0.000000D+00
     20   0.000000D+00  0.000000D+00  0.598479D+00  0.000000D+00  0.000000D+00
     21   0.000000D+00  0.000000D+00  0.000000D+00  0.000000D+00  0.000000D+00
     22   0.000000D+00  0.000000D+00  0.000000D+00  0.000000D+00  0.000000D+00
     23   0.909812D+00  0.000000D+00  0.000000D+00  0.000000D+00  0.000000D+00
     24   0.000000D+00  0.000000D+00  0.000000D+00  0.000000D+00  0.000000D+00
     25   0.000000D+00  0.000000D+00  0.598479D+00  0.000000D+00  0.000000D+00
     26   0.000000D+00  0.000000D+00  0.000000D+00  0.000000D+00  0.000000D+00
     27   0.000000D+00  0.000000D+00  0.000000D+00  0.000000D+00  0.000000D+00
     28  -0.909812D+00  0.000000D+00  0.000000D+00  0.000000D+00  0.000000D+00
                21            22            23            24            25 
      1   0.000000D+00  0.000000D+00  0.000000D+00  0.000000D+00  0.000000D+00
      2   0.000000D+00  0.000000D+00  0.000000D+00  0.000000D+00  0.000000D+00
      3   0.000000D+00  0.000000D+00  0.000000D+00  0.000000D+00  0.000000D+00
      4   0.000000D+00  0.126826D+00  0.000000D+00  0.000000D+00  0.000000D+00
      5   0.000000D+00  0.000000D+00  0.989007D-01  0.000000D+00  0.631613D+00
      6   0.000000D+00  0.000000D+00  0.000000D+00  0.000000D+00  0.000000D+00
      7   0.000000D+00  0.000000D+00  0.000000D+00  0.000000D+00  0.000000D+00
      8   0.000000D+00 -0.338446D+00  0.000000D+00  0.000000D+00  0.000000D+00
      9   0.000000D+00  0.000000D+00  0.221260D+00  0.000000D+00  0.556385D+00
     10   0.000000D+00  0.000000D+00  0.000000D+00  0.000000D+00  0.000000D+00
     11   0.000000D+00  0.000000D+00  0.000000D+00  0.000000D+00  0.000000D+00
     12   0.000000D+00  0.142883D+01  0.000000D+00  0.000000D+00  0.000000D+00
     13   0.000000D+00  0.000000D+00  0.509061D+00  0.000000D+00 -0.144130D+00
     14   0.000000D+00  0.000000D+00  0.000000D+00  0.000000D+00  0.000000D+00
     15   0.000000D+00  0.000000D+00  0.000000D+00  0.000000D+00  0.000000D+00
     16   0.000000D+00 -0.136452D+01  0.000000D+00  0.000000D+00  0.000000D+00
     17   0.000000D+00  0.000000D+00  0.487367D+00  0.000000D+00 -0.230220D+00
     18   0.000000D+00  0.000000D+00  0.000000D+00  0.000000D+00  0.000000D+00
     19   0.000000D+00  0.000000D+00  0.000000D+00  0.000000D+00  0.000000D+00
     20   0.909812D+00  0.000000D+00  0.000000D+00  0.000000D+00  0.000000D+00
     21   0.000000D+00  0.000000D+00  0.000000D+00  0.598479D+00  0.000000D+00
     22   0.000000D+00  0.000000D+00  0.000000D+00  0.000000D+00  0.000000D+00
     23   0.000000D+00  0.000000D+00  0.000000D+00  0.000000D+00  0.000000D+00
     24   0.000000D+00  0.000000D+00  0.000000D+00  0.000000D+00  0.000000D+00
     25  -0.909812D+00  0.000000D+00  0.000000D+00  0.000000D+00  0.000000D+00
     26   0.000000D+00  0.000000D+00  0.000000D+00  0.598479D+00  0.000000D+00
     27   0.000000D+00  0.000000D+00  0.000000D+00  0.000000D+00  0.000000D+00
     28   0.000000D+00  0.000000D+00  0.000000D+00  0.000000D+00  0.000000D+00
                26            27            28 
      1   0.000000D+00  0.000000D+00  0.000000D+00
      2   0.000000D+00  0.000000D+00  0.000000D+00
      3   0.000000D+00  0.000000D+00  0.000000D+00
      4   0.000000D+00  0.000000D+00  0.000000D+00
      5  -0.834101D+00  0.000000D+00  0.126826D+00
      6   0.000000D+00  0.000000D+00  0.000000D+00
      7   0.000000D+00  0.000000D+00  0.000000D+00
      8   0.000000D+00  0.000000D+00  0.000000D+00
      9   0.851114D+00  0.000000D+00 -0.338446D+00
     10   0.000000D+00  0.000000D+00  0.000000D+00
     11   0.000000D+00  0.000000D+00  0.000000D+00
     12   0.000000D+00  0.000000D+00  0.000000D+00
     13   0.341821D-01  0.000000D+00  0.142883D+01
     14   0.000000D+00  0.000000D+00  0.000000D+00
     15   0.000000D+00  0.000000D+00  0.000000D+00
     16   0.000000D+00  0.000000D+00  0.000000D+00
     17  -0.252838D+00  0.000000D+00 -0.136452D+01
     18   0.000000D+00  0.000000D+00  0.000000D+00
     19   0.000000D+00  0.000000D+00  0.000000D+00
     20   0.000000D+00  0.000000D+00  0.000000D+00
     21   0.000000D+00  0.909812D+00  0.000000D+00
     22   0.000000D+00  0.000000D+00  0.000000D+00
     23   0.000000D+00  0.000000D+00  0.000000D+00
     24   0.000000D+00  0.000000D+00  0.000000D+00
     25   0.000000D+00  0.000000D+00  0.000000D+00
     26   0.000000D+00 -0.909812D+00  0.000000D+00
     27   0.000000D+00  0.000000D+00  0.000000D+00
     28   0.000000D+00  0.000000D+00  0.000000D+00
 NBasis=    28 RedAO= T EigKep=  1.48D-01  NBF=    14     2     6     6
 NBsUse=    28 1.00D-06 EigRej= -1.00D+00 NBFU=    14     2     6     6
 Leave Link  302 at Mon Mar 28 12:46:57 2022, MaxMem=  9663676416 cpu:               4.1 elap:               0.1
 (Enter /nopt/nrel/apps/gaussian/g16C_1/g16/l303.exe)
 DipDrv will not compute anything.
 Fermi contact integrals: 
                 1             2 
      1   0.628247D+00  0.343937D-02
      2   0.000000D+00  0.499382D+02
      3   0.000000D+00  0.100937D+01
      4   0.000000D+00  0.000000D+00
      5   0.000000D+00  0.000000D+00
      6   0.000000D+00  0.000000D+00
      7   0.219358D-05  0.218861D-01
      8   0.000000D+00  0.000000D+00
      9   0.000000D+00  0.000000D+00
     10  -0.113375D-04  0.000000D+00
     11   0.276970D-01 -0.359953D-02
     12   0.000000D+00  0.000000D+00
     13   0.000000D+00  0.000000D+00
     14  -0.591805D-01  0.000000D+00
     15   0.283849D-01  0.468609D-01
     16   0.000000D+00  0.000000D+00
     17   0.000000D+00  0.000000D+00
     18  -0.401955D-01  0.000000D+00
     19   0.000000D+00  0.000000D+00
     20   0.000000D+00  0.000000D+00
     21   0.000000D+00  0.000000D+00
     22   0.000000D+00  0.000000D+00
     23   0.000000D+00  0.000000D+00
     24   0.266123D-02  0.000000D+00
     25   0.000000D+00  0.000000D+00
     26   0.000000D+00  0.000000D+00
     27   0.000000D+00  0.000000D+00
     28   0.000000D+00  0.000000D+00
 Leave Link  303 at Mon Mar 28 12:46:57 2022, MaxMem=  9663676416 cpu:               0.8 elap:               0.0
 (Enter /nopt/nrel/apps/gaussian/g16C_1/g16/l401.exe)
 ExpMin= 2.65D-02 ExpMax= 2.34D+03 ExpMxC= 2.34D+03 IAcc=3 IRadAn=         5 AccDes= 0.00D+00
 Harris functional with IExCor=  205 and IRadAn=       5 diagonalized for initial guess.
 HarFok:  IExCor=  205 AccDes= 0.00D+00 IRadAn=         5 IDoV= 1 UseB2=F ITyADJ=14
 ICtDFT=  3500011 ScaDFX=  1.000000  1.000000  1.000000  1.000000
 FoFCou: FMM=F IPFlag=           0 FMFlag=      100000 FMFlg1=           0
         NFxFlg=           0 DoJE=T BraDBF=F KetDBF=T FulRan=T
         wScrn=  0.000000 ICntrl=       500 IOpCl=  0 I1Cent=   200000004 NGrid=           0
         NMat0=    1 NMatS0=      1 NMatT0=    0 NMatD0=    1 NMtDS0=    0 NMtDT0=    0
 Petite list used in FoFCou.
 Harris En= -843.856252633043    
 JPrj=0 DoOrth=F DoCkMO=F.
 Initial guess orbital symmetries:
 Alpha Orbitals:
       Occupied  (SG) (SG) (SG) (PI) (PI) (SG) (SG) (PI) (PI) (SG)
                 (SG) (PI) (PI) (DLTA)
       Virtual   (DLTA) (SG) (PI) (PI) (SG) (SG) (PI) (PI) (SG)
                 (PI) (PI) (DLTA) (DLTA) (SG)
 Beta  Orbitals:
       Occupied  (SG) (SG) (SG) (PI) (PI) (SG) (SG) (PI) (PI)
       Virtual   (SG) (SG) (PI) (PI) (DLTA) (DLTA) (SG) (PI) (PI)
                 (SG) (SG) (PI) (PI) (SG) (PI) (PI) (DLTA) (DLTA)
                 (SG)
 Initial guess <Sx>= 0.0000 <Sy>= 0.0000 <Sz>= 2.5000 <S**2>= 8.7500 S= 2.5000
 Leave Link  401 at Mon Mar 28 12:46:57 2022, MaxMem=  9663676416 cpu:               3.9 elap:               0.1
 (Enter /nopt/nrel/apps/gaussian/g16C_1/g16/l502.exe)
 Keep R1 and R2 ints in memory in symmetry-blocked form, NReq=7478207.
 FoFCou: FMM=F IPFlag=           0 FMFlag=           0 FMFlg1=           0
         NFxFlg=           0 DoJE=F BraDBF=F KetDBF=F FulRan=T
         wScrn=  0.000000 ICntrl=       600 IOpCl=  0 I1Cent=           0 NGrid=           0
         NMat0=    1 NMatS0=    406 NMatT0=    0 NMatD0=    1 NMtDS0=    0 NMtDT0=    0
 Petite list used in FoFCou.
 UHF open shell SCF:
 Using DIIS extrapolation, IDIIS=  1040.
 NGot=  9663676416 LenX=  9663625622 LenY=  9663624281
 Requested convergence on RMS density matrix=1.00D-08 within 128 cycles.
 Requested convergence on MAX density matrix=1.00D-06.
 Requested convergence on             energy=1.00D-06.
 No special actions if energy rises.

 Cycle   1  Pass 1  IDiag  1:
 E= -844.503141792007    
 DIIS: error= 5.38D-02 at cycle   1 NSaved=   1.
 NSaved= 1 IEnMin= 1 EnMin= -844.503141792007     IErMin= 1 ErrMin= 5.38D-02
 ErrMax= 5.38D-02  0.00D+00 EMaxC= 1.00D-01 BMatC= 2.05D-01 BMatP= 2.05D-01
 IDIUse=3 WtCom= 4.62D-01 WtEn= 5.38D-01
 Coeff-Com:  0.100D+01
 Coeff-En:   0.100D+01
 Coeff:      0.100D+01
 Gap=     0.134 Goal=   None    Shift=    0.000
 Gap=     1.255 Goal=   None    Shift=    0.000
 GapD=    0.134 DampG=1.000 DampE=0.250 DampFc=0.2500 IDamp=-1.
 Damping current iteration by 2.50D-01
 RMSDP=1.81D-02 MaxDP=4.24D-01              OVMax= 1.66D-02

 Cycle   2  Pass 1  IDiag  1:
 E= -844.523957374125     Delta-E=       -0.020815582118 Rises=F Damp=T
 DIIS: error= 4.18D-02 at cycle   2 NSaved=   2.
 NSaved= 2 IEnMin= 2 EnMin= -844.523957374125     IErMin= 2 ErrMin= 4.18D-02
 ErrMax= 4.18D-02  0.00D+00 EMaxC= 1.00D-01 BMatC= 1.15D-01 BMatP= 2.05D-01
 IDIUse=3 WtCom= 5.82D-01 WtEn= 4.18D-01
 Coeff-Com: -0.273D+01 0.373D+01
 Coeff-En:   0.000D+00 0.100D+01
 Coeff:     -0.159D+01 0.259D+01
 Gap=     0.167 Goal=   None    Shift=    0.000
 Gap=     1.323 Goal=   None    Shift=    0.000
 RMSDP=1.59D-02 MaxDP=3.76D-01 DE=-2.08D-02 OVMax= 7.63D-03

 Cycle   3  Pass 1  IDiag  1:
 E= -844.600076446897     Delta-E=       -0.076119072772 Rises=F Damp=F
 DIIS: error= 8.56D-03 at cycle   3 NSaved=   3.
 NSaved= 3 IEnMin= 3 EnMin= -844.600076446897     IErMin= 3 ErrMin= 8.56D-03
 ErrMax= 8.56D-03  0.00D+00 EMaxC= 1.00D-01 BMatC= 3.48D-03 BMatP= 1.15D-01
 IDIUse=3 WtCom= 9.14D-01 WtEn= 8.56D-02
 Coeff-Com:  0.274D+01-0.373D+01 0.199D+01
 Coeff-En:   0.000D+00 0.000D+00 0.100D+01
 Coeff:      0.250D+01-0.341D+01 0.191D+01
 Gap=     0.187 Goal=   None    Shift=    0.000
 Gap=     1.394 Goal=   None    Shift=    0.000
 RMSDP=4.71D-03 MaxDP=1.05D-01 DE=-7.61D-02 OVMax= 5.40D-03

 Cycle   4  Pass 1  IDiag  1:
 E= -844.603815302502     Delta-E=       -0.003738855604 Rises=F Damp=F
 DIIS: error= 1.10D-03 at cycle   4 NSaved=   4.
[...]
 NAB=     0 NAA=    10 NBB=     0.
 A-vector RMS=  7.2268212D-03 Max=  3.3789333D-02 conv= 1.00D-05.
 RLE energy=       -0.0116653271
 DE(Corr)= -0.12033647E-01 E(CORR)=     -844.61767442     Delta= 2.44D-03
 NORM(A)=   0.10347391D+01
 Iteration Nr.   8
 **********************
 DD1Dir will call FoFMem   1 times, MxPair=        10
 NAB=     0 NAA=    10 NBB=     0.
 A-vector RMS=  7.4395169D-03 Max=  3.3357891D-02 conv= 1.00D-05.
 RLE energy=       -0.0097264444
 DE(Corr)= -0.11564358E-01 E(CORR)=     -844.61720513     Delta= 4.69D-04
 NORM(A)=   0.10742193D+01
 Iteration Nr.   9
 **********************
 DD1Dir will call FoFMem   1 times, MxPair=        10
 NAB=     0 NAA=    10 NBB=     0.
 A-vector RMS=  6.0090561D-03 Max=  3.6631726D-02 conv= 1.00D-05.
 RLE energy=       -0.0069404521
 DE(Corr)= -0.93082599E-02 E(CORR)=     -844.61494903     Delta= 2.26D-03
 NORM(A)=   0.11138538D+01
 Iteration Nr.  10
 **********************
 DD1Dir will call FoFMem   1 times, MxPair=        10
 NAB=     0 NAA=    10 NBB=     0.
 A-vector RMS=  1.7780138D-03 Max=  1.0401819D-02 conv= 1.00D-05.
 RLE energy=       -0.0014015297
 DE(Corr)= -0.70155404E-02 E(CORR)=     -844.61265631     Delta= 2.29D-03
 NORM(A)=   0.12101913D+01
 Iteration Nr.  11
 **********************
 DD1Dir will call FoFMem   1 times, MxPair=        10
 NAB=     0 NAA=    10 NBB=     0.
 A-vector RMS=  1.1196713D-02 Max=  6.4155102D-02 conv= 1.00D-05.
 RLE energy=       -0.0066654271
 DE(Corr)= -0.14772928E-02 E(CORR)=     -844.60711806     Delta= 5.54D-03
 NORM(A)=   0.11219345D+01
 Iteration Nr.  12
 **********************
 DD1Dir will call FoFMem   1 times, MxPair=        10
 NAB=     0 NAA=    10 NBB=     0.
 A-vector RMS=  7.6477940D-04 Max=  8.1702598D-03 conv= 1.00D-05.
 RLE energy=       -0.0063824965
 DE(Corr)= -0.65869076E-02 E(CORR)=     -844.61222768     Delta=-5.11D-03
 NORM(A)=   0.11255965D+01
 Iteration Nr.  13
 **********************
 DD1Dir will call FoFMem   1 times, MxPair=        10
 NAB=     0 NAA=    10 NBB=     0.
 A-vector RMS=  2.3700080D-04 Max=  9.2687899D-04 conv= 1.00D-05.
 RLE energy=       -0.0063364159
 DE(Corr)= -0.63943870E-02 E(CORR)=     -844.61203516     Delta= 1.93D-04
 NORM(A)=   0.11292185D+01
 Iteration Nr.  14
 **********************
 DD1Dir will call FoFMem   1 times, MxPair=        10
 NAB=     0 NAA=    10 NBB=     0.
 A-vector RMS=  3.3755727D-04 Max=  1.3831989D-03 conv= 1.00D-05.
 RLE energy=       -0.0064963848
 DE(Corr)= -0.63157657E-02 E(CORR)=     -844.61195653     Delta= 7.86D-05
 NORM(A)=   0.11269919D+01
 Iteration Nr.  15
 **********************
 DD1Dir will call FoFMem   1 times, MxPair=        10
 NAB=     0 NAA=    10 NBB=     0.
 A-vector RMS=  1.4049687D-04 Max=  6.3748138D-04 conv= 1.00D-05.
 RLE energy=       -0.0065432342
 DE(Corr)= -0.64949711E-02 E(CORR)=     -844.61213574     Delta=-1.79D-04
 NORM(A)=   0.11262733D+01
 Iteration Nr.  16
 **********************
 DD1Dir will call FoFMem   1 times, MxPair=        10
 NAB=     0 NAA=    10 NBB=     0.
 A-vector RMS=  1.9031404D-04 Max=  9.6365770D-04 conv= 1.00D-05.
 RLE energy=       -0.0064105354
 DE(Corr)= -0.65561988E-02 E(CORR)=     -844.61219697     Delta=-6.12D-05
 NORM(A)=   0.11302201D+01
 Iteration Nr.  17
 **********************
 DD1Dir will call FoFMem   1 times, MxPair=        10
 NAB=     0 NAA=    10 NBB=     0.
 A-vector RMS=  1.5462200D-04 Max=  5.6237746D-04 conv= 1.00D-05.
 RLE energy=       -0.0065502063
 DE(Corr)= -0.63957111E-02 E(CORR)=     -844.61203648     Delta= 1.60D-04
 NORM(A)=   0.11261489D+01
 Iteration Nr.  18
 **********************
 DD1Dir will call FoFMem   1 times, MxPair=        10
 NAB=     0 NAA=    10 NBB=     0.
 A-vector RMS=  1.5865889D-04 Max=  6.8551044D-04 conv= 1.00D-05.
 RLE energy=       -0.0064777787
 DE(Corr)= -0.65788042E-02 E(CORR)=     -844.61221957     Delta=-1.83D-04
 NORM(A)=   0.11294010D+01
 Iteration Nr.  19
 **********************
 DD1Dir will call FoFMem   1 times, MxPair=        10
 NAB=     0 NAA=    10 NBB=     0.
 A-vector RMS=  4.5221227D-05 Max=  1.5313026D-04 conv= 1.00D-05.
 RLE energy=       -0.0064829344
 DE(Corr)= -0.64729874E-02 E(CORR)=     -844.61211376     Delta= 1.06D-04
 NORM(A)=   0.11296828D+01
 Iteration Nr.  20
 **********************
 DD1Dir will call FoFMem   1 times, MxPair=        10
 NAB=     0 NAA=    10 NBB=     0.
 A-vector RMS=  3.7708652D-05 Max=  1.3808806D-04 conv= 1.00D-05.
 RLE energy=       -0.0064914983
 DE(Corr)= -0.64764541E-02 E(CORR)=     -844.61211722     Delta=-3.47D-06
 NORM(A)=   0.11295310D+01
 Iteration Nr.  21
 **********************
 DD1Dir will call FoFMem   1 times, MxPair=        10
 NAB=     0 NAA=    10 NBB=     0.
 A-vector RMS=  3.2239646D-05 Max=  1.9424807D-04 conv= 1.00D-05.
 RLE energy=       -0.0064951807
 DE(Corr)= -0.64907993E-02 E(CORR)=     -844.61213157     Delta=-1.43D-05
 NORM(A)=   0.11291746D+01
 Iteration Nr.  22
 **********************
 DD1Dir will call FoFMem   1 times, MxPair=        10
 NAB=     0 NAA=    10 NBB=     0.
 A-vector RMS=  3.0603455D-05 Max=  1.0945590D-04 conv= 1.00D-05.
 RLE energy=       -0.0064708876
 DE(Corr)= -0.65013219E-02 E(CORR)=     -844.61214209     Delta=-1.05D-05
 NORM(A)=   0.11302267D+01
 Iteration Nr.  23
 **********************
 DD1Dir will call FoFMem   1 times, MxPair=        10
 NAB=     0 NAA=    10 NBB=     0.
 A-vector RMS=  3.3518878D-05 Max=  1.3338677D-04 conv= 1.00D-05.
 RLE energy=       -0.0064963480
 DE(Corr)= -0.64662768E-02 E(CORR)=     -844.61210705     Delta= 3.50D-05
 NORM(A)=   0.11293493D+01
 Iteration Nr.  24
 **********************
 DD1Dir will call FoFMem   1 times, MxPair=        10
 NAB=     0 NAA=    10 NBB=     0.
 A-vector RMS=  2.2614309D-05 Max=  9.8900104D-05 conv= 1.00D-05.
 RLE energy=       -0.0064790150
 DE(Corr)= -0.64999704E-02 E(CORR)=     -844.61214074     Delta=-3.37D-05
 NORM(A)=   0.11302266D+01
 Iteration Nr.  25
 **********************
 DD1Dir will call FoFMem   1 times, MxPair=        10
 NAB=     0 NAA=    10 NBB=     0.
 A-vector RMS=  2.5243020D-05 Max=  1.1421617D-04 conv= 1.00D-05.
 RLE energy=       -0.0064674446
 DE(Corr)= -0.64743172E-02 E(CORR)=     -844.61211509     Delta= 2.57D-05
 NORM(A)=   0.11308048D+01
 Iteration Nr.  26
 **********************
 DD1Dir will call FoFMem   1 times, MxPair=        10
 NAB=     0 NAA=    10 NBB=     0.
 A-vector RMS=  3.1758074D-05 Max=  1.4949721D-04 conv= 1.00D-05.
 RLE energy=       -0.0064643290
 DE(Corr)= -0.64591843E-02 E(CORR)=     -844.61209995     Delta= 1.51D-05
 NORM(A)=   0.11306712D+01
 Iteration Nr.  27
 **********************
 DD1Dir will call FoFMem   1 times, MxPair=        10
 NAB=     0 NAA=    10 NBB=     0.
 A-vector RMS=  2.7699927D-05 Max=  1.8221600D-04 conv= 1.00D-05.
 RLE energy=       -0.0065039265
 DE(Corr)= -0.64609317E-02 E(CORR)=     -844.61210170     Delta=-1.75D-06
 NORM(A)=   0.11292896D+01
 Iteration Nr.  28
 **********************
 DD1Dir will call FoFMem   1 times, MxPair=        10
 NAB=     0 NAA=    10 NBB=     0.
 A-vector RMS=  5.6176697D-05 Max=  2.4464941D-04 conv= 1.00D-05.
 RLE energy=       -0.0064703585
 DE(Corr)= -0.65138512E-02 E(CORR)=     -844.61215462     Delta=-5.29D-05
 NORM(A)=   0.11312509D+01
 Iteration Nr.  29
 **********************
 DD1Dir will call FoFMem   1 times, MxPair=        10
 NAB=     0 NAA=    10 NBB=     0.
 A-vector RMS=  5.7915933D-05 Max=  3.8509759D-04 conv= 1.00D-05.
 RLE energy=       -0.0067961759
 DE(Corr)= -0.64656532E-02 E(CORR)=     -844.61210642     Delta= 4.82D-05
 NORM(A)=   0.11229407D+01
 Iteration Nr.  30
 **********************
 DD1Dir will call FoFMem   1 times, MxPair=        10
 NAB=     0 NAA=    10 NBB=     0.
 A-vector RMS=  4.3031931D-04 Max=  1.9720125D-03 conv= 1.00D-05.
 RLE energy=       -0.0067449571
 DE(Corr)= -0.68821488E-02 E(CORR)=     -844.61252292     Delta=-4.16D-04
 NORM(A)=   0.11217087D+01
 Iteration Nr.  31
 **********************
 DD1Dir will call FoFMem   1 times, MxPair=        10
 NAB=     0 NAA=    10 NBB=     0.
 A-vector RMS=  5.8946003D-04 Max=  2.4511706D-03 conv= 1.00D-05.
 RLE energy=       -0.0065497802
 DE(Corr)= -0.69013835E-02 E(CORR)=     -844.61254215     Delta=-1.92D-05
 NORM(A)=   0.11270140D+01
 Iteration Nr.  32
 **********************
 DD1Dir will call FoFMem   1 times, MxPair=        10
 NAB=     0 NAA=    10 NBB=     0.
 A-vector RMS=  9.3333971D-05 Max=  4.3234667D-04 conv= 1.00D-05.
 RLE energy=       -0.0065098701
 DE(Corr)= -0.65652057E-02 E(CORR)=     -844.61220597     Delta= 3.36D-04
 NORM(A)=   0.11286512D+01
 Iteration Nr.  33
 **********************
 DD1Dir will call FoFMem   1 times, MxPair=        10
 NAB=     0 NAA=    10 NBB=     0.
 A-vector RMS=  3.5954445D-05 Max=  1.2616628D-04 conv= 1.00D-05.
 RLE energy=       -0.0065024037
 DE(Corr)= -0.65140169E-02 E(CORR)=     -844.61215479     Delta= 5.12D-05
 NORM(A)=   0.11290455D+01
 Iteration Nr.  34
 **********************
 DD1Dir will call FoFMem   1 times, MxPair=        10
 NAB=     0 NAA=    10 NBB=     0.
 A-vector RMS=  2.3681549D-05 Max=  9.9031477D-05 conv= 1.00D-05.
 RLE energy=       -0.0064823505
 DE(Corr)= -0.65050223E-02 E(CORR)=     -844.61214579     Delta= 8.99D-06
 NORM(A)=   0.11295869D+01
 Iteration Nr.  35
 **********************
 DD1Dir will call FoFMem   1 times, MxPair=        10
 NAB=     0 NAA=    10 NBB=     0.
 A-vector RMS=  6.7845198D-06 Max=  7.0166909D-05 conv= 1.00D-05.
 RLE energy=       -0.0064884554
 DE(Corr)= -0.64820644E-02 E(CORR)=     -844.61212283     Delta= 2.30D-05
 NORM(A)=   0.11293037D+01
 Iteration Nr.  36
 **********************
 DD1Dir will call FoFMem   1 times, MxPair=        10
 NAB=     0 NAA=    10 NBB=     0.
 A-vector RMS=  9.9793755D-06 Max=  5.4768673D-05 conv= 1.00D-05.
 RLE energy=       -0.0064537797
 DE(Corr)= -0.64902891E-02 E(CORR)=     -844.61213106     Delta=-8.22D-06
 NORM(A)=   0.11307569D+01
 Iteration Nr.  37
 **********************
 DD1Dir will call FoFMem   1 times, MxPair=        10
 NAB=     0 NAA=    10 NBB=     0.
 A-vector RMS=  4.7561575D-05 Max=  2.0823466D-04 conv= 1.00D-05.
 RLE energy=       -0.0064848286
 DE(Corr)= -0.64457295E-02 E(CORR)=     -844.61208650     Delta= 4.46D-05
 NORM(A)=   0.11293217D+01
 Iteration Nr.  38
 **********************
 DD1Dir will call FoFMem   1 times, MxPair=        10
 NAB=     0 NAA=    10 NBB=     0.
 A-vector RMS=  8.0044756D-06 Max=  3.5781828D-05 conv= 1.00D-05.
 RLE energy=       -0.0064922179
 DE(Corr)= -0.64860111E-02 E(CORR)=     -844.61212678     Delta=-4.03D-05
 NORM(A)=   0.11291221D+01
 Iteration Nr.  39
 **********************
 DD1Dir will call FoFMem   1 times, MxPair=        10
 NAB=     0 NAA=    10 NBB=     0.
 A-vector RMS=  1.2115003D-05 Max=  5.3682802D-05 conv= 1.00D-05.
 RLE energy=       -0.0064891865
 DE(Corr)= -0.64947997E-02 E(CORR)=     -844.61213557     Delta=-8.79D-06
 NORM(A)=   0.11292984D+01
 Iteration Nr.  40
 **********************
 DD1Dir will call FoFMem   1 times, MxPair=        10
 NAB=     0 NAA=    10 NBB=     0.
 A-vector RMS=  5.7508055D-06 Max=  2.3694033D-05 conv= 1.00D-05.
 RLE energy=       -0.0064878926
 DE(Corr)= -0.64898893E-02 E(CORR)=     -844.61213066     Delta= 4.91D-06
 NORM(A)=   0.11293690D+01
 Iteration Nr.  41
 **********************
 DD1Dir will call FoFMem   1 times, MxPair=        10
 NAB=     0 NAA=    10 NBB=     0.
 A-vector RMS=  3.3552236D-06 Max=  1.4789055D-05 conv= 1.00D-05.
 RLE energy=       -0.0064846239
 DE(Corr)= -0.64882325E-02 E(CORR)=     -844.61212900     Delta= 1.66D-06
 NORM(A)=   0.11294800D+01
 Iteration Nr.  42
 **********************
 DD1Dir will call FoFMem   1 times, MxPair=        10
 NAB=     0 NAA=    10 NBB=     0.
 A-vector RMS=  1.5041382D-06 Max=  6.1180604D-06 conv= 1.00D-05.
 RLE energy=       -0.0064878372
 DE(Corr)= -0.64842344E-02 E(CORR)=     -844.61212500     Delta= 4.00D-06
 NORM(A)=   0.11293499D+01
 Iteration Nr.  43
 **********************
 DD1Dir will call FoFMem   1 times, MxPair=        10
 NAB=     0 NAA=    10 NBB=     0.
 A-vector RMS=  3.3669090D-06 Max=  1.4610674D-05 conv= 1.00D-05.
 RLE energy=       -0.0064850321
 DE(Corr)= -0.64882871E-02 E(CORR)=     -844.61212906     Delta=-4.05D-06
 NORM(A)=   0.11294580D+01
 Iteration Nr.  44
 **********************
 DD1Dir will call FoFMem   1 times, MxPair=        10
 NAB=     0 NAA=    10 NBB=     0.
 A-vector RMS=  9.6434242D-07 Max=  5.2232785D-06 conv= 1.00D-05.
 RLE energy=       -0.0064849324
 DE(Corr)= -0.64848371E-02 E(CORR)=     -844.61212561     Delta= 3.45D-06
 NORM(A)=   0.11294415D+01
 Iteration Nr.  45
 **********************
 DD1Dir will call FoFMem   1 times, MxPair=        10
 NAB=     0 NAA=    10 NBB=     0.
 A-vector RMS=  1.1683129D-06 Max=  4.8158974D-06 conv= 1.00D-05.
 RLE energy=       -0.0064858854
 DE(Corr)= -0.64847922E-02 E(CORR)=     -844.61212556     Delta= 4.49D-08
 NORM(A)=   0.11294043D+01
 CI/CC converged in   45 iterations to DelEn= 4.49D-08 Conv= 1.00D-07 ErrA1= 1.17D-06 Conv= 1.00D-05
 Wavefunction amplitudes converged. E(Corr)=     -844.61212556    
 Dominant configurations:
 ***********************
 Spin Case        I    J    A    B          Value
    AA           13        16            0.321167D+00
    AA           13        19            0.167004D+00
    AA           12        15            0.321167D+00
    AA           12        20            0.167004D+00
 Largest amplitude= 3.21D-01
 Discarding MO integrals.
 Leave Link  913 at Mon Mar 28 12:46:58 2022, MaxMem=  9663676416 cpu:               8.1 elap:               0.3
 (Enter /nopt/nrel/apps/gaussian/g16C_1/g16/l601.exe)
 Copying SCF densities to generalized density rwf, IOpCl= 1 IROHF=0.

 **********************************************************************

            Population analysis using the SCF Density.

 **********************************************************************

 Orbital symmetries:
 Alpha Orbitals:
       Occupied  (SG) (SG) (SG) (PI) (PI) (SG) (PI) (PI) (SG) (SG)
                 (?A) (PI) (PI) (SG)
       Virtual   (PI) (PI) (SG) (SG) (PI) (PI) (SG) (?A) (SG) (?A)
                 (PI) (PI) (?A) (SG)
 Beta  Orbitals:
       Occupied  (SG) (SG) (SG) (PI) (PI) (SG) (SG) (PI) (PI)
       Virtual   (SG) (PI) (PI) (SG) (SG) (SG) (PI) (PI) (SG) (DLTA)
                 (PI) (PI) (DLTA) (SG) (DLTA) (SG) (PI) (PI) (DLTA)
 Unable to determine electronic state:  an orbital has unidentified symmetry.
 Alpha  occ. eigenvalues -- -181.76566 -21.05445 -17.40114 -17.40067 -17.40067
 Alpha  occ. eigenvalues --   -2.72229  -1.67798  -1.67798  -1.67653  -0.55523
 Alpha  occ. eigenvalues --   -0.22563  -0.19514  -0.19514  -0.17684
 Alpha virt. eigenvalues --    0.02971   0.02971   0.07093   0.13593   0.18365
 Alpha virt. eigenvalues --    0.18365   0.22028   0.38185   0.39057   1.87026
 Alpha virt. eigenvalues --    1.87920   1.87920   1.99086   1.99974
  Beta  occ. eigenvalues -- -181.76356 -21.01422 -17.36420 -17.36228 -17.36228
  Beta  occ. eigenvalues --   -2.54206  -1.46214  -1.45639  -1.45639
  Beta virt. eigenvalues --   -0.00905   0.05384   0.05384   0.05488   0.15912
  Beta virt. eigenvalues --    0.21654   0.22975   0.22975   0.36616   0.44916
  Beta virt. eigenvalues --    0.47194   0.47194   0.47723   0.49550   2.03863
  Beta virt. eigenvalues --    2.05187   2.05920   2.05920   2.06424
          Condensed to atoms (all electrons):
               1          2
     1  H    0.812791   0.066282
     2  Ti   0.066282  22.054645
          Atomic-Atomic Spin Densities.
               1          2
     1  H    0.812734   0.066896
     2  Ti   0.066896   4.053475
 Mulliken charges and spin densities:
               1          2
     1  H    0.120927   0.879629
     2  Ti  -0.120927   4.120371
 Sum of Mulliken charges =  -0.00000   5.00000
 Mulliken charges and spin densities with hydrogens summed into heavy atoms:
               1          2
     2  Ti  -0.000000   5.000000
 N-N= 5.061695060974D+00 E-N=-2.019343964003D+03  KE= 8.459181342792D+02
 Symmetry A1   KE= 6.504220428396D+02
 Symmetry A2   KE= 3.573309227144D+00
 Symmetry B1   KE= 9.596139110624D+01
 Symmetry B2   KE= 9.596139110624D+01
 Symmetry A1   SP= 2.000000000000D+00
 Symmetry A2   SP= 1.000000000000D+00
 Symmetry B1   SP= 1.000000000000D+00
 Symmetry B2   SP= 1.000000000000D+00

 Atomic contributions to Alpha molecular orbitals:
 Alpha occ 1 OE=-181.766 is Ti2-s=1.0000
 Alpha occ 2 OE=-21.054 is Ti2-s=1.0000
 Alpha occ 3 OE=-17.401 is Ti2-p=1.0000
 Alpha occ 4 OE=-17.401 is Ti2-p=1.0000
 Alpha occ 5 OE=-17.401 is Ti2-p=1.0000
 Alpha occ 6 OE=-2.722 is Ti2-s=1.0001
 Alpha occ 7 OE=-1.678 is Ti2-p=0.9999
 Alpha occ 8 OE=-1.678 is Ti2-p=0.9999
 Alpha occ 9 OE=-1.677 is Ti2-p=0.9998
 Alpha occ 10 OE=-0.555 is H1-s=0.8625
 Alpha occ 11 OE=-0.226 is Ti2-d=1.0000
 Alpha occ 12 OE=-0.195 is Ti2-d=0.9083
 Alpha occ 13 OE=-0.195 is Ti2-d=0.9083
 Alpha occ 14 OE=-0.177 is Ti2-s=0.8335 Ti2-p=0.1485
 Alpha vir 15 OE=0.030 is Ti2-p=0.9349
 Alpha vir 16 OE=0.030 is Ti2-p=0.9349
 Alpha vir 17 OE=0.071 is Ti2-p=0.8177 Ti2-s=0.1391
 Alpha vir 18 OE=0.136 is Ti2-s=0.9298
 Alpha vir 19 OE=0.184 is Ti2-p=0.9735
 Alpha vir 20 OE=0.184 is Ti2-p=0.9735
 Alpha vir 21 OE=0.220 is Ti2-p=0.8762
 Alpha vir 22 OE=0.382 is Ti2-d=1.0000
 Alpha vir 23 OE=0.391 is Ti2-d=0.9556
 Alpha vir 24 OE=1.870 is Ti2-d=1.0000
 Alpha vir 25 OE=1.879 is Ti2-d=1.0000
 Alpha vir 26 OE=1.879 is Ti2-d=1.0000
 Alpha vir 27 OE=1.991 is Ti2-d=1.0000
 Alpha vir 28 OE=2.000 is Ti2-d=0.9987

 Atomic contributions to Beta  molecular orbitals:
 Beta  occ 1 OE=-181.764 is Ti2-s=1.0000
 Beta  occ 2 OE=-21.014 is Ti2-s=1.0000
 Beta  occ 3 OE=-17.364 is Ti2-p=1.0000
 Beta  occ 4 OE=-17.362 is Ti2-p=1.0000
 Beta  occ 5 OE=-17.362 is Ti2-p=1.0000
 Beta  occ 6 OE=-2.542 is Ti2-s=0.9998
 Beta  occ 7 OE=-1.462 is Ti2-p=0.9998
 Beta  occ 8 OE=-1.456 is Ti2-p=0.9999
 Beta  occ 9 OE=-1.456 is Ti2-p=0.9999
 Beta  vir 10 OE=-0.009 is Ti2-s=0.6186 Ti2-p=0.2437 H1-s=0.1368
 Beta  vir 11 OE=0.054 is Ti2-p=1.0000
 Beta  vir 12 OE=0.054 is Ti2-p=1.0000
 Beta  vir 13 OE=0.055 is Ti2-p=0.6605 Ti2-s=0.3201
 Beta  vir 14 OE=0.159 is Ti2-p=0.4147 Ti2-s=0.3762 H1-s=0.2014
 Beta  vir 15 OE=0.217 is Ti2-s=0.6386 Ti2-p=0.3234
 Beta  vir 16 OE=0.230 is Ti2-p=1.0000
 Beta  vir 17 OE=0.230 is Ti2-p=1.0000
 Beta  vir 18 OE=0.366 is H1-s=0.3631 Ti2-d=0.3204 Ti2-p=0.2834
 Beta  vir 19 OE=0.449 is Ti2-d=1.0000
 Beta  vir 20 OE=0.472 is Ti2-d=0.9999
 Beta  vir 21 OE=0.472 is Ti2-d=0.9999
 Beta  vir 22 OE=0.477 is Ti2-d=1.0000
 Beta  vir 23 OE=0.496 is Ti2-d=0.6710 H1-s=0.2417
 Beta  vir 24 OE=2.039 is Ti2-d=1.0000
 Beta  vir 25 OE=2.052 is Ti2-d=0.9976
 Beta  vir 26 OE=2.059 is Ti2-d=1.0000
 Beta  vir 27 OE=2.059 is Ti2-d=1.0000
 Beta  vir 28 OE=2.064 is Ti2-d=1.0000
 
 Leave Link  601 at Mon Mar 28 12:46:58 2022, MaxMem=  9663676416 cpu:               2.8 elap:               0.1
 (Enter /nopt/nrel/apps/gaussian/g16C_1/g16/l9999.exe)

 Test job not archived.
 1\1\GINC-R3I7N35\SP\UCCSD-FC\Gen\H1Ti1(6)\USER\28-Mar-2022\0\\#P C
 CSD(MaxCyc=300,SaveAmplitudes,ReadAmplitudes)/GEN sp pop=AllOrbitals i
 op(3/33=1,3/36=-1)\\test\\0,6\H,0,0.,0.,0.\Ti,0,0.,0.,2.3\\Version=ES6
 4L-G16RevC.01\HF=-844.6056408\MP2=-844.6167159\MP3=-844.6196492\MP4D=-
 844.6207304\MP4DQ=-844.6206693\MP4SDQ=-844.6210705\CCSD=-844.6121256\S
 2=8.750272\S2-1=0.\S2A=8.75\RMSD=1.560e-09\PG=C*V [C*(H1Ti1)]\\@


 WE MIGHT AS WELL ATTEMPT TO INTRODUCE A NEW PLANET 
 INTO THE SOLAR SYSTEM, OR TO ANNIHILATE ONE ALREADYIN EXISTENCE, 
 AS TO CREATE OR DESTROY A PARTICLE OF HYDROGEN.
 ALL THE CHANGES WE CAN PRODUCE CONSIST IN SEPARATING PARTICLES
 THAT ARE IN A STATE OF ... COMBINATION, AND JOINING 
 THOSE THAT WERE PREVIOUSLY AT A DISTANCE.

                                    -- JOHN DALTON, 1810
 Job cpu time:       0 days  0 hours  0 minutes 42.9 seconds.
 Elapsed time:       0 days  0 hours  0 minutes  1.6 seconds.
 File lengths (MBytes):  RWF=     13 Int=      0 D2E=      0 Chk=      1 Scr=      1
 Normal termination of Gaussian 16 at Mon Mar 28 12:46:58 2022.
