 Entering Gaussian System, Link 0=g16
 Initial command:
 /nopt/nrel/apps/gaussian/g16C_1/g16/l1.exe "/lustre/eaglefs/scratch/user/qc/tih-dissc-sto3g/tih-6-ccsd-1.8-sto3g/Gau-245884.inp" -scrdir="/lustre/eaglefs/scratch/user/qc/tih-dissc-sto3g/tih-6-ccsd-1.8-sto3g/"
 Default is to use a total of  36 processors:
                               36 via shared-memory
                                1 via Linda
 Entering Link 1 = /nopt/nrel/apps/gaussian/g16C_1/g16/l1.exe PID=    245885.
  
 Copyright (c) 1988-2019, Gaussian, Inc.  All Rights Reserved.
  
 This is part of the Gaussian(R) 16 program.  It is based on
 the Gaussian(R) 09 system (copyright 2009, Gaussian, Inc.),
 the Gaussian(R) 03 system (copyright 2003, Gaussian, Inc.),
 the Gaussian(R) 98 system (copyright 1998, Gaussian, Inc.),
 the Gaussian(R) 94 system (copyright 1995, Gaussian, Inc.),
 the Gaussian 92(TM) system (copyright 1992, Gaussian, Inc.),
 the Gaussian 90(TM) system (copyright 1990, Gaussian, Inc.),
 the Gaussian 88(TM) system (copyright 1988, Gaussian, Inc.),
 the Gaussian 86(TM) system (copyright 1986, Carnegie Mellon
 University), and the Gaussian 82(TM) system (copyright 1983,
 Carnegie Mellon University). Gaussian is a federally registered
 trademark of Gaussian, Inc.
  
 This software contains proprietary and confidential information,
 including trade secrets, belonging to Gaussian, Inc.
  
 This software is provided under written license and may be
 used, copied, transmitted, or stored only in accord with that
 written license.
  
 The following legend is applicable only to US Government
 contracts under FAR:
  
                    RESTRICTED RIGHTS LEGEND
  
 Use, reproduction and disclosure by the US Government is
 subject to restrictions as set forth in subparagraphs (a)
 and (c) of the Commercial Computer Software - Restricted
 Rights clause in FAR 52.227-19.
  
 Gaussian, Inc.
 340 Quinnipiac St., Bldg. 40, Wallingford CT 06492
  
  
 ---------------------------------------------------------------
 Warning -- This program may not be used in any manner that
 competes with the business of Gaussian, Inc. or will provide
 assistance to any competitor of Gaussian, Inc.  The licensee
 of this program is prohibited from giving any competitor of
 Gaussian, Inc. access to this program.  By using this program,
 the user acknowledges that Gaussian, Inc. is engaged in the
 business of creating and licensing software in the field of
 computational chemistry and represents and warrants to the
 licensee that it is not a competitor of Gaussian, Inc. and that
 it will not use this program in any manner prohibited above.
 ---------------------------------------------------------------
  

 Cite this work as:
 Gaussian 16, Revision C.01,
 M. J. Frisch, G. W. Trucks, H. B. Schlegel, G. E. Scuseria, 
 M. A. Robb, J. R. Cheeseman, G. Scalmani, V. Barone, 
 G. A. Petersson, H. Nakatsuji, X. Li, M. Caricato, A. V. Marenich, 
 J. Bloino, B. G. Janesko, R. Gomperts, B. Mennucci, H. P. Hratchian, 
 J. V. Ortiz, A. F. Izmaylov, J. L. Sonnenberg, D. Williams-Young, 
 F. Ding, F. Lipparini, F. Egidi, J. Goings, B. Peng, A. Petrone, 
 T. Henderson, D. Ranasinghe, V. G. Zakrzewski, J. Gao, N. Rega, 
 G. Zheng, W. Liang, M. Hada, M. Ehara, K. Toyota, R. Fukuda, 
 J. Hasegawa, M. Ishida, T. Nakajima, Y. Honda, O. Kitao, H. Nakai, 
 T. Vreven, K. Throssell, J. A. Montgomery, Jr., J. E. Peralta, 
 F. Ogliaro, M. J. Bearpark, J. J. Heyd, E. N. Brothers, K. N. Kudin, 
 V. N. Staroverov, T. A. Keith, R. Kobayashi, J. Normand, 
 K. Raghavachari, A. P. Rendell, J. C. Burant, S. S. Iyengar, 
 J. Tomasi, M. Cossi, J. M. Millam, M. Klene, C. Adamo, R. Cammi, 
 J. W. Ochterski, R. L. Martin, K. Morokuma, O. Farkas, 
 J. B. Foresman, and D. J. Fox, Gaussian, Inc., Wallingford CT, 2019.
 
 ******************************************
 Gaussian 16:  ES64L-G16RevC.01  3-Jul-2019
                28-Mar-2022 
 ******************************************
 %chk=molecule
 Default route: CacheSize=180224 MaxDisk=256GB
 ----------------------------------------------------------------------
 #P CCSD(MaxCyc=300,SaveAmplitudes,ReadAmplitudes)/GEN sp pop=AllOrbita
 ls iop(3/33=1,3/36=-1)
 ----------------------------------------------------------------------
 1/4=180224,38=1,172=1/1;
 2/4=180224,12=2,17=6,18=5,40=1/2;
 3/4=180224,5=7,11=9,25=1,30=1,33=1,36=-1/1,2,3;
 4/4=180224/1;
 5/4=180224,5=2,38=5/2;
 8/4=180224,6=4,9=120000,10=1,24=1/1,4;
 9/4=180224,5=7,6=300,77=1/13;
 6/4=180224,7=2,8=2,9=2,10=2,96=-1/1;
 99/4=180224,5=1,9=1/99;
 Leave Link    1 at Mon Mar 28 12:45:48 2022, MaxMem=           0 cpu:               2.0 elap:               0.1
 (Enter /nopt/nrel/apps/gaussian/g16C_1/g16/l101.exe)
 ----
 test
 ----
 Symbolic Z-matrix:
 Charge =  0 Multiplicity = 6
 H                     0.        0.        0. 
 Ti                    0.        0.        1.8 
 
 ITRead=  0  0
 MicOpt= -1 -1
 NAtoms=      2 NQM=        2 NQMF=       0 NMMI=      0 NMMIF=      0
                NMic=       0 NMicF=      0.
                    Isotopes and Nuclear Properties:
 (Nuclear quadrupole moments (NQMom) in fm**2, nuclear magnetic moments (NMagM)
  in nuclear magnetons)

  Atom         1           2
 IAtWgt=           1          48
 AtmWgt=   1.0078250  47.9479467
 NucSpn=           1           0
 AtZEff=  -0.0000000  -0.0000000
 NQMom=    0.0000000   0.0000000
 NMagM=    2.7928460   0.0000000
 AtZNuc=   1.0000000  22.0000000
 Leave Link  101 at Mon Mar 28 12:45:48 2022, MaxMem=  9663676416 cpu:               3.3 elap:               0.1
 (Enter /nopt/nrel/apps/gaussian/g16C_1/g16/l202.exe)
                          Input orientation:                          
 ---------------------------------------------------------------------
 Center     Atomic      Atomic             Coordinates (Angstroms)
 Number     Number       Type             X           Y           Z
 ---------------------------------------------------------------------
      1          1           0        0.000000    0.000000    0.000000
      2         22           0        0.000000    0.000000    1.800000
 ---------------------------------------------------------------------
 Stoichiometry    HTi(6)
 Framework group  C*V[C*(HTi)]
 Deg. of freedom     1
 Full point group                 C*V     NOp   4
 Largest Abelian subgroup         C2V     NOp   4
 Largest concise Abelian subgroup C1      NOp   1
                         Standard orientation:                         
 ---------------------------------------------------------------------
 Center     Atomic      Atomic             Coordinates (Angstroms)
 Number     Number       Type             X           Y           Z
 ---------------------------------------------------------------------
      1          1           0        0.000000    0.000000   -1.721739
      2         22           0        0.000000    0.000000    0.078261
 ---------------------------------------------------------------------
 Rotational constants (GHZ):           0.0000000         158.0232296         158.0232296
 Leave Link  202 at Mon Mar 28 12:45:48 2022, MaxMem=  9663676416 cpu:               0.9 elap:               0.0
 (Enter /nopt/nrel/apps/gaussian/g16C_1/g16/l301.exe)
 General basis read from cards:  (5D, 7F)
                         Coordinates in L301:                         
 ---------------------------------------------------------------------
 Center     Atomic      Atomic             Coordinates (Angstroms)
 Number     Number       Type             X           Y           Z
 ---------------------------------------------------------------------
      1          1           0        0.000000    0.000000   -1.721739
      2         22           0        0.000000    0.000000    0.078261
 ---------------------------------------------------------------------
 Centers:       1
 STO-3G
 ****
 Centers:       2
 STO-3G
 ****
 FixB: optimizing general contractions.
 Ernie: Thresh=  0.10000D-02 Tol=  0.10000D-05 Strict=F.
 IA=     1 ShT= 0 ShC= 0 NL=   1 NS=   0.
 IA=     1 L=0 SC=0 ISt=    0 NBk=    0 NP=    0 IndPr=    0.
 IA=     2 ShT= 0 ShC= 0 NL=   1 NS=   0.
 IA=     2 L=0 SC=0 ISt=    0 NBk=    0 NP=    0 IndPr=    0.
 IA=     2 ShT= 1 ShC= 0 NL=   3 NS=   0.
 IA=     2 L=1 SC=0 ISt=    1 NBk=    3 NP=    9 IndPr=    0.
 DoElim1:  L=1 select primitive    1 from    2 using    1 C=-1.00D-01
 DoElim1:  L=1 select primitive    1 from    3 using    1 C=-1.00D-01
 DoElim1:  L=1 select primitive    4 from    3 using    2 C=-2.28D-01
 DoElim2:  L=1 select primitive    9 from    2 using    3 C= 1.13D+00
 DoElim2:  L=1 select primitive    9 from    1 using    3 C= 1.13D+00
 DoElim2:  L=1 select primitive    7 from    1 using    2 C= 9.17D-01
 DoElim1:  L=1 select primitive    1 from    2 using    1 C= 1.56D-01
 DoElim1:  L=1 select primitive    1 from    3 using    1 C= 1.56D-01
 DoElim1:  L=1 select primitive    4 from    3 using    2 C= 4.95D-03
 DoElim2:  L=1 select primitive    8 from    2 using    3 C= 5.72D-01
 DoElim2:  L=1 select primitive    8 from    1 using    3 C= 5.72D-01
 DoElim2:  L=1 select primitive    5 from    1 using    2 C= 5.78D-01
 Delete L=1 primitive    7 from    3 C=  0.00D+00.
 Delete L=1 primitive    5 from    3 C=  0.00D+00.
 Delete L=1 primitive    4 from    3 C=  0.00D+00.
 Delete L=1 primitive    3 from    3 C=  0.00D+00.
 Delete L=1 primitive    2 from    3 C=  0.00D+00.
 Delete L=1 primitive    1 from    3 C=  0.00D+00.
 Delete L=1 primitive    9 from    2 C=  0.00D+00.
 Delete L=1 primitive    8 from    2 C=  0.00D+00.
 Delete L=1 primitive    6 from    2 C=  0.00D+00.
 Delete L=1 primitive    3 from    2 C=  0.00D+00.
 Delete L=1 primitive    2 from    2 C=  0.00D+00.
 Delete L=1 primitive    1 from    2 C=  0.00D+00.
 Delete L=1 primitive    9 from    1 C=  0.00D+00.
 Delete L=1 primitive    8 from    1 C=  0.00D+00.
 Delete L=1 primitive    7 from    1 C=  0.00D+00.
 Delete L=1 primitive    6 from    1 C=  0.00D+00.
 Delete L=1 primitive    5 from    1 C=  0.00D+00.
 Delete L=1 primitive    4 from    1 C=  0.00D+00.
 IA=     2 L=1 SC=0 ISt=    0 NBk=    0 NP=    0 IndPr=    9.
 IA=     2 ShT= 2 ShC= 2 NL=   1 NS=   0.
 IA=     2 L=2 SC=2 ISt=    0 NBk=    0 NP=    0 IndPr=    0.
 LdAtmC:  AtmChg=     1.000000    22.000000
 AtZEff=     -1.0000000    -23.9800000
 NEqShl: 
              1            2            3            4
     1            1            1            1            1
     2            2            2            2            2
     3            3            3            3            3
     4            4            4            4            4
     5            5            5            5            5
     6            6            6            6            6
 NEqBas: 
              1            2            3            4
     1            1            1            1            1
     2            2            2            2            2
     3            3            3            3            3
     4            4           -4           -4            4
     5            5           -5            5           -5
     6            6            6            6            6
     7            7            7            7            7
     8            8           -8           -8            8
     9            9           -9            9           -9
    10           10           10           10           10
    11           11           11           11           11
    12           12          -12          -12           12
    13           13          -13           13          -13
    14           14           14           14           14
    15           15           15           15           15
    16           16           16           16           16
    17           17           17           17           17
    18           18           18          -18          -18
    19           19          -19          -19           19
    20           20          -20           20          -20
 There are    11 symmetry adapted cartesian basis functions of A1  symmetry.
   1         1   1   1   1
   2         2   2   2   2
   3         3   3   3   3
   4         6   6   6   6
   5         7   7   7   7
   6        10  10  10  10
   7        11  11  11  11
   8        14  14  14  14
   9        15  15  15  15
  10        16  16  16  16
  11        17  17  17  17
 There are     1 symmetry adapted cartesian basis functions of A2  symmetry.
  12        18  18  18  18
 There are     4 symmetry adapted cartesian basis functions of B1  symmetry.
  13         4   4   4   4
  14         8   8   8   8
  15        12  12  12  12
  16        19  19  19  19
 There are     4 symmetry adapted cartesian basis functions of B2  symmetry.
  17         5   5   5   5
  18         9   9   9   9
  19        13  13  13  13
  20        20  20  20  20
 Order= 1 2 4 3
 Reordered character table:
              1            2            3            4            5
     1            1            1            1            1            1
     2            2            1            1           -1           -1
     3            4            1           -1           -1            1
     4            3            1           -1            1           -1
 NEqShl: 
              1            2            3            4
     1            1            1            1            1
     2            2            2            2            2
     3            3            3            3            3
     4            4            4            4            4
     5            5            5            5            5
     6            6            6            6            6
 NEqBas: 
              1            2            3            4
     1            1            1            1            1
     2            2            2            2            2
     3            3            3            3            3
     4            4           -4           -4            4
     5            5           -5            5           -5
     6            6            6            6            6
     7            7            7            7            7
     8            8           -8           -8            8
     9            9           -9            9           -9
    10           10           10           10           10
    11           11           11           11           11
    12           12          -12          -12           12
    13           13          -13           13          -13
    14           14           14           14           14
    15           15           15           15           15
    16           16          -16          -16           16
    17           17          -17           17          -17
    18           18           18           18           18
    19           19           19          -19          -19
 There are    10 symmetry adapted basis functions of A1  symmetry.
   1         1   1   1   1
   2         2   2   2   2
   3         3   3   3   3
   4         6   6   6   6
   5         7   7   7   7
   6        10  10  10  10
   7        11  11  11  11
   8        14  14  14  14
   9        15  15  15  15
  10        18  18  18  18
 There are     1 symmetry adapted basis functions of A2  symmetry.
  11        19  19  19  19
 There are     4 symmetry adapted basis functions of B1  symmetry.
  12         4   4   4   4
  13         8   8   8   8
  14        12  12  12  12
  15        16  16  16  16
 There are     4 symmetry adapted basis functions of B2  symmetry.
  16         5   5   5   5
  17         9   9   9   9
  18        13  13  13  13
  19        17  17  17  17
 Order= 1 2 4 3
 Reordered character table:
              1            2            3            4            5
     1            1            1            1            1            1
     2            2            1            1           -1           -1
     3            4            1           -1           -1            1
     4            3            1           -1            1           -1
    19 basis functions,    60 primitive gaussians,    20 cartesian basis functions
    14 alpha electrons        9 beta electrons
       nuclear repulsion energy         6.4677214668 Hartrees.
 IS=     1 IAt=     1 ISR=     1 T=0 IP=      1 IndIP=      1 IndIPD=      0 C=  2.769344D-01  0.000000D+00                             NZ=T
 IS=     1 IAt=     1 ISR=     1 T=0 IP=      2 IndIP=      2 IndIPD=      1 C=  2.678389D-01  0.000000D+00                             NZ=T
 IS=     1 IAt=     1 ISR=     1 T=0 IP=      3 IndIP=      3 IndIPD=      2 C=  8.347367D-02  0.000000D+00                             NZ=T
 IS=     2 IAt=     2 ISR=     1 T=0 IP=      1 IndIP=      4 IndIPD=      0 C=  2.004993D+01  0.000000D+00                             NZ=T
 IS=     2 IAt=     2 ISR=     1 T=0 IP=      2 IndIP=      5 IndIPD=      1 C=  1.939142D+01  0.000000D+00                             NZ=T
 IS=     2 IAt=     2 ISR=     1 T=0 IP=      3 IndIP=      6 IndIPD=      2 C=  6.043458D+00  0.000000D+00                             NZ=T
 IS=     3 IAt=     2 ISR=     2 T=1 IP=      1 IndIP=      7 IndIPD=      0 C= -1.820341D+00  4.925761D+01                             NZ=T
 IS=     3 IAt=     2 ISR=     2 T=1 IP=      2 IndIP=      8 IndIPD=      1 C=  2.434854D+00  3.097451D+01                             NZ=T
 IS=     3 IAt=     2 ISR=     2 T=1 IP=      3 IndIP=      9 IndIPD=      2 C=  1.837620D+00  4.906883D+00                             NZ=T
 IS=     4 IAt=     2 ISR=     3 T=1 IP=      1 IndIP=     10 IndIPD=      0 C= -5.746721D-01  5.803915D-02                             NZ=T
 IS=     4 IAt=     2 ISR=     3 T=1 IP=      2 IndIP=     11 IndIPD=      1 C=  2.252897D-01  1.535208D+00                             NZ=T
 IS=     4 IAt=     2 ISR=     3 T=1 IP=      3 IndIP=     12 IndIPD=      2 C=  4.647390D-01  3.915940D-01                             NZ=T
 IS=     5 IAt=     2 ISR=     4 T=1 IP=      1 IndIP=     13 IndIPD=      0 C= -1.706594D-01 -1.133666D-01                             NZ=T
 IS=     5 IAt=     2 ISR=     4 T=1 IP=      2 IndIP=     14 IndIPD=      1 C=  5.129963D-03  1.533382D-01                             NZ=T
 IS=     5 IAt=     2 ISR=     4 T=1 IP=      3 IndIP=     15 IndIPD=      2 C=  1.603140D-01  5.311239D-02                             NZ=T
 IS=     6 IAt=     2 ISR=     5 T=2 IP=      1 IndIP=     16 IndIPD=      1 C=  0.000000D+00  0.000000D+00  8.652016D-01  0.000000D+00 NZ=T
 IS=     6 IAt=     2 ISR=     5 T=2 IP=      2 IndIP=     17 IndIPD=      2 C=  0.000000D+00  0.000000D+00  3.231180D-01  0.000000D+00 NZ=T
 IS=     6 IAt=     2 ISR=     5 T=2 IP=      3 IndIP=     18 IndIPD=      3 C=  0.000000D+00  0.000000D+00  2.668013D-02  0.000000D+00 NZ=T
 IExCor=    0 DFT=F Ex=HF Corr=None ExCW=0 ScaHFX=  1.000000
 ScaDFX=  1.000000  1.000000  1.000000  1.000000 ScalE2=  1.000000  1.000000
 IRadAn=      5 IRanWt=     -1 IRanGd=            0 ICorTp=0 IEmpDi=  4
 NAtoms=    2 NActive=    2 NUniq=    2 SFac= 1.00D+00 NAtFMM=   60 NAOKFM=F Big=F
 Integral buffers will be    131072 words long.
 Raffenetti 2 integral format.
 Two-electron integral symmetry is turned on.
 Leave Link  301 at Mon Mar 28 12:45:48 2022, MaxMem=  9663676416 cpu:               2.1 elap:               0.1
 (Enter /nopt/nrel/apps/gaussian/g16C_1/g16/l302.exe)
 NPDir=0 NMtPBC=     1 NCelOv=     1 NCel=       1 NClECP=     1 NCelD=      1
         NCelK=      1 NCelE2=     1 NClLst=     1 CellRange=     0.0.
 One-electron integrals computed using PRISM.
 One-electron integral symmetry used in STVInt
 Entering OneElI...
 Calculate overlap and kinetic energy integrals
    NBasis =  19  MinDer = 0  MaxDer = 0
 Requested accuracy = 0.1000D-12
 Symmetry will be used
 PrmmSu-InSpLW:  IPartL=    0 NPrtUS=   36 NPrtUL=    1 DoSpLW=F IThBeg=    0 IThEnd=   35 NThAct=   36.
 PrSmSu:  IncTry=   512 NBBP=             21 NTPThr=   100 NPartT=   36 Incr=           1 LDynOK=F GPUOK=F.
 PrsmSu:  NPrtUS=  36 ThrOK=T IAlg=1 LenDen=           0 ISkipM=0 DoSpLW=F IThBeg=    0 IThEnd=   35.
 Prism:   IPart=     0 DynPar=F LinDyn=F Incr=           1.
 PRISM was handed   268432635 working-precision words and    21 shell-pairs
 PRISM was handed   268432635 working-precision words and    21 shell-pairs
 PRISM was handed   268432635 working-precision words and    21 shell-pairs
 PRISM was handed   268432635 working-precision words and    21 shell-pairs
 PRISM was handed   268432635 working-precision words and    21 shell-pairs
 PRISM was handed   268432635 working-precision words and    21 shell-pairs
 PRISM was handed   268432635 working-precision words and    21 shell-pairs
 PRISM was handed   268432635 working-precision words and    21 shell-pairs
 PRISM was handed   268432635 working-precision words and    21 shell-pairs
 PRISM was handed   268432635 working-precision words and    21 shell-pairs
 PRISM was handed   268432635 working-precision words and    21 shell-pairs
 PRISM was handed   268432635 working-precision words and    21 shell-pairs
 PRISM was handed   268432635 working-precision words and    21 shell-pairs
 PRISM was handed   268432635 working-precision words and    21 shell-pairs
 PRISM was handed   268432635 working-precision words and    21 shell-pairs
 PRISM was handed   268432635 working-precision words and    21 shell-pairs
 PRISM was handed   268432635 working-precision words and    21 shell-pairs
 IPart= 30 NShTot=           0 NBatch=           0 AvBLen=         0.0
 IPart= 11 NShTot=           0 NBatch=           0 AvBLen=         0.0
 IPart= 13 NShTot=           0 NBatch=           0 AvBLen=         0.0
 IPart=  9 NShTot=           0 NBatch=           0 AvBLen=         0.0
 IPart= 17 NShTot=           0 NBatch=           0 AvBLen=         0.0
 IPart= 12 NShTot=           0 NBatch=           0 AvBLen=         0.0
 IPart= 22 NShTot=           0 NBatch=           0 AvBLen=         0.0
 IPart= 29 NShTot=           0 NBatch=           0 AvBLen=         0.0
 IPart= 20 NShTot=           0 NBatch=           0 AvBLen=         0.0
 IPart= 21 NShTot=           0 NBatch=           0 AvBLen=         0.0
 PRISM was handed   268432635 working-precision words and    21 shell-pairs
 IPart=  3 NShTot=           2 NBatch=           2 AvBLen=         1.0
 IPart=  0 NShTot=           6 NBatch=           6 AvBLen=         1.0
 IPart=  2 NShTot=           4 NBatch=           4 AvBLen=         1.0
 IPart= 33 NShTot=           0 NBatch=           0 AvBLen=         0.0
 IPart= 15 NShTot=           0 NBatch=           0 AvBLen=         0.0
 IPart= 32 NShTot=           0 NBatch=           0 AvBLen=         0.0
 IPart= 35 NShTot=           0 NBatch=           0 AvBLen=         0.0
 PRISM was handed   268432635 working-precision words and    21 shell-pairs
 PRISM was handed   268432635 working-precision words and    21 shell-pairs
 PRISM was handed   268432635 working-precision words and    21 shell-pairs
 IPart=  1 NShTot=           5 NBatch=           5 AvBLen=         1.0
 PRISM was handed   268432635 working-precision words and    21 shell-pairs
 PRISM was handed   268432635 working-precision words and    21 shell-pairs
 PRISM was handed   268432635 working-precision words and    21 shell-pairs
 PRISM was handed   268432635 working-precision words and    21 shell-pairs
 PRISM was handed   268432635 working-precision words and    21 shell-pairs
 IPart=  7 NShTot=           0 NBatch=           0 AvBLen=         0.0
 IPart=  6 NShTot=           0 NBatch=           0 AvBLen=         0.0
 IPart=  8 NShTot=           0 NBatch=           0 AvBLen=         0.0
 IPart= 26 NShTot=           0 NBatch=           0 AvBLen=         0.0
 PRISM was handed   268432635 working-precision words and    21 shell-pairs
 IPart= 25 NShTot=           0 NBatch=           0 AvBLen=         0.0
 IPart= 34 NShTot=           0 NBatch=           0 AvBLen=         0.0
 PRISM was handed   268432635 working-precision words and    21 shell-pairs
 IPart= 23 NShTot=           0 NBatch=           0 AvBLen=         0.0
 PRISM was handed   268432635 working-precision words and    21 shell-pairs
 PRISM was handed   268432635 working-precision words and    21 shell-pairs
 IPart= 27 NShTot=           0 NBatch=           0 AvBLen=         0.0
 IPart= 10 NShTot=           0 NBatch=           0 AvBLen=         0.0
 PRISM was handed   268432635 working-precision words and    21 shell-pairs
 PRISM was handed   268432635 working-precision words and    21 shell-pairs
 PRISM was handed   268432635 working-precision words and    21 shell-pairs
 IPart=  4 NShTot=           2 NBatch=           2 AvBLen=         1.0
 PRISM was handed   268432635 working-precision words and    21 shell-pairs
 PRISM was handed   268432635 working-precision words and    21 shell-pairs
 PRISM was handed   268432635 working-precision words and    21 shell-pairs
 IPart= 14 NShTot=           0 NBatch=           0 AvBLen=         0.0
 IPart= 24 NShTot=           0 NBatch=           0 AvBLen=         0.0
 IPart=  5 NShTot=           2 NBatch=           2 AvBLen=         1.0
 IPart= 18 NShTot=           0 NBatch=           0 AvBLen=         0.0
 IPart= 19 NShTot=           0 NBatch=           0 AvBLen=         0.0
 IPart= 16 NShTot=           0 NBatch=           0 AvBLen=         0.0
 IPart= 31 NShTot=           0 NBatch=           0 AvBLen=         0.0
 IPart= 28 NShTot=           0 NBatch=           0 AvBLen=         0.0
 PrSmSu:  NxtVal=             37.
 *** Overlap *** 
                1             2             3             4             5 
      1  0.100000D+01
      2  0.165946D-02  0.100000D+01
      3  0.113575D-01  0.371775D+00  0.100000D+01
      4  0.000000D+00  0.000000D+00  0.000000D+00  0.100000D+01
      5  0.000000D+00  0.000000D+00  0.000000D+00  0.000000D+00  0.100000D+01
      6 -0.361741D-02  0.000000D+00  0.000000D+00  0.000000D+00  0.000000D+00
      7  0.817414D-01  0.223608D-01  0.300384D+00  0.000000D+00  0.000000D+00
      8  0.000000D+00  0.000000D+00  0.000000D+00  0.313309D+00  0.000000D+00
      9  0.000000D+00  0.000000D+00  0.000000D+00  0.000000D+00  0.313309D+00
     10 -0.763430D-01  0.000000D+00  0.000000D+00  0.000000D+00  0.000000D+00
     11  0.332563D+00 -0.412730D-03  0.136941D-01  0.000000D+00  0.000000D+00
     12  0.000000D+00  0.000000D+00  0.000000D+00  0.250808D-01  0.000000D+00
     13  0.000000D+00  0.000000D+00  0.000000D+00  0.000000D+00  0.250808D-01
     14 -0.446410D+00  0.000000D+00  0.000000D+00  0.000000D+00  0.000000D+00
     15  0.235019D+00  0.000000D+00  0.000000D+00  0.000000D+00  0.000000D+00
     16  0.000000D+00  0.000000D+00  0.000000D+00  0.000000D+00  0.000000D+00
     17  0.000000D+00  0.000000D+00  0.000000D+00  0.000000D+00  0.000000D+00
     18  0.000000D+00  0.000000D+00  0.000000D+00  0.000000D+00  0.000000D+00
     19  0.000000D+00  0.000000D+00  0.000000D+00  0.000000D+00  0.000000D+00
                6             7             8             9            10 
      6  0.100000D+01
      7  0.000000D+00  0.100000D+01
      8  0.000000D+00  0.000000D+00  0.100000D+01
      9  0.000000D+00  0.000000D+00  0.000000D+00  0.100000D+01
     10  0.313309D+00  0.000000D+00  0.000000D+00  0.000000D+00  0.100000D+01
     11  0.000000D+00  0.395149D+00  0.000000D+00  0.000000D+00  0.000000D+00
     12  0.000000D+00  0.000000D+00  0.407435D+00  0.000000D+00  0.000000D+00
     13  0.000000D+00  0.000000D+00  0.000000D+00  0.407435D+00  0.000000D+00
     14  0.250808D-01  0.000000D+00  0.000000D+00  0.000000D+00  0.407435D+00
     15  0.000000D+00  0.000000D+00  0.000000D+00  0.000000D+00  0.000000D+00
     16  0.000000D+00  0.000000D+00  0.000000D+00  0.000000D+00  0.000000D+00
     17  0.000000D+00  0.000000D+00  0.000000D+00  0.000000D+00  0.000000D+00
     18  0.000000D+00  0.000000D+00  0.000000D+00  0.000000D+00  0.000000D+00
     19  0.000000D+00  0.000000D+00  0.000000D+00  0.000000D+00  0.000000D+00
               11            12            13            14            15 
     11  0.100000D+01
     12  0.000000D+00  0.100000D+01
     13  0.000000D+00  0.000000D+00  0.100000D+01
     14  0.000000D+00  0.000000D+00  0.000000D+00  0.100000D+01
     15  0.000000D+00  0.000000D+00  0.000000D+00  0.000000D+00  0.100000D+01
     16  0.000000D+00  0.000000D+00  0.000000D+00  0.000000D+00  0.000000D+00
     17  0.000000D+00  0.000000D+00  0.000000D+00  0.000000D+00  0.000000D+00
     18  0.000000D+00  0.000000D+00  0.000000D+00  0.000000D+00  0.000000D+00
     19  0.000000D+00  0.000000D+00  0.000000D+00  0.000000D+00  0.000000D+00
               16            17            18            19 
     16  0.100000D+01
     17  0.000000D+00  0.100000D+01
     18  0.000000D+00  0.000000D+00  0.100000D+01
     19  0.000000D+00  0.000000D+00  0.000000D+00  0.100000D+01
 *** Kinetic Energy *** 
                1             2             3             4             5 
      1  0.760032D+00
      2 -0.445576D-03  0.229340D+03
      3 -0.319516D-02  0.137973D+01  0.120824D+02
      4  0.000000D+00  0.000000D+00  0.000000D+00  0.378073D+02
      5  0.000000D+00  0.000000D+00  0.000000D+00  0.000000D+00  0.378073D+02
      6  0.767647D-03  0.000000D+00  0.000000D+00  0.000000D+00  0.000000D+00
      7 -0.204595D-01 -0.798994D+00 -0.840664D+00  0.000000D+00  0.000000D+00
      8  0.000000D+00  0.000000D+00  0.000000D+00  0.187471D+01  0.000000D+00
      9  0.000000D+00  0.000000D+00  0.000000D+00  0.000000D+00  0.187471D+01
     10  0.978269D-02  0.000000D+00  0.000000D+00  0.000000D+00  0.000000D+00
     11  0.365692D-01 -0.407071D-01 -0.207745D+00  0.000000D+00  0.000000D+00
     12  0.000000D+00  0.000000D+00  0.000000D+00 -0.209473D-01  0.000000D+00
     13  0.000000D+00  0.000000D+00  0.000000D+00  0.000000D+00 -0.209473D-01
     14 -0.106556D+00  0.000000D+00  0.000000D+00  0.000000D+00  0.000000D+00
     15  0.873748D-01  0.000000D+00  0.000000D+00  0.000000D+00  0.000000D+00
     16  0.000000D+00  0.000000D+00  0.000000D+00  0.000000D+00  0.000000D+00
     17  0.000000D+00  0.000000D+00  0.000000D+00  0.000000D+00  0.000000D+00
     18  0.000000D+00  0.000000D+00  0.000000D+00  0.000000D+00  0.000000D+00
     19  0.000000D+00  0.000000D+00  0.000000D+00  0.000000D+00  0.000000D+00
                6             7             8             9            10 
      6  0.378073D+02
      7  0.000000D+00  0.116813D+01
      8  0.000000D+00  0.000000D+00  0.275070D+01
      9  0.000000D+00  0.000000D+00  0.000000D+00  0.275070D+01
     10  0.187471D+01  0.000000D+00  0.000000D+00  0.000000D+00  0.275070D+01
     11  0.000000D+00 -0.927537D-01  0.000000D+00  0.000000D+00  0.000000D+00
     12  0.000000D+00  0.000000D+00  0.199329D+00  0.000000D+00  0.000000D+00
     13  0.000000D+00  0.000000D+00  0.000000D+00  0.199329D+00  0.000000D+00
     14 -0.209473D-01  0.000000D+00  0.000000D+00  0.000000D+00  0.199329D+00
     15  0.000000D+00  0.000000D+00  0.000000D+00  0.000000D+00  0.000000D+00
     16  0.000000D+00  0.000000D+00  0.000000D+00  0.000000D+00  0.000000D+00
     17  0.000000D+00  0.000000D+00  0.000000D+00  0.000000D+00  0.000000D+00
     18  0.000000D+00  0.000000D+00  0.000000D+00  0.000000D+00  0.000000D+00
     19  0.000000D+00  0.000000D+00  0.000000D+00  0.000000D+00  0.000000D+00
               11            12            13            14            15 
     11  0.207443D+00
     12  0.000000D+00  0.409500D+00
     13  0.000000D+00  0.000000D+00  0.409500D+00
     14  0.000000D+00  0.000000D+00  0.000000D+00  0.409500D+00
     15  0.000000D+00  0.000000D+00  0.000000D+00  0.000000D+00  0.180044D+01
     16  0.000000D+00  0.000000D+00  0.000000D+00  0.000000D+00  0.000000D+00
     17  0.000000D+00  0.000000D+00  0.000000D+00  0.000000D+00  0.000000D+00
     18  0.000000D+00  0.000000D+00  0.000000D+00  0.000000D+00  0.000000D+00
     19  0.000000D+00  0.000000D+00  0.000000D+00  0.000000D+00  0.000000D+00
               16            17            18            19 
     16  0.180044D+01
     17  0.000000D+00  0.180044D+01
     18  0.000000D+00  0.000000D+00  0.180044D+01
     19  0.000000D+00  0.000000D+00  0.000000D+00  0.180044D+01
 Entering OneElI...
 Calculate potential energy integrals
    NBasis =  19  MinDer = 0  MaxDer = 0
 Requested accuracy = 0.1000D-12
 Symmetry will be used
 PrmmSu-InSpLW:  IPartL=    0 NPrtUS=   36 NPrtUL=    1 DoSpLW=F IThBeg=    0 IThEnd=   35 NThAct=   36.
 PrSmSu:  IncTry=   512 NBBP=             42 NTPThr=   100 NPartT=   36 Incr=           1 LDynOK=F GPUOK=F.
 PrsmSu:  NPrtUS=  36 ThrOK=T IAlg=1 LenDen=           0 ISkipM=0 DoSpLW=F IThBeg=    0 IThEnd=   35.
 Prism:   IPart=     0 DynPar=F LinDyn=F Incr=           1.
 PRISM was handed   268432869 working-precision words and    21 shell-pairs
 PRISM was handed   268432869 working-precision words and    21 shell-pairs
 PRISM was handed   268432869 working-precision words and    21 shell-pairs
 PRISM was handed   268432869 working-precision words and    21 shell-pairs
 PRISM was handed   268432869 working-precision words and    21 shell-pairs
 PRISM was handed   268432869 working-precision words and    21 shell-pairs
 PRISM was handed   268432869 working-precision words and    21 shell-pairs
 PRISM was handed   268432869 working-precision words and    21 shell-pairs
 PRISM was handed   268432869 working-precision words and    21 shell-pairs
 PRISM was handed   268432869 working-precision words and    21 shell-pairs
 PRISM was handed   268432869 working-precision words and    21 shell-pairs
 PRISM was handed   268432869 working-precision words and    21 shell-pairs
 PRISM was handed   268432869 working-precision words and    21 shell-pairs
 PRISM was handed   268432869 working-precision words and    21 shell-pairs
 PRISM was handed   268432869 working-precision words and    21 shell-pairs
 PRISM was handed   268432869 working-precision words and    21 shell-pairs
 PRISM was handed   268432869 working-precision words and    21 shell-pairs
 PRISM was handed   268432869 working-precision words and    21 shell-pairs
 PRISM was handed   268432869 working-precision words and    21 shell-pairs
 PRISM was handed   268432869 working-precision words and    21 shell-pairs
 PRISM was handed   268432869 working-precision words and    21 shell-pairs
 PRISM was handed   268432869 working-precision words and    21 shell-pairs
 PRISM was handed   268432869 working-precision words and    21 shell-pairs
 PRISM was handed   268432869 working-precision words and    21 shell-pairs
 PRISM was handed   268432869 working-precision words and    21 shell-pairs
 PRISM was handed   268432869 working-precision words and    21 shell-pairs
 PRISM was handed   268432869 working-precision words and    21 shell-pairs
 PRISM was handed   268432869 working-precision words and    21 shell-pairs
 PRISM was handed   268432869 working-precision words and    21 shell-pairs
 PRISM was handed   268432869 working-precision words and    21 shell-pairs
 PRISM was handed   268432869 working-precision words and    21 shell-pairs
 PRISM was handed   268432869 working-precision words and    21 shell-pairs
 PRISM was handed   268432869 working-precision words and    21 shell-pairs
 PRISM was handed   268432869 working-precision words and    21 shell-pairs
 PRISM was handed   268432869 working-precision words and    21 shell-pairs
 PRISM was handed   268432869 working-precision words and    21 shell-pairs
 IPart= 16 NShTot=           0 NBatch=           0 AvBLen=         0.0
 IPart= 20 NShTot=           0 NBatch=           0 AvBLen=         0.0
 IPart= 19 NShTot=           0 NBatch=           0 AvBLen=         0.0
 IPart=  8 NShTot=           0 NBatch=           0 AvBLen=         0.0
 IPart= 24 NShTot=           0 NBatch=           0 AvBLen=         0.0
 IPart= 29 NShTot=           0 NBatch=           0 AvBLen=         0.0
 IPart= 28 NShTot=           0 NBatch=           0 AvBLen=         0.0
 IPart= 14 NShTot=           0 NBatch=           0 AvBLen=         0.0
 IPart= 12 NShTot=           0 NBatch=           0 AvBLen=         0.0
 IPart= 33 NShTot=           0 NBatch=           0 AvBLen=         0.0
 IPart= 23 NShTot=           0 NBatch=           0 AvBLen=         0.0
 IPart= 11 NShTot=           0 NBatch=           0 AvBLen=         0.0
 IPart= 17 NShTot=           0 NBatch=           0 AvBLen=         0.0
 IPart=  9 NShTot=           0 NBatch=           0 AvBLen=         0.0
 IPart= 10 NShTot=           0 NBatch=           0 AvBLen=         0.0
 IPart= 18 NShTot=           0 NBatch=           0 AvBLen=         0.0
 IPart= 13 NShTot=           0 NBatch=           0 AvBLen=         0.0
 IPart= 27 NShTot=           0 NBatch=           0 AvBLen=         0.0
 IPart= 34 NShTot=           0 NBatch=           0 AvBLen=         0.0
 IPart= 30 NShTot=           0 NBatch=           0 AvBLen=         0.0
 IPart= 25 NShTot=           0 NBatch=           0 AvBLen=         0.0
 IPart= 32 NShTot=           0 NBatch=           0 AvBLen=         0.0
 IPart= 15 NShTot=           0 NBatch=           0 AvBLen=         0.0
 IPart=  7 NShTot=           0 NBatch=           0 AvBLen=         0.0
 IPart= 35 NShTot=           0 NBatch=           0 AvBLen=         0.0
 IPart= 26 NShTot=           0 NBatch=           0 AvBLen=         0.0
 IPart= 21 NShTot=           0 NBatch=           0 AvBLen=         0.0
 IPart=  6 NShTot=           0 NBatch=           0 AvBLen=         0.0
 IPart= 31 NShTot=           0 NBatch=           0 AvBLen=         0.0
 IPart= 22 NShTot=           0 NBatch=           0 AvBLen=         0.0
 IPart=  0 NShTot=          16 NBatch=           8 AvBLen=         2.0
 IPart=  4 NShTot=           4 NBatch=           2 AvBLen=         2.0
 IPart=  5 NShTot=           2 NBatch=           1 AvBLen=         2.0
 IPart=  1 NShTot=          10 NBatch=           5 AvBLen=         2.0
 IPart=  3 NShTot=           4 NBatch=           2 AvBLen=         2.0
 IPart=  2 NShTot=           6 NBatch=           3 AvBLen=         2.0
 PrSmSu:  NxtVal=             37.
 ***** Potential Energy ***** 
                1             2             3             4             5 
      1  0.768767D+01
      2  0.401645D+00  0.469058D+03
      3  0.741812D+00  0.902552D+02  0.965461D+02
      4  0.000000D+00  0.000000D+00  0.000000D+00  0.957750D+02
      5  0.000000D+00  0.000000D+00  0.000000D+00  0.000000D+00  0.957750D+02
      6 -0.176954D+00 -0.235465D-02 -0.143316D-01  0.000000D+00  0.000000D+00
      7  0.151460D+01  0.472666D+01  0.170499D+02  0.000000D+00  0.000000D+00
      8  0.000000D+00  0.000000D+00  0.000000D+00  0.174778D+02  0.000000D+00
      9  0.000000D+00  0.000000D+00  0.000000D+00  0.000000D+00  0.174778D+02
     10 -0.117713D+01 -0.163541D-03 -0.717024D-02  0.000000D+00  0.000000D+00
     11  0.292122D+01 -0.133789D+00  0.485434D+00  0.000000D+00  0.000000D+00
     12  0.000000D+00  0.000000D+00  0.000000D+00  0.120568D+01  0.000000D+00
     13  0.000000D+00  0.000000D+00  0.000000D+00  0.000000D+00  0.120568D+01
     14 -0.378222D+01 -0.834126D-05 -0.634518D-03  0.000000D+00  0.000000D+00
     15  0.219731D+01  0.000000D+00  0.286264D-03  0.000000D+00  0.000000D+00
     16  0.000000D+00  0.000000D+00  0.000000D+00 -0.169178D-02  0.000000D+00
     17  0.000000D+00  0.000000D+00  0.000000D+00  0.000000D+00 -0.169178D-02
     18  0.000000D+00  0.000000D+00  0.000000D+00  0.000000D+00  0.000000D+00
     19  0.000000D+00  0.000000D+00  0.000000D+00  0.000000D+00  0.000000D+00
                6             7             8             9            10 
      6  0.957765D+02
      7 -0.748840D-02  0.255279D+02
      8  0.000000D+00  0.000000D+00  0.255657D+02
      9  0.000000D+00  0.000000D+00  0.000000D+00  0.255657D+02
     10  0.174791D+02 -0.507366D-01  0.000000D+00  0.000000D+00  0.255838D+02
     11 -0.505454D-03  0.655791D+01  0.000000D+00  0.000000D+00 -0.312519D-01
     12  0.000000D+00  0.000000D+00  0.687283D+01  0.000000D+00  0.000000D+00
     13  0.000000D+00  0.000000D+00  0.000000D+00  0.687283D+01  0.000000D+00
     14  0.120582D+01 -0.299884D-01  0.000000D+00  0.000000D+00  0.688931D+01
     15 -0.203867D-02  0.159054D-01  0.000000D+00  0.000000D+00 -0.491619D-01
     16  0.000000D+00  0.000000D+00 -0.339185D-01  0.000000D+00  0.000000D+00
     17  0.000000D+00  0.000000D+00  0.000000D+00 -0.339185D-01  0.000000D+00
     18  0.000000D+00  0.000000D+00  0.000000D+00  0.000000D+00  0.000000D+00
     19  0.000000D+00  0.000000D+00  0.000000D+00  0.000000D+00  0.000000D+00
               11            12            13            14            15 
     11  0.964156D+01
     12  0.000000D+00  0.961056D+01
     13  0.000000D+00  0.000000D+00  0.961056D+01
     14 -0.118297D+00  0.000000D+00  0.000000D+00  0.970401D+01
     15  0.492087D-01  0.000000D+00  0.000000D+00 -0.109615D+00  0.142301D+02
     16  0.000000D+00 -0.561291D-01  0.000000D+00  0.000000D+00  0.000000D+00
     17  0.000000D+00  0.000000D+00 -0.561291D-01  0.000000D+00  0.000000D+00
     18  0.000000D+00  0.000000D+00  0.000000D+00  0.000000D+00  0.000000D+00
     19  0.000000D+00  0.000000D+00  0.000000D+00  0.000000D+00  0.000000D+00
               16            17            18            19 
     16  0.141958D+02
     17  0.000000D+00  0.141958D+02
     18  0.000000D+00  0.000000D+00  0.141659D+02
     19  0.000000D+00  0.000000D+00  0.000000D+00  0.141659D+02
 ****** Core Hamiltonian ****** 
                1             2             3             4             5 
      1 -0.692764D+01
      2 -0.402091D+00 -0.239718D+03
      3 -0.745007D+00 -0.888755D+02 -0.844636D+02
      4  0.000000D+00  0.000000D+00  0.000000D+00 -0.579677D+02
      5  0.000000D+00  0.000000D+00  0.000000D+00  0.000000D+00 -0.579677D+02
      6  0.177722D+00  0.235465D-02  0.143316D-01  0.000000D+00  0.000000D+00
      7 -0.153506D+01 -0.552566D+01 -0.178906D+02  0.000000D+00  0.000000D+00
      8  0.000000D+00  0.000000D+00  0.000000D+00 -0.156031D+02  0.000000D+00
      9  0.000000D+00  0.000000D+00  0.000000D+00  0.000000D+00 -0.156031D+02
     10  0.118692D+01  0.163541D-03  0.717024D-02  0.000000D+00  0.000000D+00
     11 -0.288465D+01  0.930822D-01 -0.693180D+00  0.000000D+00  0.000000D+00
     12  0.000000D+00  0.000000D+00  0.000000D+00 -0.122663D+01  0.000000D+00
     13  0.000000D+00  0.000000D+00  0.000000D+00  0.000000D+00 -0.122663D+01
     14  0.367567D+01  0.834126D-05  0.634518D-03  0.000000D+00  0.000000D+00
     15 -0.210994D+01  0.000000D+00 -0.286264D-03  0.000000D+00  0.000000D+00
     16  0.000000D+00  0.000000D+00  0.000000D+00  0.169178D-02  0.000000D+00
     17  0.000000D+00  0.000000D+00  0.000000D+00  0.000000D+00  0.169178D-02
     18  0.000000D+00  0.000000D+00  0.000000D+00  0.000000D+00  0.000000D+00
     19  0.000000D+00  0.000000D+00  0.000000D+00  0.000000D+00  0.000000D+00
                6             7             8             9            10 
      6 -0.579692D+02
      7  0.748840D-02 -0.243598D+02
      8  0.000000D+00  0.000000D+00 -0.228150D+02
      9  0.000000D+00  0.000000D+00  0.000000D+00 -0.228150D+02
     10 -0.156044D+02  0.507366D-01  0.000000D+00  0.000000D+00 -0.228331D+02
     11  0.505454D-03 -0.665067D+01  0.000000D+00  0.000000D+00  0.312519D-01
     12  0.000000D+00  0.000000D+00 -0.667350D+01  0.000000D+00  0.000000D+00
     13  0.000000D+00  0.000000D+00  0.000000D+00 -0.667350D+01  0.000000D+00
     14 -0.122677D+01  0.299884D-01  0.000000D+00  0.000000D+00 -0.668998D+01
     15  0.203867D-02 -0.159054D-01  0.000000D+00  0.000000D+00  0.491619D-01
     16  0.000000D+00  0.000000D+00  0.339185D-01  0.000000D+00  0.000000D+00
     17  0.000000D+00  0.000000D+00  0.000000D+00  0.339185D-01  0.000000D+00
     18  0.000000D+00  0.000000D+00  0.000000D+00  0.000000D+00  0.000000D+00
     19  0.000000D+00  0.000000D+00  0.000000D+00  0.000000D+00  0.000000D+00
               11            12            13            14            15 
     11 -0.943412D+01
     12  0.000000D+00 -0.920106D+01
     13  0.000000D+00  0.000000D+00 -0.920106D+01
     14  0.118297D+00  0.000000D+00  0.000000D+00 -0.929451D+01
     15 -0.492087D-01  0.000000D+00  0.000000D+00  0.109615D+00 -0.124297D+02
     16  0.000000D+00  0.561291D-01  0.000000D+00  0.000000D+00  0.000000D+00
     17  0.000000D+00  0.000000D+00  0.561291D-01  0.000000D+00  0.000000D+00
     18  0.000000D+00  0.000000D+00  0.000000D+00  0.000000D+00  0.000000D+00
     19  0.000000D+00  0.000000D+00  0.000000D+00  0.000000D+00  0.000000D+00
               16            17            18            19 
     16 -0.123953D+02
     17  0.000000D+00 -0.123953D+02
     18  0.000000D+00  0.000000D+00 -0.123655D+02
     19  0.000000D+00  0.000000D+00  0.000000D+00 -0.123655D+02
 SVDSVc IOpt=   1 NormSV=T IR=1
 SVDSVc V= 1.80D+00 1.56D+00 1.34D+00 1.14D+00 1.00D+00 9.89D-01 7.71D-01 6.15D-01 4.63D-01 3.15D-01
 SVDSVc IOpt=   1 NormSV=T IR=2
 SVDSVc V= 1.00D+00
 SVDSVc IOpt=   1 NormSV=T IR=3
 SVDSVc V= 1.53D+00 1.00D+00 9.76D-01 4.98D-01
 SVDSVc IOpt=   1 NormSV=T IR=4
 SVDSVc V= 1.53D+00 1.00D+00 9.76D-01 4.98D-01
 TstOVc:  Largest diagonal error= 6.66D-16 IB=1 I=    7.
 TstOVc:  Largest same sym error= 9.71D-16 IB=1 I=   10 J=    8.
 TstOVc:  Largest diff sym error= 0.00D+00 IB=0 JB=0 I=    0 J=    0.
 Orthogonalized basis functions: 
                 1             2             3             4             5 
      1   0.406692D+00 -0.535797D-01 -0.259189D+00  0.270337D+00  0.000000D+00
      2   0.656192D-01  0.273412D+00  0.422136D+00  0.344072D+00  0.000000D+00
      3   0.126639D+00  0.391499D+00  0.385874D+00  0.152619D+00  0.000000D+00
      4   0.000000D+00  0.000000D+00  0.000000D+00  0.000000D+00  0.000000D+00
      5   0.000000D+00  0.000000D+00  0.000000D+00  0.000000D+00  0.000000D+00
      6  -0.118638D+00  0.180829D+00 -0.312789D+00  0.405432D+00  0.000000D+00
      7   0.229556D+00  0.386385D+00 -0.669592D-01 -0.348416D+00  0.000000D+00
      8   0.000000D+00  0.000000D+00  0.000000D+00  0.000000D+00  0.000000D+00
      9   0.000000D+00  0.000000D+00  0.000000D+00  0.000000D+00  0.000000D+00
     10  -0.270494D+00  0.302880D+00 -0.331529D+00  0.204515D+00  0.000000D+00
     11   0.283089D+00  0.248755D+00 -0.320471D+00 -0.318336D+00  0.000000D+00
     12   0.000000D+00  0.000000D+00  0.000000D+00  0.000000D+00  0.000000D+00
     13   0.000000D+00  0.000000D+00  0.000000D+00  0.000000D+00  0.000000D+00
     14  -0.366486D+00  0.269613D+00 -0.811032D-01 -0.188858D+00  0.000000D+00
     15   0.118848D+00 -0.223567D-01 -0.181516D+00  0.441366D+00  0.000000D+00
     16   0.000000D+00  0.000000D+00  0.000000D+00  0.000000D+00  0.000000D+00
     17   0.000000D+00  0.000000D+00  0.000000D+00  0.000000D+00  0.000000D+00
     18   0.000000D+00  0.000000D+00  0.000000D+00  0.000000D+00  0.100000D+01
     19   0.000000D+00  0.000000D+00  0.000000D+00  0.000000D+00  0.000000D+00
                 6             7             8             9            10 
      1  -0.338413D-01  0.300361D+00  0.469474D+00 -0.117183D+00  0.993550D+00
      2  -0.220810D-01  0.581506D+00 -0.442331D+00  0.502396D+00  0.108912D+00
      3  -0.903988D-03 -0.329697D+00  0.457954D+00 -0.773181D+00 -0.228703D+00
      4   0.000000D+00  0.000000D+00  0.000000D+00  0.000000D+00  0.000000D+00
      5   0.000000D+00  0.000000D+00  0.000000D+00  0.000000D+00  0.000000D+00
      6  -0.538547D+00 -0.350267D+00 -0.539112D+00 -0.241107D+00  0.236726D+00
      7   0.282681D-01 -0.499539D+00 -0.398760D-01  0.787302D+00  0.380774D+00
      8   0.000000D+00  0.000000D+00  0.000000D+00  0.000000D+00  0.000000D+00
      9   0.000000D+00  0.000000D+00  0.000000D+00  0.000000D+00  0.000000D+00
     10  -0.146563D-01  0.244965D+00  0.679042D+00  0.445950D+00 -0.584908D+00
     11   0.817104D-02  0.445659D+00 -0.381360D+00 -0.486566D+00 -0.697654D+00
     12   0.000000D+00  0.000000D+00  0.000000D+00  0.000000D+00  0.000000D+00
     13   0.000000D+00  0.000000D+00  0.000000D+00  0.000000D+00  0.000000D+00
     14   0.408176D+00  0.187672D+00 -0.139131D+00 -0.424426D+00  0.987115D+00
     15   0.742611D+00 -0.307647D+00 -0.286580D+00  0.512756D-01 -0.341016D+00
     16   0.000000D+00  0.000000D+00  0.000000D+00  0.000000D+00  0.000000D+00
     17   0.000000D+00  0.000000D+00  0.000000D+00  0.000000D+00  0.000000D+00
     18   0.000000D+00  0.000000D+00  0.000000D+00  0.000000D+00  0.000000D+00
     19   0.000000D+00  0.000000D+00  0.000000D+00  0.000000D+00  0.000000D+00
                11            12            13            14            15 
      1   0.000000D+00  0.000000D+00  0.000000D+00  0.000000D+00  0.000000D+00
      2   0.000000D+00  0.000000D+00  0.000000D+00  0.000000D+00  0.000000D+00
      3   0.000000D+00  0.000000D+00  0.000000D+00  0.000000D+00  0.000000D+00
      4   0.000000D+00  0.358362D+00  0.000000D+00  0.802807D+00 -0.593005D+00
      5   0.000000D+00  0.000000D+00  0.000000D+00  0.000000D+00  0.000000D+00
      6   0.000000D+00  0.000000D+00  0.000000D+00  0.000000D+00  0.000000D+00
      7   0.000000D+00  0.000000D+00  0.000000D+00  0.000000D+00  0.000000D+00
      8   0.000000D+00  0.565532D+00  0.000000D+00 -0.127423D-01  0.101370D+01
      9   0.000000D+00  0.000000D+00  0.000000D+00  0.000000D+00  0.000000D+00
     10   0.000000D+00  0.000000D+00  0.000000D+00  0.000000D+00  0.000000D+00
     11   0.000000D+00  0.000000D+00  0.000000D+00  0.000000D+00  0.000000D+00
     12   0.000000D+00  0.454909D+00  0.000000D+00 -0.616584D+00 -0.793056D+00
     13   0.000000D+00  0.000000D+00  0.000000D+00  0.000000D+00  0.000000D+00
     14   0.000000D+00  0.000000D+00  0.000000D+00  0.000000D+00  0.000000D+00
     15   0.000000D+00  0.000000D+00  0.000000D+00  0.000000D+00  0.000000D+00
     16   0.000000D+00  0.000000D+00  0.100000D+01  0.000000D+00  0.000000D+00
     17   0.000000D+00  0.000000D+00  0.000000D+00  0.000000D+00  0.000000D+00
     18   0.000000D+00  0.000000D+00  0.000000D+00  0.000000D+00  0.000000D+00
     19   0.100000D+01  0.000000D+00  0.000000D+00  0.000000D+00  0.000000D+00
                16            17            18            19 
      1   0.000000D+00  0.000000D+00  0.000000D+00  0.000000D+00
      2   0.000000D+00  0.000000D+00  0.000000D+00  0.000000D+00
      3   0.000000D+00  0.000000D+00  0.000000D+00  0.000000D+00
      4   0.000000D+00  0.000000D+00  0.000000D+00  0.000000D+00
      5   0.358362D+00  0.000000D+00  0.802807D+00 -0.593005D+00
      6   0.000000D+00  0.000000D+00  0.000000D+00  0.000000D+00
      7   0.000000D+00  0.000000D+00  0.000000D+00  0.000000D+00
      8   0.000000D+00  0.000000D+00  0.000000D+00  0.000000D+00
      9   0.565532D+00  0.000000D+00 -0.127423D-01  0.101370D+01
     10   0.000000D+00  0.000000D+00  0.000000D+00  0.000000D+00
     11   0.000000D+00  0.000000D+00  0.000000D+00  0.000000D+00
     12   0.000000D+00  0.000000D+00  0.000000D+00  0.000000D+00
     13   0.454909D+00  0.000000D+00 -0.616584D+00 -0.793056D+00
     14   0.000000D+00  0.000000D+00  0.000000D+00  0.000000D+00
     15   0.000000D+00  0.000000D+00  0.000000D+00  0.000000D+00
     16   0.000000D+00  0.000000D+00  0.000000D+00  0.000000D+00
     17   0.000000D+00  0.100000D+01  0.000000D+00  0.000000D+00
     18   0.000000D+00  0.000000D+00  0.000000D+00  0.000000D+00
     19   0.000000D+00  0.000000D+00  0.000000D+00  0.000000D+00
 NBasis=    19 RedAO= T EigKep=  3.15D-01  NBF=    10     1     4     4
 NBsUse=    19 1.00D-06 EigRej= -1.00D+00 NBFU=    10     1     4     4
 Leave Link  302 at Mon Mar 28 12:45:48 2022, MaxMem=  9663676416 cpu:               4.2 elap:               0.1
 (Enter /nopt/nrel/apps/gaussian/g16C_1/g16/l303.exe)
 DipDrv will not compute anything.
 Fermi contact integrals: 
                 1             2 
      1   0.628247D+00  0.120285D-01
      2   0.000000D+00  0.454848D+02
      3   0.000000D+00  0.245213D+01
      4   0.000000D+00  0.000000D+00
      5   0.000000D+00  0.000000D+00
      6   0.000000D+00  0.000000D+00
      7   0.299487D-03  0.115357D+00
      8   0.000000D+00  0.000000D+00
      9   0.000000D+00  0.000000D+00
     10  -0.858398D-03  0.000000D+00
     11   0.420457D-01 -0.521539D-02
     12   0.000000D+00  0.000000D+00
     13   0.000000D+00  0.000000D+00
     14  -0.719683D-01  0.000000D+00
     15   0.440345D-01  0.000000D+00
     16   0.000000D+00  0.000000D+00
     17   0.000000D+00  0.000000D+00
     18   0.000000D+00  0.000000D+00
     19   0.000000D+00  0.000000D+00
 Leave Link  303 at Mon Mar 28 12:45:48 2022, MaxMem=  9663676416 cpu:               1.2 elap:               0.1
 (Enter /nopt/nrel/apps/gaussian/g16C_1/g16/l401.exe)
 ExpMin= 1.16D-01 ExpMax= 1.03D+03 ExpMxC= 1.03D+03 IAcc=3 IRadAn=         5 AccDes= 0.00D+00
 Harris functional with IExCor=  205 and IRadAn=       5 diagonalized for initial guess.
 HarFok:  IExCor=  205 AccDes= 0.00D+00 IRadAn=         5 IDoV= 1 UseB2=F ITyADJ=14
 ICtDFT=  3500011 ScaDFX=  1.000000  1.000000  1.000000  1.000000
 FoFCou: FMM=F IPFlag=           0 FMFlag=      100000 FMFlg1=           0
         NFxFlg=           0 DoJE=T BraDBF=F KetDBF=T FulRan=T
         wScrn=  0.000000 ICntrl=       500 IOpCl=  0 I1Cent=   200000004 NGrid=           0
         NMat0=    1 NMatS0=      1 NMatT0=    0 NMatD0=    1 NMtDS0=    0 NMtDT0=    0
 Petite list used in FoFCou.
 Harris En= -839.037340540964    
 JPrj=0 DoOrth=F DoCkMO=F.
 Initial guess orbital symmetries:
 Alpha Orbitals:
       Occupied  (SG) (SG) (SG) (PI) (PI) (SG) (SG) (PI) (PI) (SG)
                 (SG) (PI) (PI) (DLTA)
       Virtual   (DLTA) (SG) (PI) (PI) (SG)
 Beta  Orbitals:
       Occupied  (SG) (SG) (SG) (PI) (PI) (SG) (SG) (PI) (PI)
       Virtual   (SG) (SG) (PI) (PI) (DLTA) (DLTA) (SG) (PI) (PI)
                 (SG)
 Initial guess <Sx>= 0.0000 <Sy>= 0.0000 <Sz>= 2.5000 <S**2>= 8.7500 S= 2.5000
 Leave Link  401 at Mon Mar 28 12:45:48 2022, MaxMem=  9663676416 cpu:               4.4 elap:               0.2
 (Enter /nopt/nrel/apps/gaussian/g16C_1/g16/l502.exe)
 Keep R1 and R2 ints in memory in symmetry-blocked form, NReq=7413336.
 FoFCou: FMM=F IPFlag=           0 FMFlag=           0 FMFlg1=           0
         NFxFlg=           0 DoJE=F BraDBF=F KetDBF=F FulRan=T
         wScrn=  0.000000 ICntrl=       600 IOpCl=  0 I1Cent=           0 NGrid=           0
         NMat0=    1 NMatS0=    190 NMatT0=    0 NMatD0=    1 NMtDS0=    0 NMtDT0=    0
 Petite list used in FoFCou.
 UHF open shell SCF:
 Using DIIS extrapolation, IDIIS=  1040.
 NGot=  9663676416 LenX=  9663662661 LenY=  9663661779
 Requested convergence on RMS density matrix=1.00D-08 within 128 cycles.
 Requested convergence on MAX density matrix=1.00D-06.
 Requested convergence on             energy=1.00D-06.
 No special actions if energy rises.

 Cycle   1  Pass 1  IDiag  1:
 E= -839.869545999975    
 DIIS: error= 5.80D-02 at cycle   1 NSaved=   1.
 NSaved= 1 IEnMin= 1 EnMin= -839.869545999975     IErMin= 1 ErrMin= 5.80D-02
 ErrMax= 5.80D-02  0.00D+00 EMaxC= 1.00D-01 BMatC= 2.19D-01 BMatP= 2.19D-01
 IDIUse=3 WtCom= 4.20D-01 WtEn= 5.80D-01
 Coeff-Com:  0.100D+01
 Coeff-En:   0.100D+01
 Coeff:      0.100D+01
 Gap=     0.355 Goal=   None    Shift=    0.000
 Gap=     1.740 Goal=   None    Shift=    0.000
 GapD=    0.355 DampG=1.000 DampE=0.250 DampFc=0.2500 IDamp=-1.
 Damping current iteration by 2.50D-01
 RMSDP=9.20D-03 MaxDP=1.08D-01              OVMax= 0.00D+00

 Cycle   2  Pass 1  IDiag  1:
 E= -839.876381140071     Delta-E=       -0.006835140096 Rises=F Damp=T
 DIIS: error= 4.43D-02 at cycle   2 NSaved=   2.
 NSaved= 2 IEnMin= 2 EnMin= -839.876381140071     IErMin= 2 ErrMin= 4.43D-02
 ErrMax= 4.43D-02  0.00D+00 EMaxC= 1.00D-01 BMatC= 1.28D-01 BMatP= 2.19D-01
 IDIUse=3 WtCom= 5.57D-01 WtEn= 4.43D-01
 Coeff-Com: -0.319D+01 0.419D+01
 Coeff-En:   0.000D+00 0.100D+01
 Coeff:     -0.178D+01 0.278D+01
 Gap=     0.352 Goal=   None    Shift=    0.000
 Gap=     1.741 Goal=   None    Shift=    0.000
 RMSDP=8.84D-03 MaxDP=1.10D-01 DE=-6.84D-03 OVMax= 0.00D+00

 Cycle   3  Pass 1  IDiag  1:
 E= -839.902561861691     Delta-E=       -0.026180721620 Rises=F Damp=F
 DIIS: error= 4.00D-03 at cycle   3 NSaved=   3.
 NSaved= 3 IEnMin= 3 EnMin= -839.902561861691     IErMin= 3 ErrMin= 4.00D-03
 ErrMax= 4.00D-03  0.00D+00 EMaxC= 1.00D-01 BMatC= 1.23D-03 BMatP= 1.28D-01
 IDIUse=3 WtCom= 9.60D-01 WtEn= 4.00D-02
 Coeff-Com:  0.314D+01-0.419D+01 0.205D+01
 Coeff-En:   0.000D+00 0.000D+00 0.100D+01
 Coeff:      0.301D+01-0.402D+01 0.201D+01
 Gap=     0.353 Goal=   None    Shift=    0.000
 Gap=     1.757 Goal=   None    Shift=    0.000
 RMSDP=3.88D-03 MaxDP=3.10D-02 DE=-2.62D-02 OVMax= 0.00D+00

 Cycle   4  Pass 1  IDiag  1:
 E= -839.904108356100     Delta-E=       -0.001546494409 Rises=F Damp=F
 DIIS: error= 2.30D-03 at cycle   4 NSaved=   4.
 NSaved= 4 IEnMin= 4 EnMin= -839.904108356100     IErMin= 4 ErrMin= 2.30D-03
 ErrMax= 2.30D-03  0.00D+00 EMaxC= 1.00D-01 BMatC= 1.69D-04 BMatP= 1.23D-03
 IDIUse=3 WtCom= 9.77D-01 WtEn= 2.30D-02
 Coeff-Com: -0.363D+01 0.484D+01-0.243D+01 0.222D+01
 Coeff-En:   0.000D+00 0.000D+00 0.000D+00 0.100D+01
 Coeff:     -0.355D+01 0.473D+01-0.237D+01 0.219D+01
 Gap=     0.355 Goal=   None    Shift=    0.000
 Gap=     1.765 Goal=   None    Shift=    0.000
 RMSDP=3.57D-03 MaxDP=3.02D-02 DE=-1.55D-03 OVMax= 0.00D+00

 Cycle   5  Pass 1  IDiag  1:
 E= -839.904960707886     Delta-E=       -0.000852351786 Rises=F Damp=F
 DIIS: error= 2.09D-03 at cycle   5 NSaved=   5.
 NSaved= 5 IEnMin= 5 EnMin= -839.904960707886     IErMin= 5 ErrMin= 2.09D-03
 ErrMax= 2.09D-03  0.00D+00 EMaxC= 1.00D-01 BMatC= 1.23D-04 BMatP= 1.69D-04
 IDIUse=3 WtCom= 9.79D-01 WtEn= 2.09D-02
 Coeff-Com:  0.252D+01-0.337D+01 0.174D+01-0.201D+01 0.211D+01
 Coeff-En:   0.000D+00 0.000D+00 0.000D+00 0.000D+00 0.100D+01
 Coeff:      0.247D+01-0.330D+01 0.171D+01-0.197D+01 0.209D+01
 Gap=     0.356 Goal=   None    Shift=    0.000
 Gap=     1.771 Goal=   None    Shift=    0.000
 RMSDP=3.56D-03 MaxDP=2.97D-02 DE=-8.52D-04 OVMax= 0.00D+00

 Cycle   6  Pass 1  IDiag  1:
 E= -839.905708590363     Delta-E=       -0.000747882477 Rises=F Damp=F
 DIIS: error= 1.90D-03 at cycle   6 NSaved=   6.
 NSaved= 6 IEnMin= 6 EnMin= -839.905708590363     IErMin= 6 ErrMin= 1.90D-03
 ErrMax= 1.90D-03  0.00D+00 EMaxC= 1.00D-01 BMatC= 1.00D-04 BMatP= 1.23D-04
 IDIUse=3 WtCom= 9.81D-01 WtEn= 1.90D-02
 Coeff-Com: -0.391D+01 0.522D+01-0.274D+01 0.392D+01-0.682D+01 0.533D+01
 Coeff-En:   0.000D+00 0.000D+00 0.000D+00 0.000D+00 0.000D+00 0.100D+01
 Coeff:     -0.384D+01 0.512D+01-0.268D+01 0.384D+01-0.669D+01 0.524D+01
 Gap=     0.357 Goal=   None    Shift=    0.000
 Gap=     1.792 Goal=   None    Shift=    0.000
 RMSDP=9.97D-03 MaxDP=9.54D-02 DE=-7.48D-04 OVMax= 0.00D+00

 Cycle   7  Pass 1  IDiag  1:
 E= -839.907419594003     Delta-E=       -0.001711003640 Rises=F Damp=F
 DIIS: error= 1.44D-03 at cycle   7 NSaved=   7.
 NSaved= 7 IEnMin= 7 EnMin= -839.907419594003     IErMin= 7 ErrMin= 1.44D-03
 ErrMax= 1.44D-03  0.00D+00 EMaxC= 1.00D-01 BMatC= 6.29D-05 BMatP= 1.00D-04
 IDIUse=3 WtCom= 9.86D-01 WtEn= 1.44D-02
 Coeff-Com: -0.454D+01 0.605D+01-0.307D+01 0.362D+01-0.352D+01 0.776D+00
 Coeff-Com:  0.169D+01
 Coeff-En:   0.000D+00 0.000D+00 0.000D+00 0.000D+00 0.000D+00 0.000D+00
 Coeff-En:   0.100D+01
 Coeff:     -0.447D+01 0.596D+01-0.303D+01 0.357D+01-0.347D+01 0.765D+00
 Coeff:      0.168D+01
 Gap=     0.363 Goal=   None    Shift=    0.000
 Gap=     1.810 Goal=   None    Shift=    0.000
 RMSDP=8.08D-03 MaxDP=8.69D-02 DE=-1.71D-03 OVMax= 0.00D+00

 Cycle   8  Pass 1  IDiag  1:
 E= -839.908380723218     Delta-E=       -0.000961129215 Rises=F Damp=F
 DIIS: error= 1.04D-03 at cycle   8 NSaved=   8.
 NSaved= 8 IEnMin= 8 EnMin= -839.908380723218     IErMin= 8 ErrMin= 1.04D-03
 ErrMax= 1.04D-03  0.00D+00 EMaxC= 1.00D-01 BMatC= 3.95D-05 BMatP= 6.29D-05
 IDIUse=3 WtCom= 9.90D-01 WtEn= 1.04D-02
 Coeff-Com: -0.272D+01 0.364D+01-0.184D+01 0.182D+01-0.307D+01 0.465D+01
 Coeff-Com: -0.590D+01 0.443D+01
 Coeff-En:   0.000D+00 0.000D+00 0.000D+00 0.000D+00 0.000D+00 0.000D+00
 Coeff-En:   0.000D+00 0.100D+01
 Coeff:     -0.270D+01 0.360D+01-0.182D+01 0.180D+01-0.304D+01 0.460D+01
 Coeff:     -0.584D+01 0.439D+01
 Gap=     0.345 Goal=   None    Shift=    0.000
 Gap=     1.829 Goal=   None    Shift=    0.000
 RMSDP=9.93D-03 MaxDP=1.13D-01 DE=-9.61D-04 OVMax= 0.00D+00

 Cycle   9  Pass 1  IDiag  1:
 E= -839.909045608702     Delta-E=       -0.000664885485 Rises=F Damp=F
 DIIS: error= 2.98D-04 at cycle   9 NSaved=   9.
 NSaved= 9 IEnMin= 9 EnMin= -839.909045608702     IErMin= 9 ErrMin= 2.98D-04
 ErrMax= 2.98D-04  0.00D+00 EMaxC= 1.00D-01 BMatC= 9.47D-06 BMatP= 3.95D-05
 IDIUse=3 WtCom= 9.97D-01 WtEn= 2.98D-03
 Coeff-Com:  0.205D+00-0.273D+00 0.134D+00 0.774D-01-0.272D+00 0.259D-01
 Coeff-Com: -0.652D+00 0.864D+00 0.890D+00
 Coeff-En:   0.000D+00 0.000D+00 0.000D+00 0.000D+00 0.000D+00 0.000D+00
 Coeff-En:   0.000D+00 0.000D+00 0.100D+01
 Coeff:      0.204D+00-0.272D+00 0.133D+00 0.772D-01-0.271D+00 0.259D-01
 Coeff:     -0.650D+00 0.862D+00 0.891D+00
 Gap=     0.368 Goal=   None    Shift=    0.000
 Gap=     1.841 Goal=   None    Shift=    0.000
 RMSDP=5.47D-03 MaxDP=6.62D-02 DE=-6.65D-04 OVMax= 0.00D+00

 Cycle  10  Pass 1  IDiag  1:
 E= -839.909161100347     Delta-E=       -0.000115491645 Rises=F Damp=F
 DIIS: error= 5.66D-04 at cycle  10 NSaved=  10.
 NSaved=10 IEnMin=10 EnMin= -839.909161100347     IErMin= 9 ErrMin= 2.98D-04
 ErrMax= 5.66D-04  0.00D+00 EMaxC= 1.00D-01 BMatC= 3.37D-05 BMatP= 9.47D-06
 IDIUse=3 WtCom= 9.97D-01 WtEn= 2.98D-03
 Coeff-Com: -0.226D+00 0.300D+00-0.151D+00 0.170D+00 0.464D+00-0.163D+01
 Coeff-Com:  0.261D+01-0.222D+01 0.967D+00 0.719D+00
 Coeff-En:   0.000D+00 0.000D+00 0.000D+00 0.000D+00 0.000D+00 0.000D+00
 Coeff-En:   0.000D+00 0.000D+00 0.000D+00 0.100D+01
 Coeff:     -0.225D+00 0.299D+00-0.150D+00 0.169D+00 0.462D+00-0.163D+01
 Coeff:      0.260D+01-0.221D+01 0.964D+00 0.720D+00
 Gap=     0.364 Goal=   None    Shift=    0.000
 Gap=     1.842 Goal=   None    Shift=    0.000
 RMSDP=1.06D-03 MaxDP=1.22D-02 DE=-1.15D-04 OVMax= 0.00D+00

 Cycle  11  Pass 1  IDiag  1:
 E= -839.909174622349     Delta-E=       -0.000013522002 Rises=F Damp=F
 DIIS: error= 2.69D-04 at cycle  11 NSaved=  11.
 NSaved=11 IEnMin=11 EnMin= -839.909174622349     IErMin=11 ErrMin= 2.69D-04
 ErrMax= 2.69D-04  0.00D+00 EMaxC= 1.00D-01 BMatC= 7.41D-06 BMatP= 9.47D-06
 IDIUse=3 WtCom= 9.97D-01 WtEn= 2.69D-03
 Coeff-Com:  0.169D+00-0.225D+00 0.112D+00-0.726D-01-0.810D-01 0.267D+00
 Coeff-Com: -0.533D+00 0.531D+00-0.715D-01-0.110D+01 0.200D+01
 Coeff-En:   0.000D+00 0.000D+00 0.000D+00 0.000D+00 0.000D+00 0.000D+00
 Coeff-En:   0.000D+00 0.000D+00 0.000D+00 0.000D+00 0.100D+01
 Coeff:      0.168D+00-0.224D+00 0.112D+00-0.724D-01-0.808D-01 0.266D+00
 Coeff:     -0.532D+00 0.529D+00-0.713D-01-0.109D+01 0.200D+01
 Gap=     0.358 Goal=   None    Shift=    0.000
 Gap=     1.842 Goal=   None    Shift=    0.000
 RMSDP=4.72D-04 MaxDP=5.12D-03 DE=-1.35D-05 OVMax= 0.00D+00

 Cycle  12  Pass 1  IDiag  1:
 E= -839.909177506264     Delta-E=       -0.000002883914 Rises=F Damp=F
 DIIS: error= 7.66D-06 at cycle  12 NSaved=  12.
 NSaved=12 IEnMin=12 EnMin= -839.909177506264     IErMin=12 ErrMin= 7.66D-06
 ErrMax= 7.66D-06  0.00D+00 EMaxC= 1.00D-01 BMatC= 6.84D-09 BMatP= 7.41D-06
 IDIUse=1 WtCom= 1.00D+00 WtEn= 0.00D+00
 Coeff-Com:  0.584D-02-0.779D-02 0.443D-02-0.151D-01 0.270D-01-0.103D-01
 Coeff-Com: -0.110D-01 0.733D-02-0.127D-01 0.131D+00-0.322D+00 0.120D+01
 Coeff:      0.584D-02-0.779D-02 0.443D-02-0.151D-01 0.270D-01-0.103D-01
 Coeff:     -0.110D-01 0.733D-02-0.127D-01 0.131D+00-0.322D+00 0.120D+01
 Gap=     0.358 Goal=   None    Shift=    0.000
 Gap=     1.842 Goal=   None    Shift=    0.000
 RMSDP=3.73D-05 MaxDP=4.41D-04 DE=-2.88D-06 OVMax= 0.00D+00

 Cycle  13  Pass 1  IDiag  1:
 E= -839.909177509338     Delta-E=       -0.000000003074 Rises=F Damp=F
 DIIS: error= 1.08D-06 at cycle  13 NSaved=  13.
 NSaved=13 IEnMin=13 EnMin= -839.909177509338     IErMin=13 ErrMin= 1.08D-06
 ErrMax= 1.08D-06  0.00D+00 EMaxC= 1.00D-01 BMatC= 1.26D-10 BMatP= 6.84D-09
 IDIUse=1 WtCom= 1.00D+00 WtEn= 0.00D+00
 Coeff-Com: -0.906D-03 0.121D-02-0.757D-03 0.323D-02-0.641D-02 0.259D-02
 Coeff-Com:  0.412D-02-0.343D-02 0.334D-02-0.231D-01 0.665D-01-0.327D+00
 Coeff-Com:  0.128D+01
 Coeff:     -0.906D-03 0.121D-02-0.757D-03 0.323D-02-0.641D-02 0.259D-02
 Coeff:      0.412D-02-0.343D-02 0.334D-02-0.231D-01 0.665D-01-0.327D+00
 Coeff:      0.128D+01
 Gap=     0.358 Goal=   None    Shift=    0.000
 Gap=     1.842 Goal=   None    Shift=    0.000
 RMSDP=1.29D-05 MaxDP=1.55D-04 DE=-3.07D-09 OVMax= 0.00D+00

 Cycle  14  Pass 1  IDiag  1:
 E= -839.909177509810     Delta-E=       -0.000000000472 Rises=F Damp=F
 DIIS: error= 4.76D-07 at cycle  14 NSaved=  14.
 NSaved=14 IEnMin=14 EnMin= -839.909177509810     IErMin=14 ErrMin= 4.76D-07
 ErrMax= 4.76D-07  0.00D+00 EMaxC= 1.00D-01 BMatC= 2.19D-11 BMatP= 1.26D-10
 IDIUse=1 WtCom= 1.00D+00 WtEn= 0.00D+00
 Coeff-Com: -0.102D-03 0.137D-03-0.414D-04-0.351D-03 0.878D-03-0.328D-03
 Coeff-Com: -0.743D-03 0.579D-03-0.718D-03 0.373D-02-0.927D-02 0.604D-01
 Coeff-Com: -0.298D+00 0.124D+01
 Coeff:     -0.102D-03 0.137D-03-0.414D-04-0.351D-03 0.878D-03-0.328D-03
 Coeff:     -0.743D-03 0.579D-03-0.718D-03 0.373D-02-0.927D-02 0.604D-01
 Coeff:     -0.298D+00 0.124D+01
 Gap=     0.358 Goal=   None    Shift=    0.000
 Gap=     1.842 Goal=   None    Shift=    0.000
 RMSDP=3.11D-07 MaxDP=3.24D-06 DE=-4.72D-10 OVMax= 0.00D+00

 Cycle  15  Pass 1  IDiag  1:
 E= -839.909177509817     Delta-E=       -0.000000000007 Rises=F Damp=F
 DIIS: error= 1.32D-07 at cycle  15 NSaved=  15.
 NSaved=15 IEnMin=15 EnMin= -839.909177509817     IErMin=15 ErrMin= 1.32D-07
 ErrMax= 1.32D-07  0.00D+00 EMaxC= 1.00D-01 BMatC= 1.76D-12 BMatP= 2.19D-11
 IDIUse=1 WtCom= 1.00D+00 WtEn= 0.00D+00
 Coeff-Com:  0.851D-05-0.114D-04 0.366D-05 0.253D-04-0.689D-04 0.337D-04
 Coeff-Com:  0.133D-04 0.151D-04 0.614D-04-0.427D-03 0.388D-03-0.440D-02
 Coeff-Com:  0.245D-01-0.125D+00 0.110D+01
 Coeff:      0.851D-05-0.114D-04 0.366D-05 0.253D-04-0.689D-04 0.337D-04
 Coeff:      0.133D-04 0.151D-04 0.614D-04-0.427D-03 0.388D-03-0.440D-02
 Coeff:      0.245D-01-0.125D+00 0.110D+01
 Gap=     0.358 Goal=   None    Shift=    0.000
 Gap=     1.842 Goal=   None    Shift=    0.000
 RMSDP=2.30D-07 MaxDP=2.53D-06 DE=-7.28D-12 OVMax= 0.00D+00

 Cycle  16  Pass 1  IDiag  1:
 E= -839.909177509817     Delta-E=        0.000000000000 Rises=F Damp=F
 DIIS: error= 1.29D-09 at cycle  16 NSaved=  16.
 NSaved=16 IEnMin=15 EnMin= -839.909177509817     IErMin=16 ErrMin= 1.29D-09
 ErrMax= 1.29D-09  0.00D+00 EMaxC= 1.00D-01 BMatC= 9.97D-17 BMatP= 1.76D-12
 IDIUse=1 WtCom= 1.00D+00 WtEn= 0.00D+00
 Large coefficients: NSaved= 16 BigCof=    0.00 CofMax=   10.00 Det=-3.31D-16
 Inversion failed.  Reducing to 15 matrices.
 Coeff-Com: -0.759D-08-0.211D-07 0.140D-05 0.329D-06-0.619D-05 0.168D-04
 Coeff-Com: -0.198D-04 0.485D-05 0.150D-04 0.109D-03-0.172D-03-0.575D-03
 Coeff-Com:  0.627D-02-0.238D+00 0.123D+01
 Coeff:     -0.759D-08-0.211D-07 0.140D-05 0.329D-06-0.619D-05 0.168D-04
 Coeff:     -0.198D-04 0.485D-05 0.150D-04 0.109D-03-0.172D-03-0.575D-03
 Coeff:      0.627D-02-0.238D+00 0.123D+01
 Gap=     0.358 Goal=   None    Shift=    0.000
 Gap=     1.842 Goal=   None    Shift=    0.000
 RMSDP=4.18D-09 MaxDP=4.50D-08 DE= 0.00D+00 OVMax= 0.00D+00

 SCF Done:  E(UHF) =  -839.909177510     A.U. after   16 cycles
            NFock= 16  Conv=0.42D-08     -V/T= 2.0037
 <Sx>= 0.0000 <Sy>= 0.0000 <Sz>= 2.5000 <S**2>= 8.7519 S= 2.5003
 <L.S>= 0.000000000000E+00
 KE= 8.367774834272D+02 PE=-1.999862861296D+03 EE= 3.167084788919D+02
 Annihilation of the first spin contaminant:
 S**2 before annihilation     8.7519,   after     8.7500
 Leave Link  502 at Mon Mar 28 12:45:49 2022, MaxMem=  9663676416 cpu:               6.2 elap:               0.2
 (Enter /nopt/nrel/apps/gaussian/g16C_1/g16/l801.exe)
 Windowed orbitals will be sorted by symmetry type.
 ExpMin= 1.16D-01 ExpMax= 1.03D+03 ExpMxC= 1.03D+03 IAcc=3 IRadAn=         5 AccDes= 0.00D+00
 HarFok:  IExCor=  205 AccDes= 0.00D+00 IRadAn=         5 IDoV=-2 UseB2=F ITyADJ=14
 ICtDFT= 12500011 ScaDFX=  1.000000  1.000000  1.000000  1.000000
 Largest valence mixing into a core orbital is  9.62D-04
 Largest core mixing into a valence orbital is  7.47D-04
 Range of M.O.s used for correlation:    10    19
 NBasis=    19 NAE=    14 NBE=     9 NFC=     9 NFV=     0
 NROrb=     10 NOA=     5 NOB=     0 NVA=     5 NVB=    10
 Leave Link  801 at Mon Mar 28 12:45:49 2022, MaxMem=  9663676416 cpu:               1.9 elap:               0.1
 (Enter /nopt/nrel/apps/gaussian/g16C_1/g16/l804.exe)
 Open-shell transformation, MDV=  9663676416 ITran=4 ISComp=2.
 Unit  1 TFree=         25012 TCopy=        222819.
 Semi-Direct transformation.
 ModeAB=           2 MOrb=             5 LenV=    9663501403
 LASXX=          328 LTotXX=         328 LenRXX=         328
 LTotAB=         622 MaxLAS=       10500 LenRXY=       10500
 NonZer=       12150 LenScr=      785920 LnRSAI=           0
 LnScr1=           0 LExtra=      223847 Total=      1020595
 MaxDsk= 34359738368 SrtSym=           F ITran=            4
 DoSDTr:  NPSUse= 36
 JobTyp=1 Pass  1:  I=   1 to   5.
 (rs|ai) integrals will be sorted in core.
 Complete sort for first half transformation.
 First half transformation complete.
 Complete sort for second half transformation.
 Second half transformation complete.
 Spin components of T(2) and E(2):
     alpha-alpha T2 =       0.1853170490D-02 E2=     -0.1607784904D-02
     alpha-beta  T2 =       0.0000000000D+00 E2=      0.0000000000D+00
     beta-beta   T2 =       0.0000000000D+00 E2=      0.0000000000D+00
 ANorm=    0.1000926156D+01
 E2 =    -0.1607784904D-02 EUMP2 =    -0.83991078529472D+03
 Leave Link  804 at Mon Mar 28 12:45:49 2022, MaxMem=  9663676416 cpu:              12.7 elap:               0.4
 (Enter /nopt/nrel/apps/gaussian/g16C_1/g16/l913.exe)
 CIDS:  MDV=  9663676416.
 Frozen-core window:  NFC=   9 NFV=   0.
 IFCWin=0 IBDFC=1 NFBD=     0     0 NFCmp=     0     0 NFFFC=     0     0
 Using original routines for 1st iteration.
 Using DD4UQ or CC4UQ for 2nd and later iterations.
 Keep R2 and R3 ints in memory in symmetry-blocked form, NReq=7415778.
 FoFCou: FMM=F IPFlag=           0 FMFlag=           0 FMFlg1=           0
         NFxFlg=           0 DoJE=F BraDBF=F KetDBF=F FulRan=T
         wScrn=  0.000000 ICntrl=       600 IOpCl=  0 I1Cent=           0 NGrid=           0
         NMat0=    1 NMatS0=    190 NMatT0=    0 NMatD0=    1 NMtDS0=    0 NMtDT0=    0
 Petite list used in FoFCou.
 CIDS: In Core Option IDoMem=           1.
 Coupled Cluster theory with single and double substitutions
 ===========================================================
 Iterations= 300 Convergence= 0.100D-06
 Produce multiple copies of IABC intergrals
 Iteration Nr.   1
 **********************
 DD1Dir will call FoFMem   1 times, MxPair=        10
 NAB=     0 NAA=    10 NBB=     0.
 MP4(R+Q)=  0.27693067D-05
 Maximum subspace dimension=  5
 A-vector RMS=  3.7444590D-03 Max=  1.9203382D-02 conv= 1.00D-05.
 RLE energy=       -0.0065334282
 E3=       -0.12149087D-02        EUMP3=      -0.83991200020D+03
 E4(DQ)=   -0.96163342D-03        UMP4(DQ)=   -0.83991296184D+03
 E4(SDQ)=  -0.96338082D-03        UMP4(SDQ)=  -0.83991296358D+03
 VARIATIONAL ENERGIES WITH THE FIRST-ORDER WAVEFUNCTION:
 DE(Corr)= -0.28199165E-02 E(Corr)=     -839.91199743    
 NORM(A)=   0.10164580D+01
 Iteration Nr.   2
 **********************
 DD1Dir will call FoFMem   1 times, MxPair=        10
 NAB=     0 NAA=    10 NBB=     0.
 A-vector RMS=  2.7245647D-03 Max=  1.4880558D-02 conv= 1.00D-05.
 RLE energy=       -0.0096475547
 DE(Corr)= -0.66902291E-02 E(CORR)=     -839.91586774     Delta=-3.87D-03
 NORM(A)=   0.10491525D+01
 Iteration Nr.   3
 **********************
 DD1Dir will call FoFMem   1 times, MxPair=        10
 NAB=     0 NAA=    10 NBB=     0.
 A-vector RMS=  2.8115581D-03 Max=  7.5920969D-03 conv= 1.00D-05.
 RLE energy=       -0.0171090959
 DE(Corr)= -0.97276365E-02 E(CORR)=     -839.91890515     Delta=-3.04D-03
 NORM(A)=   0.12100807D+01
 Iteration Nr.   4
 **********************
 DD1Dir will call FoFMem   1 times, MxPair=        10
 NAB=     0 NAA=    10 NBB=     0.
 A-vector RMS=  4.6011892D-03 Max=  1.4295919D-02 conv= 1.00D-05.
 RLE energy=       -0.0096942681
 DE(Corr)= -0.16650362E-01 E(CORR)=     -839.92582787     Delta=-6.92D-03
 NORM(A)=   0.10694283D+01
 Iteration Nr.   5
 **********************
 DD1Dir will call FoFMem   1 times, MxPair=        10
 NAB=     0 NAA=    10 NBB=     0.
 A-vector RMS=  2.4957898D-03 Max=  7.4375436D-03 conv= 1.00D-05.
 RLE energy=       -0.0015049540
 DE(Corr)= -0.10120939E-01 E(CORR)=     -839.91929845     Delta= 6.53D-03
 NORM(A)=   0.10054678D+01
 Iteration Nr.   6
 **********************
 DD1Dir will call FoFMem   1 times, MxPair=        10
 NAB=     0 NAA=    10 NBB=     0.
 A-vector RMS=  3.6706821D-03 Max=  1.9989318D-02 conv= 1.00D-05.
 RLE energy=        0.0261980046
 DE(Corr)= -0.23796457E-02 E(CORR)=     -839.91155716     Delta= 7.74D-03
 NORM(A)=   0.28773626D+01
 Iteration Nr.   7
 **********************
 DD1Dir will call FoFMem   1 times, MxPair=        10
 NAB=     0 NAA=    10 NBB=     0.
 A-vector RMS=  5.0880294D-02 Max=  1.2422732D-01 conv= 1.00D-05.
 RLE energy=       -0.0139038494
 DE(Corr)=  0.30321640E-01 E(CORR)=     -839.87885587     Delta= 3.27D-02
 NORM(A)=   0.11598625D+01
 Iteration Nr.   8
 **********************
 DD1Dir will call FoFMem   1 times, MxPair=        10
 NAB=     0 NAA=    10 NBB=     0.
 A-vector RMS=  3.9808055D-03 Max=  1.1790308D-02 conv= 1.00D-05.
 RLE energy=       -0.0293889789
 DE(Corr)= -0.13975416E-01 E(CORR)=     -839.92315293     Delta=-4.43D-02
 NORM(A)=   0.19483383D+01
 Iteration Nr.   9
 **********************
 DD1Dir will call FoFMem   1 times, MxPair=        10
 NAB=     0 NAA=    10 NBB=     0.
 A-vector RMS=  5.8061022D-03 Max=  3.3905835D-02 conv= 1.00D-05.
 RLE energy=       -0.0095193601
 DE(Corr)= -0.28380520E-01 E(CORR)=     -839.93755803     Delta=-1.44D-02
 NORM(A)=   0.10684683D+01
 Iteration Nr.  10
 **********************
 DD1Dir will call FoFMem   1 times, MxPair=        10
 NAB=     0 NAA=    10 NBB=     0.
 A-vector RMS=  2.1190389D-03 Max=  1.0547072D-02 conv= 1.00D-05.
 RLE energy=       -0.0158782237
 DE(Corr)= -0.98410385E-02 E(CORR)=     -839.91901855     Delta= 1.85D-02
 NORM(A)=   0.12808857D+01
 Iteration Nr.  11
 **********************
 DD1Dir will call FoFMem   1 times, MxPair=        10
 NAB=     0 NAA=    10 NBB=     0.
 A-vector RMS=  1.4423799D-03 Max=  3.4285048D-03 conv= 1.00D-05.
 RLE energy=        0.0388858814
 DE(Corr)= -0.15942480E-01 E(CORR)=     -839.92511999     Delta=-6.10D-03
 NORM(A)=   0.32986015D+01
 Iteration Nr.  12
 **********************
 DD1Dir will call FoFMem   1 times, MxPair=        10
 NAB=     0 NAA=    10 NBB=     0.
 A-vector RMS=  7.4209022D-02 Max=  1.8348358D-01 conv= 1.00D-05.
 RLE energy=       -0.0156558095
 DE(Corr)=  0.44748460E-01 E(CORR)=     -839.86442905     Delta= 6.07D-02
 NORM(A)=   0.12095847D+01
 Iteration Nr.  13
 **********************
 DD1Dir will call FoFMem   1 times, MxPair=        10
 NAB=     0 NAA=    10 NBB=     0.
 A-vector RMS=  4.9970178D-03 Max=  1.8328169D-02 conv= 1.00D-05.
 RLE energy=       -0.0112078283
 DE(Corr)= -0.15605198E-01 E(CORR)=     -839.92478271     Delta=-6.04D-02
 NORM(A)=   0.11418895D+01
 Iteration Nr.  14
 **********************
 DD1Dir will call FoFMem   1 times, MxPair=        10
 NAB=     0 NAA=    10 NBB=     0.
 A-vector RMS=  3.7229829D-03 Max=  1.1068955D-02 conv= 1.00D-05.
 RLE energy=        0.0374224777
 DE(Corr)= -0.11304094E-01 E(CORR)=     -839.92048160     Delta= 4.30D-03
 NORM(A)=   0.44451376D+01
 Iteration Nr.  15
 **********************
 DD1Dir will call FoFMem   1 times, MxPair=        10
 NAB=     0 NAA=    10 NBB=     0.
 A-vector RMS=  1.3625797D-01 Max=  6.0907646D-01 conv= 1.00D-05.
 RLE energy=       -0.0181985091
 DE(Corr)=  0.45657646E-01 E(CORR)=     -839.86351986     Delta= 5.70D-02
 NORM(A)=   0.16623940D+01
 Iteration Nr.  16
 **********************
 DD1Dir will call FoFMem   1 times, MxPair=        10
 NAB=     0 NAA=    10 NBB=     0.
 A-vector RMS=  3.7973397D-03 Max=  2.0557756D-02 conv= 1.00D-05.
 RLE energy=       -0.0186716389
 DE(Corr)= -0.18178664E-01 E(CORR)=     -839.92735617     Delta=-6.38D-02
 NORM(A)=   0.16850126D+01
 Iteration Nr.  17
 **********************
 DD1Dir will call FoFMem   1 times, MxPair=        10
 NAB=     0 NAA=    10 NBB=     0.
 A-vector RMS=  3.4648136D-03 Max=  1.8671629D-02 conv= 1.00D-05.
 RLE energy=       -0.0136387857
 DE(Corr)= -0.18684111E-01 E(CORR)=     -839.92786162     Delta=-5.05D-04
 NORM(A)=   0.11797161D+01
 Iteration Nr.  18
 **********************
 DD1Dir will call FoFMem   1 times, MxPair=        10
 NAB=     0 NAA=    10 NBB=     0.
 A-vector RMS=  5.0145424D-03 Max=  1.2070704D-02 conv= 1.00D-05.
 RLE energy=       -0.0139545033
 DE(Corr)= -0.13773491E-01 E(CORR)=     -839.92295100     Delta= 4.91D-03
 NORM(A)=   0.12409676D+01
 Iteration Nr.  19
 **********************
 DD1Dir will call FoFMem   1 times, MxPair=        10
 NAB=     0 NAA=    10 NBB=     0.
 A-vector RMS=  2.8576023D-03 Max=  1.2184584D-02 conv= 1.00D-05.
 RLE energy=       -0.0146673983
 DE(Corr)= -0.14089121E-01 E(CORR)=     -839.92326663     Delta=-3.16D-04
 NORM(A)=   0.12419857D+01
 Iteration Nr.  20
 **********************
 DD1Dir will call FoFMem   1 times, MxPair=        10
 NAB=     0 NAA=    10 NBB=     0.
 A-vector RMS=  2.5716376D-03 Max=  7.3647702D-03 conv= 1.00D-05.
 RLE energy=       -0.0171457136
 DE(Corr)= -0.14766499E-01 E(CORR)=     -839.92394401     Delta=-6.77D-04
 NORM(A)=   0.13074971D+01
 Iteration Nr.  21
 **********************
 DD1Dir will call FoFMem   1 times, MxPair=        10
 NAB=     0 NAA=    10 NBB=     0.
 A-vector RMS=  2.9284029D-03 Max=  9.2122479D-03 conv= 1.00D-05.
 RLE energy=       -0.0176650985
 DE(Corr)= -0.17183128E-01 E(CORR)=     -839.92636064     Delta=-2.42D-03
 NORM(A)=   0.17190899D+01
 Iteration Nr.  22
 **********************
 DD1Dir will call FoFMem   1 times, MxPair=        10
 NAB=     0 NAA=    10 NBB=     0.
 A-vector RMS=  5.3044094D-03 Max=  2.2904894D-02 conv= 1.00D-05.
 RLE energy=       -0.0180045932
 DE(Corr)= -0.17677975E-01 E(CORR)=     -839.92685549     Delta=-4.95D-04
 NORM(A)=   0.14239991D+01
 Iteration Nr.  23
 **********************
 DD1Dir will call FoFMem   1 times, MxPair=        10
 NAB=     0 NAA=    10 NBB=     0.
 A-vector RMS=  5.2039075D-04 Max=  1.7760511D-03 conv= 1.00D-05.
 RLE energy=       -0.0167165578
 DE(Corr)= -0.17972893E-01 E(CORR)=     -839.92715040     Delta=-2.95D-04
 NORM(A)=   0.13627958D+01
 Iteration Nr.  24
 **********************
 DD1Dir will call FoFMem   1 times, MxPair=        10
 NAB=     0 NAA=    10 NBB=     0.
 A-vector RMS=  9.2822766D-04 Max=  4.1416338D-03 conv= 1.00D-05.
 RLE energy=       -0.0173636630
 DE(Corr)= -0.16724952E-01 E(CORR)=     -839.92590246     Delta= 1.25D-03
 NORM(A)=   0.14066517D+01
 Iteration Nr.  25
 **********************
 DD1Dir will call FoFMem   1 times, MxPair=        10
 NAB=     0 NAA=    10 NBB=     0.
 A-vector RMS=  3.3698542D-04 Max=  2.2543709D-03 conv= 1.00D-05.
 RLE energy=       -0.0189870405
 DE(Corr)= -0.17345956E-01 E(CORR)=     -839.92652347     Delta=-6.21D-04
 NORM(A)=   0.14773156D+01
 Iteration Nr.  26
 **********************
 DD1Dir will call FoFMem   1 times, MxPair=        10
 NAB=     0 NAA=    10 NBB=     0.
 A-vector RMS=  1.7571754D-03 Max=  9.4206897D-03 conv= 1.00D-05.
 RLE energy=       -0.0177464116
 DE(Corr)= -0.18942856E-01 E(CORR)=     -839.92812037     Delta=-1.60D-03
 NORM(A)=   0.14188693D+01
 Iteration Nr.  27
 **********************
 DD1Dir will call FoFMem   1 times, MxPair=        10
 NAB=     0 NAA=    10 NBB=     0.
 A-vector RMS=  1.4809332D-04 Max=  6.5052456D-04 conv= 1.00D-05.
 RLE energy=       -0.0176470852
 DE(Corr)= -0.17744343E-01 E(CORR)=     -839.92692185     Delta= 1.20D-03
 NORM(A)=   0.14182001D+01
 Iteration Nr.  28
 **********************
 DD1Dir will call FoFMem   1 times, MxPair=        10
 NAB=     0 NAA=    10 NBB=     0.
 A-vector RMS=  1.0646335D-04 Max=  2.5098610D-04 conv= 1.00D-05.
 RLE energy=       -0.0177805298
 DE(Corr)= -0.17649945E-01 E(CORR)=     -839.92682746     Delta= 9.44D-05
 NORM(A)=   0.14275705D+01
 Iteration Nr.  29
 **********************
 DD1Dir will call FoFMem   1 times, MxPair=        10
 NAB=     0 NAA=    10 NBB=     0.
 A-vector RMS=  1.2799319D-04 Max=  2.8596607D-04 conv= 1.00D-05.
 RLE energy=       -0.0164629461
 DE(Corr)= -0.17772003E-01 E(CORR)=     -839.92694951     Delta=-1.22D-04
 NORM(A)=   0.13494408D+01
 Iteration Nr.  30
 **********************
 DD1Dir will call FoFMem   1 times, MxPair=        10
 NAB=     0 NAA=    10 NBB=     0.
 A-vector RMS=  7.8065149D-04 Max=  1.5828862D-03 conv= 1.00D-05.
 RLE energy=       -0.0177058290
 DE(Corr)= -0.16560044E-01 E(CORR)=     -839.92573755     Delta= 1.21D-03
 NORM(A)=   0.14220056D+01
 Iteration Nr.  31
 **********************
 DD1Dir will call FoFMem   1 times, MxPair=        10
 NAB=     0 NAA=    10 NBB=     0.
 A-vector RMS=  3.7417973D-05 Max=  7.0731752D-05 conv= 1.00D-05.
 RLE energy=       -0.0176401629
 DE(Corr)= -0.17701421E-01 E(CORR)=     -839.92687893     Delta=-1.14D-03
 NORM(A)=   0.14183414D+01
 Iteration Nr.  32
 **********************
 DD1Dir will call FoFMem   1 times, MxPair=        10
 NAB=     0 NAA=    10 NBB=     0.
 A-vector RMS=  1.9827069D-05 Max=  5.9213633D-05 conv= 1.00D-05.
 RLE energy=       -0.0176684506
 DE(Corr)= -0.17641953E-01 E(CORR)=     -839.92681946     Delta= 5.95D-05
 NORM(A)=   0.14202522D+01
 Iteration Nr.  33
 **********************
 DD1Dir will call FoFMem   1 times, MxPair=        10
 NAB=     0 NAA=    10 NBB=     0.
 A-vector RMS=  5.5282313D-06 Max=  1.6488936D-05 conv= 1.00D-05.
 RLE energy=       -0.0176710407
 DE(Corr)= -0.17668612E-01 E(CORR)=     -839.92684612     Delta=-2.67D-05
 NORM(A)=   0.14202670D+01
 Iteration Nr.  34
 **********************
 DD1Dir will call FoFMem   1 times, MxPair=        10
 NAB=     0 NAA=    10 NBB=     0.
 A-vector RMS=  4.5324612D-06 Max=  9.2228571D-06 conv= 1.00D-05.
 RLE energy=       -0.0176751933
 DE(Corr)= -0.17671247E-01 E(CORR)=     -839.92684876     Delta=-2.63D-06
 NORM(A)=   0.14206314D+01
 Iteration Nr.  35
 **********************
 DD1Dir will call FoFMem   1 times, MxPair=        10
 NAB=     0 NAA=    10 NBB=     0.
 A-vector RMS=  2.0133344D-06 Max=  7.6739556D-06 conv= 1.00D-05.
 RLE energy=       -0.0176823370
 DE(Corr)= -0.17675236E-01 E(CORR)=     -839.92685275     Delta=-3.99D-06
 NORM(A)=   0.14211509D+01
 Iteration Nr.  36
 **********************
 DD1Dir will call FoFMem   1 times, MxPair=        10
 NAB=     0 NAA=    10 NBB=     0.
 A-vector RMS=  4.3350538D-06 Max=  9.0874911D-06 conv= 1.00D-05.
 RLE energy=       -0.0176755943
 DE(Corr)= -0.17681922E-01 E(CORR)=     -839.92685943     Delta=-6.69D-06
 NORM(A)=   0.14206842D+01
 Iteration Nr.  37
 **********************
 DD1Dir will call FoFMem   1 times, MxPair=        10
 NAB=     0 NAA=    10 NBB=     0.
 A-vector RMS=  1.0765041D-06 Max=  2.5592743D-06 conv= 1.00D-05.
 RLE energy=       -0.0176787398
 DE(Corr)= -0.17675590E-01 E(CORR)=     -839.92685310     Delta= 6.33D-06
 NORM(A)=   0.14208988D+01
 Iteration Nr.  38
 **********************
 DD1Dir will call FoFMem   1 times, MxPair=        10
 NAB=     0 NAA=    10 NBB=     0.
 A-vector RMS=  1.4627780D-06 Max=  2.9829507D-06 conv= 1.00D-05.
 RLE energy=       -0.0176764949
 DE(Corr)= -0.17678589E-01 E(CORR)=     -839.92685610     Delta=-3.00D-06
 NORM(A)=   0.14207434D+01
 Iteration Nr.  39
 **********************
 DD1Dir will call FoFMem   1 times, MxPair=        10
 NAB=     0 NAA=    10 NBB=     0.
 A-vector RMS=  2.2527657D-07 Max=  4.8121155D-07 conv= 1.00D-05.
 RLE energy=       -0.0176766988
 DE(Corr)= -0.17676494E-01 E(CORR)=     -839.92685400     Delta= 2.09D-06
 NORM(A)=   0.14207567D+01
 Iteration Nr.  40
 **********************
 DD1Dir will call FoFMem   1 times, MxPair=        10
 NAB=     0 NAA=    10 NBB=     0.
 A-vector RMS=  1.4052745D-07 Max=  2.9588366D-07 conv= 1.00D-05.
 RLE energy=       -0.0176766046
 DE(Corr)= -0.17676697E-01 E(CORR)=     -839.92685421     Delta=-2.03D-07
 NORM(A)=   0.14207507D+01
 Iteration Nr.  41
 **********************
 DD1Dir will call FoFMem   1 times, MxPair=        10
 NAB=     0 NAA=    10 NBB=     0.
 A-vector RMS=  1.5213036D-07 Max=  4.0050096D-07 conv= 1.00D-05.
 RLE energy=       -0.0176766251
 DE(Corr)= -0.17676608E-01 E(CORR)=     -839.92685412     Delta= 8.87D-08
 NORM(A)=   0.14207545D+01
 CI/CC converged in   41 iterations to DelEn= 8.87D-08 Conv= 1.00D-07 ErrA1= 1.52D-07 Conv= 1.00D-05
 Wavefunction amplitudes converged. E(Corr)=     -839.92685412    
 Dominant configurations:
 ***********************
 Spin Case        I    J    A    B          Value
    AA           13        15           -0.219093D+00
    AA           14        16           -0.219093D+00
   AAAA          13   14   15   16      -0.397838D+00
   AAAA          12   13   17   15      -0.498722D+00
   AAAA          12   13   19   15       0.102898D+00
   AAAA          12   13   18   16      -0.346483D+00
   AAAA          12   14   17   16       0.498722D+00
   AAAA          12   14   19   16      -0.102898D+00
   AAAA          12   14   18   15       0.346483D+00
 Largest amplitude= 4.99D-01
 Discarding MO integrals.
 Leave Link  913 at Mon Mar 28 12:45:49 2022, MaxMem=  9663676416 cpu:               8.4 elap:               0.3
 (Enter /nopt/nrel/apps/gaussian/g16C_1/g16/l601.exe)
 Copying SCF densities to generalized density rwf, IOpCl= 1 IROHF=0.

 **********************************************************************

            Population analysis using the SCF Density.

 **********************************************************************

 Orbital symmetries:
 Alpha Orbitals:
       Occupied  (SG) (SG) (SG) (PI) (PI) (SG) (SG) (PI) (PI) (SG)
                 (SG) (DLTA) (PI) (PI)
       Virtual   (PI) (PI) (SG) (DLTA) (SG)
 Beta  Orbitals:
       Occupied  (SG) (SG) (SG) (PI) (PI) (SG) (SG) (PI) (PI)
       Virtual   (SG) (SG) (PI) (PI) (SG) (DLTA) (PI) (PI) (DLTA)
                 (SG)
 Unable to determine electronic state:  partially filled degenerate orbitals.
 Alpha  occ. eigenvalues -- -181.47878 -21.24737 -17.83104 -17.83000 -17.83000
 Alpha  occ. eigenvalues --   -2.89567  -1.84428  -1.84249  -1.84249  -0.54372
 Alpha  occ. eigenvalues --   -0.18766  -0.09750  -0.05960  -0.05960
 Alpha virt. eigenvalues --    0.29845   0.29845   0.30042   0.38743   0.58053
  Beta  occ. eigenvalues -- -181.47098 -21.23295 -17.82305 -17.81817 -17.81817
  Beta  occ. eigenvalues --   -2.78281  -1.73291  -1.69959  -1.69959
  Beta virt. eigenvalues --    0.14261   0.25924   0.41901   0.41901   0.42577
  Beta virt. eigenvalues --    0.48487   0.49191   0.49191   0.51166   0.79734
          Condensed to atoms (all electrons):
               1          2
     1  H    0.787042   0.054880
     2  Ti   0.054880  22.103198
          Atomic-Atomic Spin Densities.
               1          2
     1  H    0.786772   0.052862
     2  Ti   0.052862   4.107503
 Mulliken charges and spin densities:
               1          2
     1  H    0.158078   0.839634
     2  Ti  -0.158078   4.160366
 Sum of Mulliken charges =   0.00000   5.00000
 Mulliken charges and spin densities with hydrogens summed into heavy atoms:
               1          2
     2  Ti   0.000000   5.000000
 N-N= 6.467721466800D+00 E-N=-1.999862861150D+03  KE= 8.367774834272D+02
 Symmetry A1   KE= 6.601516918638D+02
 Symmetry A2   KE= 5.400440307956D-32
 Symmetry B1   KE= 8.831289578169D+01
 Symmetry B2   KE= 8.831289578169D+01
 Symmetry A1   SP= 3.000000000000D+00
 Symmetry A2   SP= 2.999519565324D-32
 Symmetry B1   SP= 1.000000000000D+00
 Symmetry B2   SP= 1.000000000000D+00

 Atomic contributions to Alpha molecular orbitals:
 Alpha occ 1 OE=-181.479 is Ti2-s=1.0000
 Alpha occ 2 OE=-21.247 is Ti2-s=0.9999
 Alpha occ 3 OE=-17.831 is Ti2-p=1.0000
 Alpha occ 4 OE=-17.830 is Ti2-p=1.0000
 Alpha occ 5 OE=-17.830 is Ti2-p=1.0000
 Alpha occ 6 OE=-2.896 is Ti2-s=0.9986
 Alpha occ 7 OE=-1.844 is Ti2-p=0.9973
 Alpha occ 8 OE=-1.842 is Ti2-p=0.9997
 Alpha occ 9 OE=-1.842 is Ti2-p=0.9997
 Alpha occ 10 OE=-0.544 is H1-s=0.7867 Ti2-s=0.1160
 Alpha occ 11 OE=-0.188 is Ti2-s=0.8259
 Alpha occ 12 OE=-0.097 is Ti2-d=1.0000
 Alpha occ 13 OE=-0.060 is Ti2-d=0.5422 Ti2-p=0.4578
 Alpha occ 14 OE=-0.060 is Ti2-d=0.5422 Ti2-p=0.4578
 Alpha vir 15 OE=0.298 is Ti2-p=0.5425 Ti2-d=0.4575
 Alpha vir 16 OE=0.298 is Ti2-p=0.5425 Ti2-d=0.4575
 Alpha vir 17 OE=0.300 is Ti2-d=0.5288 Ti2-p=0.4689
 Alpha vir 18 OE=0.387 is Ti2-d=1.0000
 Alpha vir 19 OE=0.581 is Ti2-d=0.3979 Ti2-p=0.3869 H1-s=0.1591

 Atomic contributions to Beta  molecular orbitals:
 Beta  occ 1 OE=-181.471 is Ti2-s=1.0000
 Beta  occ 2 OE=-21.233 is Ti2-s=0.9999
 Beta  occ 3 OE=-17.823 is Ti2-p=1.0000
 Beta  occ 4 OE=-17.818 is Ti2-p=1.0000
 Beta  occ 5 OE=-17.818 is Ti2-p=1.0000
 Beta  occ 6 OE=-2.783 is Ti2-s=0.9991
 Beta  occ 7 OE=-1.733 is Ti2-p=0.9996
 Beta  occ 8 OE=-1.700 is Ti2-p=0.9999
 Beta  occ 9 OE=-1.700 is Ti2-p=0.9999
 Beta  vir 10 OE=0.143 is Ti2-s=0.4881 H1-s=0.4406
 Beta  vir 11 OE=0.259 is Ti2-p=0.3983 Ti2-s=0.3720 H1-s=0.2149
 Beta  vir 12 OE=0.419 is Ti2-p=0.7052 Ti2-d=0.2948
 Beta  vir 13 OE=0.419 is Ti2-p=0.7052 Ti2-d=0.2948
 Beta  vir 14 OE=0.426 is Ti2-d=0.7234 Ti2-p=0.2122
 Beta  vir 15 OE=0.485 is Ti2-d=1.0000
 Beta  vir 16 OE=0.492 is Ti2-d=0.7052 Ti2-p=0.2948
 Beta  vir 17 OE=0.492 is Ti2-d=0.7052 Ti2-p=0.2948
 Beta  vir 18 OE=0.512 is Ti2-d=1.0000
 Beta  vir 19 OE=0.797 is Ti2-p=0.3756 H1-s=0.3423 Ti2-d=0.2048
 
 Leave Link  601 at Mon Mar 28 12:45:50 2022, MaxMem=  9663676416 cpu:               2.4 elap:               0.1
 (Enter /nopt/nrel/apps/gaussian/g16C_1/g16/l9999.exe)

 Test job not archived.
 1\1\GINC-R3I7N35\SP\UCCSD-FC\Gen\H1Ti1(6)\USER\28-Mar-2022\0\\#P C
 CSD(MaxCyc=300,SaveAmplitudes,ReadAmplitudes)/GEN sp pop=AllOrbitals i
 op(3/33=1,3/36=-1)\\test\\0,6\H,0,0.,0.,0.\Ti,0,0.,0.,1.8\\Version=ES6
 4L-G16RevC.01\HF=-839.9091775\MP2=-839.9107853\MP3=-839.9120002\MP4D=-
 839.9129646\MP4DQ=-839.9129618\MP4SDQ=-839.9129636\CCSD=-839.9268541\S
 2=8.751874\S2-1=0.\S2A=8.750001\RMSD=4.183e-09\PG=C*V [C*(H1Ti1)]\\@


 SIC AS THE CAWSE OF EWERY THING IS, SIC WILBE THE EFFECT.
 -- PROVERBS AND REASONS OF THE YEAR 1585
           AS REPRINTED IN PAISLEY MAGAZINE 1828.
 Job cpu time:       0 days  0 hours  0 minutes 51.3 seconds.
 Elapsed time:       0 days  0 hours  0 minutes  1.8 seconds.
 File lengths (MBytes):  RWF=     13 Int=      0 D2E=      0 Chk=      1 Scr=      1
 Normal termination of Gaussian 16 at Mon Mar 28 12:45:50 2022.
