 Entering Gaussian System, Link 0=g16
 Initial command:
 /nopt/nrel/apps/gaussian/g16C_1/g16/l1.exe "/lustre/eaglefs/scratch/user/qc/tih-dissc-sto3g/tih-4-ccsd-1.8-631g/Gau-264876.inp" -scrdir="/lustre/eaglefs/scratch/user/qc/tih-dissc-sto3g/tih-4-ccsd-1.8-631g/"
 Default is to use a total of  36 processors:
                               36 via shared-memory
                                1 via Linda
 Entering Link 1 = /nopt/nrel/apps/gaussian/g16C_1/g16/l1.exe PID=    264877.
  
 Copyright (c) 1988-2019, Gaussian, Inc.  All Rights Reserved.
  
 This is part of the Gaussian(R) 16 program.  It is based on
 the Gaussian(R) 09 system (copyright 2009, Gaussian, Inc.),
 the Gaussian(R) 03 system (copyright 2003, Gaussian, Inc.),
 the Gaussian(R) 98 system (copyright 1998, Gaussian, Inc.),
 the Gaussian(R) 94 system (copyright 1995, Gaussian, Inc.),
 the Gaussian 92(TM) system (copyright 1992, Gaussian, Inc.),
 the Gaussian 90(TM) system (copyright 1990, Gaussian, Inc.),
 the Gaussian 88(TM) system (copyright 1988, Gaussian, Inc.),
 the Gaussian 86(TM) system (copyright 1986, Carnegie Mellon
 University), and the Gaussian 82(TM) system (copyright 1983,
 Carnegie Mellon University). Gaussian is a federally registered
 trademark of Gaussian, Inc.
  
 This software contains proprietary and confidential information,
 including trade secrets, belonging to Gaussian, Inc.
  
 This software is provided under written license and may be
 used, copied, transmitted, or stored only in accord with that
 written license.
  
 The following legend is applicable only to US Government
 contracts under FAR:
  
                    RESTRICTED RIGHTS LEGEND
  
 Use, reproduction and disclosure by the US Government is
 subject to restrictions as set forth in subparagraphs (a)
 and (c) of the Commercial Computer Software - Restricted
 Rights clause in FAR 52.227-19.
  
 Gaussian, Inc.
 340 Quinnipiac St., Bldg. 40, Wallingford CT 06492
  
  
 ---------------------------------------------------------------
 Warning -- This program may not be used in any manner that
 competes with the business of Gaussian, Inc. or will provide
 assistance to any competitor of Gaussian, Inc.  The licensee
 of this program is prohibited from giving any competitor of
 Gaussian, Inc. access to this program.  By using this program,
 the user acknowledges that Gaussian, Inc. is engaged in the
 business of creating and licensing software in the field of
 computational chemistry and represents and warrants to the
 licensee that it is not a competitor of Gaussian, Inc. and that
 it will not use this program in any manner prohibited above.
 ---------------------------------------------------------------
  

 Cite this work as:
 Gaussian 16, Revision C.01,
 M. J. Frisch, G. W. Trucks, H. B. Schlegel, G. E. Scuseria, 
 M. A. Robb, J. R. Cheeseman, G. Scalmani, V. Barone, 
 G. A. Petersson, H. Nakatsuji, X. Li, M. Caricato, A. V. Marenich, 
 J. Bloino, B. G. Janesko, R. Gomperts, B. Mennucci, H. P. Hratchian, 
 J. V. Ortiz, A. F. Izmaylov, J. L. Sonnenberg, D. Williams-Young, 
 F. Ding, F. Lipparini, F. Egidi, J. Goings, B. Peng, A. Petrone, 
 T. Henderson, D. Ranasinghe, V. G. Zakrzewski, J. Gao, N. Rega, 
 G. Zheng, W. Liang, M. Hada, M. Ehara, K. Toyota, R. Fukuda, 
 J. Hasegawa, M. Ishida, T. Nakajima, Y. Honda, O. Kitao, H. Nakai, 
 T. Vreven, K. Throssell, J. A. Montgomery, Jr., J. E. Peralta, 
 F. Ogliaro, M. J. Bearpark, J. J. Heyd, E. N. Brothers, K. N. Kudin, 
 V. N. Staroverov, T. A. Keith, R. Kobayashi, J. Normand, 
 K. Raghavachari, A. P. Rendell, J. C. Burant, S. S. Iyengar, 
 J. Tomasi, M. Cossi, J. M. Millam, M. Klene, C. Adamo, R. Cammi, 
 J. W. Ochterski, R. L. Martin, K. Morokuma, O. Farkas, 
 J. B. Foresman, and D. J. Fox, Gaussian, Inc., Wallingford CT, 2019.
 
 ******************************************
 Gaussian 16:  ES64L-G16RevC.01  3-Jul-2019
                25-Mar-2022 
 ******************************************
 %chk=molecule
 Default route: CacheSize=180224 MaxDisk=256GB
 --------------------------------------------------------------
 #P CCSD(MaxCyc=200)/GEN sp pop=AllOrbitals iop(3/33=1,3/36=-1)
 --------------------------------------------------------------
 1/4=180224,38=1,172=1/1;
 2/4=180224,12=2,17=6,18=5,40=1/2;
 3/4=180224,5=7,11=9,25=1,30=1,33=1,36=-1/1,2,3;
 4/4=180224/1;
 5/4=180224,5=2,38=5/2;
 8/4=180224,6=4,9=120000,10=1/1,4;
 9/4=180224,5=7,6=200/13;
 6/4=180224,7=2,8=2,9=2,10=2,96=-1/1;
 99/4=180224,5=1,9=1/99;
 Leave Link    1 at Fri Mar 25 15:01:34 2022, MaxMem=           0 cpu:               2.5 elap:               0.1
 (Enter /nopt/nrel/apps/gaussian/g16C_1/g16/l101.exe)
 ----
 test
 ----
 Symbolic Z-matrix:
 Charge =  0 Multiplicity = 4
 H                     0.        0.        0. 
 Ti                    0.        0.        1.8 
 
 ITRead=  0  0
 MicOpt= -1 -1
 NAtoms=      2 NQM=        2 NQMF=       0 NMMI=      0 NMMIF=      0
                NMic=       0 NMicF=      0.
                    Isotopes and Nuclear Properties:
 (Nuclear quadrupole moments (NQMom) in fm**2, nuclear magnetic moments (NMagM)
  in nuclear magnetons)

  Atom         1           2
 IAtWgt=           1          48
 AtmWgt=   1.0078250  47.9479467
 NucSpn=           1           0
 AtZEff=  -0.0000000  -0.0000000
 NQMom=    0.0000000   0.0000000
 NMagM=    2.7928460   0.0000000
 AtZNuc=   1.0000000  22.0000000
 Leave Link  101 at Fri Mar 25 15:01:34 2022, MaxMem=  9663676416 cpu:               3.0 elap:               0.1
 (Enter /nopt/nrel/apps/gaussian/g16C_1/g16/l202.exe)
                          Input orientation:                          
 ---------------------------------------------------------------------
 Center     Atomic      Atomic             Coordinates (Angstroms)
 Number     Number       Type             X           Y           Z
 ---------------------------------------------------------------------
      1          1           0        0.000000    0.000000    0.000000
      2         22           0        0.000000    0.000000    1.800000
 ---------------------------------------------------------------------
 Stoichiometry    HTi(4)
 Framework group  C*V[C*(HTi)]
 Deg. of freedom     1
 Full point group                 C*V     NOp   4
 Largest Abelian subgroup         C2V     NOp   4
 Largest concise Abelian subgroup C1      NOp   1
                         Standard orientation:                         
 ---------------------------------------------------------------------
 Center     Atomic      Atomic             Coordinates (Angstroms)
 Number     Number       Type             X           Y           Z
 ---------------------------------------------------------------------
      1          1           0        0.000000    0.000000   -1.721739
      2         22           0        0.000000    0.000000    0.078261
 ---------------------------------------------------------------------
 Rotational constants (GHZ):           0.0000000         158.0232296         158.0232296
 Leave Link  202 at Fri Mar 25 15:01:34 2022, MaxMem=  9663676416 cpu:               0.9 elap:               0.0
 (Enter /nopt/nrel/apps/gaussian/g16C_1/g16/l301.exe)
 General basis read from cards:  (5D, 7F)
                         Coordinates in L301:                         
 ---------------------------------------------------------------------
 Center     Atomic      Atomic             Coordinates (Angstroms)
 Number     Number       Type             X           Y           Z
 ---------------------------------------------------------------------
      1          1           0        0.000000    0.000000   -1.721739
      2         22           0        0.000000    0.000000    0.078261
 ---------------------------------------------------------------------
 Centers:       1
 STO-3G
 ****
 Centers:       2
 6-31G
 ****
 FixB: optimizing general contractions.
 Ernie: Thresh=  0.10000D-02 Tol=  0.10000D-05 Strict=F.
 IA=     1 ShT= 0 ShC= 0 NL=   1 NS=   0.
 IA=     1 L=0 SC=0 ISt=    0 NBk=    0 NP=    0 IndPr=    0.
 IA=     2 ShT= 0 ShC= 0 NL=   1 NS=   0.
 IA=     2 L=0 SC=0 ISt=    0 NBk=    0 NP=    0 IndPr=    0.
 IA=     2 ShT= 1 ShC= 0 NL=   4 NS=   1.
 IA=     2 L=1 SC=0 ISt=    1 NBk=    3 NP=   15 IndPr=    0.
 DoElim1:  L=1 select primitive    1 from    2 using    1 C= 2.43D-03
 DoElim1:  L=1 select primitive    1 from    3 using    1 C= 2.43D-03
 DoElim1:  L=1 select primitive    4 from    3 using    2 C=-2.94D-03
 DoElim2:  L=1 select primitive   15 from    2 using    3 C=-1.16D+00
 DoElim2:  L=1 select primitive   15 from    1 using    3 C=-1.16D+00
 DoElim2:  L=1 select primitive   12 from    1 using    2 C=-7.43D-01
 DoElim1:  L=1 select primitive    1 from    2 using    1 C= 4.02D-03
 DoElim1:  L=1 select primitive    1 from    3 using    1 C= 4.02D-03
 DoElim1:  L=1 select primitive    4 from    3 using    2 C=-6.31D-03
 DoElim2:  L=1 select primitive   15 from    2 using    3 C= 9.90D-01
 DoElim2:  L=1 select primitive   15 from    1 using    3 C= 9.90D-01
 DoElim2:  L=1 select primitive   12 from    1 using    2 C= 5.13D-01
 Delete L=1 primitive   14 from    3 C=  0.00D+00.
 Delete L=1 primitive   12 from    3 C=  0.00D+00.
 Delete L=1 primitive   10 from    3 C=  0.00D+00.
 Delete L=1 primitive    9 from    3 C=  0.00D+00.
 Delete L=1 primitive    8 from    3 C=  0.00D+00.
 Delete L=1 primitive    7 from    3 C=  0.00D+00.
 Delete L=1 primitive    6 from    3 C=  0.00D+00.
 Delete L=1 primitive    5 from    3 C=  0.00D+00.
 Delete L=1 primitive    4 from    3 C=  0.00D+00.
 Delete L=1 primitive    3 from    3 C=  0.00D+00.
 Delete L=1 primitive    2 from    3 C=  0.00D+00.
 Delete L=1 primitive    1 from    3 C=  0.00D+00.
 Delete L=1 primitive   15 from    2 C=  0.00D+00.
 Delete L=1 primitive   13 from    2 C=  0.00D+00.
 Delete L=1 primitive   11 from    2 C=  0.00D+00.
 Delete L=1 primitive    9 from    2 C=  0.00D+00.
 Delete L=1 primitive    7 from    2 C=  0.00D+00.
 Delete L=1 primitive    5 from    2 C=  0.00D+00.
 Delete L=1 primitive    3 from    2 C=  0.00D+00.
 Delete L=1 primitive    2 from    2 C=  0.00D+00.
 Delete L=1 primitive    1 from    2 C=  0.00D+00.
 Delete L=1 primitive   15 from    1 C=  0.00D+00.
 Delete L=1 primitive   14 from    1 C=  0.00D+00.
 Delete L=1 primitive   13 from    1 C=  0.00D+00.
 Delete L=1 primitive   12 from    1 C=  0.00D+00.
 Delete L=1 primitive   11 from    1 C=  0.00D+00.
 Delete L=1 primitive   10 from    1 C=  0.00D+00.
 Delete L=1 primitive    8 from    1 C=  0.00D+00.
 Delete L=1 primitive    6 from    1 C=  0.00D+00.
 Delete L=1 primitive    4 from    1 C=  0.00D+00.
 IA=     2 L=1 SC=0 ISt=    0 NBk=    0 NP=    0 IndPr=   15.
 IA=     2 ShT= 2 ShC= 2 NL=   2 NS=   1.
 IA=     2 L=2 SC=2 ISt=    0 NBk=    0 NP=    0 IndPr=    0.
 LdAtmC:  AtmChg=     1.000000    22.000000
 AtZEff=     -1.0000000    -23.9800000
 NEqShl: 
              1            2            3            4
     1            1            1            1            1
     2            2            2            2            2
     3            3            3            3            3
     4            4            4            4            4
     5            5            5            5            5
     6            6            6            6            6
     7            7            7            7            7
     8            8            8            8            8
 NEqBas: 
              1            2            3            4
     1            1            1            1            1
     2            2            2            2            2
     3            3            3            3            3
     4            4           -4           -4            4
     5            5           -5            5           -5
     6            6            6            6            6
     7            7            7            7            7
     8            8           -8           -8            8
     9            9           -9            9           -9
    10           10           10           10           10
    11           11           11           11           11
    12           12          -12          -12           12
    13           13          -13           13          -13
    14           14           14           14           14
    15           15           15           15           15
    16           16          -16          -16           16
    17           17          -17           17          -17
    18           18           18           18           18
    19           19           19           19           19
    20           20           20           20           20
    21           21           21           21           21
    22           22           22          -22          -22
    23           23          -23          -23           23
    24           24          -24           24          -24
    25           25           25           25           25
    26           26           26           26           26
    27           27           27           27           27
    28           28           28          -28          -28
    29           29          -29          -29           29
    30           30          -30           30          -30
 There are    16 symmetry adapted cartesian basis functions of A1  symmetry.
   1         1   1   1   1
   2         2   2   2   2
   3         3   3   3   3
   4         6   6   6   6
   5         7   7   7   7
   6        10  10  10  10
   7        11  11  11  11
   8        14  14  14  14
   9        15  15  15  15
  10        18  18  18  18
  11        19  19  19  19
  12        20  20  20  20
  13        21  21  21  21
  14        25  25  25  25
  15        26  26  26  26
  16        27  27  27  27
 There are     2 symmetry adapted cartesian basis functions of A2  symmetry.
  17        22  22  22  22
  18        28  28  28  28
 There are     6 symmetry adapted cartesian basis functions of B1  symmetry.
  19         4   4   4   4
  20         8   8   8   8
  21        12  12  12  12
  22        16  16  16  16
  23        23  23  23  23
  24        29  29  29  29
 There are     6 symmetry adapted cartesian basis functions of B2  symmetry.
  25         5   5   5   5
  26         9   9   9   9
  27        13  13  13  13
  28        17  17  17  17
  29        24  24  24  24
  30        30  30  30  30
 Order= 1 2 4 3
 Reordered character table:
              1            2            3            4            5
     1            1            1            1            1            1
     2            2            1            1           -1           -1
     3            4            1           -1           -1            1
     4            3            1           -1            1           -1
 NEqShl: 
              1            2            3            4
     1            1            1            1            1
     2            2            2            2            2
     3            3            3            3            3
     4            4            4            4            4
     5            5            5            5            5
     6            6            6            6            6
     7            7            7            7            7
     8            8            8            8            8
 NEqBas: 
              1            2            3            4
     1            1            1            1            1
     2            2            2            2            2
     3            3            3            3            3
     4            4           -4           -4            4
     5            5           -5            5           -5
     6            6            6            6            6
     7            7            7            7            7
     8            8           -8           -8            8
     9            9           -9            9           -9
    10           10           10           10           10
    11           11           11           11           11
    12           12          -12          -12           12
    13           13          -13           13          -13
    14           14           14           14           14
    15           15           15           15           15
    16           16          -16          -16           16
    17           17          -17           17          -17
    18           18           18           18           18
    19           19           19           19           19
    20           20          -20          -20           20
    21           21          -21           21          -21
    22           22           22           22           22
    23           23           23          -23          -23
    24           24           24           24           24
    25           25          -25          -25           25
    26           26          -26           26          -26
    27           27           27           27           27
    28           28           28          -28          -28
 There are    14 symmetry adapted basis functions of A1  symmetry.
   1         1   1   1   1
   2         2   2   2   2
   3         3   3   3   3
   4         6   6   6   6
   5         7   7   7   7
   6        10  10  10  10
   7        11  11  11  11
   8        14  14  14  14
   9        15  15  15  15
  10        18  18  18  18
  11        19  19  19  19
  12        22  22  22  22
  13        24  24  24  24
  14        27  27  27  27
 There are     2 symmetry adapted basis functions of A2  symmetry.
  15        23  23  23  23
  16        28  28  28  28
 There are     6 symmetry adapted basis functions of B1  symmetry.
  17         4   4   4   4
  18         8   8   8   8
  19        12  12  12  12
  20        16  16  16  16
  21        20  20  20  20
  22        25  25  25  25
 There are     6 symmetry adapted basis functions of B2  symmetry.
  23         5   5   5   5
  24         9   9   9   9
  25        13  13  13  13
  26        17  17  17  17
  27        21  21  21  21
  28        26  26  26  26
 Order= 1 2 4 3
 Reordered character table:
              1            2            3            4            5
     1            1            1            1            1            1
     2            2            1            1           -1           -1
     3            4            1           -1           -1            1
     4            3            1           -1            1           -1
    28 basis functions,    97 primitive gaussians,    30 cartesian basis functions
    13 alpha electrons       10 beta electrons
       nuclear repulsion energy         6.4677214668 Hartrees.
 IS=     1 IAt=     1 ISR=     1 T=0 IP=      1 IndIP=      1 IndIPD=      0 C=  2.769344D-01  0.000000D+00                             NZ=T
 IS=     1 IAt=     1 ISR=     1 T=0 IP=      2 IndIP=      2 IndIPD=      1 C=  2.678389D-01  0.000000D+00                             NZ=T
 IS=     1 IAt=     1 ISR=     1 T=0 IP=      3 IndIP=      3 IndIPD=      2 C=  8.347367D-02  0.000000D+00                             NZ=T
 IS=     2 IAt=     2 ISR=     1 T=0 IP=      1 IndIP=      4 IndIPD=      0 C=  3.823622D+00  0.000000D+00                             NZ=T
 IS=     2 IAt=     2 ISR=     1 T=0 IP=      2 IndIP=      5 IndIPD=      1 C=  7.063955D+00  0.000000D+00                             NZ=T
 IS=     2 IAt=     2 ISR=     1 T=0 IP=      3 IndIP=      6 IndIPD=      2 C=  1.147576D+01  0.000000D+00                             NZ=T
 IS=     2 IAt=     2 ISR=     1 T=0 IP=      4 IndIP=      7 IndIPD=      3 C=  1.533813D+01  0.000000D+00                             NZ=T
 IS=     2 IAt=     2 ISR=     1 T=0 IP=      5 IndIP=      8 IndIPD=      4 C=  1.342790D+01  0.000000D+00                             NZ=T
 IS=     2 IAt=     2 ISR=     1 T=0 IP=      6 IndIP=      9 IndIPD=      5 C=  4.306715D+00  0.000000D+00                             NZ=T
 IS=     3 IAt=     2 ISR=     2 T=1 IP=      1 IndIP=     10 IndIPD=      0 C=  2.786662D-01  2.724134D+01                             NZ=T
 IS=     3 IAt=     2 ISR=     2 T=1 IP=      2 IndIP=     11 IndIPD=      1 C=  1.261924D+00  3.505718D+01                             NZ=T
 IS=     3 IAt=     2 ISR=     2 T=1 IP=      3 IndIP=     12 IndIPD=      2 C=  2.071008D+00  3.677821D+01                             NZ=T
 IS=     3 IAt=     2 ISR=     2 T=1 IP=      4 IndIP=     13 IndIPD=      3 C= -3.098929D-01  2.717167D+01                             NZ=T
 IS=     3 IAt=     2 ISR=     2 T=1 IP=      5 IndIP=     14 IndIPD=      4 C= -2.467696D+00  1.167904D+01                             NZ=T
 IS=     3 IAt=     2 ISR=     2 T=1 IP=      6 IndIP=     15 IndIPD=      5 C= -9.124724D-01  1.772051D+00                             NZ=T
 IS=     4 IAt=     2 ISR=     3 T=1 IP=      1 IndIP=     16 IndIPD=      0 C= -2.927436D-02 -7.289697D-01                             NZ=T
 IS=     4 IAt=     2 ISR=     3 T=1 IP=      2 IndIP=     17 IndIPD=      1 C=  3.057403D-01 -7.594388D-01                             NZ=T
 IS=     4 IAt=     2 ISR=     3 T=1 IP=      3 IndIP=     18 IndIPD=      2 C=  5.687287D-01  5.144727D-01                             NZ=T
 IS=     4 IAt=     2 ISR=     3 T=1 IP=      4 IndIP=     19 IndIPD=      3 C= -3.488887D-01  1.263214D+00                             NZ=T
 IS=     4 IAt=     2 ISR=     3 T=1 IP=      5 IndIP=     20 IndIPD=      4 C= -4.520346D-01  5.611750D-01                             NZ=T
 IS=     4 IAt=     2 ISR=     3 T=1 IP=      6 IndIP=     21 IndIPD=      5 C= -5.626677D-02  6.224893D-02                             NZ=T
 IS=     5 IAt=     2 ISR=     4 T=1 IP=      1 IndIP=     22 IndIPD=      0 C=  5.268162D-02 -3.876509D-01                             NZ=T
 IS=     5 IAt=     2 ISR=     4 T=1 IP=      2 IndIP=     23 IndIPD=      1 C=  1.303842D-01  4.475323D-02                             NZ=T
 IS=     5 IAt=     2 ISR=     4 T=1 IP=      3 IndIP=     24 IndIPD=      2 C= -1.293957D-01  6.389489D-02                             NZ=T
 IS=     6 IAt=     2 ISR=     5 T=1 IP=      1 IndIP=     25 IndIPD=      0 C=  5.396831D-02  1.931915D-02                             NZ=T
 IS=     7 IAt=     2 ISR=     6 T=2 IP=      1 IndIP=     26 IndIPD=      1 C=  0.000000D+00  0.000000D+00  1.377610D+01  0.000000D+00 NZ=T
 IS=     7 IAt=     2 ISR=     6 T=2 IP=      2 IndIP=     27 IndIPD=      2 C=  0.000000D+00  0.000000D+00  5.615749D+00  0.000000D+00 NZ=T
 IS=     7 IAt=     2 ISR=     6 T=2 IP=      3 IndIP=     28 IndIPD=      3 C=  0.000000D+00  0.000000D+00  1.263348D+00  0.000000D+00 NZ=T
 IS=     8 IAt=     2 ISR=     7 T=2 IP=      1 IndIP=     29 IndIPD=      4 C=  0.000000D+00  0.000000D+00  1.851834D-01  0.000000D+00 NZ=T
 IExCor=    0 DFT=F Ex=HF Corr=None ExCW=0 ScaHFX=  1.000000
 ScaDFX=  1.000000  1.000000  1.000000  1.000000 ScalE2=  1.000000  1.000000
 IRadAn=      5 IRanWt=     -1 IRanGd=            0 ICorTp=0 IEmpDi=  4
 NAtoms=    2 NActive=    2 NUniq=    2 SFac= 1.00D+00 NAtFMM=   60 NAOKFM=F Big=F
 Integral buffers will be    131072 words long.
 Raffenetti 2 integral format.
 Two-electron integral symmetry is turned on.
 Leave Link  301 at Fri Mar 25 15:01:35 2022, MaxMem=  9663676416 cpu:               2.1 elap:               0.1
 (Enter /nopt/nrel/apps/gaussian/g16C_1/g16/l302.exe)
 NPDir=0 NMtPBC=     1 NCelOv=     1 NCel=       1 NClECP=     1 NCelD=      1
         NCelK=      1 NCelE2=     1 NClLst=     1 CellRange=     0.0.
 One-electron integrals computed using PRISM.
 One-electron integral symmetry used in STVInt
 Entering OneElI...
 Calculate overlap and kinetic energy integrals
    NBasis =  28  MinDer = 0  MaxDer = 0
 Requested accuracy = 0.1000D-12
 Symmetry will be used
 PrmmSu-InSpLW:  IPartL=    0 NPrtUS=   36 NPrtUL=    1 DoSpLW=F IThBeg=    0 IThEnd=   35 NThAct=   36.
 PrSmSu:  IncTry=   512 NBBP=             36 NTPThr=   100 NPartT=   36 Incr=           1 LDynOK=F GPUOK=F.
 PrsmSu:  NPrtUS=  36 ThrOK=T IAlg=1 LenDen=           0 ISkipM=0 DoSpLW=F IThBeg=    0 IThEnd=   35.
 Prism:   IPart=     0 DynPar=F LinDyn=F Incr=           1.
 PRISM was handed   268429120 working-precision words and    36 shell-pairs
 PRISM was handed   268429120 working-precision words and    36 shell-pairs
 PRISM was handed   268429120 working-precision words and    36 shell-pairs
 PRISM was handed   268429120 working-precision words and    36 shell-pairs
 PRISM was handed   268429120 working-precision words and    36 shell-pairs
 PRISM was handed   268429120 working-precision words and    36 shell-pairs
 PRISM was handed   268429120 working-precision words and    36 shell-pairs
 PRISM was handed   268429120 working-precision words and    36 shell-pairs
 PRISM was handed   268429120 working-precision words and    36 shell-pairs
 PRISM was handed   268429120 working-precision words and    36 shell-pairs
 PRISM was handed   268429120 working-precision words and    36 shell-pairs
 PRISM was handed   268429120 working-precision words and    36 shell-pairs
 IPart= 27 NShTot=           0 NBatch=           0 AvBLen=         0.0
 IPart= 16 NShTot=           0 NBatch=           0 AvBLen=         0.0
 IPart= 20 NShTot=           0 NBatch=           0 AvBLen=         0.0
 IPart=  9 NShTot=           0 NBatch=           0 AvBLen=         0.0
 IPart= 33 NShTot=           0 NBatch=           0 AvBLen=         0.0
 IPart= 32 NShTot=           0 NBatch=           0 AvBLen=         0.0
 IPart= 23 NShTot=           0 NBatch=           0 AvBLen=         0.0
 IPart= 31 NShTot=           0 NBatch=           0 AvBLen=         0.0
 PRISM was handed   268429120 working-precision words and    36 shell-pairs
 PRISM was handed   268429120 working-precision words and    36 shell-pairs
 IPart= 21 NShTot=           0 NBatch=           0 AvBLen=         0.0
 PRISM was handed   268429120 working-precision words and    36 shell-pairs
 IPart=  2 NShTot=           2 NBatch=           2 AvBLen=         1.0
 PRISM was handed   268429120 working-precision words and    36 shell-pairs
 PRISM was handed   268429120 working-precision words and    36 shell-pairs
 IPart= 24 NShTot=           0 NBatch=           0 AvBLen=         0.0
 IPart=  1 NShTot=           8 NBatch=           8 AvBLen=         1.0
 IPart=  6 NShTot=           0 NBatch=           0 AvBLen=         0.0
 IPart=  0 NShTot=          26 NBatch=          26 AvBLen=         1.0
 PRISM was handed   268429120 working-precision words and    36 shell-pairs
 IPart= 10 NShTot=           0 NBatch=           0 AvBLen=         0.0
 IPart= 25 NShTot=           0 NBatch=           0 AvBLen=         0.0
 IPart= 17 NShTot=           0 NBatch=           0 AvBLen=         0.0
 PRISM was handed   268429120 working-precision words and    36 shell-pairs
 PRISM was handed   268429120 working-precision words and    36 shell-pairs
 PRISM was handed   268429120 working-precision words and    36 shell-pairs
 PRISM was handed   268429120 working-precision words and    36 shell-pairs
 IPart= 30 NShTot=           0 NBatch=           0 AvBLen=         0.0
 PRISM was handed   268429120 working-precision words and    36 shell-pairs
 IPart= 29 NShTot=           0 NBatch=           0 AvBLen=         0.0
 IPart=  5 NShTot=           0 NBatch=           0 AvBLen=         0.0
 IPart= 26 NShTot=           0 NBatch=           0 AvBLen=         0.0
 IPart= 13 NShTot=           0 NBatch=           0 AvBLen=         0.0
 PRISM was handed   268429120 working-precision words and    36 shell-pairs
 PRISM was handed   268429120 working-precision words and    36 shell-pairs
 PRISM was handed   268429120 working-precision words and    36 shell-pairs
 PRISM was handed   268429120 working-precision words and    36 shell-pairs
 PRISM was handed   268429120 working-precision words and    36 shell-pairs
 PRISM was handed   268429120 working-precision words and    36 shell-pairs
 PRISM was handed   268429120 working-precision words and    36 shell-pairs
 PRISM was handed   268429120 working-precision words and    36 shell-pairs
 PRISM was handed   268429120 working-precision words and    36 shell-pairs
 PRISM was handed   268429120 working-precision words and    36 shell-pairs
 PRISM was handed   268429120 working-precision words and    36 shell-pairs
 PRISM was handed   268429120 working-precision words and    36 shell-pairs
 PRISM was handed   268429120 working-precision words and    36 shell-pairs
 IPart=  4 NShTot=           0 NBatch=           0 AvBLen=         0.0
 IPart=  3 NShTot=           0 NBatch=           0 AvBLen=         0.0
 IPart= 15 NShTot=           0 NBatch=           0 AvBLen=         0.0
 IPart=  8 NShTot=           0 NBatch=           0 AvBLen=         0.0
 IPart= 18 NShTot=           0 NBatch=           0 AvBLen=         0.0
 IPart= 28 NShTot=           0 NBatch=           0 AvBLen=         0.0
 IPart= 19 NShTot=           0 NBatch=           0 AvBLen=         0.0
 IPart= 34 NShTot=           0 NBatch=           0 AvBLen=         0.0
 IPart=  7 NShTot=           0 NBatch=           0 AvBLen=         0.0
 IPart= 11 NShTot=           0 NBatch=           0 AvBLen=         0.0
 IPart= 35 NShTot=           0 NBatch=           0 AvBLen=         0.0
 IPart= 22 NShTot=           0 NBatch=           0 AvBLen=         0.0
 IPart= 14 NShTot=           0 NBatch=           0 AvBLen=         0.0
 IPart= 12 NShTot=           0 NBatch=           0 AvBLen=         0.0
 PrSmSu:  NxtVal=             37.
 *** Overlap *** 
                1             2             3             4             5 
      1  0.100000D+01
      2  0.167247D-02  0.100000D+01
      3 -0.129290D-01 -0.274497D+00  0.100000D+01
      4  0.000000D+00  0.000000D+00  0.000000D+00  0.100000D+01
      5  0.000000D+00  0.000000D+00  0.000000D+00  0.000000D+00  0.100000D+01
      6 -0.409913D-02  0.000000D+00  0.000000D+00  0.000000D+00  0.000000D+00
      7 -0.841062D-01 -0.126254D-01  0.358999D+00  0.000000D+00  0.000000D+00
      8  0.000000D+00  0.000000D+00  0.000000D+00  0.323756D+00  0.000000D+00
      9  0.000000D+00  0.000000D+00  0.000000D+00  0.000000D+00  0.323756D+00
     10 -0.102936D+00  0.000000D+00  0.000000D+00  0.000000D+00  0.000000D+00
     11 -0.358878D+00  0.708216D-02 -0.284985D-01  0.000000D+00  0.000000D+00
     12  0.000000D+00  0.000000D+00  0.000000D+00 -0.418224D-01  0.000000D+00
     13  0.000000D+00  0.000000D+00  0.000000D+00  0.000000D+00 -0.418224D-01
     14 -0.502192D+00  0.000000D+00  0.000000D+00  0.000000D+00  0.000000D+00
     15  0.319475D+00  0.748293D-02 -0.560115D-01  0.000000D+00  0.000000D+00
     16  0.000000D+00  0.000000D+00  0.000000D+00  0.532285D-02  0.000000D+00
     17  0.000000D+00  0.000000D+00  0.000000D+00  0.000000D+00  0.532285D-02
     18 -0.342958D+00  0.000000D+00  0.000000D+00  0.000000D+00  0.000000D+00
     19  0.363388D-01  0.000000D+00  0.000000D+00  0.000000D+00  0.000000D+00
     20  0.000000D+00  0.000000D+00  0.000000D+00  0.000000D+00  0.000000D+00
     21  0.000000D+00  0.000000D+00  0.000000D+00  0.000000D+00  0.000000D+00
     22  0.000000D+00  0.000000D+00  0.000000D+00  0.000000D+00  0.000000D+00
     23  0.000000D+00  0.000000D+00  0.000000D+00  0.000000D+00  0.000000D+00
     24  0.325608D+00  0.000000D+00  0.000000D+00  0.000000D+00  0.000000D+00
     25  0.000000D+00  0.000000D+00  0.000000D+00  0.000000D+00  0.000000D+00
     26  0.000000D+00  0.000000D+00  0.000000D+00  0.000000D+00  0.000000D+00
     27  0.000000D+00  0.000000D+00  0.000000D+00  0.000000D+00  0.000000D+00
     28  0.000000D+00  0.000000D+00  0.000000D+00  0.000000D+00  0.000000D+00
                6             7             8             9            10 
      6  0.100000D+01
      7  0.000000D+00  0.100000D+01
      8  0.000000D+00  0.000000D+00  0.100000D+01
      9  0.000000D+00  0.000000D+00  0.000000D+00  0.100000D+01
     10  0.323756D+00  0.000000D+00  0.000000D+00  0.000000D+00  0.100000D+01
     11  0.000000D+00  0.220325D+00  0.000000D+00  0.000000D+00  0.000000D+00
     12  0.000000D+00  0.000000D+00  0.139925D+00  0.000000D+00  0.000000D+00
     13  0.000000D+00  0.000000D+00  0.000000D+00  0.139925D+00  0.000000D+00
     14 -0.418224D-01  0.000000D+00  0.000000D+00  0.000000D+00  0.139925D+00
     15  0.000000D+00 -0.274846D+00  0.000000D+00  0.000000D+00  0.000000D+00
     16  0.000000D+00  0.000000D+00  0.104615D+00  0.000000D+00  0.000000D+00
     17  0.000000D+00  0.000000D+00  0.000000D+00  0.104615D+00  0.000000D+00
     18  0.532285D-02  0.000000D+00  0.000000D+00  0.000000D+00  0.104615D+00
     19  0.000000D+00  0.000000D+00  0.000000D+00  0.000000D+00  0.000000D+00
     20  0.000000D+00  0.000000D+00  0.000000D+00  0.000000D+00  0.000000D+00
     21  0.000000D+00  0.000000D+00  0.000000D+00  0.000000D+00  0.000000D+00
     22  0.000000D+00  0.000000D+00  0.000000D+00  0.000000D+00  0.000000D+00
     23  0.000000D+00  0.000000D+00  0.000000D+00  0.000000D+00  0.000000D+00
     24  0.000000D+00  0.000000D+00  0.000000D+00  0.000000D+00  0.000000D+00
     25  0.000000D+00  0.000000D+00  0.000000D+00  0.000000D+00  0.000000D+00
     26  0.000000D+00  0.000000D+00  0.000000D+00  0.000000D+00  0.000000D+00
     27  0.000000D+00  0.000000D+00  0.000000D+00  0.000000D+00  0.000000D+00
     28  0.000000D+00  0.000000D+00  0.000000D+00  0.000000D+00  0.000000D+00
               11            12            13            14            15 
     11  0.100000D+01
     12  0.000000D+00  0.100000D+01
     13  0.000000D+00  0.000000D+00  0.100000D+01
     14  0.000000D+00  0.000000D+00  0.000000D+00  0.100000D+01
     15 -0.865690D+00  0.000000D+00  0.000000D+00  0.000000D+00  0.100000D+01
     16  0.000000D+00  0.748550D+00  0.000000D+00  0.000000D+00  0.000000D+00
     17  0.000000D+00  0.000000D+00  0.748550D+00  0.000000D+00  0.000000D+00
     18  0.000000D+00  0.000000D+00  0.000000D+00  0.748550D+00  0.000000D+00
     19  0.000000D+00  0.000000D+00  0.000000D+00  0.000000D+00  0.000000D+00
     20  0.000000D+00  0.000000D+00  0.000000D+00  0.000000D+00  0.000000D+00
     21  0.000000D+00  0.000000D+00  0.000000D+00  0.000000D+00  0.000000D+00
     22  0.000000D+00  0.000000D+00  0.000000D+00  0.000000D+00  0.000000D+00
     23  0.000000D+00  0.000000D+00  0.000000D+00  0.000000D+00  0.000000D+00
     24  0.000000D+00  0.000000D+00  0.000000D+00  0.000000D+00  0.000000D+00
     25  0.000000D+00  0.000000D+00  0.000000D+00  0.000000D+00  0.000000D+00
     26  0.000000D+00  0.000000D+00  0.000000D+00  0.000000D+00  0.000000D+00
     27  0.000000D+00  0.000000D+00  0.000000D+00  0.000000D+00  0.000000D+00
     28  0.000000D+00  0.000000D+00  0.000000D+00  0.000000D+00  0.000000D+00
               16            17            18            19            20 
     16  0.100000D+01
     17  0.000000D+00  0.100000D+01
     18  0.000000D+00  0.000000D+00  0.100000D+01
     19  0.000000D+00  0.000000D+00  0.000000D+00  0.100000D+01
     20  0.000000D+00  0.000000D+00  0.000000D+00  0.000000D+00  0.100000D+01
     21  0.000000D+00  0.000000D+00  0.000000D+00  0.000000D+00  0.000000D+00
     22  0.000000D+00  0.000000D+00  0.000000D+00  0.000000D+00  0.000000D+00
     23  0.000000D+00  0.000000D+00  0.000000D+00  0.000000D+00  0.000000D+00
     24  0.000000D+00  0.000000D+00  0.000000D+00  0.404226D+00  0.000000D+00
     25  0.000000D+00  0.000000D+00  0.000000D+00  0.000000D+00  0.404226D+00
     26  0.000000D+00  0.000000D+00  0.000000D+00  0.000000D+00  0.000000D+00
     27  0.000000D+00  0.000000D+00  0.000000D+00  0.000000D+00  0.000000D+00
     28  0.000000D+00  0.000000D+00  0.000000D+00  0.000000D+00  0.000000D+00
               21            22            23            24            25 
     21  0.100000D+01
     22  0.000000D+00  0.100000D+01
     23  0.000000D+00  0.000000D+00  0.100000D+01
     24  0.000000D+00  0.000000D+00  0.000000D+00  0.100000D+01
     25  0.000000D+00  0.000000D+00  0.000000D+00  0.000000D+00  0.100000D+01
     26  0.404226D+00  0.000000D+00  0.000000D+00  0.000000D+00  0.000000D+00
     27  0.000000D+00  0.404226D+00  0.000000D+00  0.000000D+00  0.000000D+00
     28  0.000000D+00  0.000000D+00  0.404226D+00  0.000000D+00  0.000000D+00
               26            27            28 
     26  0.100000D+01
     27  0.000000D+00  0.100000D+01
     28  0.000000D+00  0.000000D+00  0.100000D+01
 *** Kinetic Energy *** 
                1             2             3             4             5 
      1  0.760032D+00
      2 -0.449154D-03  0.233868D+03
      3  0.367220D-02  0.128565D+02  0.116517D+02
      4  0.000000D+00  0.000000D+00  0.000000D+00  0.397344D+02
      5  0.000000D+00  0.000000D+00  0.000000D+00  0.000000D+00  0.397344D+02
      6  0.895204D-03  0.000000D+00  0.000000D+00  0.000000D+00  0.000000D+00
      7  0.179291D-01  0.130537D+01 -0.886570D+00  0.000000D+00  0.000000D+00
      8  0.000000D+00  0.000000D+00  0.000000D+00  0.141365D+01  0.000000D+00
      9  0.000000D+00  0.000000D+00  0.000000D+00  0.000000D+00  0.141365D+01
     10  0.231921D-02  0.000000D+00  0.000000D+00  0.000000D+00  0.000000D+00
     11 -0.452369D-01  0.469217D-01 -0.250757D+00  0.000000D+00  0.000000D+00
     12  0.000000D+00  0.000000D+00  0.000000D+00 -0.329355D+00  0.000000D+00
     13  0.000000D+00  0.000000D+00  0.000000D+00  0.000000D+00 -0.329355D+00
     14 -0.114367D+00  0.000000D+00  0.000000D+00  0.000000D+00  0.000000D+00
     15  0.211492D-01  0.718816D-03 -0.535103D-02  0.000000D+00  0.000000D+00
     16  0.000000D+00  0.000000D+00  0.000000D+00  0.847976D-03  0.000000D+00
     17  0.000000D+00  0.000000D+00  0.000000D+00  0.000000D+00  0.847976D-03
     18 -0.422148D-01  0.000000D+00  0.000000D+00  0.000000D+00  0.000000D+00
     19 -0.468767D-02  0.000000D+00  0.000000D+00  0.000000D+00  0.000000D+00
     20  0.000000D+00  0.000000D+00  0.000000D+00  0.000000D+00  0.000000D+00
     21  0.000000D+00  0.000000D+00  0.000000D+00  0.000000D+00  0.000000D+00
     22  0.000000D+00  0.000000D+00  0.000000D+00  0.000000D+00  0.000000D+00
     23  0.000000D+00  0.000000D+00  0.000000D+00  0.000000D+00  0.000000D+00
     24  0.152392D+00  0.000000D+00  0.000000D+00  0.000000D+00  0.000000D+00
     25  0.000000D+00  0.000000D+00  0.000000D+00  0.000000D+00  0.000000D+00
     26  0.000000D+00  0.000000D+00  0.000000D+00  0.000000D+00  0.000000D+00
     27  0.000000D+00  0.000000D+00  0.000000D+00  0.000000D+00  0.000000D+00
     28  0.000000D+00  0.000000D+00  0.000000D+00  0.000000D+00  0.000000D+00
                6             7             8             9            10 
      6  0.397344D+02
      7  0.000000D+00  0.138627D+01
      8  0.000000D+00  0.000000D+00  0.264346D+01
      9  0.000000D+00  0.000000D+00  0.000000D+00  0.264346D+01
     10  0.141365D+01  0.000000D+00  0.000000D+00  0.000000D+00  0.264346D+01
     11  0.000000D+00 -0.202155D+00  0.000000D+00  0.000000D+00  0.000000D+00
     12  0.000000D+00  0.000000D+00 -0.382323D+00  0.000000D+00  0.000000D+00
     13  0.000000D+00  0.000000D+00  0.000000D+00 -0.382323D+00  0.000000D+00
     14 -0.329355D+00  0.000000D+00  0.000000D+00  0.000000D+00 -0.382323D+00
     15  0.000000D+00 -0.250190D-01  0.000000D+00  0.000000D+00  0.000000D+00
     16  0.000000D+00  0.000000D+00  0.157808D-01  0.000000D+00  0.000000D+00
     17  0.000000D+00  0.000000D+00  0.000000D+00  0.157808D-01  0.000000D+00
     18  0.847976D-03  0.000000D+00  0.000000D+00  0.000000D+00  0.157808D-01
     19  0.000000D+00  0.000000D+00  0.000000D+00  0.000000D+00  0.000000D+00
     20  0.000000D+00  0.000000D+00  0.000000D+00  0.000000D+00  0.000000D+00
     21  0.000000D+00  0.000000D+00  0.000000D+00  0.000000D+00  0.000000D+00
     22  0.000000D+00  0.000000D+00  0.000000D+00  0.000000D+00  0.000000D+00
     23  0.000000D+00  0.000000D+00  0.000000D+00  0.000000D+00  0.000000D+00
     24  0.000000D+00  0.000000D+00  0.000000D+00  0.000000D+00  0.000000D+00
     25  0.000000D+00  0.000000D+00  0.000000D+00  0.000000D+00  0.000000D+00
     26  0.000000D+00  0.000000D+00  0.000000D+00  0.000000D+00  0.000000D+00
     27  0.000000D+00  0.000000D+00  0.000000D+00  0.000000D+00  0.000000D+00
     28  0.000000D+00  0.000000D+00  0.000000D+00  0.000000D+00  0.000000D+00
               11            12            13            14            15 
     11  0.179473D+00
     12  0.000000D+00  0.301582D+00
     13  0.000000D+00  0.000000D+00  0.301582D+00
     14  0.000000D+00  0.000000D+00  0.000000D+00  0.301582D+00
     15 -0.578075D-01  0.000000D+00  0.000000D+00  0.000000D+00  0.480540D-01
     16  0.000000D+00  0.867842D-01  0.000000D+00  0.000000D+00  0.000000D+00
     17  0.000000D+00  0.000000D+00  0.867842D-01  0.000000D+00  0.000000D+00
     18  0.000000D+00  0.000000D+00  0.000000D+00  0.867842D-01  0.000000D+00
     19  0.000000D+00  0.000000D+00  0.000000D+00  0.000000D+00  0.000000D+00
     20  0.000000D+00  0.000000D+00  0.000000D+00  0.000000D+00  0.000000D+00
     21  0.000000D+00  0.000000D+00  0.000000D+00  0.000000D+00  0.000000D+00
     22  0.000000D+00  0.000000D+00  0.000000D+00  0.000000D+00  0.000000D+00
     23  0.000000D+00  0.000000D+00  0.000000D+00  0.000000D+00  0.000000D+00
     24  0.000000D+00  0.000000D+00  0.000000D+00  0.000000D+00  0.000000D+00
     25  0.000000D+00  0.000000D+00  0.000000D+00  0.000000D+00  0.000000D+00
     26  0.000000D+00  0.000000D+00  0.000000D+00  0.000000D+00  0.000000D+00
     27  0.000000D+00  0.000000D+00  0.000000D+00  0.000000D+00  0.000000D+00
     28  0.000000D+00  0.000000D+00  0.000000D+00  0.000000D+00  0.000000D+00
               16            17            18            19            20 
     16  0.800900D-01
     17  0.000000D+00  0.800900D-01
     18  0.000000D+00  0.000000D+00  0.800900D-01
     19  0.000000D+00  0.000000D+00  0.000000D+00  0.631380D+01
     20  0.000000D+00  0.000000D+00  0.000000D+00  0.000000D+00  0.631380D+01
     21  0.000000D+00  0.000000D+00  0.000000D+00  0.000000D+00  0.000000D+00
     22  0.000000D+00  0.000000D+00  0.000000D+00  0.000000D+00  0.000000D+00
     23  0.000000D+00  0.000000D+00  0.000000D+00  0.000000D+00  0.000000D+00
     24  0.000000D+00  0.000000D+00  0.000000D+00  0.648327D+00  0.000000D+00
     25  0.000000D+00  0.000000D+00  0.000000D+00  0.000000D+00  0.648327D+00
     26  0.000000D+00  0.000000D+00  0.000000D+00  0.000000D+00  0.000000D+00
     27  0.000000D+00  0.000000D+00  0.000000D+00  0.000000D+00  0.000000D+00
     28  0.000000D+00  0.000000D+00  0.000000D+00  0.000000D+00  0.000000D+00
               21            22            23            24            25 
     21  0.631380D+01
     22  0.000000D+00  0.631380D+01
     23  0.000000D+00  0.000000D+00  0.631380D+01
     24  0.000000D+00  0.000000D+00  0.000000D+00  0.100437D+01
     25  0.000000D+00  0.000000D+00  0.000000D+00  0.000000D+00  0.100437D+01
     26  0.648327D+00  0.000000D+00  0.000000D+00  0.000000D+00  0.000000D+00
     27  0.000000D+00  0.648327D+00  0.000000D+00  0.000000D+00  0.000000D+00
     28  0.000000D+00  0.000000D+00  0.648327D+00  0.000000D+00  0.000000D+00
               26            27            28 
     26  0.100437D+01
     27  0.000000D+00  0.100437D+01
     28  0.000000D+00  0.000000D+00  0.100437D+01
 Entering OneElI...
 Calculate potential energy integrals
    NBasis =  28  MinDer = 0  MaxDer = 0
 Requested accuracy = 0.1000D-12
 Symmetry will be used
 PrmmSu-InSpLW:  IPartL=    0 NPrtUS=   36 NPrtUL=    1 DoSpLW=F IThBeg=    0 IThEnd=   35 NThAct=   36.
 PrSmSu:  IncTry=   512 NBBP=             72 NTPThr=   100 NPartT=   36 Incr=           1 LDynOK=F GPUOK=F.
 PrsmSu:  NPrtUS=  36 ThrOK=T IAlg=1 LenDen=           0 ISkipM=0 DoSpLW=F IThBeg=    0 IThEnd=   35.
 Prism:   IPart=     0 DynPar=F LinDyn=F Incr=           1.
 PRISM was handed   268429664 working-precision words and    36 shell-pairs
 PRISM was handed   268429664 working-precision words and    36 shell-pairs
 PRISM was handed   268429664 working-precision words and    36 shell-pairs
 PRISM was handed   268429664 working-precision words and    36 shell-pairs
 PRISM was handed   268429664 working-precision words and    36 shell-pairs
 PRISM was handed   268429664 working-precision words and    36 shell-pairs
 PRISM was handed   268429664 working-precision words and    36 shell-pairs
 PRISM was handed   268429664 working-precision words and    36 shell-pairs
 PRISM was handed   268429664 working-precision words and    36 shell-pairs
 PRISM was handed   268429664 working-precision words and    36 shell-pairs
 PRISM was handed   268429664 working-precision words and    36 shell-pairs
 PRISM was handed   268429664 working-precision words and    36 shell-pairs
 PRISM was handed   268429664 working-precision words and    36 shell-pairs
 PRISM was handed   268429664 working-precision words and    36 shell-pairs
 PRISM was handed   268429664 working-precision words and    36 shell-pairs
 PRISM was handed   268429664 working-precision words and    36 shell-pairs
 PRISM was handed   268429664 working-precision words and    36 shell-pairs
 PRISM was handed   268429664 working-precision words and    36 shell-pairs
 PRISM was handed   268429664 working-precision words and    36 shell-pairs
 PRISM was handed   268429664 working-precision words and    36 shell-pairs
 PRISM was handed   268429664 working-precision words and    36 shell-pairs
 PRISM was handed   268429664 working-precision words and    36 shell-pairs
 PRISM was handed   268429664 working-precision words and    36 shell-pairs
 PRISM was handed   268429664 working-precision words and    36 shell-pairs
 PRISM was handed   268429664 working-precision words and    36 shell-pairs
 PRISM was handed   268429664 working-precision words and    36 shell-pairs
 PRISM was handed   268429664 working-precision words and    36 shell-pairs
 PRISM was handed   268429664 working-precision words and    36 shell-pairs
 PRISM was handed   268429664 working-precision words and    36 shell-pairs
 PRISM was handed   268429664 working-precision words and    36 shell-pairs
 PRISM was handed   268429664 working-precision words and    36 shell-pairs
 PRISM was handed   268429664 working-precision words and    36 shell-pairs
 PRISM was handed   268429664 working-precision words and    36 shell-pairs
 PRISM was handed   268429664 working-precision words and    36 shell-pairs
 PRISM was handed   268429664 working-precision words and    36 shell-pairs
 PRISM was handed   268429664 working-precision words and    36 shell-pairs
 IPart= 32 NShTot=           0 NBatch=           0 AvBLen=         0.0
 IPart= 31 NShTot=           0 NBatch=           0 AvBLen=         0.0
 IPart= 34 NShTot=           0 NBatch=           0 AvBLen=         0.0
 IPart= 35 NShTot=           0 NBatch=           0 AvBLen=         0.0
 IPart= 30 NShTot=           0 NBatch=           0 AvBLen=         0.0
 IPart= 33 NShTot=           0 NBatch=           0 AvBLen=         0.0
 IPart= 29 NShTot=           0 NBatch=           0 AvBLen=         0.0
 IPart= 26 NShTot=           0 NBatch=           0 AvBLen=         0.0
 IPart=  9 NShTot=           0 NBatch=           0 AvBLen=         0.0
 IPart= 25 NShTot=           0 NBatch=           0 AvBLen=         0.0
 IPart= 28 NShTot=           0 NBatch=           0 AvBLen=         0.0
 IPart=  8 NShTot=           0 NBatch=           0 AvBLen=         0.0
 IPart= 21 NShTot=           0 NBatch=           0 AvBLen=         0.0
 IPart= 17 NShTot=           0 NBatch=           0 AvBLen=         0.0
 IPart= 27 NShTot=           0 NBatch=           0 AvBLen=         0.0
 IPart= 14 NShTot=           0 NBatch=           0 AvBLen=         0.0
 IPart=  3 NShTot=           0 NBatch=           0 AvBLen=         0.0
 IPart=  2 NShTot=           2 NBatch=           1 AvBLen=         2.0
 IPart= 23 NShTot=           0 NBatch=           0 AvBLen=         0.0
 IPart= 19 NShTot=           0 NBatch=           0 AvBLen=         0.0
 IPart= 24 NShTot=           0 NBatch=           0 AvBLen=         0.0
 IPart=  7 NShTot=           0 NBatch=           0 AvBLen=         0.0
 IPart= 13 NShTot=           0 NBatch=           0 AvBLen=         0.0
 IPart= 20 NShTot=           0 NBatch=           0 AvBLen=         0.0
 IPart= 11 NShTot=           0 NBatch=           0 AvBLen=         0.0
 IPart= 15 NShTot=           0 NBatch=           0 AvBLen=         0.0
 IPart= 12 NShTot=           0 NBatch=           0 AvBLen=         0.0
 IPart= 10 NShTot=           0 NBatch=           0 AvBLen=         0.0
 IPart=  6 NShTot=           0 NBatch=           0 AvBLen=         0.0
 IPart=  0 NShTot=          56 NBatch=          28 AvBLen=         2.0
 IPart= 22 NShTot=           0 NBatch=           0 AvBLen=         0.0
 IPart=  1 NShTot=          14 NBatch=           7 AvBLen=         2.0
 IPart= 18 NShTot=           0 NBatch=           0 AvBLen=         0.0
 IPart= 16 NShTot=           0 NBatch=           0 AvBLen=         0.0
 IPart=  4 NShTot=           0 NBatch=           0 AvBLen=         0.0
 IPart=  5 NShTot=           0 NBatch=           0 AvBLen=         0.0
 PrSmSu:  NxtVal=             37.
 ***** Potential Energy ***** 
                1             2             3             4             5 
      1  0.768767D+01
      2  0.403212D+00  0.476054D+03
      3 -0.759804D+00 -0.526031D+02  0.840093D+02
      4  0.000000D+00  0.000000D+00  0.000000D+00  0.981934D+02
      5  0.000000D+00  0.000000D+00  0.000000D+00  0.000000D+00  0.981934D+02
      6 -0.188297D+00 -0.245693D-02  0.149795D-01  0.000000D+00  0.000000D+00
      7 -0.152445D+01 -0.186107D+01  0.180234D+02  0.000000D+00  0.000000D+00
      8  0.000000D+00  0.000000D+00  0.000000D+00  0.169079D+02  0.000000D+00
      9  0.000000D+00  0.000000D+00  0.000000D+00  0.000000D+00  0.169079D+02
     10 -0.140530D+01 -0.134903D-03  0.875598D-02  0.000000D+00  0.000000D+00
     11 -0.286159D+01  0.175010D+01 -0.223126D+01  0.000000D+00  0.000000D+00
     12  0.000000D+00  0.000000D+00  0.000000D+00 -0.237734D+01  0.000000D+00
     13  0.000000D+00  0.000000D+00  0.000000D+00  0.000000D+00 -0.237734D+01
     14 -0.370292D+01  0.237842D-04 -0.105819D-02  0.000000D+00  0.000000D+00
     15  0.245928D+01  0.180640D+01 -0.333352D+01  0.000000D+00  0.000000D+00
     16  0.000000D+00  0.000000D+00  0.000000D+00  0.246592D+00  0.000000D+00
     17  0.000000D+00  0.000000D+00  0.000000D+00  0.000000D+00  0.246592D+00
     18 -0.227028D+01 -0.177593D-05  0.161404D-03  0.000000D+00  0.000000D+00
     19  0.530250D+00  0.888671D-05 -0.121406D-02  0.000000D+00  0.000000D+00
     20  0.000000D+00  0.000000D+00  0.000000D+00 -0.673861D-02  0.000000D+00
     21  0.000000D+00  0.000000D+00  0.000000D+00  0.000000D+00 -0.673861D-02
     22  0.000000D+00  0.000000D+00  0.000000D+00  0.000000D+00  0.000000D+00
     23  0.000000D+00  0.000000D+00  0.000000D+00  0.000000D+00  0.000000D+00
     24  0.289243D+01  0.000000D+00 -0.118476D-03  0.000000D+00  0.000000D+00
     25  0.000000D+00  0.000000D+00  0.000000D+00 -0.528693D-03  0.000000D+00
     26  0.000000D+00  0.000000D+00  0.000000D+00  0.000000D+00 -0.528693D-03
     27  0.000000D+00  0.000000D+00  0.000000D+00  0.000000D+00  0.000000D+00
     28  0.000000D+00  0.000000D+00  0.000000D+00  0.000000D+00  0.000000D+00
                6             7             8             9            10 
      6  0.981950D+02
      7  0.872285D-02  0.265096D+02
      8  0.000000D+00  0.000000D+00  0.250954D+02
      9  0.000000D+00  0.000000D+00  0.000000D+00  0.250954D+02
     10  0.169094D+02  0.501952D-01  0.000000D+00  0.000000D+00  0.251154D+02
     11 -0.393732D-03  0.256150D+01  0.000000D+00  0.000000D+00  0.287034D-01
     12  0.000000D+00  0.000000D+00  0.233818D+00  0.000000D+00  0.000000D+00
     13  0.000000D+00  0.000000D+00  0.000000D+00  0.233818D+00  0.000000D+00
     14 -0.237750D+01  0.118845D-01  0.000000D+00  0.000000D+00  0.247799D+00
     15 -0.128514D-02 -0.547892D+01  0.000000D+00  0.000000D+00 -0.247859D-01
     16  0.000000D+00  0.000000D+00  0.148076D+01  0.000000D+00  0.000000D+00
     17  0.000000D+00  0.000000D+00  0.000000D+00  0.148076D+01  0.000000D+00
     18  0.246627D+00  0.686104D-02  0.000000D+00  0.000000D+00  0.148729D+01
     19 -0.806597D-02 -0.127103D-01  0.000000D+00  0.000000D+00 -0.494425D-01
     20  0.000000D+00  0.000000D+00 -0.370866D-01  0.000000D+00  0.000000D+00
     21  0.000000D+00  0.000000D+00  0.000000D+00 -0.370866D-01  0.000000D+00
     22  0.000000D+00  0.000000D+00  0.000000D+00  0.000000D+00  0.000000D+00
     23  0.000000D+00  0.000000D+00  0.000000D+00  0.000000D+00  0.000000D+00
     24 -0.649685D-03 -0.130342D-01  0.000000D+00  0.000000D+00 -0.456109D-01
     25  0.000000D+00  0.000000D+00 -0.274687D-01  0.000000D+00  0.000000D+00
     26  0.000000D+00  0.000000D+00  0.000000D+00 -0.274687D-01  0.000000D+00
     27  0.000000D+00  0.000000D+00  0.000000D+00  0.000000D+00  0.000000D+00
     28  0.000000D+00  0.000000D+00  0.000000D+00  0.000000D+00  0.000000D+00
               11            12            13            14            15 
     11  0.808288D+01
     12  0.000000D+00  0.706291D+01
     13  0.000000D+00  0.000000D+00  0.706291D+01
     14  0.117571D+00  0.000000D+00  0.000000D+00  0.716208D+01
     15 -0.634058D+01  0.000000D+00  0.000000D+00 -0.100838D+00  0.651197D+01
     16  0.000000D+00  0.430007D+01  0.000000D+00  0.000000D+00  0.000000D+00
     17  0.000000D+00  0.000000D+00  0.430007D+01  0.000000D+00  0.000000D+00
     18  0.697032D-01  0.000000D+00  0.000000D+00  0.436243D+01 -0.757447D-01
     19 -0.722934D-02  0.000000D+00  0.000000D+00 -0.103946D-01  0.605423D-02
     20  0.000000D+00 -0.607775D-02  0.000000D+00  0.000000D+00  0.000000D+00
     21  0.000000D+00  0.000000D+00 -0.607775D-02  0.000000D+00  0.000000D+00
     22  0.000000D+00  0.000000D+00  0.000000D+00  0.000000D+00  0.000000D+00
     23  0.000000D+00  0.000000D+00  0.000000D+00  0.000000D+00  0.000000D+00
     24 -0.647654D-01  0.000000D+00  0.000000D+00 -0.119160D+00  0.466358D-01
     25  0.000000D+00 -0.526019D-01  0.000000D+00  0.000000D+00  0.000000D+00
     26  0.000000D+00  0.000000D+00 -0.526019D-01  0.000000D+00  0.000000D+00
     27  0.000000D+00  0.000000D+00  0.000000D+00  0.000000D+00  0.000000D+00
     28  0.000000D+00  0.000000D+00  0.000000D+00  0.000000D+00  0.000000D+00
               16            17            18            19            20 
     16  0.435522D+01
     17  0.000000D+00  0.435522D+01
     18  0.000000D+00  0.000000D+00  0.440574D+01
     19  0.000000D+00  0.000000D+00 -0.576495D-02  0.262275D+02
     20 -0.376558D-02  0.000000D+00  0.000000D+00  0.000000D+00  0.262211D+02
     21  0.000000D+00 -0.376558D-02  0.000000D+00  0.000000D+00  0.000000D+00
     22  0.000000D+00  0.000000D+00  0.000000D+00  0.000000D+00  0.000000D+00
     23  0.000000D+00  0.000000D+00  0.000000D+00  0.000000D+00  0.000000D+00
     24  0.000000D+00  0.000000D+00 -0.578108D-01  0.675835D+01  0.000000D+00
     25 -0.248730D-01  0.000000D+00  0.000000D+00  0.000000D+00  0.675131D+01
     26  0.000000D+00 -0.248730D-01  0.000000D+00  0.000000D+00  0.000000D+00
     27  0.000000D+00  0.000000D+00  0.000000D+00  0.000000D+00  0.000000D+00
     28  0.000000D+00  0.000000D+00  0.000000D+00  0.000000D+00  0.000000D+00
               21            22            23            24            25 
     21  0.262211D+02
     22  0.000000D+00  0.262094D+02
     23  0.000000D+00  0.000000D+00  0.262094D+02
     24  0.000000D+00  0.000000D+00  0.000000D+00  0.103899D+02
     25  0.000000D+00  0.000000D+00  0.000000D+00  0.000000D+00  0.103264D+02
     26  0.675131D+01  0.000000D+00  0.000000D+00  0.000000D+00  0.000000D+00
     27  0.000000D+00  0.674220D+01  0.000000D+00  0.000000D+00  0.000000D+00
     28  0.000000D+00  0.000000D+00  0.674220D+01  0.000000D+00  0.000000D+00
               26            27            28 
     26  0.103264D+02
     27  0.000000D+00  0.102848D+02
     28  0.000000D+00  0.000000D+00  0.102848D+02
 ****** Core Hamiltonian ****** 
                1             2             3             4             5 
      1 -0.692764D+01
      2 -0.403661D+00 -0.242186D+03
      3  0.763476D+00  0.654596D+02 -0.723576D+02
      4  0.000000D+00  0.000000D+00  0.000000D+00 -0.584591D+02
      5  0.000000D+00  0.000000D+00  0.000000D+00  0.000000D+00 -0.584591D+02
      6  0.189192D+00  0.245693D-02 -0.149795D-01  0.000000D+00  0.000000D+00
      7  0.154238D+01  0.316644D+01 -0.189099D+02  0.000000D+00  0.000000D+00
      8  0.000000D+00  0.000000D+00  0.000000D+00 -0.154942D+02  0.000000D+00
      9  0.000000D+00  0.000000D+00  0.000000D+00  0.000000D+00 -0.154942D+02
     10  0.140762D+01  0.134903D-03 -0.875598D-02  0.000000D+00  0.000000D+00
     11  0.281635D+01 -0.170318D+01  0.198050D+01  0.000000D+00  0.000000D+00
     12  0.000000D+00  0.000000D+00  0.000000D+00  0.204798D+01  0.000000D+00
     13  0.000000D+00  0.000000D+00  0.000000D+00  0.000000D+00  0.204798D+01
     14  0.358855D+01 -0.237842D-04  0.105819D-02  0.000000D+00  0.000000D+00
     15 -0.243813D+01 -0.180568D+01  0.332817D+01  0.000000D+00  0.000000D+00
     16  0.000000D+00  0.000000D+00  0.000000D+00 -0.245745D+00  0.000000D+00
     17  0.000000D+00  0.000000D+00  0.000000D+00  0.000000D+00 -0.245745D+00
     18  0.222807D+01  0.177593D-05 -0.161404D-03  0.000000D+00  0.000000D+00
     19 -0.534938D+00 -0.888671D-05  0.121406D-02  0.000000D+00  0.000000D+00
     20  0.000000D+00  0.000000D+00  0.000000D+00  0.673861D-02  0.000000D+00
     21  0.000000D+00  0.000000D+00  0.000000D+00  0.000000D+00  0.673861D-02
     22  0.000000D+00  0.000000D+00  0.000000D+00  0.000000D+00  0.000000D+00
     23  0.000000D+00  0.000000D+00  0.000000D+00  0.000000D+00  0.000000D+00
     24 -0.274004D+01  0.000000D+00  0.118476D-03  0.000000D+00  0.000000D+00
     25  0.000000D+00  0.000000D+00  0.000000D+00  0.528693D-03  0.000000D+00
     26  0.000000D+00  0.000000D+00  0.000000D+00  0.000000D+00  0.528693D-03
     27  0.000000D+00  0.000000D+00  0.000000D+00  0.000000D+00  0.000000D+00
     28  0.000000D+00  0.000000D+00  0.000000D+00  0.000000D+00  0.000000D+00
                6             7             8             9            10 
      6 -0.584606D+02
      7 -0.872285D-02 -0.251233D+02
      8  0.000000D+00  0.000000D+00 -0.224519D+02
      9  0.000000D+00  0.000000D+00  0.000000D+00 -0.224519D+02
     10 -0.154957D+02 -0.501952D-01  0.000000D+00  0.000000D+00 -0.224719D+02
     11  0.393732D-03 -0.276365D+01  0.000000D+00  0.000000D+00 -0.287034D-01
     12  0.000000D+00  0.000000D+00 -0.616141D+00  0.000000D+00  0.000000D+00
     13  0.000000D+00  0.000000D+00  0.000000D+00 -0.616141D+00  0.000000D+00
     14  0.204815D+01 -0.118845D-01  0.000000D+00  0.000000D+00 -0.630122D+00
     15  0.128514D-02  0.545390D+01  0.000000D+00  0.000000D+00  0.247859D-01
     16  0.000000D+00  0.000000D+00 -0.146498D+01  0.000000D+00  0.000000D+00
     17  0.000000D+00  0.000000D+00  0.000000D+00 -0.146498D+01  0.000000D+00
     18 -0.245779D+00 -0.686104D-02  0.000000D+00  0.000000D+00 -0.147151D+01
     19  0.806597D-02  0.127103D-01  0.000000D+00  0.000000D+00  0.494425D-01
     20  0.000000D+00  0.000000D+00  0.370866D-01  0.000000D+00  0.000000D+00
     21  0.000000D+00  0.000000D+00  0.000000D+00  0.370866D-01  0.000000D+00
     22  0.000000D+00  0.000000D+00  0.000000D+00  0.000000D+00  0.000000D+00
     23  0.000000D+00  0.000000D+00  0.000000D+00  0.000000D+00  0.000000D+00
     24  0.649685D-03  0.130342D-01  0.000000D+00  0.000000D+00  0.456109D-01
     25  0.000000D+00  0.000000D+00  0.274687D-01  0.000000D+00  0.000000D+00
     26  0.000000D+00  0.000000D+00  0.000000D+00  0.274687D-01  0.000000D+00
     27  0.000000D+00  0.000000D+00  0.000000D+00  0.000000D+00  0.000000D+00
     28  0.000000D+00  0.000000D+00  0.000000D+00  0.000000D+00  0.000000D+00
               11            12            13            14            15 
     11 -0.790340D+01
     12  0.000000D+00 -0.676133D+01
     13  0.000000D+00  0.000000D+00 -0.676133D+01
     14 -0.117571D+00  0.000000D+00  0.000000D+00 -0.686050D+01
     15  0.628278D+01  0.000000D+00  0.000000D+00  0.100838D+00 -0.646392D+01
     16  0.000000D+00 -0.421328D+01  0.000000D+00  0.000000D+00  0.000000D+00
     17  0.000000D+00  0.000000D+00 -0.421328D+01  0.000000D+00  0.000000D+00
     18 -0.697032D-01  0.000000D+00  0.000000D+00 -0.427565D+01  0.757447D-01
     19  0.722934D-02  0.000000D+00  0.000000D+00  0.103946D-01 -0.605423D-02
     20  0.000000D+00  0.607775D-02  0.000000D+00  0.000000D+00  0.000000D+00
     21  0.000000D+00  0.000000D+00  0.607775D-02  0.000000D+00  0.000000D+00
     22  0.000000D+00  0.000000D+00  0.000000D+00  0.000000D+00  0.000000D+00
     23  0.000000D+00  0.000000D+00  0.000000D+00  0.000000D+00  0.000000D+00
     24  0.647654D-01  0.000000D+00  0.000000D+00  0.119160D+00 -0.466358D-01
     25  0.000000D+00  0.526019D-01  0.000000D+00  0.000000D+00  0.000000D+00
     26  0.000000D+00  0.000000D+00  0.526019D-01  0.000000D+00  0.000000D+00
     27  0.000000D+00  0.000000D+00  0.000000D+00  0.000000D+00  0.000000D+00
     28  0.000000D+00  0.000000D+00  0.000000D+00  0.000000D+00  0.000000D+00
               16            17            18            19            20 
     16 -0.427513D+01
     17  0.000000D+00 -0.427513D+01
     18  0.000000D+00  0.000000D+00 -0.432565D+01
     19  0.000000D+00  0.000000D+00  0.576495D-02 -0.199137D+02
     20  0.376558D-02  0.000000D+00  0.000000D+00  0.000000D+00 -0.199073D+02
     21  0.000000D+00  0.376558D-02  0.000000D+00  0.000000D+00  0.000000D+00
     22  0.000000D+00  0.000000D+00  0.000000D+00  0.000000D+00  0.000000D+00
     23  0.000000D+00  0.000000D+00  0.000000D+00  0.000000D+00  0.000000D+00
     24  0.000000D+00  0.000000D+00  0.578108D-01 -0.611002D+01  0.000000D+00
     25  0.248730D-01  0.000000D+00  0.000000D+00  0.000000D+00 -0.610298D+01
     26  0.000000D+00  0.248730D-01  0.000000D+00  0.000000D+00  0.000000D+00
     27  0.000000D+00  0.000000D+00  0.000000D+00  0.000000D+00  0.000000D+00
     28  0.000000D+00  0.000000D+00  0.000000D+00  0.000000D+00  0.000000D+00
               21            22            23            24            25 
     21 -0.199073D+02
     22  0.000000D+00 -0.198956D+02
     23  0.000000D+00  0.000000D+00 -0.198956D+02
     24  0.000000D+00  0.000000D+00  0.000000D+00 -0.938552D+01
     25  0.000000D+00  0.000000D+00  0.000000D+00  0.000000D+00 -0.932207D+01
     26 -0.610298D+01  0.000000D+00  0.000000D+00  0.000000D+00  0.000000D+00
     27  0.000000D+00 -0.609388D+01  0.000000D+00  0.000000D+00  0.000000D+00
     28  0.000000D+00  0.000000D+00 -0.609388D+01  0.000000D+00  0.000000D+00
               26            27            28 
     26 -0.932207D+01
     27  0.000000D+00 -0.928041D+01
     28  0.000000D+00  0.000000D+00 -0.928041D+01
 SVDSVc IOpt=   1 NormSV=T IR=1
 SVDSVc V= 2.37D+00 1.91D+00 1.45D+00 1.40D+00 1.39D+00 1.30D+00 9.45D-01 7.20D-01 6.62D-01 5.96D-01
 SVDSVc V= 5.28D-01 3.92D-01 2.03D-01 1.27D-01
 SVDSVc IOpt=   1 NormSV=T IR=2
 SVDSVc V= 1.40D+00 5.96D-01
 SVDSVc IOpt=   1 NormSV=T IR=3
 SVDSVc V= 1.79D+00 1.40D+00 1.30D+00 6.62D-01 5.96D-01 2.47D-01
 SVDSVc IOpt=   1 NormSV=T IR=4
 SVDSVc V= 1.79D+00 1.40D+00 1.30D+00 6.62D-01 5.96D-01 2.47D-01
 TstOVc:  Largest diagonal error= 3.77D-15 IB=1 I=   14.
 TstOVc:  Largest same sym error= 1.32D-15 IB=1 I=   13 J=    6.
 TstOVc:  Largest diff sym error= 0.00D+00 IB=0 JB=0 I=    0 J=    0.
 Orthogonalized basis functions: 
                 1             2             3             4             5 
      1   0.327190D+00 -0.104977D+00  0.120720D+00  0.000000D+00  0.123406D-01
      2   0.112153D-01  0.317765D-01 -0.118046D+00  0.000000D+00 -0.406770D+00
      3  -0.471915D-01 -0.964309D-01  0.185234D+00  0.000000D+00  0.565909D+00
      4   0.000000D+00  0.000000D+00  0.000000D+00  0.000000D+00  0.000000D+00
      5   0.000000D+00  0.000000D+00  0.000000D+00  0.000000D+00  0.000000D+00
      6  -0.107312D-01  0.271346D-01  0.482091D-01  0.000000D+00  0.678609D-02
      7  -0.137397D+00 -0.199271D+00  0.140625D+00  0.000000D+00  0.314585D+00
      8   0.000000D+00  0.000000D+00  0.000000D+00  0.000000D+00  0.000000D+00
      9   0.000000D+00  0.000000D+00  0.000000D+00  0.000000D+00  0.000000D+00
     10  -0.697348D-01  0.115715D+00  0.822922D-01  0.000000D+00  0.957732D-02
     11  -0.289954D+00 -0.307422D+00 -0.289776D-02  0.000000D+00 -0.200729D+00
     12   0.000000D+00  0.000000D+00  0.000000D+00  0.000000D+00  0.000000D+00
     13   0.000000D+00  0.000000D+00  0.000000D+00  0.000000D+00  0.000000D+00
     14  -0.249235D+00  0.357247D+00  0.130245D+00  0.000000D+00  0.108504D-01
     15   0.289394D+00  0.320692D+00 -0.198278D-01  0.000000D+00  0.143988D+00
     16   0.000000D+00  0.000000D+00  0.000000D+00  0.000000D+00  0.000000D+00
     17   0.000000D+00  0.000000D+00  0.000000D+00  0.000000D+00  0.000000D+00
     18  -0.223701D+00  0.345503D+00  0.145814D+00  0.000000D+00  0.125566D-01
     19   0.347126D-01 -0.257718D-01  0.508906D+00  0.000000D+00 -0.191822D+00
     20   0.000000D+00  0.000000D+00  0.000000D+00  0.000000D+00  0.000000D+00
     21   0.000000D+00  0.000000D+00  0.000000D+00  0.000000D+00  0.000000D+00
     22   0.000000D+00  0.000000D+00  0.000000D+00  0.596714D+00  0.000000D+00
     23   0.000000D+00  0.000000D+00  0.000000D+00  0.000000D+00  0.000000D+00
     24   0.881034D-01 -0.488137D-01  0.550003D+00  0.000000D+00 -0.187341D+00
     25   0.000000D+00  0.000000D+00  0.000000D+00  0.000000D+00  0.000000D+00
     26   0.000000D+00  0.000000D+00  0.000000D+00  0.000000D+00  0.000000D+00
     27   0.000000D+00  0.000000D+00  0.000000D+00  0.596714D+00  0.000000D+00
     28   0.000000D+00  0.000000D+00  0.000000D+00  0.000000D+00  0.000000D+00
                 6             7             8             9            10 
      1   0.240637D-01  0.940379D-01 -0.557127D+00  0.129951D-01  0.000000D+00
      2   0.169978D-01  0.795343D+00  0.107523D+00 -0.233363D-02  0.000000D+00
      3  -0.184726D-01  0.131272D+00  0.107287D+00 -0.286633D-02  0.000000D+00
      4   0.000000D+00  0.000000D+00  0.000000D+00  0.000000D+00  0.000000D+00
      5   0.000000D+00  0.000000D+00  0.000000D+00  0.000000D+00  0.000000D+00
      6   0.633772D+00 -0.655141D-02  0.735672D-03 -0.838975D+00  0.000000D+00
      7  -0.285725D-02  0.596025D+00 -0.578450D-02  0.103627D-02  0.000000D+00
      8   0.000000D+00  0.000000D+00  0.000000D+00  0.000000D+00  0.000000D+00
      9   0.000000D+00  0.000000D+00  0.000000D+00  0.000000D+00  0.000000D+00
     10   0.579695D+00  0.623758D-02 -0.195813D-01  0.876401D+00  0.000000D+00
     11   0.166488D-01 -0.149460D+00 -0.152421D+00  0.313913D-02  0.000000D+00
     12   0.000000D+00  0.000000D+00  0.000000D+00  0.000000D+00  0.000000D+00
     13   0.000000D+00  0.000000D+00  0.000000D+00  0.000000D+00  0.000000D+00
     14  -0.116547D+00  0.379483D-01 -0.132844D+00 -0.242789D-01  0.000000D+00
     15  -0.157791D-01  0.105415D+00  0.177615D+00 -0.382210D-02  0.000000D+00
     16   0.000000D+00  0.000000D+00  0.000000D+00  0.000000D+00  0.000000D+00
     17   0.000000D+00  0.000000D+00  0.000000D+00  0.000000D+00  0.000000D+00
     18  -0.103951D+00  0.587730D-01 -0.320454D+00 -0.191013D+00  0.000000D+00
     19  -0.478562D-01 -0.760024D-01  0.793809D+00 -0.316058D-01  0.000000D+00
     20   0.000000D+00  0.000000D+00  0.000000D+00  0.000000D+00  0.000000D+00
     21   0.000000D+00  0.000000D+00  0.000000D+00  0.000000D+00  0.000000D+00
     22   0.000000D+00  0.000000D+00  0.000000D+00  0.000000D+00  0.916103D+00
     23   0.000000D+00  0.000000D+00  0.000000D+00  0.000000D+00  0.000000D+00
     24  -0.380108D-01  0.187012D-02 -0.498906D+00  0.252699D-01  0.000000D+00
     25   0.000000D+00  0.000000D+00  0.000000D+00  0.000000D+00  0.000000D+00
     26   0.000000D+00  0.000000D+00  0.000000D+00  0.000000D+00  0.000000D+00
     27   0.000000D+00  0.000000D+00  0.000000D+00  0.000000D+00 -0.916103D+00
     28   0.000000D+00  0.000000D+00  0.000000D+00  0.000000D+00  0.000000D+00
                11            12            13            14            15 
      1  -0.598968D-01  0.919974D+00  0.792339D+00  0.282097D+00  0.000000D+00
      2   0.515306D+00  0.341971D-01  0.207350D-02  0.239143D-01  0.000000D+00
      3   0.922973D+00  0.825045D-01  0.828676D-03  0.179258D+00  0.000000D+00
      4   0.000000D+00  0.000000D+00  0.000000D+00  0.000000D+00  0.000000D+00
      5   0.000000D+00  0.000000D+00  0.000000D+00  0.000000D+00  0.000000D+00
      6   0.430181D-02 -0.764664D-01  0.128775D+00  0.143373D-01  0.000000D+00
      7  -0.838875D+00 -0.114678D+00 -0.350333D-01  0.496157D-01  0.000000D+00
      8   0.000000D+00  0.000000D+00  0.000000D+00  0.000000D+00  0.000000D+00
      9   0.000000D+00  0.000000D+00  0.000000D+00  0.000000D+00  0.000000D+00
     10  -0.688970D-02  0.114431D+00 -0.801604D-01 -0.104452D-03  0.000000D+00
     11   0.102180D+00  0.159585D+00 -0.478410D-01  0.200341D+01  0.000000D+00
     12   0.000000D+00  0.000000D+00  0.000000D+00  0.000000D+00  0.000000D+00
     13   0.000000D+00  0.000000D+00  0.000000D+00  0.000000D+00  0.000000D+00
     14  -0.352997D-02 -0.217707D+00  0.160916D+01  0.256881D+00  0.000000D+00
     15  -0.159103D+00 -0.300972D+00 -0.381459D+00  0.191031D+01  0.000000D+00
     16   0.000000D+00  0.000000D+00  0.000000D+00  0.000000D+00  0.000000D+00
     17   0.000000D+00  0.000000D+00  0.000000D+00  0.000000D+00  0.000000D+00
     18  -0.364289D-01  0.768287D+00 -0.116026D+01 -0.109515D+00  0.000000D+00
     19  -0.115075D+00  0.489315D+00  0.172192D+00  0.470662D-01  0.000000D+00
     20   0.000000D+00  0.000000D+00  0.000000D+00  0.000000D+00  0.000000D+00
     21   0.000000D+00  0.000000D+00  0.000000D+00  0.000000D+00  0.000000D+00
     22   0.000000D+00  0.000000D+00  0.000000D+00  0.000000D+00  0.000000D+00
     23   0.000000D+00  0.000000D+00  0.000000D+00  0.000000D+00  0.596714D+00
     24   0.139811D+00 -0.818362D+00 -0.410871D+00 -0.127008D+00  0.000000D+00
     25   0.000000D+00  0.000000D+00  0.000000D+00  0.000000D+00  0.000000D+00
     26   0.000000D+00  0.000000D+00  0.000000D+00  0.000000D+00  0.000000D+00
     27   0.000000D+00  0.000000D+00  0.000000D+00  0.000000D+00  0.000000D+00
     28   0.000000D+00  0.000000D+00  0.000000D+00  0.000000D+00  0.596714D+00
                16            17            18            19            20 
      1   0.000000D+00  0.000000D+00  0.000000D+00  0.000000D+00  0.000000D+00
      2   0.000000D+00  0.000000D+00  0.000000D+00  0.000000D+00  0.000000D+00
      3   0.000000D+00  0.000000D+00  0.000000D+00  0.000000D+00  0.000000D+00
      4   0.000000D+00  0.496550D-01  0.000000D+00  0.634889D+00 -0.838847D+00
      5   0.000000D+00  0.000000D+00  0.000000D+00  0.000000D+00  0.000000D+00
      6   0.000000D+00  0.000000D+00  0.000000D+00  0.000000D+00  0.000000D+00
      7   0.000000D+00  0.000000D+00  0.000000D+00  0.000000D+00  0.000000D+00
      8   0.000000D+00  0.179002D+00  0.000000D+00  0.575229D+00  0.875786D+00
      9   0.000000D+00  0.000000D+00  0.000000D+00  0.000000D+00  0.000000D+00
     10   0.000000D+00  0.000000D+00  0.000000D+00  0.000000D+00  0.000000D+00
     11   0.000000D+00  0.000000D+00  0.000000D+00  0.000000D+00  0.000000D+00
     12   0.000000D+00  0.513298D+00  0.000000D+00 -0.135910D+00 -0.267878D-01
     13   0.000000D+00  0.000000D+00  0.000000D+00  0.000000D+00  0.000000D+00
     14   0.000000D+00  0.000000D+00  0.000000D+00  0.000000D+00  0.000000D+00
     15   0.000000D+00  0.000000D+00  0.000000D+00  0.000000D+00  0.000000D+00
     16   0.000000D+00  0.510710D+00  0.000000D+00 -0.126746D+00 -0.198477D+00
     17   0.000000D+00  0.000000D+00  0.000000D+00  0.000000D+00  0.000000D+00
     18   0.000000D+00  0.000000D+00  0.000000D+00  0.000000D+00  0.000000D+00
     19   0.000000D+00  0.000000D+00  0.000000D+00  0.000000D+00  0.000000D+00
     20   0.000000D+00  0.000000D+00  0.596714D+00  0.000000D+00  0.000000D+00
     21   0.000000D+00  0.000000D+00  0.000000D+00  0.000000D+00  0.000000D+00
     22   0.000000D+00  0.000000D+00  0.000000D+00  0.000000D+00  0.000000D+00
     23   0.916103D+00  0.000000D+00  0.000000D+00  0.000000D+00  0.000000D+00
     24   0.000000D+00  0.000000D+00  0.000000D+00  0.000000D+00  0.000000D+00
     25   0.000000D+00  0.000000D+00  0.596714D+00  0.000000D+00  0.000000D+00
     26   0.000000D+00  0.000000D+00  0.000000D+00  0.000000D+00  0.000000D+00
     27   0.000000D+00  0.000000D+00  0.000000D+00  0.000000D+00  0.000000D+00
     28  -0.916103D+00  0.000000D+00  0.000000D+00  0.000000D+00  0.000000D+00
                21            22            23            24            25 
      1   0.000000D+00  0.000000D+00  0.000000D+00  0.000000D+00  0.000000D+00
      2   0.000000D+00  0.000000D+00  0.000000D+00  0.000000D+00  0.000000D+00
      3   0.000000D+00  0.000000D+00  0.000000D+00  0.000000D+00  0.000000D+00
      4   0.000000D+00  0.146699D+00  0.000000D+00  0.000000D+00  0.000000D+00
      5   0.000000D+00  0.000000D+00  0.496550D-01  0.000000D+00  0.634889D+00
      6   0.000000D+00  0.000000D+00  0.000000D+00  0.000000D+00  0.000000D+00
      7   0.000000D+00  0.000000D+00  0.000000D+00  0.000000D+00  0.000000D+00
      8   0.000000D+00 -0.133591D+00  0.000000D+00  0.000000D+00  0.000000D+00
      9   0.000000D+00  0.000000D+00  0.179002D+00  0.000000D+00  0.575229D+00
     10   0.000000D+00  0.000000D+00  0.000000D+00  0.000000D+00  0.000000D+00
     11   0.000000D+00  0.000000D+00  0.000000D+00  0.000000D+00  0.000000D+00
     12   0.000000D+00  0.142747D+01  0.000000D+00  0.000000D+00  0.000000D+00
     13   0.000000D+00  0.000000D+00  0.513298D+00  0.000000D+00 -0.135910D+00
     14   0.000000D+00  0.000000D+00  0.000000D+00  0.000000D+00  0.000000D+00
     15   0.000000D+00  0.000000D+00  0.000000D+00  0.000000D+00  0.000000D+00
     16   0.000000D+00 -0.140214D+01  0.000000D+00  0.000000D+00  0.000000D+00
     17   0.000000D+00  0.000000D+00  0.510710D+00  0.000000D+00 -0.126746D+00
     18   0.000000D+00  0.000000D+00  0.000000D+00  0.000000D+00  0.000000D+00
     19   0.000000D+00  0.000000D+00  0.000000D+00  0.000000D+00  0.000000D+00
     20   0.916103D+00  0.000000D+00  0.000000D+00  0.000000D+00  0.000000D+00
     21   0.000000D+00  0.000000D+00  0.000000D+00  0.596714D+00  0.000000D+00
     22   0.000000D+00  0.000000D+00  0.000000D+00  0.000000D+00  0.000000D+00
     23   0.000000D+00  0.000000D+00  0.000000D+00  0.000000D+00  0.000000D+00
     24   0.000000D+00  0.000000D+00  0.000000D+00  0.000000D+00  0.000000D+00
     25  -0.916103D+00  0.000000D+00  0.000000D+00  0.000000D+00  0.000000D+00
     26   0.000000D+00  0.000000D+00  0.000000D+00  0.596714D+00  0.000000D+00
     27   0.000000D+00  0.000000D+00  0.000000D+00  0.000000D+00  0.000000D+00
     28   0.000000D+00  0.000000D+00  0.000000D+00  0.000000D+00  0.000000D+00
                26            27            28 
      1   0.000000D+00  0.000000D+00  0.000000D+00
      2   0.000000D+00  0.000000D+00  0.000000D+00
      3   0.000000D+00  0.000000D+00  0.000000D+00
      4   0.000000D+00  0.000000D+00  0.000000D+00
      5  -0.838847D+00  0.000000D+00  0.146699D+00
      6   0.000000D+00  0.000000D+00  0.000000D+00
      7   0.000000D+00  0.000000D+00  0.000000D+00
      8   0.000000D+00  0.000000D+00  0.000000D+00
      9   0.875786D+00  0.000000D+00 -0.133591D+00
     10   0.000000D+00  0.000000D+00  0.000000D+00
     11   0.000000D+00  0.000000D+00  0.000000D+00
     12   0.000000D+00  0.000000D+00  0.000000D+00
     13  -0.267878D-01  0.000000D+00  0.142747D+01
     14   0.000000D+00  0.000000D+00  0.000000D+00
     15   0.000000D+00  0.000000D+00  0.000000D+00
     16   0.000000D+00  0.000000D+00  0.000000D+00
     17  -0.198477D+00  0.000000D+00 -0.140214D+01
     18   0.000000D+00  0.000000D+00  0.000000D+00
     19   0.000000D+00  0.000000D+00  0.000000D+00
     20   0.000000D+00  0.000000D+00  0.000000D+00
     21   0.000000D+00  0.916103D+00  0.000000D+00
     22   0.000000D+00  0.000000D+00  0.000000D+00
     23   0.000000D+00  0.000000D+00  0.000000D+00
     24   0.000000D+00  0.000000D+00  0.000000D+00
     25   0.000000D+00  0.000000D+00  0.000000D+00
     26   0.000000D+00 -0.916103D+00  0.000000D+00
     27   0.000000D+00  0.000000D+00  0.000000D+00
     28   0.000000D+00  0.000000D+00  0.000000D+00
 NBasis=    28 RedAO= T EigKep=  1.27D-01  NBF=    14     2     6     6
 NBsUse=    28 1.00D-06 EigRej= -1.00D+00 NBFU=    14     2     6     6
 Leave Link  302 at Fri Mar 25 15:01:35 2022, MaxMem=  9663676416 cpu:               3.6 elap:               0.1
 (Enter /nopt/nrel/apps/gaussian/g16C_1/g16/l303.exe)
 DipDrv will not compute anything.
 Fermi contact integrals: 
                 1             2 
      1   0.628247D+00  0.120285D-01
      2   0.000000D+00  0.554361D+02
      3   0.000000D+00 -0.784630D-01
      4   0.000000D+00  0.000000D+00
      5   0.000000D+00  0.000000D+00
      6   0.000000D+00  0.000000D+00
      7  -0.141878D-02 -0.119954D-01
      8   0.000000D+00  0.000000D+00
      9   0.000000D+00  0.000000D+00
     10  -0.535688D-02  0.000000D+00
     11  -0.484235D-01  0.536701D-01
     12   0.000000D+00  0.000000D+00
     13   0.000000D+00  0.000000D+00
     14  -0.827020D-01  0.000000D+00
     15   0.372530D-01  0.539683D-01
     16   0.000000D+00  0.000000D+00
     17   0.000000D+00  0.000000D+00
     18  -0.453609D-01  0.000000D+00
     19   0.864557D-04  0.000000D+00
     20   0.000000D+00  0.000000D+00
     21   0.000000D+00  0.000000D+00
     22   0.000000D+00  0.000000D+00
     23   0.000000D+00  0.000000D+00
     24   0.774445D-01  0.000000D+00
     25   0.000000D+00  0.000000D+00
     26   0.000000D+00  0.000000D+00
     27   0.000000D+00  0.000000D+00
     28   0.000000D+00  0.000000D+00
 Leave Link  303 at Fri Mar 25 15:01:35 2022, MaxMem=  9663676416 cpu:               0.6 elap:               0.0
 (Enter /nopt/nrel/apps/gaussian/g16C_1/g16/l401.exe)
 ExpMin= 3.20D-02 ExpMax= 4.32D+04 ExpMxC= 6.48D+03 IAcc=3 IRadAn=         5 AccDes= 0.00D+00
 Harris functional with IExCor=  205 and IRadAn=       5 diagonalized for initial guess.
 HarFok:  IExCor=  205 AccDes= 0.00D+00 IRadAn=         5 IDoV= 1 UseB2=F ITyADJ=14
 ICtDFT=  3500011 ScaDFX=  1.000000  1.000000  1.000000  1.000000
 FoFCou: FMM=F IPFlag=           0 FMFlag=      100000 FMFlg1=           0
         NFxFlg=           0 DoJE=T BraDBF=F KetDBF=T FulRan=T
         wScrn=  0.000000 ICntrl=       500 IOpCl=  0 I1Cent=   200000004 NGrid=           0
         NMat0=    1 NMatS0=      1 NMatT0=    0 NMatD0=    1 NMtDS0=    0 NMtDT0=    0
 Petite list used in FoFCou.
 Harris En= -848.193289474942    
 JPrj=0 DoOrth=F DoCkMO=F.
 Initial guess orbital symmetries:
 Alpha Orbitals:
       Occupied  (SG) (SG) (SG) (PI) (PI) (SG) (SG) (PI) (PI) (SG)
                 (SG) (PI) (PI)
       Virtual   (DLTA) (DLTA) (SG) (PI) (PI) (SG) (SG) (PI) (PI)
                 (SG) (PI) (PI) (DLTA) (DLTA) (SG)
 Beta  Orbitals:
       Occupied  (SG) (SG) (SG) (PI) (PI) (SG) (SG) (PI) (PI) (SG)
       Virtual   (SG) (PI) (PI) (DLTA) (DLTA) (SG) (PI) (PI) (SG)
                 (SG) (PI) (PI) (SG) (PI) (PI) (DLTA) (DLTA) (SG)
 The electronic state of the initial guess is 4-SG.
 Initial guess <Sx>= 0.0000 <Sy>= 0.0000 <Sz>= 1.5000 <S**2>= 3.7500 S= 1.5000
 Leave Link  401 at Fri Mar 25 15:01:35 2022, MaxMem=  9663676416 cpu:               4.4 elap:               0.2
 (Enter /nopt/nrel/apps/gaussian/g16C_1/g16/l502.exe)
 Keep R1 and R2 ints in memory in symmetry-blocked form, NReq=7500794.
 FoFCou: FMM=F IPFlag=           0 FMFlag=           0 FMFlg1=           0
         NFxFlg=           0 DoJE=F BraDBF=F KetDBF=F FulRan=T
         wScrn=  0.000000 ICntrl=       600 IOpCl=  0 I1Cent=           0 NGrid=           0
         NMat0=    1 NMatS0=    406 NMatT0=    0 NMatD0=    1 NMtDS0=    0 NMtDT0=    0
 Petite list used in FoFCou.
 UHF open shell SCF:
 Using DIIS extrapolation, IDIIS=  1040.
 NGot=  9663676416 LenX=  9663625622 LenY=  9663624281
[...]
 Coeff:      0.814D-06-0.111D-05-0.314D-05 0.964D-05-0.235D-04 0.583D-04
 Coeff:     -0.393D-04-0.388D-04 0.289D-02-0.102D-01 0.266D-01-0.386D-01
 Coeff:      0.538D-01-0.442D-01-0.344D+00 0.135D+01
 Gap=     0.246 Goal=   None    Shift=    0.000
 Gap=     0.369 Goal=   None    Shift=    0.000
 RMSDP=1.10D-08 MaxDP=1.69D-07 DE=-6.82D-13 OVMax= 8.10D-08

 Cycle  17  Pass 1  IDiag  1:
 E= -848.850389360849     Delta-E=        0.000000000001 Rises=F Damp=F
 DIIS: error= 2.93D-09 at cycle  17 NSaved=  17.
 NSaved=17 IEnMin=16 EnMin= -848.850389360850     IErMin=17 ErrMin= 2.93D-09
 ErrMax= 2.93D-09  0.00D+00 EMaxC= 1.00D-01 BMatC= 3.14D-16 BMatP= 1.80D-14
 IDIUse=1 WtCom= 1.00D+00 WtEn= 0.00D+00
 Large coefficients: NSaved= 17 BigCof=    0.00 CofMax=   10.00 Det=-5.70D-16
 Inversion failed.  Reducing to 16 matrices.
 Large coefficients: NSaved= 16 BigCof=    0.00 CofMax=   10.00 Det=-5.99D-16
 Inversion failed.  Reducing to 15 matrices.
 Coeff-Com:  0.982D-06-0.265D-05 0.493D-05-0.105D-04 0.360D-05 0.145D-04
 Coeff-Com: -0.577D-03 0.195D-02-0.523D-02 0.785D-02-0.112D-01 0.924D-02
 Coeff-Com:  0.669D-01-0.360D+00 0.129D+01
 Coeff:      0.982D-06-0.265D-05 0.493D-05-0.105D-04 0.360D-05 0.145D-04
 Coeff:     -0.577D-03 0.195D-02-0.523D-02 0.785D-02-0.112D-01 0.924D-02
 Coeff:      0.669D-01-0.360D+00 0.129D+01
 Gap=     0.246 Goal=   None    Shift=    0.000
 Gap=     0.369 Goal=   None    Shift=    0.000
 RMSDP=2.56D-09 MaxDP=4.21D-08 DE= 7.96D-13 OVMax= 7.49D-09

 SCF Done:  E(UHF) =  -848.850389361     A.U. after   17 cycles
            NFock= 17  Conv=0.26D-08     -V/T= 1.9999
 <Sx>= 0.0000 <Sy>= 0.0000 <Sz>= 1.5000 <S**2>= 3.7561 S= 1.5015
 <L.S>= 0.000000000000E+00
 KE= 8.489451676084D+02 PE=-2.025597854068D+03 EE= 3.213345756320D+02
 Annihilation of the first spin contaminant:
 S**2 before annihilation     3.7561,   after     3.7500
 Leave Link  502 at Fri Mar 25 15:01:35 2022, MaxMem=  9663676416 cpu:               6.9 elap:               0.2
 (Enter /nopt/nrel/apps/gaussian/g16C_1/g16/l801.exe)
 Windowed orbitals will be sorted by symmetry type.
 ExpMin= 3.20D-02 ExpMax= 4.32D+04 ExpMxC= 6.48D+03 IAcc=3 IRadAn=         5 AccDes= 0.00D+00
 HarFok:  IExCor=  205 AccDes= 0.00D+00 IRadAn=         5 IDoV=-2 UseB2=F ITyADJ=14
 ICtDFT= 12500011 ScaDFX=  1.000000  1.000000  1.000000  1.000000
 Largest valence mixing into a core orbital is  6.18D-04
 Largest core mixing into a valence orbital is  2.31D-04
 Largest valence mixing into a core orbital is  7.33D-04
 Largest core mixing into a valence orbital is  4.15D-04
 Range of M.O.s used for correlation:    10    28
 NBasis=    28 NAE=    13 NBE=    10 NFC=     9 NFV=     0
 NROrb=     19 NOA=     4 NOB=     1 NVA=    15 NVB=    18
 Leave Link  801 at Fri Mar 25 15:01:35 2022, MaxMem=  9663676416 cpu:               4.0 elap:               0.1
 (Enter /nopt/nrel/apps/gaussian/g16C_1/g16/l804.exe)
 Open-shell transformation, MDV=  9663676416 ITran=4 ISComp=2.
 Unit  1 TFree=         51647 TCopy=        128016.
 Semi-Direct transformation.
 ModeAB=           2 MOrb=             4 LenV=    9663489828
 LASXX=         2807 LTotXX=        2807 LenRXX=        2807
 LTotAB=        3570 MaxLAS=       35340 LenRXY=       35340
 NonZer=       39444 LenScr=      785920 LnRSAI=           0
 LnScr1=           0 LExtra=      233203 Total=      1057270
 MaxDsk= 34359738368 SrtSym=           F ITran=            4
 DoSDTr:  NPSUse= 36
 JobTyp=1 Pass  1:  I=   1 to   4.
 (rs|ai) integrals will be sorted in core.
 Complete sort for first half transformation.
 First half transformation complete.
 Complete sort for second half transformation.
 Second half transformation complete.
 ModeAB=           2 MOrb=             1 LenV=    9663489828
 LASXX=          812 LTotXX=         812 LenRXX=        8835
 LTotAB=         649 MaxLAS=        8835 LenRXY=         649
 NonZer=        9861 LenScr=      785920 LnRSAI=           0
 LnScr1=           0 LExtra=      271350 Total=      1066754
 MaxDsk= 34359738368 SrtSym=           F ITran=            4
 DoSDTr:  NPSUse= 36
 JobTyp=2 Pass  1:  I=   1 to   1.
 (rs|ai) integrals will be sorted in core.
 Complete sort for first half transformation.
 First half transformation complete.
 Complete sort for second half transformation.
 Second half transformation complete.
 Spin components of T(2) and E(2):
     alpha-alpha T2 =       0.2852985846D-02 E2=     -0.5715190732D-02
     alpha-beta  T2 =       0.1111673492D-01 E2=     -0.1569111101D-01
     beta-beta   T2 =       0.0000000000D+00 E2=      0.0000000000D+00
 ANorm=    0.1006960635D+01
 E2 =    -0.2140630175D-01 EUMP2 =    -0.84887179566259D+03
 (S**2,0)=  0.37561D+01           (S**2,1)=  0.37535D+01
 E(PUHF)=      -0.84885062181D+03        E(PMP2)=      -0.84887197749D+03
 Leave Link  804 at Fri Mar 25 15:01:36 2022, MaxMem=  9663676416 cpu:               8.0 elap:               0.3
 (Enter /nopt/nrel/apps/gaussian/g16C_1/g16/l913.exe)
 CIDS:  MDV=  9663676416.
 Frozen-core window:  NFC=   9 NFV=   0.
 IFCWin=0 IBDFC=1 NFBD=     0     0 NFCmp=     0     0 NFFFC=     0     0
 Using original routines for 1st iteration.
 Using DD4UQ or CC4UQ for 2nd and later iterations.
 Keep R2 and R3 ints in memory in symmetry-blocked form, NReq=7503368.
 FoFCou: FMM=F IPFlag=           0 FMFlag=           0 FMFlg1=           0
         NFxFlg=           0 DoJE=F BraDBF=F KetDBF=F FulRan=T
         wScrn=  0.000000 ICntrl=       600 IOpCl=  0 I1Cent=           0 NGrid=           0
         NMat0=    1 NMatS0=    406 NMatT0=    0 NMatD0=    1 NMtDS0=    0 NMtDT0=    0
 Petite list used in FoFCou.
 CIDS: In Core Option IDoMem=           1.
 Coupled Cluster theory with single and double substitutions
 ===========================================================
 Iterations= 200 Convergence= 0.100D-06
 Produce multiple copies of IABC intergrals
 Iteration Nr.   1
 **********************
 DD1Dir will call FoFMem   1 times, MxPair=        14
 NAB=     4 NAA=     6 NBB=     0.
 E(PMP3)=      -0.84887899300D+03
 MP4(R+Q)=  0.22051794D-03
 Maximum subspace dimension=  5
 A-vector RMS=  7.6783142D-03 Max=  1.7756226D-02 conv= 1.00D-05.
 RLE energy=       -0.0314451056
 E3=       -0.70590387D-02        EUMP3=      -0.84887885470D+03
 E4(DQ)=   -0.26321233D-02        UMP4(DQ)=   -0.84888148682D+03
 E4(SDQ)=  -0.29119046D-02        UMP4(SDQ)=  -0.84888176661D+03
 VARIATIONAL ENERGIES WITH THE FIRST-ORDER WAVEFUNCTION:
 DE(Corr)= -0.28240234E-01 E(Corr)=     -848.87862959    
 NORM(A)=   0.10164950D+01
 Iteration Nr.   2
 **********************
 DD1Dir will call FoFMem   1 times, MxPair=        14
 NAB=     4 NAA=     6 NBB=     0.
 A-vector RMS=  4.4281481D-03 Max=  1.7087263D-02 conv= 1.00D-05.
 RLE energy=       -0.0342104068
 DE(Corr)= -0.32441185E-01 E(CORR)=     -848.88283055     Delta=-4.20D-03
 NORM(A)=   0.10231464D+01
 Iteration Nr.   3
 **********************
 DD1Dir will call FoFMem   1 times, MxPair=        14
 NAB=     4 NAA=     6 NBB=     0.
 A-vector RMS=  2.4779353D-03 Max=  1.6309775D-02 conv= 1.00D-05.
 RLE energy=       -0.0373710481
 DE(Corr)= -0.34295886E-01 E(CORR)=     -848.88468525     Delta=-1.85D-03
 NORM(A)=   0.10432684D+01
 Iteration Nr.   4
 **********************
 DD1Dir will call FoFMem   1 times, MxPair=        14
 NAB=     4 NAA=     6 NBB=     0.
 A-vector RMS=  2.7785092D-03 Max=  1.3744074D-02 conv= 1.00D-05.
 RLE energy=       -0.0411686997
 DE(Corr)= -0.37397487E-01 E(CORR)=     -848.88778685     Delta=-3.10D-03
 NORM(A)=   0.10887655D+01
 Iteration Nr.   5
 **********************
 DD1Dir will call FoFMem   1 times, MxPair=        14
 NAB=     4 NAA=     6 NBB=     0.
 A-vector RMS=  4.2475118D-03 Max=  8.9417151D-03 conv= 1.00D-05.
 RLE energy=       -0.0428612234
 DE(Corr)= -0.41040732E-01 E(CORR)=     -848.89143009     Delta=-3.64D-03
 NORM(A)=   0.11274622D+01
 Iteration Nr.   6
 **********************
 DD1Dir will call FoFMem   1 times, MxPair=        14
 NAB=     4 NAA=     6 NBB=     0.
 A-vector RMS=  3.1260347D-03 Max=  7.4518103D-03 conv= 1.00D-05.
 RLE energy=       -0.0445768895
 DE(Corr)= -0.42984875E-01 E(CORR)=     -848.89337424     Delta=-1.94D-03
 NORM(A)=   0.11611961D+01
 Iteration Nr.   7
 **********************
 DD1Dir will call FoFMem   1 times, MxPair=        14
 NAB=     4 NAA=     6 NBB=     0.
 A-vector RMS=  1.7382925D-03 Max=  4.3405282D-03 conv= 1.00D-05.
 RLE energy=       -0.0445209550
 DE(Corr)= -0.44499598E-01 E(CORR)=     -848.89488896     Delta=-1.51D-03
 NORM(A)=   0.11639590D+01
 Iteration Nr.   8
 **********************
 DD1Dir will call FoFMem   1 times, MxPair=        14
 NAB=     4 NAA=     6 NBB=     0.
 A-vector RMS=  8.4954106D-04 Max=  1.5603100D-03 conv= 1.00D-05.
 RLE energy=       -0.0449283910
 DE(Corr)= -0.44538393E-01 E(CORR)=     -848.89492775     Delta=-3.88D-05
 NORM(A)=   0.11735672D+01
 Iteration Nr.   9
 **********************
 DD1Dir will call FoFMem   1 times, MxPair=        14
 NAB=     4 NAA=     6 NBB=     0.
 A-vector RMS=  4.7160086D-04 Max=  1.0672178D-03 conv= 1.00D-05.
 RLE energy=       -0.0447970333
 DE(Corr)= -0.44914251E-01 E(CORR)=     -848.89530361     Delta=-3.76D-04
 NORM(A)=   0.11719899D+01
 Iteration Nr.  10
 **********************
 DD1Dir will call FoFMem   1 times, MxPair=        14
 NAB=     4 NAA=     6 NBB=     0.
 A-vector RMS=  3.4236670D-04 Max=  6.8049503D-04 conv= 1.00D-05.
 RLE energy=       -0.0448775909
 DE(Corr)= -0.44834762E-01 E(CORR)=     -848.89522412     Delta= 7.95D-05
 NORM(A)=   0.11731136D+01
 Iteration Nr.  11
 **********************
 DD1Dir will call FoFMem   1 times, MxPair=        14
 NAB=     4 NAA=     6 NBB=     0.
 A-vector RMS=  2.0585731D-04 Max=  4.1003440D-04 conv= 1.00D-05.
 RLE energy=       -0.0448070524
 DE(Corr)= -0.44872331E-01 E(CORR)=     -848.89526169     Delta=-3.76D-05
 NORM(A)=   0.11718110D+01
 Iteration Nr.  12
 **********************
 DD1Dir will call FoFMem   1 times, MxPair=        14
 NAB=     4 NAA=     6 NBB=     0.
 A-vector RMS=  1.4465734D-04 Max=  3.9674674D-04 conv= 1.00D-05.
 RLE energy=       -0.0447973111
 DE(Corr)= -0.44806958E-01 E(CORR)=     -848.89519632     Delta= 6.54D-05
 NORM(A)=   0.11714430D+01
 Iteration Nr.  13
 **********************
 DD1Dir will call FoFMem   1 times, MxPair=        14
 NAB=     4 NAA=     6 NBB=     0.
 A-vector RMS=  8.9240120D-05 Max=  2.7642607D-04 conv= 1.00D-05.
 RLE energy=       -0.0447959514
 DE(Corr)= -0.44789225E-01 E(CORR)=     -848.89517859     Delta= 1.77D-05
 NORM(A)=   0.11715604D+01
 Iteration Nr.  14
 **********************
 DD1Dir will call FoFMem   1 times, MxPair=        14
 NAB=     4 NAA=     6 NBB=     0.
 A-vector RMS=  5.5742033D-05 Max=  1.7005402D-04 conv= 1.00D-05.
 RLE energy=       -0.0448143906
 DE(Corr)= -0.44794109E-01 E(CORR)=     -848.89518347     Delta=-4.88D-06
 NORM(A)=   0.11718944D+01
 Iteration Nr.  15
 **********************
 DD1Dir will call FoFMem   1 times, MxPair=        14
 NAB=     4 NAA=     6 NBB=     0.
 A-vector RMS=  2.4598591D-05 Max=  7.4940212D-05 conv= 1.00D-05.
 RLE energy=       -0.0448111287
 DE(Corr)= -0.44811813E-01 E(CORR)=     -848.89520117     Delta=-1.77D-05
 NORM(A)=   0.11719007D+01
 Iteration Nr.  16
 **********************
 DD1Dir will call FoFMem   1 times, MxPair=        14
 NAB=     4 NAA=     6 NBB=     0.
 A-vector RMS=  9.6070470D-06 Max=  2.3357534D-05 conv= 1.00D-05.
 RLE energy=       -0.0448122907
 DE(Corr)= -0.44811748E-01 E(CORR)=     -848.89520111     Delta= 6.57D-08
 NORM(A)=   0.11719100D+01
 Iteration Nr.  17
 **********************
 DD1Dir will call FoFMem   1 times, MxPair=        14
 NAB=     4 NAA=     6 NBB=     0.
 A-vector RMS=  5.0526825D-06 Max=  1.1219993D-05 conv= 1.00D-05.
 RLE energy=       -0.0448116145
 DE(Corr)= -0.44812399E-01 E(CORR)=     -848.89520176     Delta=-6.51D-07
 NORM(A)=   0.11718984D+01
 Iteration Nr.  18
 **********************
 DD1Dir will call FoFMem   1 times, MxPair=        14
 NAB=     4 NAA=     6 NBB=     0.
 A-vector RMS=  2.4493958D-06 Max=  6.6373435D-06 conv= 1.00D-05.
 RLE energy=       -0.0448121565
 DE(Corr)= -0.44811989E-01 E(CORR)=     -848.89520135     Delta= 4.10D-07
 NORM(A)=   0.11718994D+01
 Iteration Nr.  19
 **********************
 DD1Dir will call FoFMem   1 times, MxPair=        14
 NAB=     4 NAA=     6 NBB=     0.
 A-vector RMS=  1.2895826D-06 Max=  2.6033253D-06 conv= 1.00D-05.
 RLE energy=       -0.0448121574
 DE(Corr)= -0.44812306E-01 E(CORR)=     -848.89520167     Delta=-3.17D-07
 NORM(A)=   0.11718968D+01
 Iteration Nr.  20
 **********************
 DD1Dir will call FoFMem   1 times, MxPair=        14
 NAB=     4 NAA=     6 NBB=     0.
 A-vector RMS=  8.1791325D-07 Max=  1.6174739D-06 conv= 1.00D-05.
 RLE energy=       -0.0448121857
 DE(Corr)= -0.44812291E-01 E(CORR)=     -848.89520165     Delta= 1.47D-08
 NORM(A)=   0.11718934D+01
 CI/CC converged in   20 iterations to DelEn= 1.47D-08 Conv= 1.00D-07 ErrA1= 8.18D-07 Conv= 1.00D-05
 Wavefunction amplitudes converged. E(Corr)=     -848.89520165    
 Dominant configurations:
 ***********************
 Spin Case        I    J    A    B          Value
   AAAA          10   11   19   18      -0.558198D+00
 Largest amplitude= 5.58D-01

 S**2, projected HF & approx projected MPn energies after annihilation of
 unwanted spin states (see manual for definitions):

 spins       (S**2,0) (S**2,1)    PUHF        PMP2        PMP3        PMP4
 annihilated
 s+1         3.75003  3.75003 -848.850622 -848.871977 -848.878992

 Discarding MO integrals.
 Leave Link  913 at Fri Mar 25 15:01:36 2022, MaxMem=  9663676416 cpu:               9.3 elap:               0.3
 (Enter /nopt/nrel/apps/gaussian/g16C_1/g16/l601.exe)
 Copying SCF densities to generalized density rwf, IOpCl= 1 IROHF=0.

 **********************************************************************

            Population analysis using the SCF Density.

 **********************************************************************

 Orbital symmetries:
 Alpha Orbitals:
       Occupied  (SG) (SG) (PI) (PI) (SG) (SG) (SG) (PI) (PI) (PI)
                 (PI) (SG) (SG)
       Virtual   (PI) (PI) (SG) (SG) (DLTA) (DLTA) (PI) (PI) (SG)
                 (SG) (PI) (PI) (DLTA) (DLTA) (SG)
 Beta  Orbitals:
       Occupied  (SG) (SG) (PI) (PI) (SG) (SG) (PI) (PI) (SG) (SG)
       Virtual   (SG) (PI) (PI) (SG) (SG) (DLTA) (DLTA) (PI) (PI)
                 (SG) (PI) (PI) (SG) (DLTA) (DLTA) (PI) (PI) (SG)
 The electronic state is 4-SG.
 Alpha  occ. eigenvalues -- -183.23230 -21.41702 -17.78715 -17.78715 -17.78456
 Alpha  occ. eigenvalues --   -2.91702  -1.88126  -1.84369  -1.84369  -0.40009
 Alpha  occ. eigenvalues --   -0.40009  -0.38430  -0.22300
 Alpha virt. eigenvalues --    0.02285   0.02285   0.09902   0.13868   0.16184
 Alpha virt. eigenvalues --    0.16184   0.20897   0.20897   0.20979   0.51506
 Alpha virt. eigenvalues --    1.03369   1.03369   1.12956   1.12956   1.33532
  Beta  occ. eigenvalues -- -183.23046 -21.38280 -17.76068 -17.76068 -17.73724
  Beta  occ. eigenvalues --   -2.78510  -1.72016  -1.72016  -1.64802  -0.33691
  Beta virt. eigenvalues --    0.03187   0.04658   0.04658   0.11849   0.19031
  Beta virt. eigenvalues --    0.21614   0.21614   0.24414   0.24414   0.26474
  Beta virt. eigenvalues --    0.27240   0.27240   0.56851   1.16773   1.16773
  Beta virt. eigenvalues --    1.21655   1.21655   1.37493
          Condensed to atoms (all electrons):
               1          2
     1  H    0.632893   0.370310
     2  Ti   0.370310  21.626487
          Atomic-Atomic Spin Densities.
               1          2
     1  H    0.072916   0.003004
     2  Ti   0.003004   2.921076
 Mulliken charges and spin densities:
               1          2
     1  H   -0.003203   0.075920
     2  Ti   0.003203   2.924080
 Sum of Mulliken charges =  -0.00000   3.00000
 Mulliken charges and spin densities with hydrogens summed into heavy atoms:
               1          2
     2  Ti  -0.000000   3.000000
 N-N= 6.467721466800D+00 E-N=-2.025597854122D+03  KE= 8.489451676084D+02
 Symmetry A1   KE= 6.560819100218D+02
 Symmetry A2   KE=-2.144063686408D-50
 Symmetry B1   KE= 9.643162879331D+01
 Symmetry B2   KE= 9.643162879331D+01
 Symmetry A1   SP= 1.000000000000D+00
 Symmetry A2   SP=-3.131367998453D-51
 Symmetry B1   SP= 1.000000000000D+00
 Symmetry B2   SP= 1.000000000000D+00

 Atomic contributions to Alpha molecular orbitals:
 Alpha occ 1 OE=-183.232 is Ti2-s=1.0000
 Alpha occ 2 OE=-21.417 is Ti2-s=1.0000
 Alpha occ 3 OE=-17.787 is Ti2-p=1.0000
 Alpha occ 4 OE=-17.787 is Ti2-p=1.0000
 Alpha occ 5 OE=-17.785 is Ti2-p=1.0000
 Alpha occ 6 OE=-2.917 is Ti2-s=0.9997
 Alpha occ 7 OE=-1.881 is Ti2-p=0.9984
 Alpha occ 8 OE=-1.844 is Ti2-p=1.0000
 Alpha occ 9 OE=-1.844 is Ti2-p=1.0000
 Alpha occ 10 OE=-0.400 is Ti2-d=0.9980
 Alpha occ 11 OE=-0.400 is Ti2-d=0.9980
 Alpha occ 12 OE=-0.384 is H1-s=0.4893 Ti2-s=0.3198 Ti2-p=0.1213
 Alpha occ 13 OE=-0.223 is Ti2-s=0.5379 Ti2-p=0.3871
 Alpha vir 14 OE=0.023 is Ti2-p=0.9987
 Alpha vir 15 OE=0.023 is Ti2-p=0.9987
 Alpha vir 16 OE=0.099 is Ti2-p=0.6313 Ti2-d=0.2237 Ti2-s=0.1147
 Alpha vir 17 OE=0.139 is Ti2-s=0.9237
 Alpha vir 18 OE=0.162 is Ti2-d=1.0000
 Alpha vir 19 OE=0.162 is Ti2-d=1.0000
 Alpha vir 20 OE=0.209 is Ti2-p=0.9990
 Alpha vir 21 OE=0.209 is Ti2-p=0.9990
 Alpha vir 22 OE=0.210 is Ti2-p=0.5051 Ti2-d=0.4862
 Alpha vir 23 OE=0.515 is H1-s=0.3793 Ti2-p=0.2798 Ti2-d=0.2519
 Alpha vir 24 OE=1.034 is Ti2-d=0.9998
 Alpha vir 25 OE=1.034 is Ti2-d=0.9998
 Alpha vir 26 OE=1.130 is Ti2-d=1.0000
 Alpha vir 27 OE=1.130 is Ti2-d=1.0000
 Alpha vir 28 OE=1.335 is Ti2-d=0.9263

 Atomic contributions to Beta  molecular orbitals:
 Beta  occ 1 OE=-183.230 is Ti2-s=1.0000
 Beta  occ 2 OE=-21.383 is Ti2-s=1.0000
 Beta  occ 3 OE=-17.761 is Ti2-p=1.0000
 Beta  occ 4 OE=-17.761 is Ti2-p=1.0000
 Beta  occ 5 OE=-17.737 is Ti2-p=1.0000
 Beta  occ 6 OE=-2.785 is Ti2-s=0.9993
 Beta  occ 7 OE=-1.720 is Ti2-p=1.0000
 Beta  occ 8 OE=-1.720 is Ti2-p=1.0000
 Beta  occ 9 OE=-1.648 is Ti2-p=0.9978
 Beta  occ 10 OE=-0.337 is H1-s=0.4612 Ti2-s=0.3060 Ti2-p=0.1777
 Beta  vir 11 OE=0.032 is Ti2-s=0.5810 Ti2-p=0.3667
 Beta  vir 12 OE=0.047 is Ti2-p=0.9998
 Beta  vir 13 OE=0.047 is Ti2-p=0.9998
 Beta  vir 14 OE=0.118 is Ti2-p=0.5764 Ti2-s=0.2500 Ti2-d=0.1209
 Beta  vir 15 OE=0.190 is Ti2-s=0.7847 Ti2-d=0.1412
 Beta  vir 16 OE=0.216 is Ti2-d=1.0000
 Beta  vir 17 OE=0.216 is Ti2-d=1.0000
 Beta  vir 18 OE=0.244 is Ti2-p=0.9903
 Beta  vir 19 OE=0.244 is Ti2-p=0.9903
 Beta  vir 20 OE=0.265 is Ti2-p=0.4966 Ti2-d=0.4878
 Beta  vir 21 OE=0.272 is Ti2-d=0.9901
 Beta  vir 22 OE=0.272 is Ti2-d=0.9901
 Beta  vir 23 OE=0.569 is H1-s=0.3832 Ti2-p=0.3152 Ti2-d=0.2458
 Beta  vir 24 OE=1.168 is Ti2-d=1.0000
 Beta  vir 25 OE=1.168 is Ti2-d=1.0000
 Beta  vir 26 OE=1.217 is Ti2-d=1.0000
 Beta  vir 27 OE=1.217 is Ti2-d=1.0000
 Beta  vir 28 OE=1.375 is Ti2-d=0.9295
 
 Leave Link  601 at Fri Mar 25 15:01:36 2022, MaxMem=  9663676416 cpu:               2.7 elap:               0.1
 (Enter /nopt/nrel/apps/gaussian/g16C_1/g16/l9999.exe)

 Test job not archived.
 1\1\GINC-R1I7N35\SP\UCCSD-FC\Gen\H1Ti1(4)\USER\25-Mar-2022\0\\#P C
 CSD(MaxCyc=200)/GEN sp pop=AllOrbitals iop(3/33=1,3/36=-1)\\test\\0,4\
 H,0,0.,0.,0.\Ti,0,0.,0.,1.8\\Version=ES64L-G16RevC.01\State=4-SG\HF=-8
 48.8503894\MP2=-848.8717957\MP3=-848.8788547\MP4D=-848.8817073\MP4DQ=-
 848.8814868\PUHF=-848.8506218\PMP2-0=-848.8719775\PMP3-0=-848.878993\M
 P4SDQ=-848.8817666\CCSD=-848.8952017\S2=3.756131\S2-1=3.75346\S2A=3.75
 0003\RMSD=2.562e-09\PG=C*V [C*(H1Ti1)]\\@


 IF YOU WANT TO LEARN FROM THE THEORETICAL PHYSICISTS ABOUT THE
 METHODS WHICH THEY USE, I ADVISE YOU TO FOLLOW THIS PRINCIPLE VERY STRICTLY:
 DON'T LISTEN TO THEIR WORDS; PAY ATTENTION, INSTEAD, TO THEIR ACTIONS.
 -- A.EINSTEIN, 1934
 Job cpu time:       0 days  0 hours  0 minutes 49.4 seconds.
 Elapsed time:       0 days  0 hours  0 minutes  1.7 seconds.
 File lengths (MBytes):  RWF=     13 Int=      0 D2E=      0 Chk=      1 Scr=      1
 Normal termination of Gaussian 16 at Fri Mar 25 15:01:36 2022.
