 Entering Gaussian System, Link 0=g16
 Initial command:
 /nopt/nrel/apps/gaussian/g16C_1/g16/l1.exe "/lustre/eaglefs/scratch/user/qc/lih-dissc/lih-1-ccsd-2.2-321g/Gau-33772.inp" -scrdir="/lustre/eaglefs/scratch/user/qc/lih-dissc/lih-1-ccsd-2.2-321g/"
 Default is to use a total of  36 processors:
                               36 via shared-memory
                                1 via Linda
 Entering Link 1 = /nopt/nrel/apps/gaussian/g16C_1/g16/l1.exe PID=     33773.
  
 Copyright (c) 1988-2019, Gaussian, Inc.  All Rights Reserved.
  
 This is part of the Gaussian(R) 16 program.  It is based on
 the Gaussian(R) 09 system (copyright 2009, Gaussian, Inc.),
 the Gaussian(R) 03 system (copyright 2003, Gaussian, Inc.),
 the Gaussian(R) 98 system (copyright 1998, Gaussian, Inc.),
 the Gaussian(R) 94 system (copyright 1995, Gaussian, Inc.),
 the Gaussian 92(TM) system (copyright 1992, Gaussian, Inc.),
 the Gaussian 90(TM) system (copyright 1990, Gaussian, Inc.),
 the Gaussian 88(TM) system (copyright 1988, Gaussian, Inc.),
 the Gaussian 86(TM) system (copyright 1986, Carnegie Mellon
 University), and the Gaussian 82(TM) system (copyright 1983,
 Carnegie Mellon University). Gaussian is a federally registered
 trademark of Gaussian, Inc.
  
 This software contains proprietary and confidential information,
 including trade secrets, belonging to Gaussian, Inc.
  
 This software is provided under written license and may be
 used, copied, transmitted, or stored only in accord with that
 written license.
  
 The following legend is applicable only to US Government
 contracts under FAR:
  
                    RESTRICTED RIGHTS LEGEND
  
 Use, reproduction and disclosure by the US Government is
 subject to restrictions as set forth in subparagraphs (a)
 and (c) of the Commercial Computer Software - Restricted
 Rights clause in FAR 52.227-19.
  
 Gaussian, Inc.
 340 Quinnipiac St., Bldg. 40, Wallingford CT 06492
  
  
 ---------------------------------------------------------------
 Warning -- This program may not be used in any manner that
 competes with the business of Gaussian, Inc. or will provide
 assistance to any competitor of Gaussian, Inc.  The licensee
 of this program is prohibited from giving any competitor of
 Gaussian, Inc. access to this program.  By using this program,
 the user acknowledges that Gaussian, Inc. is engaged in the
 business of creating and licensing software in the field of
 computational chemistry and represents and warrants to the
 licensee that it is not a competitor of Gaussian, Inc. and that
 it will not use this program in any manner prohibited above.
 ---------------------------------------------------------------
  

 Cite this work as:
 Gaussian 16, Revision C.01,
 M. J. Frisch, G. W. Trucks, H. B. Schlegel, G. E. Scuseria, 
 M. A. Robb, J. R. Cheeseman, G. Scalmani, V. Barone, 
 G. A. Petersson, H. Nakatsuji, X. Li, M. Caricato, A. V. Marenich, 
 J. Bloino, B. G. Janesko, R. Gomperts, B. Mennucci, H. P. Hratchian, 
 J. V. Ortiz, A. F. Izmaylov, J. L. Sonnenberg, D. Williams-Young, 
 F. Ding, F. Lipparini, F. Egidi, J. Goings, B. Peng, A. Petrone, 
 T. Henderson, D. Ranasinghe, V. G. Zakrzewski, J. Gao, N. Rega, 
 G. Zheng, W. Liang, M. Hada, M. Ehara, K. Toyota, R. Fukuda, 
 J. Hasegawa, M. Ishida, T. Nakajima, Y. Honda, O. Kitao, H. Nakai, 
 T. Vreven, K. Throssell, J. A. Montgomery, Jr., J. E. Peralta, 
 F. Ogliaro, M. J. Bearpark, J. J. Heyd, E. N. Brothers, K. N. Kudin, 
 V. N. Staroverov, T. A. Keith, R. Kobayashi, J. Normand, 
 K. Raghavachari, A. P. Rendell, J. C. Burant, S. S. Iyengar, 
 J. Tomasi, M. Cossi, J. M. Millam, M. Klene, C. Adamo, R. Cammi, 
 J. W. Ochterski, R. L. Martin, K. Morokuma, O. Farkas, 
 J. B. Foresman, and D. J. Fox, Gaussian, Inc., Wallingford CT, 2019.
 
 ******************************************
 Gaussian 16:  ES64L-G16RevC.01  3-Jul-2019
                28-Mar-2022 
 ******************************************
 %chk=molecule
 Default route: CacheSize=180224 MaxDisk=256GB
 ----------------------------------------------------------------------
 #P CCSD(MaxCyc=200,SaveAmplitudes,ReadAmplitudes)/GEN sp pop=AllOrbita
 ls iop(3/33=1,3/36=-1)
 ----------------------------------------------------------------------
 1/4=180224,38=1,172=1/1;
 2/4=180224,12=2,17=6,18=5,40=1/2;
 3/4=180224,5=7,11=9,25=1,30=1,33=1,36=-1/1,2,3;
 4/4=180224/1;
 5/4=180224,5=2,38=5/2;
 8/4=180224,6=4,9=120000,10=1,24=1/1,4;
 9/4=180224,5=7,6=200,77=1/13;
 6/4=180224,7=2,8=2,9=2,10=2,96=-1/1;
 99/4=180224,5=1,9=1/99;
 Leave Link    1 at Mon Mar 28 14:00:11 2022, MaxMem=           0 cpu:               2.0 elap:               0.1
 (Enter /nopt/nrel/apps/gaussian/g16C_1/g16/l101.exe)
 ----
 test
 ----
 Symbolic Z-matrix:
 Charge =  0 Multiplicity = 1
 H                     0.        0.        0. 
 Li                    0.        0.        2.2 
 
 ITRead=  0  0
 MicOpt= -1 -1
 NAtoms=      2 NQM=        2 NQMF=       0 NMMI=      0 NMMIF=      0
                NMic=       0 NMicF=      0.
                    Isotopes and Nuclear Properties:
 (Nuclear quadrupole moments (NQMom) in fm**2, nuclear magnetic moments (NMagM)
  in nuclear magnetons)

  Atom         1           2
 IAtWgt=           1           7
 AtmWgt=   1.0078250   7.0160045
 NucSpn=           1           3
 AtZEff=  -0.0000000  -0.0000000
 NQMom=    0.0000000  -4.0100000
 NMagM=    2.7928460   3.2564240
 AtZNuc=   1.0000000   3.0000000
 Leave Link  101 at Mon Mar 28 14:00:11 2022, MaxMem=  9663676416 cpu:               2.8 elap:               0.1
 (Enter /nopt/nrel/apps/gaussian/g16C_1/g16/l202.exe)
                          Input orientation:                          
 ---------------------------------------------------------------------
 Center     Atomic      Atomic             Coordinates (Angstroms)
 Number     Number       Type             X           Y           Z
 ---------------------------------------------------------------------
      1          1           0        0.000000    0.000000    0.000000
      2          3           0        0.000000    0.000000    2.200000
 ---------------------------------------------------------------------
 Stoichiometry    HLi
 Framework group  C*V[C*(HLi)]
 Deg. of freedom     1
 Full point group                 C*V     NOp   4
 Largest Abelian subgroup         C2V     NOp   4
 Largest concise Abelian subgroup C1      NOp   1
                         Standard orientation:                         
 ---------------------------------------------------------------------
 Center     Atomic      Atomic             Coordinates (Angstroms)
 Number     Number       Type             X           Y           Z
 ---------------------------------------------------------------------
      1          1           0        0.000000    0.000000   -1.650000
      2          3           0        0.000000    0.000000    0.550000
 ---------------------------------------------------------------------
 Rotational constants (GHZ):           0.0000000         118.4891352         118.4891352
 Leave Link  202 at Mon Mar 28 14:00:11 2022, MaxMem=  9663676416 cpu:               0.5 elap:               0.0
 (Enter /nopt/nrel/apps/gaussian/g16C_1/g16/l301.exe)
 General basis read from cards:  (5D, 7F)
                         Coordinates in L301:                         
 ---------------------------------------------------------------------
 Center     Atomic      Atomic             Coordinates (Angstroms)
 Number     Number       Type             X           Y           Z
 ---------------------------------------------------------------------
      1          1           0        0.000000    0.000000   -1.650000
      2          3           0        0.000000    0.000000    0.550000
 ---------------------------------------------------------------------
 Centers:       1
 STO-3G
 ****
 Centers:       2
 3-21G
 ****
 FixB: optimizing general contractions.
 Ernie: Thresh=  0.10000D-02 Tol=  0.10000D-05 Strict=F.
 IA=     1 ShT= 0 ShC= 0 NL=   1 NS=   0.
 IA=     1 L=0 SC=0 ISt=    0 NBk=    0 NP=    0 IndPr=    0.
 IA=     2 ShT= 0 ShC= 0 NL=   1 NS=   0.
 IA=     2 L=0 SC=0 ISt=    0 NBk=    0 NP=    0 IndPr=    0.
 IA=     2 ShT= 1 ShC= 0 NL=   2 NS=   1.
 IA=     2 L=1 SC=0 ISt=    0 NBk=    0 NP=    0 IndPr=    0.
 LdAtmC:  AtmChg=     1.000000     3.000000
 AtZEff=     -1.0000000     -1.3500000
 NEqShl: 
              1            2            3            4
     1            1            1            1            1
     2            2            2            2            2
     3            3            3            3            3
     4            4            4            4            4
 NEqBas: 
              1            2            3            4
     1            1            1            1            1
     2            2            2            2            2
     3            3            3            3            3
     4            4           -4           -4            4
     5            5           -5            5           -5
     6            6            6            6            6
     7            7            7            7            7
     8            8           -8           -8            8
     9            9           -9            9           -9
    10           10           10           10           10
 There are     6 symmetry adapted cartesian basis functions of A1  symmetry.
   1         1   1   1   1
   2         2   2   2   2
   3         3   3   3   3
   4         6   6   6   6
   5         7   7   7   7
   6        10  10  10  10
 There are     0 symmetry adapted cartesian basis functions of A2  symmetry.
 There are     2 symmetry adapted cartesian basis functions of B1  symmetry.
   7         4   4   4   4
   8         8   8   8   8
 There are     2 symmetry adapted cartesian basis functions of B2  symmetry.
   9         5   5   5   5
  10         9   9   9   9
 Order= 1 2 4 3
 Reordered character table:
              1            2            3            4            5
     1            1            1            1            1            1
     2            2            1            1           -1           -1
     3            4            1           -1           -1            1
     4            3            1           -1            1           -1
 NEqShl: 
              1            2            3            4
     1            1            1            1            1
     2            2            2            2            2
     3            3            3            3            3
     4            4            4            4            4
 NEqBas: 
              1            2            3            4
     1            1            1            1            1
     2            2            2            2            2
     3            3            3            3            3
     4            4           -4           -4            4
     5            5           -5            5           -5
     6            6            6            6            6
     7            7            7            7            7
     8            8           -8           -8            8
     9            9           -9            9           -9
    10           10           10           10           10
 There are     6 symmetry adapted basis functions of A1  symmetry.
   1         1   1   1   1
   2         2   2   2   2
   3         3   3   3   3
   4         6   6   6   6
   5         7   7   7   7
   6        10  10  10  10
 There are     0 symmetry adapted basis functions of A2  symmetry.
 There are     2 symmetry adapted basis functions of B1  symmetry.
   7         4   4   4   4
   8         8   8   8   8
 There are     2 symmetry adapted basis functions of B2  symmetry.
   9         5   5   5   5
  10         9   9   9   9
 Order= 1 2 4 3
 Reordered character table:
              1            2            3            4            5
     1            1            1            1            1            1
     2            2            1            1           -1           -1
     3            4            1           -1           -1            1
     4            3            1           -1            1           -1
    10 basis functions,    18 primitive gaussians,    10 cartesian basis functions
     2 alpha electrons        2 beta electrons
       nuclear repulsion energy         0.7216052876 Hartrees.
 IS=     1 IAt=     1 ISR=     1 T=0 IP=      1 IndIP=      1 IndIPD=      0 C=  2.769344D-01  0.000000D+00                             NZ=T
 IS=     1 IAt=     1 ISR=     1 T=0 IP=      2 IndIP=      2 IndIPD=      1 C=  2.678389D-01  0.000000D+00                             NZ=T
 IS=     1 IAt=     1 ISR=     1 T=0 IP=      3 IndIP=      3 IndIPD=      2 C=  8.347367D-02  0.000000D+00                             NZ=T
 IS=     2 IAt=     2 ISR=     1 T=0 IP=      1 IndIP=      4 IndIPD=      0 C=  7.424571D-01  0.000000D+00                             NZ=T
 IS=     2 IAt=     2 ISR=     1 T=0 IP=      2 IndIP=      5 IndIPD=      1 C=  9.736824D-01  0.000000D+00                             NZ=T
 IS=     2 IAt=     2 ISR=     1 T=0 IP=      3 IndIP=      6 IndIPD=      2 C=  5.265692D-01  0.000000D+00                             NZ=T
 IS=     3 IAt=     2 ISR=     2 T=1 IP=      1 IndIP=      7 IndIPD=      0 C= -1.181663D-01  1.066435D-01                             NZ=T
 IS=     3 IAt=     2 ISR=     2 T=1 IP=      2 IndIP=      8 IndIPD=      1 C=  1.473557D-01  7.547122D-02                             NZ=T
 IS=     4 IAt=     2 ISR=     3 T=1 IP=      1 IndIP=      9 IndIPD=      0 C=  4.951993D-02  1.673876D-02                             NZ=T
 IExCor=    0 DFT=F Ex=HF Corr=None ExCW=0 ScaHFX=  1.000000
 ScaDFX=  1.000000  1.000000  1.000000  1.000000 ScalE2=  1.000000  1.000000
 IRadAn=      5 IRanWt=     -1 IRanGd=            0 ICorTp=0 IEmpDi=  4
 NAtoms=    2 NActive=    2 NUniq=    2 SFac= 1.00D+00 NAtFMM=   60 NAOKFM=F Big=F
 Integral buffers will be    131072 words long.
 Raffenetti 1 integral format.
 Two-electron integral symmetry is turned on.
 Leave Link  301 at Mon Mar 28 14:00:11 2022, MaxMem=  9663676416 cpu:               2.2 elap:               0.1
 (Enter /nopt/nrel/apps/gaussian/g16C_1/g16/l302.exe)
 NPDir=0 NMtPBC=     1 NCelOv=     1 NCel=       1 NClECP=     1 NCelD=      1
         NCelK=      1 NCelE2=     1 NClLst=     1 CellRange=     0.0.
 One-electron integrals computed using PRISM.
 One-electron integral symmetry used in STVInt
 Entering OneElI...
 Calculate overlap and kinetic energy integrals
    NBasis =  10  MinDer = 0  MaxDer = 0
 Requested accuracy = 0.1000D-12
 Symmetry will be used
 PrmmSu-InSpLW:  IPartL=    0 NPrtUS=   36 NPrtUL=    1 DoSpLW=F IThBeg=    0 IThEnd=   35 NThAct=   36.
 PrSmSu:  IncTry=   512 NBBP=             10 NTPThr=   100 NPartT=   36 Incr=           1 LDynOK=F GPUOK=F.
 PrsmSu:  NPrtUS=  36 ThrOK=T IAlg=1 LenDen=           0 ISkipM=0 DoSpLW=F IThBeg=    0 IThEnd=   35.
 Prism:   IPart=     0 DynPar=F LinDyn=F Incr=           1.
 PRISM was handed   268434308 working-precision words and    10 shell-pairs
 PRISM was handed   268434308 working-precision words and    10 shell-pairs
 PRISM was handed   268434308 working-precision words and    10 shell-pairs
 PRISM was handed   268434308 working-precision words and    10 shell-pairs
 PRISM was handed   268434308 working-precision words and    10 shell-pairs
 PRISM was handed   268434308 working-precision words and    10 shell-pairs
 PRISM was handed   268434308 working-precision words and    10 shell-pairs
 PRISM was handed   268434308 working-precision words and    10 shell-pairs
 PRISM was handed   268434308 working-precision words and    10 shell-pairs
 PRISM was handed   268434308 working-precision words and    10 shell-pairs
 PRISM was handed   268434308 working-precision words and    10 shell-pairs
 IPart= 18 NShTot=           0 NBatch=           0 AvBLen=         0.0
 IPart= 26 NShTot=           0 NBatch=           0 AvBLen=         0.0
 IPart= 13 NShTot=           0 NBatch=           0 AvBLen=         0.0
 IPart=  2 NShTot=           0 NBatch=           0 AvBLen=         0.0
 IPart=  6 NShTot=           0 NBatch=           0 AvBLen=         0.0
 IPart=  8 NShTot=           0 NBatch=           0 AvBLen=         0.0
 IPart= 17 NShTot=           0 NBatch=           0 AvBLen=         0.0
 IPart= 24 NShTot=           0 NBatch=           0 AvBLen=         0.0
 PRISM was handed   268434308 working-precision words and    10 shell-pairs
 IPart= 33 NShTot=           0 NBatch=           0 AvBLen=         0.0
 IPart= 34 NShTot=           0 NBatch=           0 AvBLen=         0.0
 PRISM was handed   268434308 working-precision words and    10 shell-pairs
 PRISM was handed   268434308 working-precision words and    10 shell-pairs
 PRISM was handed   268434308 working-precision words and    10 shell-pairs
 PRISM was handed   268434308 working-precision words and    10 shell-pairs
 PRISM was handed   268434308 working-precision words and    10 shell-pairs
 PRISM was handed   268434308 working-precision words and    10 shell-pairs
 IPart= 15 NShTot=           0 NBatch=           0 AvBLen=         0.0
 IPart=  3 NShTot=           0 NBatch=           0 AvBLen=         0.0
 IPart= 19 NShTot=           0 NBatch=           0 AvBLen=         0.0
 IPart=  5 NShTot=           0 NBatch=           0 AvBLen=         0.0
 IPart= 20 NShTot=           0 NBatch=           0 AvBLen=         0.0
 IPart= 35 NShTot=           0 NBatch=           0 AvBLen=         0.0
 IPart= 22 NShTot=           0 NBatch=           0 AvBLen=         0.0
 PRISM was handed   268434308 working-precision words and    10 shell-pairs
 PRISM was handed   268434308 working-precision words and    10 shell-pairs
 PRISM was handed   268434308 working-precision words and    10 shell-pairs
 PRISM was handed   268434308 working-precision words and    10 shell-pairs
 PRISM was handed   268434308 working-precision words and    10 shell-pairs
 PRISM was handed   268434308 working-precision words and    10 shell-pairs
 PRISM was handed   268434308 working-precision words and    10 shell-pairs
 PRISM was handed   268434308 working-precision words and    10 shell-pairs
 IPart= 12 NShTot=           0 NBatch=           0 AvBLen=         0.0
 PRISM was handed   268434308 working-precision words and    10 shell-pairs
 IPart= 31 NShTot=           0 NBatch=           0 AvBLen=         0.0
 PRISM was handed   268434308 working-precision words and    10 shell-pairs
 PRISM was handed   268434308 working-precision words and    10 shell-pairs
 IPart= 25 NShTot=           0 NBatch=           0 AvBLen=         0.0
 IPart= 21 NShTot=           0 NBatch=           0 AvBLen=         0.0
 IPart= 16 NShTot=           0 NBatch=           0 AvBLen=         0.0
 IPart=  9 NShTot=           0 NBatch=           0 AvBLen=         0.0
 IPart= 28 NShTot=           0 NBatch=           0 AvBLen=         0.0
 IPart= 14 NShTot=           0 NBatch=           0 AvBLen=         0.0
 IPart= 27 NShTot=           0 NBatch=           0 AvBLen=         0.0
 PRISM was handed   268434308 working-precision words and    10 shell-pairs
 PRISM was handed   268434308 working-precision words and    10 shell-pairs
 PRISM was handed   268434308 working-precision words and    10 shell-pairs
 IPart= 32 NShTot=           0 NBatch=           0 AvBLen=         0.0
 IPart=  4 NShTot=           0 NBatch=           0 AvBLen=         0.0
 PRISM was handed   268434308 working-precision words and    10 shell-pairs
 IPart= 30 NShTot=           0 NBatch=           0 AvBLen=         0.0
 IPart= 10 NShTot=           0 NBatch=           0 AvBLen=         0.0
 IPart=  1 NShTot=           3 NBatch=           3 AvBLen=         1.0
 PRISM was handed   268434308 working-precision words and    10 shell-pairs
 PRISM was handed   268434308 working-precision words and    10 shell-pairs
 PRISM was handed   268434308 working-precision words and    10 shell-pairs
 IPart=  0 NShTot=           7 NBatch=           7 AvBLen=         1.0
 IPart= 23 NShTot=           0 NBatch=           0 AvBLen=         0.0
 IPart= 29 NShTot=           0 NBatch=           0 AvBLen=         0.0
 IPart=  7 NShTot=           0 NBatch=           0 AvBLen=         0.0
 IPart= 11 NShTot=           0 NBatch=           0 AvBLen=         0.0
 PrSmSu:  NxtVal=             37.
 *** Overlap *** 
                1             2             3             4             5 
      1  0.100000D+01
      2  0.157924D-01  0.100000D+01
      3  0.234437D+00  0.177215D+00  0.100000D+01
      4  0.000000D+00  0.000000D+00  0.000000D+00  0.100000D+01
      5  0.000000D+00  0.000000D+00  0.000000D+00  0.000000D+00  0.100000D+01
      6 -0.379904D+00  0.000000D+00  0.000000D+00  0.000000D+00  0.000000D+00
      7  0.266708D+00  0.140674D+00  0.782781D+00  0.000000D+00  0.000000D+00
      8  0.000000D+00  0.000000D+00  0.000000D+00  0.588593D+00  0.000000D+00
      9  0.000000D+00  0.000000D+00  0.000000D+00  0.000000D+00  0.588593D+00
     10 -0.334363D+00  0.000000D+00  0.000000D+00  0.000000D+00  0.000000D+00
                6             7             8             9            10 
      6  0.100000D+01
      7  0.000000D+00  0.100000D+01
      8  0.000000D+00  0.000000D+00  0.100000D+01
      9  0.000000D+00  0.000000D+00  0.000000D+00  0.100000D+01
     10  0.588593D+00  0.000000D+00  0.000000D+00  0.000000D+00  0.100000D+01
 *** Kinetic Energy *** 
                1             2             3             4             5 
      1  0.760032D+00
      2 -0.649845D-02  0.365490D+01
      3  0.114974D-01 -0.135538D+00  0.159492D+00
      4  0.000000D+00  0.000000D+00  0.000000D+00  0.307817D+00
      5  0.000000D+00  0.000000D+00  0.000000D+00  0.000000D+00  0.307817D+00
      6 -0.624392D-01  0.000000D+00  0.000000D+00  0.000000D+00  0.000000D+00
      7  0.143837D-01  0.117904D-01  0.513380D-01  0.000000D+00  0.000000D+00
      8  0.000000D+00  0.000000D+00  0.000000D+00  0.661980D-01  0.000000D+00
      9  0.000000D+00  0.000000D+00  0.000000D+00  0.000000D+00  0.661980D-01
     10 -0.351588D-01  0.000000D+00  0.000000D+00  0.000000D+00  0.000000D+00
                6             7             8             9            10 
      6  0.307817D+00
      7  0.000000D+00  0.428467D-01
      8  0.000000D+00  0.000000D+00  0.714113D-01
      9  0.000000D+00  0.000000D+00  0.000000D+00  0.714113D-01
     10  0.661980D-01  0.000000D+00  0.000000D+00  0.000000D+00  0.714113D-01
 Entering OneElI...
 Calculate potential energy integrals
    NBasis =  10  MinDer = 0  MaxDer = 0
 Requested accuracy = 0.1000D-12
 Symmetry will be used
 PrmmSu-InSpLW:  IPartL=    0 NPrtUS=   36 NPrtUL=    1 DoSpLW=F IThBeg=    0 IThEnd=   35 NThAct=   36.
 PrSmSu:  IncTry=   512 NBBP=             20 NTPThr=   100 NPartT=   36 Incr=           1 LDynOK=F GPUOK=F.
 PrsmSu:  NPrtUS=  36 ThrOK=T IAlg=1 LenDen=           0 ISkipM=0 DoSpLW=F IThBeg=    0 IThEnd=   35.
 Prism:   IPart=     0 DynPar=F LinDyn=F Incr=           1.
 PRISM was handed   268434358 working-precision words and    10 shell-pairs
 PRISM was handed   268434358 working-precision words and    10 shell-pairs
 PRISM was handed   268434358 working-precision words and    10 shell-pairs
 PRISM was handed   268434358 working-precision words and    10 shell-pairs
 PRISM was handed   268434358 working-precision words and    10 shell-pairs
 PRISM was handed   268434358 working-precision words and    10 shell-pairs
 PRISM was handed   268434358 working-precision words and    10 shell-pairs
 PRISM was handed   268434358 working-precision words and    10 shell-pairs
 PRISM was handed   268434358 working-precision words and    10 shell-pairs
 PRISM was handed   268434358 working-precision words and    10 shell-pairs
 PRISM was handed   268434358 working-precision words and    10 shell-pairs
 PRISM was handed   268434358 working-precision words and    10 shell-pairs
 PRISM was handed   268434358 working-precision words and    10 shell-pairs
 PRISM was handed   268434358 working-precision words and    10 shell-pairs
 PRISM was handed   268434358 working-precision words and    10 shell-pairs
 PRISM was handed   268434358 working-precision words and    10 shell-pairs
 PRISM was handed   268434358 working-precision words and    10 shell-pairs
 PRISM was handed   268434358 working-precision words and    10 shell-pairs
 PRISM was handed   268434358 working-precision words and    10 shell-pairs
 PRISM was handed   268434358 working-precision words and    10 shell-pairs
 PRISM was handed   268434358 working-precision words and    10 shell-pairs
 PRISM was handed   268434358 working-precision words and    10 shell-pairs
 PRISM was handed   268434358 working-precision words and    10 shell-pairs
 PRISM was handed   268434358 working-precision words and    10 shell-pairs
 PRISM was handed   268434358 working-precision words and    10 shell-pairs
 PRISM was handed   268434358 working-precision words and    10 shell-pairs
 PRISM was handed   268434358 working-precision words and    10 shell-pairs
 PRISM was handed   268434358 working-precision words and    10 shell-pairs
 PRISM was handed   268434358 working-precision words and    10 shell-pairs
 PRISM was handed   268434358 working-precision words and    10 shell-pairs
 PRISM was handed   268434358 working-precision words and    10 shell-pairs
 PRISM was handed   268434358 working-precision words and    10 shell-pairs
 PRISM was handed   268434358 working-precision words and    10 shell-pairs
 PRISM was handed   268434358 working-precision words and    10 shell-pairs
 PRISM was handed   268434358 working-precision words and    10 shell-pairs
 PRISM was handed   268434358 working-precision words and    10 shell-pairs
 IPart= 16 NShTot=           0 NBatch=           0 AvBLen=         0.0
 IPart=  7 NShTot=           0 NBatch=           0 AvBLen=         0.0
 IPart=  9 NShTot=           0 NBatch=           0 AvBLen=         0.0
 IPart= 24 NShTot=           0 NBatch=           0 AvBLen=         0.0
 IPart=  4 NShTot=           0 NBatch=           0 AvBLen=         0.0
 IPart= 27 NShTot=           0 NBatch=           0 AvBLen=         0.0
 IPart= 35 NShTot=           0 NBatch=           0 AvBLen=         0.0
 IPart= 15 NShTot=           0 NBatch=           0 AvBLen=         0.0
 IPart= 13 NShTot=           0 NBatch=           0 AvBLen=         0.0
 IPart= 25 NShTot=           0 NBatch=           0 AvBLen=         0.0
 IPart= 26 NShTot=           0 NBatch=           0 AvBLen=         0.0
 IPart=  1 NShTot=           6 NBatch=           3 AvBLen=         2.0
 IPart= 21 NShTot=           0 NBatch=           0 AvBLen=         0.0
 IPart= 28 NShTot=           0 NBatch=           0 AvBLen=         0.0
 IPart= 32 NShTot=           0 NBatch=           0 AvBLen=         0.0
 IPart= 33 NShTot=           0 NBatch=           0 AvBLen=         0.0
 IPart= 11 NShTot=           0 NBatch=           0 AvBLen=         0.0
 IPart= 31 NShTot=           0 NBatch=           0 AvBLen=         0.0
 IPart= 29 NShTot=           0 NBatch=           0 AvBLen=         0.0
 IPart= 34 NShTot=           0 NBatch=           0 AvBLen=         0.0
 IPart= 19 NShTot=           0 NBatch=           0 AvBLen=         0.0
 IPart= 17 NShTot=           0 NBatch=           0 AvBLen=         0.0
 IPart=  8 NShTot=           0 NBatch=           0 AvBLen=         0.0
 IPart= 10 NShTot=           0 NBatch=           0 AvBLen=         0.0
 IPart= 14 NShTot=           0 NBatch=           0 AvBLen=         0.0
 IPart=  3 NShTot=           0 NBatch=           0 AvBLen=         0.0
 IPart=  6 NShTot=           0 NBatch=           0 AvBLen=         0.0
 IPart= 23 NShTot=           0 NBatch=           0 AvBLen=         0.0
 IPart= 30 NShTot=           0 NBatch=           0 AvBLen=         0.0
 IPart=  2 NShTot=           0 NBatch=           0 AvBLen=         0.0
 IPart=  5 NShTot=           0 NBatch=           0 AvBLen=         0.0
 IPart= 18 NShTot=           0 NBatch=           0 AvBLen=         0.0
 IPart= 20 NShTot=           0 NBatch=           0 AvBLen=         0.0
 IPart= 12 NShTot=           0 NBatch=           0 AvBLen=         0.0
 IPart= 22 NShTot=           0 NBatch=           0 AvBLen=         0.0
 IPart=  0 NShTot=          14 NBatch=           7 AvBLen=         2.0
 PrSmSu:  NxtVal=             37.
 ***** Potential Energy ***** 
                1             2             3             4             5 
      1  0.194813D+01
      2  0.677070D-01  0.832210D+01
      3  0.377680D+00  0.672319D+00  0.146127D+01
      4  0.000000D+00  0.000000D+00  0.000000D+00  0.137272D+01
      5  0.000000D+00  0.000000D+00  0.000000D+00  0.000000D+00  0.137272D+01
      6 -0.610134D+00 -0.685412D-02 -0.897467D-01  0.000000D+00  0.000000D+00
      7  0.391285D+00  0.648035D+00  0.103887D+01  0.000000D+00  0.000000D+00
      8  0.000000D+00  0.000000D+00  0.000000D+00  0.611368D+00  0.000000D+00
      9  0.000000D+00  0.000000D+00  0.000000D+00  0.000000D+00  0.611368D+00
     10 -0.468814D+00 -0.105619D-02 -0.493829D-01  0.000000D+00  0.000000D+00
                6             7             8             9            10 
      6  0.144476D+01
      7 -0.802897D-01  0.101117D+01
      8  0.000000D+00  0.000000D+00  0.690025D+00
      9  0.000000D+00  0.000000D+00  0.000000D+00  0.690025D+00
     10  0.659543D+00 -0.722918D-01  0.000000D+00  0.000000D+00  0.743879D+00
 ****** Core Hamiltonian ****** 
                1             2             3             4             5 
      1 -0.118810D+01
      2 -0.742054D-01 -0.466720D+01
      3 -0.366183D+00 -0.807857D+00 -0.130178D+01
      4  0.000000D+00  0.000000D+00  0.000000D+00 -0.106490D+01
      5  0.000000D+00  0.000000D+00  0.000000D+00  0.000000D+00 -0.106490D+01
      6  0.547695D+00  0.685412D-02  0.897467D-01  0.000000D+00  0.000000D+00
      7 -0.376901D+00 -0.636245D+00 -0.987529D+00  0.000000D+00  0.000000D+00
      8  0.000000D+00  0.000000D+00  0.000000D+00 -0.545170D+00  0.000000D+00
      9  0.000000D+00  0.000000D+00  0.000000D+00  0.000000D+00 -0.545170D+00
     10  0.433656D+00  0.105619D-02  0.493829D-01  0.000000D+00  0.000000D+00
                6             7             8             9            10 
      6 -0.113694D+01
      7  0.802897D-01 -0.968323D+00
      8  0.000000D+00  0.000000D+00 -0.618614D+00
      9  0.000000D+00  0.000000D+00  0.000000D+00 -0.618614D+00
     10 -0.593345D+00  0.722918D-01  0.000000D+00  0.000000D+00 -0.672468D+00
 SVDSVc IOpt=   1 NormSV=T IR=1
 SVDSVc V= 2.07D+00 1.73D+00 9.53D-01 6.24D-01 4.08D-01 2.15D-01
 SVDSVc IOpt=   1 NormSV=T IR=3
 SVDSVc V= 1.59D+00 4.11D-01
 SVDSVc IOpt=   1 NormSV=T IR=4
 SVDSVc V= 1.59D+00 4.11D-01
 TstOVc:  Largest diagonal error= 8.88D-16 IB=1 I=    2.
 TstOVc:  Largest same sym error= 7.91D-16 IB=1 I=    4 J=    1.
 TstOVc:  Largest diff sym error= 0.00D+00 IB=0 JB=0 I=    0 J=    0.
 Orthogonalized basis functions: 
                 1             2             3             4             5 
      1   0.329091D+00 -0.157830D+00 -0.158341D+00  0.105472D+01  0.176148D+00
      2   0.108574D+00  0.140646D+00  0.983456D+00  0.171994D+00  0.142529D-01
      3   0.347050D+00  0.334168D+00 -0.112684D+00 -0.285818D+00 -0.472977D-01
      4   0.000000D+00  0.000000D+00  0.000000D+00  0.000000D+00  0.000000D+00
      5   0.000000D+00  0.000000D+00  0.000000D+00  0.000000D+00  0.000000D+00
      6  -0.249355D+00  0.399079D+00 -0.823213D-01  0.277846D+00  0.115166D+01
      7   0.350643D+00  0.327408D+00 -0.168466D+00 -0.217650D+00 -0.201968D-01
      8   0.000000D+00  0.000000D+00  0.000000D+00  0.000000D+00  0.000000D+00
      9   0.000000D+00  0.000000D+00  0.000000D+00  0.000000D+00  0.000000D+00
     10  -0.240311D+00  0.393632D+00 -0.956341D-01  0.503426D+00 -0.104511D+01
                 6             7             8             9            10 
      1  -0.908604D-01  0.000000D+00  0.000000D+00  0.000000D+00  0.000000D+00
      2   0.696488D-01  0.000000D+00  0.000000D+00  0.000000D+00  0.000000D+00
      3  -0.151365D+01  0.000000D+00  0.000000D+00  0.000000D+00  0.000000D+00
      4   0.000000D+00  0.561020D+00  0.110243D+01  0.000000D+00  0.000000D+00
      5   0.000000D+00  0.000000D+00  0.000000D+00  0.561020D+00  0.110243D+01
      6  -0.341872D-01  0.000000D+00  0.000000D+00  0.000000D+00  0.000000D+00
      7   0.152858D+01  0.000000D+00  0.000000D+00  0.000000D+00  0.000000D+00
      8   0.000000D+00  0.561020D+00 -0.110243D+01  0.000000D+00  0.000000D+00
      9   0.000000D+00  0.000000D+00  0.000000D+00  0.561020D+00 -0.110243D+01
     10  -0.130746D-01  0.000000D+00  0.000000D+00  0.000000D+00  0.000000D+00
 NBasis=    10 RedAO= T EigKep=  2.15D-01  NBF=     6     0     2     2
 NBsUse=    10 1.00D-06 EigRej= -1.00D+00 NBFU=     6     0     2     2
 Leave Link  302 at Mon Mar 28 14:00:11 2022, MaxMem=  9663676416 cpu:               2.9 elap:               0.1
 (Enter /nopt/nrel/apps/gaussian/g16C_1/g16/l303.exe)
 DipDrv will not compute anything.
 Fermi contact integrals: 
                 1             2 
      1   0.628247D+00  0.451440D-02
      2   0.000000D+00  0.224271D+01
      3   0.251552D-01  0.291894D-01
      4   0.000000D+00  0.000000D+00
      5   0.000000D+00  0.000000D+00
      6  -0.536241D-01  0.000000D+00
      7   0.302250D-01  0.495199D-01
      8   0.000000D+00  0.000000D+00
      9   0.000000D+00  0.000000D+00
     10  -0.424747D-01  0.000000D+00
 Leave Link  303 at Mon Mar 28 14:00:11 2022, MaxMem=  9663676416 cpu:               1.2 elap:               0.1
 (Enter /nopt/nrel/apps/gaussian/g16C_1/g16/l401.exe)
 ExpMin= 2.86D-02 ExpMax= 3.68D+01 ExpMxC= 3.68D+01 IAcc=3 IRadAn=         5 AccDes= 0.00D+00
 Harris functional with IExCor=  205 and IRadAn=       5 diagonalized for initial guess.
 HarFok:  IExCor=  205 AccDes= 0.00D+00 IRadAn=         5 IDoV= 1 UseB2=F ITyADJ=14
 ICtDFT=  3500011 ScaDFX=  1.000000  1.000000  1.000000  1.000000
 FoFCou: FMM=F IPFlag=           0 FMFlag=      100000 FMFlg1=           0
         NFxFlg=           0 DoJE=T BraDBF=F KetDBF=T FulRan=T
         wScrn=  0.000000 ICntrl=       500 IOpCl=  0 I1Cent=   200000004 NGrid=           0
         NMat0=    1 NMatS0=      1 NMatT0=    0 NMatD0=    1 NMtDS0=    0 NMtDT0=    0
 Petite list used in FoFCou.
 Harris En= -7.93120000357978    
 JPrj=0 DoOrth=F DoCkMO=F.
 Initial guess orbital symmetries:
       Occupied  (SG) (SG)
       Virtual   (SG) (PI) (PI) (SG) (SG) (PI) (PI) (SG)
 The electronic state of the initial guess is 1-SG.
 Leave Link  401 at Mon Mar 28 14:00:12 2022, MaxMem=  9663676416 cpu:               3.9 elap:               0.1
 (Enter /nopt/nrel/apps/gaussian/g16C_1/g16/l502.exe)
 Keep R1 ints in memory in symmetry-blocked form, NReq=7206198.
 FoFCou: FMM=F IPFlag=           0 FMFlag=           0 FMFlg1=           0
         NFxFlg=           0 DoJE=F BraDBF=F KetDBF=F FulRan=T
         wScrn=  0.000000 ICntrl=       600 IOpCl=  0 I1Cent=           0 NGrid=           0
         NMat0=    1 NMatS0=     55 NMatT0=    0 NMatD0=    1 NMtDS0=    0 NMtDT0=    0
 Petite list used in FoFCou.
 Closed shell SCF:
 Using DIIS extrapolation, IDIIS=  1040.
 NGot=  9663676416 LenX=  9663673310 LenY=  9663672428
 Requested convergence on RMS density matrix=1.00D-08 within 128 cycles.
 Requested convergence on MAX density matrix=1.00D-06.
 Requested convergence on             energy=1.00D-06.
 No special actions if energy rises.

 Cycle   1  Pass 1  IDiag  1:
 E= -7.85158618359219    
 DIIS: error= 3.75D-02 at cycle   1 NSaved=   1.
 NSaved= 1 IEnMin= 1 EnMin= -7.85158618359219     IErMin= 1 ErrMin= 3.75D-02
 ErrMax= 3.75D-02  0.00D+00 EMaxC= 1.00D-01 BMatC= 1.07D-02 BMatP= 1.07D-02
 IDIUse=3 WtCom= 6.25D-01 WtEn= 3.75D-01
 Coeff-Com:  0.100D+01
 Coeff-En:   0.100D+01
 Coeff:      0.100D+01
 Gap=     0.203 Goal=   None    Shift=    0.000
 GapD=    0.203 DampG=1.000 DampE=0.500 DampFc=0.5000 IDamp=-1.
 Damping current iteration by 5.00D-01
 RMSDP=2.44D-02 MaxDP=1.95D-01              OVMax= 1.45D-01

 Cycle   2  Pass 1  IDiag  1:
 E= -7.86774796871175     Delta-E=       -0.016161785120 Rises=F Damp=T
 DIIS: error= 1.81D-02 at cycle   2 NSaved=   2.
 NSaved= 2 IEnMin= 2 EnMin= -7.86774796871175     IErMin= 2 ErrMin= 1.81D-02
 ErrMax= 1.81D-02  0.00D+00 EMaxC= 1.00D-01 BMatC= 2.72D-03 BMatP= 1.07D-02
 IDIUse=3 WtCom= 8.19D-01 WtEn= 1.81D-01
 Coeff-Com: -0.101D+01 0.201D+01
 Coeff-En:   0.000D+00 0.100D+01
 Coeff:     -0.824D+00 0.182D+01
 Gap=     0.256 Goal=   None    Shift=    0.000
 RMSDP=1.21D-02 MaxDP=9.36D-02 DE=-1.62D-02 OVMax= 6.92D-03

 Cycle   3  Pass 1  IDiag  1:
 E= -7.88405407465999     Delta-E=       -0.016306105948 Rises=F Damp=F
 DIIS: error= 5.58D-04 at cycle   3 NSaved=   3.
 NSaved= 3 IEnMin= 3 EnMin= -7.88405407465999     IErMin= 3 ErrMin= 5.58D-04
 ErrMax= 5.58D-04  0.00D+00 EMaxC= 1.00D-01 BMatC= 4.25D-06 BMatP= 2.72D-03
 IDIUse=3 WtCom= 9.94D-01 WtEn= 5.58D-03
 Coeff-Com:  0.362D+00-0.724D+00 0.136D+01
 Coeff-En:   0.000D+00 0.000D+00 0.100D+01
 Coeff:      0.360D+00-0.720D+00 0.136D+01
 Gap=     0.261 Goal=   None    Shift=    0.000
 RMSDP=6.44D-04 MaxDP=2.54D-03 DE=-1.63D-02 OVMax= 6.34D-03

 Cycle   4  Pass 1  IDiag  1:
 E= -7.88408427950240     Delta-E=       -0.000030204842 Rises=F Damp=F
 DIIS: error= 2.42D-04 at cycle   4 NSaved=   4.
 NSaved= 4 IEnMin= 4 EnMin= -7.88408427950240     IErMin= 4 ErrMin= 2.42D-04
 ErrMax= 2.42D-04  0.00D+00 EMaxC= 1.00D-01 BMatC= 3.66D-07 BMatP= 4.25D-06
 IDIUse=3 WtCom= 9.98D-01 WtEn= 2.42D-03
 Coeff-Com: -0.239D+00 0.485D+00-0.128D+01 0.203D+01
 Coeff-En:   0.000D+00 0.000D+00 0.000D+00 0.100D+01
 Coeff:     -0.239D+00 0.483D+00-0.127D+01 0.203D+01
 Gap=     0.261 Goal=   None    Shift=    0.000
 RMSDP=3.91D-04 MaxDP=1.38D-03 DE=-3.02D-05 OVMax= 4.29D-03

 Cycle   5  Pass 1  IDiag  1:
 E= -7.88408903080743     Delta-E=       -0.000004751305 Rises=F Damp=F
 DIIS: error= 3.16D-05 at cycle   5 NSaved=   5.
 NSaved= 5 IEnMin= 5 EnMin= -7.88408903080743     IErMin= 5 ErrMin= 3.16D-05
 ErrMax= 3.16D-05  0.00D+00 EMaxC= 1.00D-01 BMatC= 7.85D-09 BMatP= 3.66D-07
 IDIUse=1 WtCom= 1.00D+00 WtEn= 0.00D+00
 Coeff-Com: -0.203D-01 0.408D-01-0.661D-01 0.119D+00 0.926D+00
 Coeff:     -0.203D-01 0.408D-01-0.661D-01 0.119D+00 0.926D+00
 Gap=     0.261 Goal=   None    Shift=    0.000
 RMSDP=3.48D-05 MaxDP=1.46D-04 DE=-4.75D-06 OVMax= 2.62D-04

 Cycle   6  Pass 1  IDiag  1:
 E= -7.88408908220051     Delta-E=       -0.000000051393 Rises=F Damp=F
 DIIS: error= 8.61D-06 at cycle   6 NSaved=   6.
 NSaved= 6 IEnMin= 6 EnMin= -7.88408908220051     IErMin= 6 ErrMin= 8.61D-06
 ErrMax= 8.61D-06  0.00D+00 EMaxC= 1.00D-01 BMatC= 5.05D-10 BMatP= 7.85D-09
 IDIUse=1 WtCom= 1.00D+00 WtEn= 0.00D+00
 Coeff-Com: -0.253D-03 0.441D-03-0.703D-02 0.267D-02-0.456D+00 0.146D+01
 Coeff:     -0.253D-03 0.441D-03-0.703D-02 0.267D-02-0.456D+00 0.146D+01
 Gap=     0.261 Goal=   None    Shift=    0.000
 RMSDP=1.15D-05 MaxDP=4.52D-05 DE=-5.14D-08 OVMax= 6.50D-05

 Cycle   7  Pass 1  IDiag  1:
 E= -7.88408908534511     Delta-E=       -0.000000003145 Rises=F Damp=F
 DIIS: error= 1.69D-07 at cycle   7 NSaved=   7.
 NSaved= 7 IEnMin= 7 EnMin= -7.88408908534511     IErMin= 7 ErrMin= 1.69D-07
 ErrMax= 1.69D-07  0.00D+00 EMaxC= 1.00D-01 BMatC= 1.92D-13 BMatP= 5.05D-10
 IDIUse=1 WtCom= 1.00D+00 WtEn= 0.00D+00
 Coeff-Com:  0.596D-04-0.103D-03 0.134D-02-0.198D-04 0.887D-01-0.293D+00
 Coeff-Com:  0.120D+01
 Coeff:      0.596D-04-0.103D-03 0.134D-02-0.198D-04 0.887D-01-0.293D+00
 Coeff:      0.120D+01
 Gap=     0.261 Goal=   None    Shift=    0.000
 RMSDP=2.37D-07 MaxDP=1.06D-06 DE=-3.14D-09 OVMax= 2.05D-06

 Cycle   8  Pass 1  IDiag  1:
 E= -7.88408908534630     Delta-E=       -0.000000000001 Rises=F Damp=F
 DIIS: error= 3.19D-08 at cycle   8 NSaved=   8.
 NSaved= 8 IEnMin= 8 EnMin= -7.88408908534630     IErMin= 8 ErrMin= 3.19D-08
 ErrMax= 3.19D-08  0.00D+00 EMaxC= 1.00D-01 BMatC= 5.85D-15 BMatP= 1.92D-13
 IDIUse=1 WtCom= 1.00D+00 WtEn= 0.00D+00
 Coeff-Com:  0.208D-04-0.452D-04-0.670D-04-0.300D-03-0.142D-01 0.471D-01
 Coeff-Com: -0.214D+00 0.118D+01
 Coeff:      0.208D-04-0.452D-04-0.670D-04-0.300D-03-0.142D-01 0.471D-01
 Coeff:     -0.214D+00 0.118D+01
 Gap=     0.261 Goal=   None    Shift=    0.000
 RMSDP=4.33D-08 MaxDP=2.27D-07 DE=-1.19D-12 OVMax= 4.53D-07

 Cycle   9  Pass 1  IDiag  1:
 E= -7.88408908534638     Delta-E=       -0.000000000000 Rises=F Damp=F
 DIIS: error= 5.27D-09 at cycle   9 NSaved=   9.
 NSaved= 9 IEnMin= 9 EnMin= -7.88408908534638     IErMin= 9 ErrMin= 5.27D-09
 ErrMax= 5.27D-09  0.00D+00 EMaxC= 1.00D-01 BMatC= 3.41D-16 BMatP= 5.85D-15
 IDIUse=1 WtCom= 1.00D+00 WtEn= 0.00D+00
 Coeff-Com: -0.436D-06 0.104D-05-0.897D-05 0.872D-05-0.228D-03 0.102D-02
 Coeff-Com: -0.672D-02-0.192D+00 0.120D+01
 Coeff:     -0.436D-06 0.104D-05-0.897D-05 0.872D-05-0.228D-03 0.102D-02
 Coeff:     -0.672D-02-0.192D+00 0.120D+01
 Gap=     0.261 Goal=   None    Shift=    0.000
 RMSDP=1.09D-08 MaxDP=4.98D-08 DE=-8.17D-14 OVMax= 1.01D-07

 Cycle  10  Pass 1  IDiag  1:
 E= -7.88408908534639     Delta-E=       -0.000000000000 Rises=F Damp=F
 DIIS: error= 1.18D-10 at cycle  10 NSaved=  10.
 NSaved=10 IEnMin=10 EnMin= -7.88408908534639     IErMin=10 ErrMin= 1.18D-10
 ErrMax= 1.18D-10  0.00D+00 EMaxC= 1.00D-01 BMatC= 1.01D-19 BMatP= 3.41D-16
 IDIUse=1 WtCom= 1.00D+00 WtEn= 0.00D+00
 Coeff-Com:  0.118D-07-0.258D-07 0.705D-06 0.257D-06 0.376D-04-0.146D-03
 Coeff-Com:  0.785D-03 0.106D-01-0.699D-01 0.106D+01
 Coeff:      0.118D-07-0.258D-07 0.705D-06 0.257D-06 0.376D-04-0.146D-03
 Coeff:      0.785D-03 0.106D-01-0.699D-01 0.106D+01
 Gap=     0.261 Goal=   None    Shift=    0.000
 RMSDP=1.93D-10 MaxDP=7.68D-10 DE=-8.88D-15 OVMax= 2.10D-09

 SCF Done:  E(RHF) =  -7.88408908535     A.U. after   10 cycles
            NFock= 10  Conv=0.19D-09     -V/T= 2.0062
 KE= 7.835715824242D+00 PE=-1.958509002312D+01 EE= 3.143679825914D+00
 Leave Link  502 at Mon Mar 28 14:00:12 2022, MaxMem=  9663676416 cpu:               3.8 elap:               0.1
 (Enter /nopt/nrel/apps/gaussian/g16C_1/g16/l801.exe)
 Windowed orbitals will be sorted by symmetry type.
 ExpMin= 2.86D-02 ExpMax= 3.68D+01 ExpMxC= 3.68D+01 IAcc=3 IRadAn=         5 AccDes= 0.00D+00
 HarFok:  IExCor=  205 AccDes= 0.00D+00 IRadAn=         5 IDoV=-2 UseB2=F ITyADJ=14
 ICtDFT= 12500011 ScaDFX=  1.000000  1.000000  1.000000  1.000000
 Largest valence mixing into a core orbital is  4.96D-04
 Largest core mixing into a valence orbital is  1.49D-04
 Range of M.O.s used for correlation:     2    10
 NBasis=    10 NAE=     2 NBE=     2 NFC=     1 NFV=     0
 NROrb=      9 NOA=     1 NOB=     1 NVA=     8 NVB=     8
 Leave Link  801 at Mon Mar 28 14:00:12 2022, MaxMem=  9663676416 cpu:               3.5 elap:               0.1
 (Enter /nopt/nrel/apps/gaussian/g16C_1/g16/l804.exe)
 Closed-shell transformation, MDV=  9663676416 ITran=4 ISComp=2.
 Unit  1 TFree=          4817 TCopy=        115370.
 Semi-Direct transformation.
 ModeAB=           2 MOrb=             1 LenV=    9663556741
 LASXX=           88 LTotXX=          88 LenRXX=          88
 LTotAB=         141 MaxLAS=         495 LenRXY=         495
 NonZer=         603 LenScr=      785920 LnRSAI=           0
 LnScr1=           0 LExtra=      218791 Total=      1005294
 MaxDsk= 34359738368 SrtSym=           F ITran=            4
 DoSDTr:  NPSUse= 36
 JobTyp=0 Pass  1:  I=   1 to   1.
 (rs|ai) integrals will be sorted in core.
 Complete sort for first half transformation.
 First half transformation complete.
 Complete sort for second half transformation.
 Second half transformation complete.
 Spin components of T(2) and E(2):
     alpha-alpha T2 =       0.0000000000D+00 E2=      0.0000000000D+00
     alpha-beta  T2 =       0.1838367294D-01 E2=     -0.1914291104D-01
     beta-beta   T2 =       0.0000000000D+00 E2=      0.0000000000D+00
 ANorm=    0.1009149975D+01
 E2 =    -0.1914291104D-01 EUMP2 =    -0.79032319963912D+01
 Leave Link  804 at Mon Mar 28 14:00:12 2022, MaxMem=  9663676416 cpu:               1.7 elap:               0.1
 (Enter /nopt/nrel/apps/gaussian/g16C_1/g16/l913.exe)
 CIDS:  MDV=  9663676416.
 Frozen-core window:  NFC=   1 NFV=   0.
 IFCWin=0 IBDFC=1 NFBD=     0     0 NFCmp=     0     0 NFFFC=     0     0
 Using DD3R+UMP44R for 1st iteration.
 Using DD4RQ for 2nd and later iterations.
 Keep R2 and R3 ints in memory in symmetry-blocked form, NReq=7208580.
 FoFCou: FMM=F IPFlag=           0 FMFlag=           0 FMFlg1=           0
         NFxFlg=           0 DoJE=F BraDBF=F KetDBF=F FulRan=T
         wScrn=  0.000000 ICntrl=       600 IOpCl=  0 I1Cent=           0 NGrid=           0
         NMat0=    1 NMatS0=     55 NMatT0=    0 NMatD0=    1 NMtDS0=    0 NMtDT0=    0
 Petite list used in FoFCou.
 CIDS: In Core Option IDoMem=           1.
 Coupled Cluster theory with single and double substitutions
 ===========================================================
 Iterations= 200 Convergence= 0.100D-06
 Produce multiple copies of IABC intergrals
 Iteration Nr.   1
 **********************
 DD1Dir will call FoFMem   1 times, MxPair=         2
 NAB=     1 NAA=     0 NBB=     0.
 MP4(R+Q)=  0.35191702D-03
 Maximum subspace dimension=  5
 A-vector RMS=  1.6901862D-02 Max=  3.8278486D-02 conv= 1.00D-05.
 RLE energy=       -0.0312292334
 E3=       -0.77614778D-02        EUMP3=      -0.79109934742D+01
 E4(DQ)=   -0.31221069D-02        UMP4(DQ)=   -0.79141155811D+01
 E4(SDQ)=  -0.32389823D-02        UMP4(SDQ)=  -0.79142324565D+01
 VARIATIONAL ENERGIES WITH THE FIRST-ORDER WAVEFUNCTION:
 DE(Corr)= -0.26551591E-01 E(Corr)=     -7.9106406763    
 NORM(A)=   0.10246641D+01
 Iteration Nr.   2
 **********************
 DD1Dir will call FoFMem   1 times, MxPair=         2
 NAB=     1 NAA=     0 NBB=     0.
 A-vector RMS=  9.1044110D-03 Max=  9.1975534D-03 conv= 1.00D-05.
 RLE energy=       -0.0320523842
 DE(Corr)= -0.31611526E-01 E(CORR)=     -7.9157006114     Delta=-5.06D-03
 NORM(A)=   0.10274079D+01
 Iteration Nr.   3
 **********************
 DD1Dir will call FoFMem   1 times, MxPair=         2
 NAB=     1 NAA=     0 NBB=     0.
 A-vector RMS=  6.9045401D-03 Max=  8.1653657D-03 conv= 1.00D-05.
 RLE energy=       -0.0325724806
 DE(Corr)= -0.32132394E-01 E(CORR)=     -7.9162214792     Delta=-5.21D-04
 NORM(A)=   0.10313233D+01
 Iteration Nr.   4
 **********************
 DD1Dir will call FoFMem   1 times, MxPair=         2
 NAB=     1 NAA=     0 NBB=     0.
 A-vector RMS=  2.7534181D-03 Max=  3.2233585D-03 conv= 1.00D-05.
 RLE energy=       -0.0328800352
 DE(Corr)= -0.32619108E-01 E(CORR)=     -7.9167081937     Delta=-4.87D-04
 NORM(A)=   0.10342255D+01
 Iteration Nr.   5
 **********************
 DD1Dir will call FoFMem   1 times, MxPair=         2
 NAB=     1 NAA=     0 NBB=     0.
 A-vector RMS=  4.6518915D-04 Max=  4.2813379D-04 conv= 1.00D-05.
 RLE energy=       -0.0327905631
 DE(Corr)= -0.32827098E-01 E(CORR)=     -7.9169161836     Delta=-2.08D-04
 NORM(A)=   0.10342070D+01
 Iteration Nr.   6
 **********************
 DD1Dir will call FoFMem   1 times, MxPair=         2
 NAB=     1 NAA=     0 NBB=     0.
 A-vector RMS=  1.5505434D-04 Max=  1.4003966D-04 conv= 1.00D-05.
 RLE energy=       -0.0327984062
 DE(Corr)= -0.32794199E-01 E(CORR)=     -7.9168832839     Delta= 3.29D-05
 NORM(A)=   0.10342561D+01
 Iteration Nr.   7
 **********************
 DD1Dir will call FoFMem   1 times, MxPair=         2
 NAB=     1 NAA=     0 NBB=     0.
 A-vector RMS=  6.7693087D-05 Max=  7.0083467D-05 conv= 1.00D-05.
 RLE energy=       -0.0327990141
 DE(Corr)= -0.32798408E-01 E(CORR)=     -7.9168874932     Delta=-4.21D-06
 NORM(A)=   0.10342669D+01
 Iteration Nr.   8
 **********************
 DD1Dir will call FoFMem   1 times, MxPair=         2
 NAB=     1 NAA=     0 NBB=     0.
 A-vector RMS=  1.0861639D-05 Max=  1.1511684D-05 conv= 1.00D-05.
 RLE energy=       -0.0327978770
 DE(Corr)= -0.32798426E-01 E(CORR)=     -7.9168875112     Delta=-1.80D-08
 NORM(A)=   0.10342626D+01
 Iteration Nr.   9
 **********************
 DD1Dir will call FoFMem   1 times, MxPair=         2
 NAB=     1 NAA=     0 NBB=     0.
 A-vector RMS=  2.4528977D-06 Max=  3.7282320D-06 conv= 1.00D-05.
 RLE energy=       -0.0327982768
 DE(Corr)= -0.32798078E-01 E(CORR)=     -7.9168871631     Delta= 3.48D-07
 NORM(A)=   0.10342642D+01
 Iteration Nr.  10
 **********************
 DD1Dir will call FoFMem   1 times, MxPair=         2
 NAB=     1 NAA=     0 NBB=     0.
 A-vector RMS=  1.3720383D-06 Max=  1.4102260D-06 conv= 1.00D-05.
 RLE energy=       -0.0327982654
 DE(Corr)= -0.32798246E-01 E(CORR)=     -7.9168873315     Delta=-1.68D-07
 NORM(A)=   0.10342648D+01
 Iteration Nr.  11
 **********************
 DD1Dir will call FoFMem   1 times, MxPair=         2
 NAB=     1 NAA=     0 NBB=     0.
 A-vector RMS=  5.6535410D-07 Max=  8.1979544D-07 conv= 1.00D-05.
 RLE energy=       -0.0327983209
 DE(Corr)= -0.32798280E-01 E(CORR)=     -7.9168873654     Delta=-3.39D-08
 NORM(A)=   0.10342654D+01
 CI/CC converged in   11 iterations to DelEn=-3.39D-08 Conv= 1.00D-07 ErrA1= 5.65D-07 Conv= 1.00D-05
 Wavefunction amplitudes converged. E(Corr)=     -7.9168873654    
 Dominant configurations:
 ***********************
 Spin Case        I    J    A    B          Value
   ABAB           2    2   10   10      -0.154079D+00
 Largest amplitude= 1.54D-01
 Discarding MO integrals.
 Leave Link  913 at Mon Mar 28 14:00:12 2022, MaxMem=  9663676416 cpu:               3.9 elap:               0.1
 (Enter /nopt/nrel/apps/gaussian/g16C_1/g16/l601.exe)
 Copying SCF densities to generalized density rwf, IOpCl= 0 IROHF=0.

 **********************************************************************

            Population analysis using the SCF Density.

 **********************************************************************

 Orbital symmetries:
       Occupied  (SG) (SG)
       Virtual   (SG) (PI) (PI) (SG) (SG) (PI) (PI) (SG)
 The electronic state is 1-SG.
 Alpha  occ. eigenvalues --   -2.46455  -0.26646
 Alpha virt. eigenvalues --   -0.00524   0.04206   0.04206   0.15812   0.18708
 Alpha virt. eigenvalues --    0.20823   0.20823   0.34431
          Condensed to atoms (all electrons):
               1          2
     1  H    0.607061   0.312624
     2  Li   0.312624   2.767690
 Mulliken charges:
               1
     1  H    0.080314
     2  Li  -0.080314
 Sum of Mulliken charges =  -0.00000
 Mulliken charges with hydrogens summed into heavy atoms:
               1
     2  Li  -0.000000
 N-N= 7.216052876182D-01 E-N=-1.958509002338D+01  KE= 7.835715824242D+00
 Symmetry A1   KE= 7.835715824242D+00
 Symmetry A2   KE= 0.000000000000D+00
 Symmetry B1   KE= 0.000000000000D+00
 Symmetry B2   KE= 0.000000000000D+00

 Atomic contributions to Alpha molecular orbitals:
 Alpha occ 1 OE=-2.465 is Li2-s=1.0000
 Alpha occ 2 OE=-0.266 is H1-s=0.4599 Li2-s=0.3139 Li2-p=0.2263
 Alpha vir 3 OE=-0.005 is Li2-s=0.5268 Li2-p=0.4560
 Alpha vir 4 OE=0.042 is Li2-p=1.0000
 Alpha vir 5 OE=0.042 is Li2-p=1.0000
 Alpha vir 6 OE=0.158 is Li2-p=0.7989 Li2-s=0.1310
 Alpha vir 7 OE=0.187 is Li2-s=0.8959
 Alpha vir 8 OE=0.208 is Li2-p=1.0000
 Alpha vir 9 OE=0.208 is Li2-p=1.0000
 Alpha vir 10 OE=0.344 is Li2-p=0.4393 H1-s=0.4283 Li2-s=0.1324
 
 Leave Link  601 at Mon Mar 28 14:00:12 2022, MaxMem=  9663676416 cpu:               3.5 elap:               0.1
 (Enter /nopt/nrel/apps/gaussian/g16C_1/g16/l9999.exe)

 Test job not archived.
 1\1\GINC-R102U34\SP\RCCSD-FC\Gen\H1Li1\USER\28-Mar-2022\0\\#P CCSD
 (MaxCyc=200,SaveAmplitudes,ReadAmplitudes)/GEN sp pop=AllOrbitals iop(
 3/33=1,3/36=-1)\\test\\0,1\H,0,0.,0.,0.\Li,0,0.,0.,2.2\\Version=ES64L-
 G16RevC.01\State=1-SG\HF=-7.8840891\MP2=-7.903232\MP3=-7.9109935\MP4D=
 -7.9144675\MP4DQ=-7.9141156\MP4SDQ=-7.9142325\CCSD=-7.9168874\RMSD=1.9
 29e-10\PG=C*V [C*(H1Li1)]\\@


 A CHEMICAL PHYSICIST MAKES PRECISE MEASUREMENTS ON IMPURE COMPOUNDS.
 A THEORETICAL PHYSICAL CHEMIST MAKES IMPRECISE
     MEASUREMENTS ON PURE COMPOUNDS.
 AN EXPERIMENTAL PHYSICAL CHEMIST MAKES IMPRECISE
     MEASUREMENTS ON IMPURE COMPOUNDS.
 Job cpu time:       0 days  0 hours  0 minutes 33.5 seconds.
 Elapsed time:       0 days  0 hours  0 minutes  1.3 seconds.
 File lengths (MBytes):  RWF=     13 Int=      0 D2E=      0 Chk=      1 Scr=      1
 Normal termination of Gaussian 16 at Mon Mar 28 14:00:12 2022.
