 Entering Gaussian System, Link 0=g16
 Initial command:
 /nopt/nrel/apps/gaussian/g16C_1/g16/l1.exe "/lustre/eaglefs/scratch/user/qc/tih-dissc-sto3g/tih-6-ccsd-1.1-631g/Gau-5254.inp" -scrdir="/lustre/eaglefs/scratch/user/qc/tih-dissc-sto3g/tih-6-ccsd-1.1-631g/"
 Default is to use a total of  36 processors:
                               36 via shared-memory
                                1 via Linda
 Entering Link 1 = /nopt/nrel/apps/gaussian/g16C_1/g16/l1.exe PID=      5255.
  
 Copyright (c) 1988-2019, Gaussian, Inc.  All Rights Reserved.
  
 This is part of the Gaussian(R) 16 program.  It is based on
 the Gaussian(R) 09 system (copyright 2009, Gaussian, Inc.),
 the Gaussian(R) 03 system (copyright 2003, Gaussian, Inc.),
 the Gaussian(R) 98 system (copyright 1998, Gaussian, Inc.),
 the Gaussian(R) 94 system (copyright 1995, Gaussian, Inc.),
 the Gaussian 92(TM) system (copyright 1992, Gaussian, Inc.),
 the Gaussian 90(TM) system (copyright 1990, Gaussian, Inc.),
 the Gaussian 88(TM) system (copyright 1988, Gaussian, Inc.),
 the Gaussian 86(TM) system (copyright 1986, Carnegie Mellon
 University), and the Gaussian 82(TM) system (copyright 1983,
 Carnegie Mellon University). Gaussian is a federally registered
 trademark of Gaussian, Inc.
  
 This software contains proprietary and confidential information,
 including trade secrets, belonging to Gaussian, Inc.
  
 This software is provided under written license and may be
 used, copied, transmitted, or stored only in accord with that
 written license.
  
 The following legend is applicable only to US Government
 contracts under FAR:
  
                    RESTRICTED RIGHTS LEGEND
  
 Use, reproduction and disclosure by the US Government is
 subject to restrictions as set forth in subparagraphs (a)
 and (c) of the Commercial Computer Software - Restricted
 Rights clause in FAR 52.227-19.
  
 Gaussian, Inc.
 340 Quinnipiac St., Bldg. 40, Wallingford CT 06492
  
  
 ---------------------------------------------------------------
 Warning -- This program may not be used in any manner that
 competes with the business of Gaussian, Inc. or will provide
 assistance to any competitor of Gaussian, Inc.  The licensee
 of this program is prohibited from giving any competitor of
 Gaussian, Inc. access to this program.  By using this program,
 the user acknowledges that Gaussian, Inc. is engaged in the
 business of creating and licensing software in the field of
 computational chemistry and represents and warrants to the
 licensee that it is not a competitor of Gaussian, Inc. and that
 it will not use this program in any manner prohibited above.
 ---------------------------------------------------------------
  

 Cite this work as:
 Gaussian 16, Revision C.01,
 M. J. Frisch, G. W. Trucks, H. B. Schlegel, G. E. Scuseria, 
 M. A. Robb, J. R. Cheeseman, G. Scalmani, V. Barone, 
 G. A. Petersson, H. Nakatsuji, X. Li, M. Caricato, A. V. Marenich, 
 J. Bloino, B. G. Janesko, R. Gomperts, B. Mennucci, H. P. Hratchian, 
 J. V. Ortiz, A. F. Izmaylov, J. L. Sonnenberg, D. Williams-Young, 
 F. Ding, F. Lipparini, F. Egidi, J. Goings, B. Peng, A. Petrone, 
 T. Henderson, D. Ranasinghe, V. G. Zakrzewski, J. Gao, N. Rega, 
 G. Zheng, W. Liang, M. Hada, M. Ehara, K. Toyota, R. Fukuda, 
 J. Hasegawa, M. Ishida, T. Nakajima, Y. Honda, O. Kitao, H. Nakai, 
 T. Vreven, K. Throssell, J. A. Montgomery, Jr., J. E. Peralta, 
 F. Ogliaro, M. J. Bearpark, J. J. Heyd, E. N. Brothers, K. N. Kudin, 
 V. N. Staroverov, T. A. Keith, R. Kobayashi, J. Normand, 
 K. Raghavachari, A. P. Rendell, J. C. Burant, S. S. Iyengar, 
 J. Tomasi, M. Cossi, J. M. Millam, M. Klene, C. Adamo, R. Cammi, 
 J. W. Ochterski, R. L. Martin, K. Morokuma, O. Farkas, 
 J. B. Foresman, and D. J. Fox, Gaussian, Inc., Wallingford CT, 2019.
 
 ******************************************
 Gaussian 16:  ES64L-G16RevC.01  3-Jul-2019
                28-Mar-2022 
 ******************************************
 %chk=molecule
 Default route: CacheSize=180224 MaxDisk=256GB
 ----------------------------------------------------------------------
 #P CCSD(MaxCyc=300,SaveAmplitudes,ReadAmplitudes)/GEN sp pop=AllOrbita
 ls iop(3/33=1,3/36=-1)
 ----------------------------------------------------------------------
 1/4=180224,38=1,172=1/1;
 2/4=180224,12=2,17=6,18=5,40=1/2;
 3/4=180224,5=7,11=9,25=1,30=1,33=1,36=-1/1,2,3;
 4/4=180224/1;
 5/4=180224,5=2,38=5/2;
 8/4=180224,6=4,9=120000,10=1,24=1/1,4;
 9/4=180224,5=7,6=300,77=1/13;
 6/4=180224,7=2,8=2,9=2,10=2,96=-1/1;
 99/4=180224,5=1,9=1/99;
 Leave Link    1 at Mon Mar 28 12:47:32 2022, MaxMem=           0 cpu:               2.5 elap:               0.1
 (Enter /nopt/nrel/apps/gaussian/g16C_1/g16/l101.exe)
 ----
 test
 ----
 Symbolic Z-matrix:
 Charge =  0 Multiplicity = 6
 H                     0.        0.        0. 
 Ti                    0.        0.        1.1 
 
 ITRead=  0  0
 MicOpt= -1 -1
 NAtoms=      2 NQM=        2 NQMF=       0 NMMI=      0 NMMIF=      0
                NMic=       0 NMicF=      0.
                    Isotopes and Nuclear Properties:
 (Nuclear quadrupole moments (NQMom) in fm**2, nuclear magnetic moments (NMagM)
  in nuclear magnetons)

  Atom         1           2
 IAtWgt=           1          48
 AtmWgt=   1.0078250  47.9479467
 NucSpn=           1           0
 AtZEff=  -0.0000000  -0.0000000
 NQMom=    0.0000000   0.0000000
 NMagM=    2.7928460   0.0000000
 AtZNuc=   1.0000000  22.0000000
 Leave Link  101 at Mon Mar 28 12:47:32 2022, MaxMem=  9663676416 cpu:               2.8 elap:               0.1
 (Enter /nopt/nrel/apps/gaussian/g16C_1/g16/l202.exe)
                          Input orientation:                          
 ---------------------------------------------------------------------
 Center     Atomic      Atomic             Coordinates (Angstroms)
 Number     Number       Type             X           Y           Z
 ---------------------------------------------------------------------
      1          1           0        0.000000    0.000000    0.000000
      2         22           0        0.000000    0.000000    1.100000
 ---------------------------------------------------------------------
 Stoichiometry    HTi(6)
 Framework group  C*V[C*(HTi)]
 Deg. of freedom     1
 Full point group                 C*V     NOp   4
 Largest Abelian subgroup         C2V     NOp   4
 Largest concise Abelian subgroup C1      NOp   1
                         Standard orientation:                         
 ---------------------------------------------------------------------
 Center     Atomic      Atomic             Coordinates (Angstroms)
 Number     Number       Type             X           Y           Z
 ---------------------------------------------------------------------
      1          1           0        0.000000    0.000000   -1.052174
      2         22           0        0.000000    0.000000    0.047826
 ---------------------------------------------------------------------
 Rotational constants (GHZ):           0.0000000         423.1365819         423.1365819
 Leave Link  202 at Mon Mar 28 12:47:32 2022, MaxMem=  9663676416 cpu:               0.8 elap:               0.0
 (Enter /nopt/nrel/apps/gaussian/g16C_1/g16/l301.exe)
 General basis read from cards:  (5D, 7F)
                         Coordinates in L301:                         
 ---------------------------------------------------------------------
 Center     Atomic      Atomic             Coordinates (Angstroms)
 Number     Number       Type             X           Y           Z
 ---------------------------------------------------------------------
      1          1           0        0.000000    0.000000   -1.052174
      2         22           0        0.000000    0.000000    0.047826
 ---------------------------------------------------------------------
 Centers:       1
 STO-3G
 ****
 Centers:       2
 6-31G
 ****
 FixB: optimizing general contractions.
 Ernie: Thresh=  0.10000D-02 Tol=  0.10000D-05 Strict=F.
 IA=     1 ShT= 0 ShC= 0 NL=   1 NS=   0.
 IA=     1 L=0 SC=0 ISt=    0 NBk=    0 NP=    0 IndPr=    0.
 IA=     2 ShT= 0 ShC= 0 NL=   1 NS=   0.
 IA=     2 L=0 SC=0 ISt=    0 NBk=    0 NP=    0 IndPr=    0.
 IA=     2 ShT= 1 ShC= 0 NL=   4 NS=   1.
 IA=     2 L=1 SC=0 ISt=    1 NBk=    3 NP=   15 IndPr=    0.
 DoElim1:  L=1 select primitive    1 from    2 using    1 C= 2.43D-03
 DoElim1:  L=1 select primitive    1 from    3 using    1 C= 2.43D-03
 DoElim1:  L=1 select primitive    4 from    3 using    2 C=-2.94D-03
 DoElim2:  L=1 select primitive   15 from    2 using    3 C=-1.16D+00
 DoElim2:  L=1 select primitive   15 from    1 using    3 C=-1.16D+00
 DoElim2:  L=1 select primitive   12 from    1 using    2 C=-7.43D-01
 DoElim1:  L=1 select primitive    1 from    2 using    1 C= 4.02D-03
 DoElim1:  L=1 select primitive    1 from    3 using    1 C= 4.02D-03
 DoElim1:  L=1 select primitive    4 from    3 using    2 C=-6.31D-03
 DoElim2:  L=1 select primitive   15 from    2 using    3 C= 9.90D-01
 DoElim2:  L=1 select primitive   15 from    1 using    3 C= 9.90D-01
 DoElim2:  L=1 select primitive   12 from    1 using    2 C= 5.13D-01
 Delete L=1 primitive   14 from    3 C=  0.00D+00.
 Delete L=1 primitive   12 from    3 C=  0.00D+00.
 Delete L=1 primitive   10 from    3 C=  0.00D+00.
 Delete L=1 primitive    9 from    3 C=  0.00D+00.
 Delete L=1 primitive    8 from    3 C=  0.00D+00.
 Delete L=1 primitive    7 from    3 C=  0.00D+00.
 Delete L=1 primitive    6 from    3 C=  0.00D+00.
 Delete L=1 primitive    5 from    3 C=  0.00D+00.
 Delete L=1 primitive    4 from    3 C=  0.00D+00.
 Delete L=1 primitive    3 from    3 C=  0.00D+00.
 Delete L=1 primitive    2 from    3 C=  0.00D+00.
 Delete L=1 primitive    1 from    3 C=  0.00D+00.
 Delete L=1 primitive   15 from    2 C=  0.00D+00.
 Delete L=1 primitive   13 from    2 C=  0.00D+00.
 Delete L=1 primitive   11 from    2 C=  0.00D+00.
 Delete L=1 primitive    9 from    2 C=  0.00D+00.
 Delete L=1 primitive    7 from    2 C=  0.00D+00.
 Delete L=1 primitive    5 from    2 C=  0.00D+00.
 Delete L=1 primitive    3 from    2 C=  0.00D+00.
 Delete L=1 primitive    2 from    2 C=  0.00D+00.
 Delete L=1 primitive    1 from    2 C=  0.00D+00.
 Delete L=1 primitive   15 from    1 C=  0.00D+00.
 Delete L=1 primitive   14 from    1 C=  0.00D+00.
 Delete L=1 primitive   13 from    1 C=  0.00D+00.
 Delete L=1 primitive   12 from    1 C=  0.00D+00.
 Delete L=1 primitive   11 from    1 C=  0.00D+00.
 Delete L=1 primitive   10 from    1 C=  0.00D+00.
 Delete L=1 primitive    8 from    1 C=  0.00D+00.
 Delete L=1 primitive    6 from    1 C=  0.00D+00.
 Delete L=1 primitive    4 from    1 C=  0.00D+00.
 IA=     2 L=1 SC=0 ISt=    0 NBk=    0 NP=    0 IndPr=   15.
 IA=     2 ShT= 2 ShC= 2 NL=   2 NS=   1.
 IA=     2 L=2 SC=2 ISt=    0 NBk=    0 NP=    0 IndPr=    0.
 LdAtmC:  AtmChg=     1.000000    22.000000
 AtZEff=     -1.0000000    -23.9800000
 NEqShl: 
              1            2            3            4
     1            1            1            1            1
     2            2            2            2            2
     3            3            3            3            3
     4            4            4            4            4
     5            5            5            5            5
     6            6            6            6            6
     7            7            7            7            7
     8            8            8            8            8
 NEqBas: 
              1            2            3            4
     1            1            1            1            1
     2            2            2            2            2
     3            3            3            3            3
     4            4           -4           -4            4
     5            5           -5            5           -5
     6            6            6            6            6
     7            7            7            7            7
     8            8           -8           -8            8
     9            9           -9            9           -9
    10           10           10           10           10
    11           11           11           11           11
    12           12          -12          -12           12
    13           13          -13           13          -13
    14           14           14           14           14
    15           15           15           15           15
    16           16          -16          -16           16
    17           17          -17           17          -17
    18           18           18           18           18
    19           19           19           19           19
    20           20           20           20           20
    21           21           21           21           21
    22           22           22          -22          -22
    23           23          -23          -23           23
    24           24          -24           24          -24
    25           25           25           25           25
    26           26           26           26           26
    27           27           27           27           27
    28           28           28          -28          -28
    29           29          -29          -29           29
    30           30          -30           30          -30
 There are    16 symmetry adapted cartesian basis functions of A1  symmetry.
   1         1   1   1   1
   2         2   2   2   2
   3         3   3   3   3
   4         6   6   6   6
   5         7   7   7   7
   6        10  10  10  10
   7        11  11  11  11
   8        14  14  14  14
   9        15  15  15  15
  10        18  18  18  18
  11        19  19  19  19
  12        20  20  20  20
  13        21  21  21  21
  14        25  25  25  25
  15        26  26  26  26
  16        27  27  27  27
 There are     2 symmetry adapted cartesian basis functions of A2  symmetry.
  17        22  22  22  22
  18        28  28  28  28
 There are     6 symmetry adapted cartesian basis functions of B1  symmetry.
  19         4   4   4   4
  20         8   8   8   8
  21        12  12  12  12
  22        16  16  16  16
  23        23  23  23  23
  24        29  29  29  29
 There are     6 symmetry adapted cartesian basis functions of B2  symmetry.
  25         5   5   5   5
  26         9   9   9   9
  27        13  13  13  13
  28        17  17  17  17
  29        24  24  24  24
  30        30  30  30  30
 Order= 1 2 4 3
 Reordered character table:
              1            2            3            4            5
     1            1            1            1            1            1
     2            2            1            1           -1           -1
     3            4            1           -1           -1            1
     4            3            1           -1            1           -1
 NEqShl: 
              1            2            3            4
     1            1            1            1            1
     2            2            2            2            2
     3            3            3            3            3
     4            4            4            4            4
     5            5            5            5            5
     6            6            6            6            6
     7            7            7            7            7
     8            8            8            8            8
 NEqBas: 
              1            2            3            4
     1            1            1            1            1
     2            2            2            2            2
     3            3            3            3            3
     4            4           -4           -4            4
     5            5           -5            5           -5
     6            6            6            6            6
     7            7            7            7            7
     8            8           -8           -8            8
     9            9           -9            9           -9
    10           10           10           10           10
    11           11           11           11           11
    12           12          -12          -12           12
    13           13          -13           13          -13
    14           14           14           14           14
    15           15           15           15           15
    16           16          -16          -16           16
    17           17          -17           17          -17
    18           18           18           18           18
    19           19           19           19           19
    20           20          -20          -20           20
    21           21          -21           21          -21
    22           22           22           22           22
    23           23           23          -23          -23
    24           24           24           24           24
    25           25          -25          -25           25
    26           26          -26           26          -26
    27           27           27           27           27
    28           28           28          -28          -28
 There are    14 symmetry adapted basis functions of A1  symmetry.
   1         1   1   1   1
   2         2   2   2   2
   3         3   3   3   3
   4         6   6   6   6
   5         7   7   7   7
   6        10  10  10  10
   7        11  11  11  11
   8        14  14  14  14
   9        15  15  15  15
  10        18  18  18  18
  11        19  19  19  19
  12        22  22  22  22
  13        24  24  24  24
  14        27  27  27  27
 There are     2 symmetry adapted basis functions of A2  symmetry.
  15        23  23  23  23
  16        28  28  28  28
 There are     6 symmetry adapted basis functions of B1  symmetry.
  17         4   4   4   4
  18         8   8   8   8
  19        12  12  12  12
  20        16  16  16  16
  21        20  20  20  20
  22        25  25  25  25
 There are     6 symmetry adapted basis functions of B2  symmetry.
  23         5   5   5   5
  24         9   9   9   9
  25        13  13  13  13
  26        17  17  17  17
  27        21  21  21  21
  28        26  26  26  26
 Order= 1 2 4 3
 Reordered character table:
              1            2            3            4            5
     1            1            1            1            1            1
     2            2            1            1           -1           -1
     3            4            1           -1           -1            1
     4            3            1           -1            1           -1
    28 basis functions,    97 primitive gaussians,    30 cartesian basis functions
    14 alpha electrons        9 beta electrons
       nuclear repulsion energy        10.5835442184 Hartrees.
 IS=     1 IAt=     1 ISR=     1 T=0 IP=      1 IndIP=      1 IndIPD=      0 C=  2.769344D-01  0.000000D+00                             NZ=T
 IS=     1 IAt=     1 ISR=     1 T=0 IP=      2 IndIP=      2 IndIPD=      1 C=  2.678389D-01  0.000000D+00                             NZ=T
 IS=     1 IAt=     1 ISR=     1 T=0 IP=      3 IndIP=      3 IndIPD=      2 C=  8.347367D-02  0.000000D+00                             NZ=T
 IS=     2 IAt=     2 ISR=     1 T=0 IP=      1 IndIP=      4 IndIPD=      0 C=  3.823622D+00  0.000000D+00                             NZ=T
 IS=     2 IAt=     2 ISR=     1 T=0 IP=      2 IndIP=      5 IndIPD=      1 C=  7.063955D+00  0.000000D+00                             NZ=T
 IS=     2 IAt=     2 ISR=     1 T=0 IP=      3 IndIP=      6 IndIPD=      2 C=  1.147576D+01  0.000000D+00                             NZ=T
 IS=     2 IAt=     2 ISR=     1 T=0 IP=      4 IndIP=      7 IndIPD=      3 C=  1.533813D+01  0.000000D+00                             NZ=T
 IS=     2 IAt=     2 ISR=     1 T=0 IP=      5 IndIP=      8 IndIPD=      4 C=  1.342790D+01  0.000000D+00                             NZ=T
 IS=     2 IAt=     2 ISR=     1 T=0 IP=      6 IndIP=      9 IndIPD=      5 C=  4.306715D+00  0.000000D+00                             NZ=T
 IS=     3 IAt=     2 ISR=     2 T=1 IP=      1 IndIP=     10 IndIPD=      0 C=  2.786662D-01  2.724134D+01                             NZ=T
 IS=     3 IAt=     2 ISR=     2 T=1 IP=      2 IndIP=     11 IndIPD=      1 C=  1.261924D+00  3.505718D+01                             NZ=T
 IS=     3 IAt=     2 ISR=     2 T=1 IP=      3 IndIP=     12 IndIPD=      2 C=  2.071008D+00  3.677821D+01                             NZ=T
 IS=     3 IAt=     2 ISR=     2 T=1 IP=      4 IndIP=     13 IndIPD=      3 C= -3.098929D-01  2.717167D+01                             NZ=T
 IS=     3 IAt=     2 ISR=     2 T=1 IP=      5 IndIP=     14 IndIPD=      4 C= -2.467696D+00  1.167904D+01                             NZ=T
 IS=     3 IAt=     2 ISR=     2 T=1 IP=      6 IndIP=     15 IndIPD=      5 C= -9.124724D-01  1.772051D+00                             NZ=T
 IS=     4 IAt=     2 ISR=     3 T=1 IP=      1 IndIP=     16 IndIPD=      0 C= -2.927436D-02 -7.289697D-01                             NZ=T
 IS=     4 IAt=     2 ISR=     3 T=1 IP=      2 IndIP=     17 IndIPD=      1 C=  3.057403D-01 -7.594388D-01                             NZ=T
 IS=     4 IAt=     2 ISR=     3 T=1 IP=      3 IndIP=     18 IndIPD=      2 C=  5.687287D-01  5.144727D-01                             NZ=T
 IS=     4 IAt=     2 ISR=     3 T=1 IP=      4 IndIP=     19 IndIPD=      3 C= -3.488887D-01  1.263214D+00                             NZ=T
 IS=     4 IAt=     2 ISR=     3 T=1 IP=      5 IndIP=     20 IndIPD=      4 C= -4.520346D-01  5.611750D-01                             NZ=T
 IS=     4 IAt=     2 ISR=     3 T=1 IP=      6 IndIP=     21 IndIPD=      5 C= -5.626677D-02  6.224893D-02                             NZ=T
 IS=     5 IAt=     2 ISR=     4 T=1 IP=      1 IndIP=     22 IndIPD=      0 C=  5.268162D-02 -3.876509D-01                             NZ=T
 IS=     5 IAt=     2 ISR=     4 T=1 IP=      2 IndIP=     23 IndIPD=      1 C=  1.303842D-01  4.475323D-02                             NZ=T
 IS=     5 IAt=     2 ISR=     4 T=1 IP=      3 IndIP=     24 IndIPD=      2 C= -1.293957D-01  6.389489D-02                             NZ=T
 IS=     6 IAt=     2 ISR=     5 T=1 IP=      1 IndIP=     25 IndIPD=      0 C=  5.396831D-02  1.931915D-02                             NZ=T
 IS=     7 IAt=     2 ISR=     6 T=2 IP=      1 IndIP=     26 IndIPD=      1 C=  0.000000D+00  0.000000D+00  1.377610D+01  0.000000D+00 NZ=T
 IS=     7 IAt=     2 ISR=     6 T=2 IP=      2 IndIP=     27 IndIPD=      2 C=  0.000000D+00  0.000000D+00  5.615749D+00  0.000000D+00 NZ=T
 IS=     7 IAt=     2 ISR=     6 T=2 IP=      3 IndIP=     28 IndIPD=      3 C=  0.000000D+00  0.000000D+00  1.263348D+00  0.000000D+00 NZ=T
 IS=     8 IAt=     2 ISR=     7 T=2 IP=      1 IndIP=     29 IndIPD=      4 C=  0.000000D+00  0.000000D+00  1.851834D-01  0.000000D+00 NZ=T
 IExCor=    0 DFT=F Ex=HF Corr=None ExCW=0 ScaHFX=  1.000000
 ScaDFX=  1.000000  1.000000  1.000000  1.000000 ScalE2=  1.000000  1.000000
 IRadAn=      5 IRanWt=     -1 IRanGd=            0 ICorTp=0 IEmpDi=  4
 NAtoms=    2 NActive=    2 NUniq=    2 SFac= 1.00D+00 NAtFMM=   60 NAOKFM=F Big=F
 Integral buffers will be    131072 words long.
 Raffenetti 2 integral format.
 Two-electron integral symmetry is turned on.
 Leave Link  301 at Mon Mar 28 12:47:32 2022, MaxMem=  9663676416 cpu:               2.2 elap:               0.1
 (Enter /nopt/nrel/apps/gaussian/g16C_1/g16/l302.exe)
 NPDir=0 NMtPBC=     1 NCelOv=     1 NCel=       1 NClECP=     1 NCelD=      1
         NCelK=      1 NCelE2=     1 NClLst=     1 CellRange=     0.0.
 One-electron integrals computed using PRISM.
 One-electron integral symmetry used in STVInt
 Entering OneElI...
 Calculate overlap and kinetic energy integrals
    NBasis =  28  MinDer = 0  MaxDer = 0
 Requested accuracy = 0.1000D-12
 Symmetry will be used
 PrmmSu-InSpLW:  IPartL=    0 NPrtUS=   36 NPrtUL=    1 DoSpLW=F IThBeg=    0 IThEnd=   35 NThAct=   36.
 PrSmSu:  IncTry=   512 NBBP=             36 NTPThr=   100 NPartT=   36 Incr=           1 LDynOK=F GPUOK=F.
 PrsmSu:  NPrtUS=  36 ThrOK=T IAlg=1 LenDen=           0 ISkipM=0 DoSpLW=F IThBeg=    0 IThEnd=   35.
 Prism:   IPart=     0 DynPar=F LinDyn=F Incr=           1.
 PRISM was handed   268429120 working-precision words and    36 shell-pairs
 PRISM was handed   268429120 working-precision words and    36 shell-pairs
 PRISM was handed   268429120 working-precision words and    36 shell-pairs
 PRISM was handed   268429120 working-precision words and    36 shell-pairs
 PRISM was handed   268429120 working-precision words and    36 shell-pairs
 PRISM was handed   268429120 working-precision words and    36 shell-pairs
 IPart= 32 NShTot=           0 NBatch=           0 AvBLen=         0.0
 IPart=  5 NShTot=           0 NBatch=           0 AvBLen=         0.0
 PRISM was handed   268429120 working-precision words and    36 shell-pairs
 IPart=  7 NShTot=           0 NBatch=           0 AvBLen=         0.0
 IPart= 33 NShTot=           0 NBatch=           0 AvBLen=         0.0
 PRISM was handed   268429120 working-precision words and    36 shell-pairs
 IPart= 26 NShTot=           0 NBatch=           0 AvBLen=         0.0
 PRISM was handed   268429120 working-precision words and    36 shell-pairs
 PRISM was handed   268429120 working-precision words and    36 shell-pairs
 IPart= 19 NShTot=           0 NBatch=           0 AvBLen=         0.0
 PRISM was handed   268429120 working-precision words and    36 shell-pairs
 PRISM was handed   268429120 working-precision words and    36 shell-pairs
 PRISM was handed   268429120 working-precision words and    36 shell-pairs
 IPart= 23 NShTot=           0 NBatch=           0 AvBLen=         0.0
 PRISM was handed   268429120 working-precision words and    36 shell-pairs
 PRISM was handed   268429120 working-precision words and    36 shell-pairs
 IPart= 17 NShTot=           0 NBatch=           0 AvBLen=         0.0
 IPart= 25 NShTot=           0 NBatch=           0 AvBLen=         0.0
 IPart=  8 NShTot=           0 NBatch=           0 AvBLen=         0.0
 PRISM was handed   268429120 working-precision words and    36 shell-pairs
 IPart= 24 NShTot=           0 NBatch=           0 AvBLen=         0.0
 IPart=  6 NShTot=           0 NBatch=           0 AvBLen=         0.0
 IPart= 16 NShTot=           0 NBatch=           0 AvBLen=         0.0
 IPart= 31 NShTot=           0 NBatch=           0 AvBLen=         0.0
 PRISM was handed   268429120 working-precision words and    36 shell-pairs
 PRISM was handed   268429120 working-precision words and    36 shell-pairs
 PRISM was handed   268429120 working-precision words and    36 shell-pairs
 PRISM was handed   268429120 working-precision words and    36 shell-pairs
 IPart= 14 NShTot=           0 NBatch=           0 AvBLen=         0.0
 PRISM was handed   268429120 working-precision words and    36 shell-pairs
 PRISM was handed   268429120 working-precision words and    36 shell-pairs
 PRISM was handed   268429120 working-precision words and    36 shell-pairs
 PRISM was handed   268429120 working-precision words and    36 shell-pairs
 PRISM was handed   268429120 working-precision words and    36 shell-pairs
 PRISM was handed   268429120 working-precision words and    36 shell-pairs
 PRISM was handed   268429120 working-precision words and    36 shell-pairs
 PRISM was handed   268429120 working-precision words and    36 shell-pairs
 PRISM was handed   268429120 working-precision words and    36 shell-pairs
 PRISM was handed   268429120 working-precision words and    36 shell-pairs
 PRISM was handed   268429120 working-precision words and    36 shell-pairs
 PRISM was handed   268429120 working-precision words and    36 shell-pairs
 IPart= 13 NShTot=           0 NBatch=           0 AvBLen=         0.0
 IPart= 28 NShTot=           0 NBatch=           0 AvBLen=         0.0
 IPart= 15 NShTot=           0 NBatch=           0 AvBLen=         0.0
 IPart=  4 NShTot=           0 NBatch=           0 AvBLen=         0.0
 PRISM was handed   268429120 working-precision words and    36 shell-pairs
 PRISM was handed   268429120 working-precision words and    36 shell-pairs
 PRISM was handed   268429120 working-precision words and    36 shell-pairs
 PRISM was handed   268429120 working-precision words and    36 shell-pairs
 IPart= 35 NShTot=           0 NBatch=           0 AvBLen=         0.0
 IPart= 20 NShTot=           0 NBatch=           0 AvBLen=         0.0
 IPart= 29 NShTot=           0 NBatch=           0 AvBLen=         0.0
 IPart= 27 NShTot=           0 NBatch=           0 AvBLen=         0.0
 IPart=  9 NShTot=           0 NBatch=           0 AvBLen=         0.0
 IPart= 18 NShTot=           0 NBatch=           0 AvBLen=         0.0
 IPart= 10 NShTot=           0 NBatch=           0 AvBLen=         0.0
 IPart= 11 NShTot=           0 NBatch=           0 AvBLen=         0.0
 IPart= 30 NShTot=           0 NBatch=           0 AvBLen=         0.0
 IPart= 34 NShTot=           0 NBatch=           0 AvBLen=         0.0
 IPart=  2 NShTot=           2 NBatch=           2 AvBLen=         1.0
 IPart=  3 NShTot=           0 NBatch=           0 AvBLen=         0.0
 IPart=  0 NShTot=          26 NBatch=          26 AvBLen=         1.0
 IPart= 21 NShTot=           0 NBatch=           0 AvBLen=         0.0
 IPart= 12 NShTot=           0 NBatch=           0 AvBLen=         0.0
 IPart= 22 NShTot=           0 NBatch=           0 AvBLen=         0.0
 IPart=  1 NShTot=           8 NBatch=           8 AvBLen=         1.0
 PrSmSu:  NxtVal=             37.
 *** Overlap *** 
                1             2             3             4             5 
      1  0.100000D+01
      2  0.810894D-02  0.100000D+01
      3 -0.623792D-01 -0.274497D+00  0.100000D+01
      4  0.000000D+00  0.000000D+00  0.000000D+00  0.100000D+01
      5  0.000000D+00  0.000000D+00  0.000000D+00  0.000000D+00  0.100000D+01
      6 -0.206927D-01  0.000000D+00  0.000000D+00  0.000000D+00  0.000000D+00
      7 -0.318199D+00 -0.126254D-01  0.358999D+00  0.000000D+00  0.000000D+00
      8  0.000000D+00  0.000000D+00  0.000000D+00  0.323756D+00  0.000000D+00
      9  0.000000D+00  0.000000D+00  0.000000D+00  0.000000D+00  0.323756D+00
     10 -0.308121D+00  0.000000D+00  0.000000D+00  0.000000D+00  0.000000D+00
     11 -0.491820D+00  0.708216D-02 -0.284985D-01  0.000000D+00  0.000000D+00
     12  0.000000D+00  0.000000D+00  0.000000D+00 -0.418224D-01  0.000000D+00
     13  0.000000D+00  0.000000D+00  0.000000D+00  0.000000D+00 -0.418224D-01
     14 -0.480280D+00  0.000000D+00  0.000000D+00  0.000000D+00  0.000000D+00
     15  0.392096D+00  0.748293D-02 -0.560115D-01  0.000000D+00  0.000000D+00
     16  0.000000D+00  0.000000D+00  0.000000D+00  0.532285D-02  0.000000D+00
     17  0.000000D+00  0.000000D+00  0.000000D+00  0.000000D+00  0.532285D-02
     18 -0.257432D+00  0.000000D+00  0.000000D+00  0.000000D+00  0.000000D+00
     19  0.147468D+00  0.000000D+00  0.000000D+00  0.000000D+00  0.000000D+00
     20  0.000000D+00  0.000000D+00  0.000000D+00  0.000000D+00  0.000000D+00
     21  0.000000D+00  0.000000D+00  0.000000D+00  0.000000D+00  0.000000D+00
     22  0.000000D+00  0.000000D+00  0.000000D+00  0.000000D+00  0.000000D+00
     23  0.000000D+00  0.000000D+00  0.000000D+00  0.000000D+00  0.000000D+00
     24  0.427018D+00  0.000000D+00  0.000000D+00  0.000000D+00  0.000000D+00
     25  0.000000D+00  0.000000D+00  0.000000D+00  0.000000D+00  0.000000D+00
     26  0.000000D+00  0.000000D+00  0.000000D+00  0.000000D+00  0.000000D+00
     27  0.000000D+00  0.000000D+00  0.000000D+00  0.000000D+00  0.000000D+00
     28  0.000000D+00  0.000000D+00  0.000000D+00  0.000000D+00  0.000000D+00
                6             7             8             9            10 
      6  0.100000D+01
      7  0.000000D+00  0.100000D+01
      8  0.000000D+00  0.000000D+00  0.100000D+01
      9  0.000000D+00  0.000000D+00  0.000000D+00  0.100000D+01
     10  0.323756D+00  0.000000D+00  0.000000D+00  0.000000D+00  0.100000D+01
     11  0.000000D+00  0.220325D+00  0.000000D+00  0.000000D+00  0.000000D+00
     12  0.000000D+00  0.000000D+00  0.139925D+00  0.000000D+00  0.000000D+00
     13  0.000000D+00  0.000000D+00  0.000000D+00  0.139925D+00  0.000000D+00
     14 -0.418224D-01  0.000000D+00  0.000000D+00  0.000000D+00  0.139925D+00
     15  0.000000D+00 -0.274846D+00  0.000000D+00  0.000000D+00  0.000000D+00
     16  0.000000D+00  0.000000D+00  0.104615D+00  0.000000D+00  0.000000D+00
     17  0.000000D+00  0.000000D+00  0.000000D+00  0.104615D+00  0.000000D+00
     18  0.532285D-02  0.000000D+00  0.000000D+00  0.000000D+00  0.104615D+00
     19  0.000000D+00  0.000000D+00  0.000000D+00  0.000000D+00  0.000000D+00
     20  0.000000D+00  0.000000D+00  0.000000D+00  0.000000D+00  0.000000D+00
     21  0.000000D+00  0.000000D+00  0.000000D+00  0.000000D+00  0.000000D+00
     22  0.000000D+00  0.000000D+00  0.000000D+00  0.000000D+00  0.000000D+00
     23  0.000000D+00  0.000000D+00  0.000000D+00  0.000000D+00  0.000000D+00
     24  0.000000D+00  0.000000D+00  0.000000D+00  0.000000D+00  0.000000D+00
     25  0.000000D+00  0.000000D+00  0.000000D+00  0.000000D+00  0.000000D+00
     26  0.000000D+00  0.000000D+00  0.000000D+00  0.000000D+00  0.000000D+00
     27  0.000000D+00  0.000000D+00  0.000000D+00  0.000000D+00  0.000000D+00
     28  0.000000D+00  0.000000D+00  0.000000D+00  0.000000D+00  0.000000D+00
               11            12            13            14            15 
     11  0.100000D+01
     12  0.000000D+00  0.100000D+01
     13  0.000000D+00  0.000000D+00  0.100000D+01
     14  0.000000D+00  0.000000D+00  0.000000D+00  0.100000D+01
     15 -0.865690D+00  0.000000D+00  0.000000D+00  0.000000D+00  0.100000D+01
     16  0.000000D+00  0.748550D+00  0.000000D+00  0.000000D+00  0.000000D+00
     17  0.000000D+00  0.000000D+00  0.748550D+00  0.000000D+00  0.000000D+00
     18  0.000000D+00  0.000000D+00  0.000000D+00  0.748550D+00  0.000000D+00
     19  0.000000D+00  0.000000D+00  0.000000D+00  0.000000D+00  0.000000D+00
     20  0.000000D+00  0.000000D+00  0.000000D+00  0.000000D+00  0.000000D+00
     21  0.000000D+00  0.000000D+00  0.000000D+00  0.000000D+00  0.000000D+00
     22  0.000000D+00  0.000000D+00  0.000000D+00  0.000000D+00  0.000000D+00
     23  0.000000D+00  0.000000D+00  0.000000D+00  0.000000D+00  0.000000D+00
     24  0.000000D+00  0.000000D+00  0.000000D+00  0.000000D+00  0.000000D+00
     25  0.000000D+00  0.000000D+00  0.000000D+00  0.000000D+00  0.000000D+00
     26  0.000000D+00  0.000000D+00  0.000000D+00  0.000000D+00  0.000000D+00
     27  0.000000D+00  0.000000D+00  0.000000D+00  0.000000D+00  0.000000D+00
     28  0.000000D+00  0.000000D+00  0.000000D+00  0.000000D+00  0.000000D+00
               16            17            18            19            20 
     16  0.100000D+01
     17  0.000000D+00  0.100000D+01
     18  0.000000D+00  0.000000D+00  0.100000D+01
     19  0.000000D+00  0.000000D+00  0.000000D+00  0.100000D+01
     20  0.000000D+00  0.000000D+00  0.000000D+00  0.000000D+00  0.100000D+01
     21  0.000000D+00  0.000000D+00  0.000000D+00  0.000000D+00  0.000000D+00
     22  0.000000D+00  0.000000D+00  0.000000D+00  0.000000D+00  0.000000D+00
     23  0.000000D+00  0.000000D+00  0.000000D+00  0.000000D+00  0.000000D+00
     24  0.000000D+00  0.000000D+00  0.000000D+00  0.404226D+00  0.000000D+00
     25  0.000000D+00  0.000000D+00  0.000000D+00  0.000000D+00  0.404226D+00
     26  0.000000D+00  0.000000D+00  0.000000D+00  0.000000D+00  0.000000D+00
     27  0.000000D+00  0.000000D+00  0.000000D+00  0.000000D+00  0.000000D+00
     28  0.000000D+00  0.000000D+00  0.000000D+00  0.000000D+00  0.000000D+00
               21            22            23            24            25 
     21  0.100000D+01
     22  0.000000D+00  0.100000D+01
     23  0.000000D+00  0.000000D+00  0.100000D+01
     24  0.000000D+00  0.000000D+00  0.000000D+00  0.100000D+01
     25  0.000000D+00  0.000000D+00  0.000000D+00  0.000000D+00  0.100000D+01
     26  0.404226D+00  0.000000D+00  0.000000D+00  0.000000D+00  0.000000D+00
     27  0.000000D+00  0.404226D+00  0.000000D+00  0.000000D+00  0.000000D+00
     28  0.000000D+00  0.000000D+00  0.404226D+00  0.000000D+00  0.000000D+00
               26            27            28 
     26  0.100000D+01
     27  0.000000D+00  0.100000D+01
     28  0.000000D+00  0.000000D+00  0.100000D+01
 *** Kinetic Energy *** 
                1             2             3             4             5 
      1  0.760032D+00
      2 -0.222160D-02  0.233868D+03
      3  0.116792D-01  0.128565D+02  0.116517D+02
      4  0.000000D+00  0.000000D+00  0.000000D+00  0.397344D+02
      5  0.000000D+00  0.000000D+00  0.000000D+00  0.000000D+00  0.397344D+02
      6 -0.421430D-02  0.000000D+00  0.000000D+00  0.000000D+00  0.000000D+00
      7 -0.409356D-01  0.130537D+01 -0.886570D+00  0.000000D+00  0.000000D+00
      8  0.000000D+00  0.000000D+00  0.000000D+00  0.141365D+01  0.000000D+00
      9  0.000000D+00  0.000000D+00  0.000000D+00  0.000000D+00  0.141365D+01
     10 -0.165035D+00  0.000000D+00  0.000000D+00  0.000000D+00  0.000000D+00
     11 -0.735599D-01  0.469217D-01 -0.250757D+00  0.000000D+00  0.000000D+00
     12  0.000000D+00  0.000000D+00  0.000000D+00 -0.329355D+00  0.000000D+00
     13  0.000000D+00  0.000000D+00  0.000000D+00  0.000000D+00 -0.329355D+00
     14 -0.143696D+00  0.000000D+00  0.000000D+00  0.000000D+00  0.000000D+00
     15  0.305313D-01  0.718816D-03 -0.535103D-02  0.000000D+00  0.000000D+00
     16  0.000000D+00  0.000000D+00  0.000000D+00  0.847976D-03  0.000000D+00
     17  0.000000D+00  0.000000D+00  0.000000D+00  0.000000D+00  0.847976D-03
     18 -0.347271D-01  0.000000D+00  0.000000D+00  0.000000D+00  0.000000D+00
     19  0.168443D+00  0.000000D+00  0.000000D+00  0.000000D+00  0.000000D+00
     20  0.000000D+00  0.000000D+00  0.000000D+00  0.000000D+00  0.000000D+00
     21  0.000000D+00  0.000000D+00  0.000000D+00  0.000000D+00  0.000000D+00
     22  0.000000D+00  0.000000D+00  0.000000D+00  0.000000D+00  0.000000D+00
     23  0.000000D+00  0.000000D+00  0.000000D+00  0.000000D+00  0.000000D+00
     24  0.413136D+00  0.000000D+00  0.000000D+00  0.000000D+00  0.000000D+00
     25  0.000000D+00  0.000000D+00  0.000000D+00  0.000000D+00  0.000000D+00
     26  0.000000D+00  0.000000D+00  0.000000D+00  0.000000D+00  0.000000D+00
     27  0.000000D+00  0.000000D+00  0.000000D+00  0.000000D+00  0.000000D+00
     28  0.000000D+00  0.000000D+00  0.000000D+00  0.000000D+00  0.000000D+00
                6             7             8             9            10 
      6  0.397344D+02
      7  0.000000D+00  0.138627D+01
      8  0.000000D+00  0.000000D+00  0.264346D+01
      9  0.000000D+00  0.000000D+00  0.000000D+00  0.264346D+01
     10  0.141365D+01  0.000000D+00  0.000000D+00  0.000000D+00  0.264346D+01
     11  0.000000D+00 -0.202155D+00  0.000000D+00  0.000000D+00  0.000000D+00
     12  0.000000D+00  0.000000D+00 -0.382323D+00  0.000000D+00  0.000000D+00
     13  0.000000D+00  0.000000D+00  0.000000D+00 -0.382323D+00  0.000000D+00
     14 -0.329355D+00  0.000000D+00  0.000000D+00  0.000000D+00 -0.382323D+00
     15  0.000000D+00 -0.250190D-01  0.000000D+00  0.000000D+00  0.000000D+00
     16  0.000000D+00  0.000000D+00  0.157808D-01  0.000000D+00  0.000000D+00
     17  0.000000D+00  0.000000D+00  0.000000D+00  0.157808D-01  0.000000D+00
     18  0.847976D-03  0.000000D+00  0.000000D+00  0.000000D+00  0.157808D-01
     19  0.000000D+00  0.000000D+00  0.000000D+00  0.000000D+00  0.000000D+00
     20  0.000000D+00  0.000000D+00  0.000000D+00  0.000000D+00  0.000000D+00
     21  0.000000D+00  0.000000D+00  0.000000D+00  0.000000D+00  0.000000D+00
     22  0.000000D+00  0.000000D+00  0.000000D+00  0.000000D+00  0.000000D+00
     23  0.000000D+00  0.000000D+00  0.000000D+00  0.000000D+00  0.000000D+00
     24  0.000000D+00  0.000000D+00  0.000000D+00  0.000000D+00  0.000000D+00
     25  0.000000D+00  0.000000D+00  0.000000D+00  0.000000D+00  0.000000D+00
     26  0.000000D+00  0.000000D+00  0.000000D+00  0.000000D+00  0.000000D+00
     27  0.000000D+00  0.000000D+00  0.000000D+00  0.000000D+00  0.000000D+00
     28  0.000000D+00  0.000000D+00  0.000000D+00  0.000000D+00  0.000000D+00
               11            12            13            14            15 
     11  0.179473D+00
     12  0.000000D+00  0.301582D+00
     13  0.000000D+00  0.000000D+00  0.301582D+00
     14  0.000000D+00  0.000000D+00  0.000000D+00  0.301582D+00
     15 -0.578075D-01  0.000000D+00  0.000000D+00  0.000000D+00  0.480540D-01
     16  0.000000D+00  0.867842D-01  0.000000D+00  0.000000D+00  0.000000D+00
     17  0.000000D+00  0.000000D+00  0.867842D-01  0.000000D+00  0.000000D+00
     18  0.000000D+00  0.000000D+00  0.000000D+00  0.867842D-01  0.000000D+00
     19  0.000000D+00  0.000000D+00  0.000000D+00  0.000000D+00  0.000000D+00
     20  0.000000D+00  0.000000D+00  0.000000D+00  0.000000D+00  0.000000D+00
     21  0.000000D+00  0.000000D+00  0.000000D+00  0.000000D+00  0.000000D+00
     22  0.000000D+00  0.000000D+00  0.000000D+00  0.000000D+00  0.000000D+00
     23  0.000000D+00  0.000000D+00  0.000000D+00  0.000000D+00  0.000000D+00
     24  0.000000D+00  0.000000D+00  0.000000D+00  0.000000D+00  0.000000D+00
     25  0.000000D+00  0.000000D+00  0.000000D+00  0.000000D+00  0.000000D+00
     26  0.000000D+00  0.000000D+00  0.000000D+00  0.000000D+00  0.000000D+00
     27  0.000000D+00  0.000000D+00  0.000000D+00  0.000000D+00  0.000000D+00
     28  0.000000D+00  0.000000D+00  0.000000D+00  0.000000D+00  0.000000D+00
               16            17            18            19            20 
     16  0.800900D-01
     17  0.000000D+00  0.800900D-01
     18  0.000000D+00  0.000000D+00  0.800900D-01
     19  0.000000D+00  0.000000D+00  0.000000D+00  0.631380D+01
     20  0.000000D+00  0.000000D+00  0.000000D+00  0.000000D+00  0.631380D+01
     21  0.000000D+00  0.000000D+00  0.000000D+00  0.000000D+00  0.000000D+00
     22  0.000000D+00  0.000000D+00  0.000000D+00  0.000000D+00  0.000000D+00
     23  0.000000D+00  0.000000D+00  0.000000D+00  0.000000D+00  0.000000D+00
     24  0.000000D+00  0.000000D+00  0.000000D+00  0.648327D+00  0.000000D+00
     25  0.000000D+00  0.000000D+00  0.000000D+00  0.000000D+00  0.648327D+00
     26  0.000000D+00  0.000000D+00  0.000000D+00  0.000000D+00  0.000000D+00
     27  0.000000D+00  0.000000D+00  0.000000D+00  0.000000D+00  0.000000D+00
     28  0.000000D+00  0.000000D+00  0.000000D+00  0.000000D+00  0.000000D+00
               21            22            23            24            25 
     21  0.631380D+01
     22  0.000000D+00  0.631380D+01
     23  0.000000D+00  0.000000D+00  0.631380D+01
     24  0.000000D+00  0.000000D+00  0.000000D+00  0.100437D+01
     25  0.000000D+00  0.000000D+00  0.000000D+00  0.000000D+00  0.100437D+01
     26  0.648327D+00  0.000000D+00  0.000000D+00  0.000000D+00  0.000000D+00
     27  0.000000D+00  0.648327D+00  0.000000D+00  0.000000D+00  0.000000D+00
     28  0.000000D+00  0.000000D+00  0.648327D+00  0.000000D+00  0.000000D+00
               26            27            28 
     26  0.100437D+01
     27  0.000000D+00  0.100437D+01
     28  0.000000D+00  0.000000D+00  0.100437D+01
 Entering OneElI...
 Calculate potential energy integrals
    NBasis =  28  MinDer = 0  MaxDer = 0
 Requested accuracy = 0.1000D-12
 Symmetry will be used
 PrmmSu-InSpLW:  IPartL=    0 NPrtUS=   36 NPrtUL=    1 DoSpLW=F IThBeg=    0 IThEnd=   35 NThAct=   36.
 PrSmSu:  IncTry=   512 NBBP=             72 NTPThr=   100 NPartT=   36 Incr=           1 LDynOK=F GPUOK=F.
 PrsmSu:  NPrtUS=  36 ThrOK=T IAlg=1 LenDen=           0 ISkipM=0 DoSpLW=F IThBeg=    0 IThEnd=   35.
 Prism:   IPart=     0 DynPar=F LinDyn=F Incr=           1.
 PRISM was handed   268429560 working-precision words and    36 shell-pairs
 PRISM was handed   268429560 working-precision words and    36 shell-pairs
 PRISM was handed   268429560 working-precision words and    36 shell-pairs
 PRISM was handed   268429560 working-precision words and    36 shell-pairs
 PRISM was handed   268429560 working-precision words and    36 shell-pairs
 PRISM was handed   268429560 working-precision words and    36 shell-pairs
 PRISM was handed   268429560 working-precision words and    36 shell-pairs
 PRISM was handed   268429560 working-precision words and    36 shell-pairs
 PRISM was handed   268429560 working-precision words and    36 shell-pairs
 PRISM was handed   268429560 working-precision words and    36 shell-pairs
 PRISM was handed   268429560 working-precision words and    36 shell-pairs
 PRISM was handed   268429560 working-precision words and    36 shell-pairs
 PRISM was handed   268429560 working-precision words and    36 shell-pairs
 PRISM was handed   268429560 working-precision words and    36 shell-pairs
 PRISM was handed   268429560 working-precision words and    36 shell-pairs
 PRISM was handed   268429560 working-precision words and    36 shell-pairs
 PRISM was handed   268429560 working-precision words and    36 shell-pairs
 PRISM was handed   268429560 working-precision words and    36 shell-pairs
 PRISM was handed   268429560 working-precision words and    36 shell-pairs
 PRISM was handed   268429560 working-precision words and    36 shell-pairs
 PRISM was handed   268429560 working-precision words and    36 shell-pairs
 PRISM was handed   268429560 working-precision words and    36 shell-pairs
 PRISM was handed   268429560 working-precision words and    36 shell-pairs
 PRISM was handed   268429560 working-precision words and    36 shell-pairs
 PRISM was handed   268429560 working-precision words and    36 shell-pairs
 PRISM was handed   268429560 working-precision words and    36 shell-pairs
 PRISM was handed   268429560 working-precision words and    36 shell-pairs
 PRISM was handed   268429560 working-precision words and    36 shell-pairs
 PRISM was handed   268429560 working-precision words and    36 shell-pairs
 PRISM was handed   268429560 working-precision words and    36 shell-pairs
 PRISM was handed   268429560 working-precision words and    36 shell-pairs
 PRISM was handed   268429560 working-precision words and    36 shell-pairs
 PRISM was handed   268429560 working-precision words and    36 shell-pairs
 PRISM was handed   268429560 working-precision words and    36 shell-pairs
 PRISM was handed   268429560 working-precision words and    36 shell-pairs
 PRISM was handed   268429560 working-precision words and    36 shell-pairs
 IPart=  5 NShTot=           0 NBatch=           0 AvBLen=         0.0
 IPart= 13 NShTot=           0 NBatch=           0 AvBLen=         0.0
 IPart= 10 NShTot=           0 NBatch=           0 AvBLen=         0.0
 IPart= 14 NShTot=           0 NBatch=           0 AvBLen=         0.0
 IPart=  8 NShTot=           0 NBatch=           0 AvBLen=         0.0
 IPart= 16 NShTot=           0 NBatch=           0 AvBLen=         0.0
 IPart= 30 NShTot=           0 NBatch=           0 AvBLen=         0.0
 IPart= 27 NShTot=           0 NBatch=           0 AvBLen=         0.0
 IPart= 11 NShTot=           0 NBatch=           0 AvBLen=         0.0
 IPart= 26 NShTot=           0 NBatch=           0 AvBLen=         0.0
 IPart=  3 NShTot=           0 NBatch=           0 AvBLen=         0.0
 IPart= 32 NShTot=           0 NBatch=           0 AvBLen=         0.0
 IPart= 35 NShTot=           0 NBatch=           0 AvBLen=         0.0
 IPart= 19 NShTot=           0 NBatch=           0 AvBLen=         0.0
 IPart= 15 NShTot=           0 NBatch=           0 AvBLen=         0.0
 IPart= 31 NShTot=           0 NBatch=           0 AvBLen=         0.0
 IPart= 33 NShTot=           0 NBatch=           0 AvBLen=         0.0
 IPart= 34 NShTot=           0 NBatch=           0 AvBLen=         0.0
 IPart= 17 NShTot=           0 NBatch=           0 AvBLen=         0.0
 IPart=  9 NShTot=           0 NBatch=           0 AvBLen=         0.0
 IPart= 21 NShTot=           0 NBatch=           0 AvBLen=         0.0
 IPart= 28 NShTot=           0 NBatch=           0 AvBLen=         0.0
 IPart= 22 NShTot=           0 NBatch=           0 AvBLen=         0.0
 IPart= 12 NShTot=           0 NBatch=           0 AvBLen=         0.0
 IPart= 25 NShTot=           0 NBatch=           0 AvBLen=         0.0
 IPart= 20 NShTot=           0 NBatch=           0 AvBLen=         0.0
 IPart=  4 NShTot=           0 NBatch=           0 AvBLen=         0.0
 IPart= 23 NShTot=           0 NBatch=           0 AvBLen=         0.0
 IPart= 29 NShTot=           0 NBatch=           0 AvBLen=         0.0
 IPart= 18 NShTot=           0 NBatch=           0 AvBLen=         0.0
 IPart=  2 NShTot=           4 NBatch=           2 AvBLen=         2.0
 IPart=  1 NShTot=          16 NBatch=           8 AvBLen=         2.0
 IPart=  0 NShTot=          52 NBatch=          26 AvBLen=         2.0
 IPart=  7 NShTot=           0 NBatch=           0 AvBLen=         0.0
 IPart= 24 NShTot=           0 NBatch=           0 AvBLen=         0.0
 IPart=  6 NShTot=           0 NBatch=           0 AvBLen=         0.0
 PrSmSu:  NxtVal=             37.
 ***** Potential Energy ***** 
                1             2             3             4             5 
      1  0.115908D+02
      2  0.195644D+01  0.476241D+03
      3 -0.368854D+01 -0.526545D+02  0.841964D+02
      4  0.000000D+00  0.000000D+00  0.000000D+00  0.983788D+02
      5  0.000000D+00  0.000000D+00  0.000000D+00  0.000000D+00  0.983788D+02
      6 -0.968392D+00 -0.657888D-02  0.401103D-01  0.000000D+00  0.000000D+00
      7 -0.652143D+01 -0.186343D+01  0.180905D+02  0.000000D+00  0.000000D+00
      8  0.000000D+00  0.000000D+00  0.000000D+00  0.169667D+02  0.000000D+00
      9  0.000000D+00  0.000000D+00  0.000000D+00  0.000000D+00  0.169667D+02
     10 -0.515922D+01 -0.361229D-03  0.234458D-01  0.000000D+00  0.000000D+00
     11 -0.475562D+01  0.175143D+01 -0.223659D+01  0.000000D+00  0.000000D+00
     12  0.000000D+00  0.000000D+00  0.000000D+00 -0.238498D+01  0.000000D+00
     13  0.000000D+00  0.000000D+00  0.000000D+00  0.000000D+00 -0.238498D+01
     14 -0.425507D+01  0.636867D-04 -0.283351D-02  0.000000D+00  0.000000D+00
     15  0.411841D+01  0.180780D+01 -0.334400D+01  0.000000D+00  0.000000D+00
     16  0.000000D+00  0.000000D+00  0.000000D+00  0.247549D+00  0.000000D+00
     17  0.000000D+00  0.000000D+00  0.000000D+00  0.000000D+00  0.247549D+00
     18 -0.214993D+01 -0.475537D-05  0.432190D-03  0.000000D+00  0.000000D+00
     19  0.250827D+01  0.389386D-04 -0.531960D-02  0.000000D+00  0.000000D+00
     20  0.000000D+00  0.000000D+00  0.000000D+00 -0.176005D-01  0.000000D+00
     21  0.000000D+00  0.000000D+00  0.000000D+00  0.000000D+00 -0.176005D-01
     22  0.000000D+00  0.000000D+00  0.000000D+00  0.000000D+00  0.000000D+00
     23  0.000000D+00  0.000000D+00  0.000000D+00  0.000000D+00  0.000000D+00
     24  0.477928D+01  0.000000D+00 -0.519121D-03  0.000000D+00  0.000000D+00
     25  0.000000D+00  0.000000D+00  0.000000D+00 -0.135467D-02  0.000000D+00
     26  0.000000D+00  0.000000D+00  0.000000D+00  0.000000D+00 -0.135467D-02
     27  0.000000D+00  0.000000D+00  0.000000D+00  0.000000D+00  0.000000D+00
     28  0.000000D+00  0.000000D+00  0.000000D+00  0.000000D+00  0.000000D+00
                6             7             8             9            10 
      6  0.983856D+02
      7  0.233571D-01  0.266961D+02
      8  0.000000D+00  0.000000D+00  0.252600D+02
      9  0.000000D+00  0.000000D+00  0.000000D+00  0.252600D+02
     10  0.169734D+02  0.132753D+00  0.000000D+00  0.000000D+00  0.253425D+02
     11 -0.105429D-02  0.259746D+01  0.000000D+00  0.000000D+00  0.597803D-01
     12  0.000000D+00  0.000000D+00  0.244790D+00  0.000000D+00  0.000000D+00
     13  0.000000D+00  0.000000D+00  0.000000D+00  0.244790D+00  0.000000D+00
     14 -0.238569D+01  0.236955D-01  0.000000D+00  0.000000D+00  0.277836D+00
     15 -0.344121D-02 -0.552670D+01  0.000000D+00  0.000000D+00 -0.544320D-01
     16  0.000000D+00  0.000000D+00  0.149318D+01  0.000000D+00  0.000000D+00
     17  0.000000D+00  0.000000D+00  0.000000D+00  0.149318D+01  0.000000D+00
     18  0.247700D+00  0.145777D-01  0.000000D+00  0.000000D+00  0.150820D+01
     19 -0.223660D-01 -0.550501D-01  0.000000D+00  0.000000D+00 -0.148439D+00
     20  0.000000D+00  0.000000D+00 -0.890358D-01  0.000000D+00  0.000000D+00
     21  0.000000D+00  0.000000D+00  0.000000D+00 -0.890358D-01  0.000000D+00
     22  0.000000D+00  0.000000D+00  0.000000D+00  0.000000D+00  0.000000D+00
     23  0.000000D+00  0.000000D+00  0.000000D+00  0.000000D+00  0.000000D+00
     24 -0.184532D-02 -0.442423D-01  0.000000D+00  0.000000D+00 -0.118213D+00
     25  0.000000D+00  0.000000D+00 -0.539178D-01  0.000000D+00  0.000000D+00
     26  0.000000D+00  0.000000D+00  0.000000D+00 -0.539178D-01  0.000000D+00
     27  0.000000D+00  0.000000D+00  0.000000D+00  0.000000D+00  0.000000D+00
     28  0.000000D+00  0.000000D+00  0.000000D+00  0.000000D+00  0.000000D+00
               11            12            13            14            15 
     11  0.814643D+01
     12  0.000000D+00  0.710802D+01
     13  0.000000D+00  0.000000D+00  0.710802D+01
     14  0.123601D+00  0.000000D+00  0.000000D+00  0.719135D+01
     15 -0.638393D+01  0.000000D+00  0.000000D+00 -0.953497D-01  0.654496D+01
     16  0.000000D+00  0.432201D+01  0.000000D+00  0.000000D+00  0.000000D+00
     17  0.000000D+00  0.000000D+00  0.432201D+01  0.000000D+00  0.000000D+00
     18  0.629477D-01  0.000000D+00  0.000000D+00  0.436319D+01 -0.601613D-01
     19 -0.278498D-01  0.000000D+00  0.000000D+00 -0.313756D-01  0.240788D-01
     20  0.000000D+00 -0.111617D-01  0.000000D+00  0.000000D+00  0.000000D+00
     21  0.000000D+00  0.000000D+00 -0.111617D-01  0.000000D+00  0.000000D+00
     22  0.000000D+00  0.000000D+00  0.000000D+00  0.000000D+00  0.000000D+00
     23  0.000000D+00  0.000000D+00  0.000000D+00  0.000000D+00  0.000000D+00
     24 -0.967651D-01  0.000000D+00  0.000000D+00 -0.159151D+00  0.665506D-01
     25  0.000000D+00 -0.690865D-01  0.000000D+00  0.000000D+00  0.000000D+00
     26  0.000000D+00  0.000000D+00 -0.690865D-01  0.000000D+00  0.000000D+00
     27  0.000000D+00  0.000000D+00  0.000000D+00  0.000000D+00  0.000000D+00
     28  0.000000D+00  0.000000D+00  0.000000D+00  0.000000D+00  0.000000D+00
               16            17            18            19            20 
     16  0.436956D+01
     17  0.000000D+00  0.436956D+01
     18  0.000000D+00  0.000000D+00  0.439556D+01
     19  0.000000D+00  0.000000D+00 -0.170056D-01  0.264568D+02
     20 -0.794100D-02  0.000000D+00  0.000000D+00  0.000000D+00  0.264129D+02
     21  0.000000D+00 -0.794100D-02  0.000000D+00  0.000000D+00  0.000000D+00
     22  0.000000D+00  0.000000D+00  0.000000D+00  0.000000D+00  0.000000D+00
     23  0.000000D+00  0.000000D+00  0.000000D+00  0.000000D+00  0.000000D+00
     24  0.000000D+00  0.000000D+00 -0.676203D-01  0.686969D+01  0.000000D+00
     25 -0.308792D-01  0.000000D+00  0.000000D+00  0.000000D+00  0.682479D+01
     26  0.000000D+00 -0.308792D-01  0.000000D+00  0.000000D+00  0.000000D+00
     27  0.000000D+00  0.000000D+00  0.000000D+00  0.000000D+00  0.000000D+00
     28  0.000000D+00  0.000000D+00  0.000000D+00  0.000000D+00  0.000000D+00
               21            22            23            24            25 
     21  0.264129D+02
     22  0.000000D+00  0.263702D+02
     23  0.000000D+00  0.000000D+00  0.263702D+02
     24  0.000000D+00  0.000000D+00  0.000000D+00  0.105772D+02
     25  0.000000D+00  0.000000D+00  0.000000D+00  0.000000D+00  0.104428D+02
     26  0.682479D+01  0.000000D+00  0.000000D+00  0.000000D+00  0.000000D+00
     27  0.000000D+00  0.679711D+01  0.000000D+00  0.000000D+00  0.000000D+00
     28  0.000000D+00  0.000000D+00  0.679711D+01  0.000000D+00  0.000000D+00
               26            27            28 
     26  0.104428D+02
     27  0.000000D+00  0.103725D+02
     28  0.000000D+00  0.000000D+00  0.103725D+02
 ****** Core Hamiltonian ****** 
                1             2             3             4             5 
      1 -0.108307D+02
      2 -0.195866D+01 -0.242374D+03
      3  0.370022D+01  0.655109D+02 -0.725447D+02
      4  0.000000D+00  0.000000D+00  0.000000D+00 -0.586444D+02
      5  0.000000D+00  0.000000D+00  0.000000D+00  0.000000D+00 -0.586444D+02
      6  0.964178D+00  0.657888D-02 -0.401103D-01  0.000000D+00  0.000000D+00
      7  0.648050D+01  0.316880D+01 -0.189771D+02  0.000000D+00  0.000000D+00
      8  0.000000D+00  0.000000D+00  0.000000D+00 -0.155531D+02  0.000000D+00
      9  0.000000D+00  0.000000D+00  0.000000D+00  0.000000D+00 -0.155531D+02
     10  0.499418D+01  0.361229D-03 -0.234458D-01  0.000000D+00  0.000000D+00
     11  0.468206D+01 -0.170451D+01  0.198583D+01  0.000000D+00  0.000000D+00
     12  0.000000D+00  0.000000D+00  0.000000D+00  0.205563D+01  0.000000D+00
     13  0.000000D+00  0.000000D+00  0.000000D+00  0.000000D+00  0.205563D+01
     14  0.411138D+01 -0.636867D-04  0.283351D-02  0.000000D+00  0.000000D+00
     15 -0.408787D+01 -0.180708D+01  0.333865D+01  0.000000D+00  0.000000D+00
     16  0.000000D+00  0.000000D+00  0.000000D+00 -0.246702D+00  0.000000D+00
     17  0.000000D+00  0.000000D+00  0.000000D+00  0.000000D+00 -0.246702D+00
     18  0.211520D+01  0.475537D-05 -0.432190D-03  0.000000D+00  0.000000D+00
     19 -0.233983D+01 -0.389386D-04  0.531960D-02  0.000000D+00  0.000000D+00
     20  0.000000D+00  0.000000D+00  0.000000D+00  0.176005D-01  0.000000D+00
     21  0.000000D+00  0.000000D+00  0.000000D+00  0.000000D+00  0.176005D-01
     22  0.000000D+00  0.000000D+00  0.000000D+00  0.000000D+00  0.000000D+00
     23  0.000000D+00  0.000000D+00  0.000000D+00  0.000000D+00  0.000000D+00
     24 -0.436615D+01  0.000000D+00  0.519121D-03  0.000000D+00  0.000000D+00
     25  0.000000D+00  0.000000D+00  0.000000D+00  0.135467D-02  0.000000D+00
     26  0.000000D+00  0.000000D+00  0.000000D+00  0.000000D+00  0.135467D-02
     27  0.000000D+00  0.000000D+00  0.000000D+00  0.000000D+00  0.000000D+00
     28  0.000000D+00  0.000000D+00  0.000000D+00  0.000000D+00  0.000000D+00
                6             7             8             9            10 
      6 -0.586512D+02
      7 -0.233571D-01 -0.253099D+02
      8  0.000000D+00  0.000000D+00 -0.226165D+02
      9  0.000000D+00  0.000000D+00  0.000000D+00 -0.226165D+02
     10 -0.155597D+02 -0.132753D+00  0.000000D+00  0.000000D+00 -0.226990D+02
     11  0.105429D-02 -0.279962D+01  0.000000D+00  0.000000D+00 -0.597803D-01
     12  0.000000D+00  0.000000D+00 -0.627112D+00  0.000000D+00  0.000000D+00
     13  0.000000D+00  0.000000D+00  0.000000D+00 -0.627112D+00  0.000000D+00
     14  0.205633D+01 -0.236955D-01  0.000000D+00  0.000000D+00 -0.660159D+00
     15  0.344121D-02  0.550169D+01  0.000000D+00  0.000000D+00  0.544320D-01
     16  0.000000D+00  0.000000D+00 -0.147739D+01  0.000000D+00  0.000000D+00
     17  0.000000D+00  0.000000D+00  0.000000D+00 -0.147739D+01  0.000000D+00
     18 -0.246852D+00 -0.145777D-01  0.000000D+00  0.000000D+00 -0.149242D+01
     19  0.223660D-01  0.550501D-01  0.000000D+00  0.000000D+00  0.148439D+00
     20  0.000000D+00  0.000000D+00  0.890358D-01  0.000000D+00  0.000000D+00
     21  0.000000D+00  0.000000D+00  0.000000D+00  0.890358D-01  0.000000D+00
     22  0.000000D+00  0.000000D+00  0.000000D+00  0.000000D+00  0.000000D+00
     23  0.000000D+00  0.000000D+00  0.000000D+00  0.000000D+00  0.000000D+00
     24  0.184532D-02  0.442423D-01  0.000000D+00  0.000000D+00  0.118213D+00
     25  0.000000D+00  0.000000D+00  0.539178D-01  0.000000D+00  0.000000D+00
     26  0.000000D+00  0.000000D+00  0.000000D+00  0.539178D-01  0.000000D+00
     27  0.000000D+00  0.000000D+00  0.000000D+00  0.000000D+00  0.000000D+00
     28  0.000000D+00  0.000000D+00  0.000000D+00  0.000000D+00  0.000000D+00
               11            12            13            14            15 
     11 -0.796696D+01
     12  0.000000D+00 -0.680644D+01
     13  0.000000D+00  0.000000D+00 -0.680644D+01
     14 -0.123601D+00  0.000000D+00  0.000000D+00 -0.688977D+01
     15  0.632612D+01  0.000000D+00  0.000000D+00  0.953497D-01 -0.649691D+01
     16  0.000000D+00 -0.423523D+01  0.000000D+00  0.000000D+00  0.000000D+00
     17  0.000000D+00  0.000000D+00 -0.423523D+01  0.000000D+00  0.000000D+00
     18 -0.629477D-01  0.000000D+00  0.000000D+00 -0.427641D+01  0.601613D-01
     19  0.278498D-01  0.000000D+00  0.000000D+00  0.313756D-01 -0.240788D-01
     20  0.000000D+00  0.111617D-01  0.000000D+00  0.000000D+00  0.000000D+00
     21  0.000000D+00  0.000000D+00  0.111617D-01  0.000000D+00  0.000000D+00
     22  0.000000D+00  0.000000D+00  0.000000D+00  0.000000D+00  0.000000D+00
     23  0.000000D+00  0.000000D+00  0.000000D+00  0.000000D+00  0.000000D+00
     24  0.967651D-01  0.000000D+00  0.000000D+00  0.159151D+00 -0.665506D-01
     25  0.000000D+00  0.690865D-01  0.000000D+00  0.000000D+00  0.000000D+00
     26  0.000000D+00  0.000000D+00  0.690865D-01  0.000000D+00  0.000000D+00
     27  0.000000D+00  0.000000D+00  0.000000D+00  0.000000D+00  0.000000D+00
     28  0.000000D+00  0.000000D+00  0.000000D+00  0.000000D+00  0.000000D+00
               16            17            18            19            20 
     16 -0.428947D+01
     17  0.000000D+00 -0.428947D+01
     18  0.000000D+00  0.000000D+00 -0.431547D+01
     19  0.000000D+00  0.000000D+00  0.170056D-01 -0.201430D+02
     20  0.794100D-02  0.000000D+00  0.000000D+00  0.000000D+00 -0.200991D+02
     21  0.000000D+00  0.794100D-02  0.000000D+00  0.000000D+00  0.000000D+00
     22  0.000000D+00  0.000000D+00  0.000000D+00  0.000000D+00  0.000000D+00
     23  0.000000D+00  0.000000D+00  0.000000D+00  0.000000D+00  0.000000D+00
     24  0.000000D+00  0.000000D+00  0.676203D-01 -0.622136D+01  0.000000D+00
     25  0.308792D-01  0.000000D+00  0.000000D+00  0.000000D+00 -0.617646D+01
     26  0.000000D+00  0.308792D-01  0.000000D+00  0.000000D+00  0.000000D+00
     27  0.000000D+00  0.000000D+00  0.000000D+00  0.000000D+00  0.000000D+00
     28  0.000000D+00  0.000000D+00  0.000000D+00  0.000000D+00  0.000000D+00
               21            22            23            24            25 
     21 -0.200991D+02
     22  0.000000D+00 -0.200564D+02
     23  0.000000D+00  0.000000D+00 -0.200564D+02
     24  0.000000D+00  0.000000D+00  0.000000D+00 -0.957284D+01
     25  0.000000D+00  0.000000D+00  0.000000D+00  0.000000D+00 -0.943841D+01
     26 -0.617646D+01  0.000000D+00  0.000000D+00  0.000000D+00  0.000000D+00
     27  0.000000D+00 -0.614879D+01  0.000000D+00  0.000000D+00  0.000000D+00
     28  0.000000D+00  0.000000D+00 -0.614879D+01  0.000000D+00  0.000000D+00
               26            27            28 
     26 -0.943841D+01
     27  0.000000D+00 -0.936818D+01
     28  0.000000D+00  0.000000D+00 -0.936818D+01
 SVDSVc IOpt=   1 NormSV=T IR=1
 SVDSVc V= 2.55D+00 1.87D+00 1.48D+00 1.40D+00 1.39D+00 1.30D+00 9.42D-01 7.31D-01 6.30D-01 5.96D-01
 SVDSVc V= 5.31D-01 3.33D-01 1.64D-01 7.21D-02
 SVDSVc IOpt=   1 NormSV=T IR=2
 SVDSVc V= 1.40D+00 5.96D-01
 SVDSVc IOpt=   1 NormSV=T IR=3
 SVDSVc V= 1.79D+00 1.40D+00 1.30D+00 6.62D-01 5.96D-01 2.47D-01
 SVDSVc IOpt=   1 NormSV=T IR=4
 SVDSVc V= 1.79D+00 1.40D+00 1.30D+00 6.62D-01 5.96D-01 2.47D-01
 TstOVc:  Largest diagonal error= 1.55D-15 IB=1 I=   13.
 TstOVc:  Largest same sym error= 1.21D-15 IB=1 I=   14 J=   13.
 TstOVc:  Largest diff sym error= 0.00D+00 IB=0 JB=0 I=    0 J=    0.
 Orthogonalized basis functions: 
                 1             2             3             4             5 
      1   0.338298D+00 -0.850273D-01  0.132792D+00  0.000000D+00  0.172516D-02
      2   0.140316D-01  0.255877D-01 -0.366393D-01  0.000000D+00 -0.429258D+00
      3  -0.610858D-01 -0.760342D-01  0.637037D-01  0.000000D+00  0.594882D+00
      4   0.000000D+00  0.000000D+00  0.000000D+00  0.000000D+00  0.000000D+00
      5   0.000000D+00  0.000000D+00  0.000000D+00  0.000000D+00  0.000000D+00
      6  -0.206072D-01  0.430202D-01 -0.256098D-01  0.000000D+00 -0.107189D-02
      7  -0.173652D+00 -0.157664D+00  0.695928D-01  0.000000D+00  0.326998D+00
      8   0.000000D+00  0.000000D+00  0.000000D+00  0.000000D+00  0.000000D+00
      9   0.000000D+00  0.000000D+00  0.000000D+00  0.000000D+00  0.000000D+00
     10  -0.987315D-01  0.156181D+00 -0.102878D-01  0.000000D+00 -0.975256D-03
     11  -0.286144D+00 -0.269772D+00  0.956735D-01  0.000000D+00 -0.215956D+00
     12   0.000000D+00  0.000000D+00  0.000000D+00  0.000000D+00  0.000000D+00
     13   0.000000D+00  0.000000D+00  0.000000D+00  0.000000D+00  0.000000D+00
     14  -0.187068D+00  0.400507D+00  0.171143D+00  0.000000D+00  0.189585D-02
     15   0.278321D+00  0.283489D+00 -0.112777D+00  0.000000D+00  0.156644D+00
     16   0.000000D+00  0.000000D+00  0.000000D+00  0.000000D+00  0.000000D+00
     17   0.000000D+00  0.000000D+00  0.000000D+00  0.000000D+00  0.000000D+00
     18  -0.153187D+00  0.386686D+00  0.194612D+00  0.000000D+00  0.221914D-02
     19   0.605668D-01 -0.426141D-01  0.507489D+00  0.000000D+00 -0.372800D-01
     20   0.000000D+00  0.000000D+00  0.000000D+00  0.000000D+00  0.000000D+00
     21   0.000000D+00  0.000000D+00  0.000000D+00  0.000000D+00  0.000000D+00
     22   0.000000D+00  0.000000D+00  0.000000D+00  0.596714D+00  0.000000D+00
     23   0.000000D+00  0.000000D+00  0.000000D+00  0.000000D+00  0.000000D+00
     24   0.108941D+00 -0.611987D-01  0.549643D+00  0.000000D+00 -0.366734D-01
     25   0.000000D+00  0.000000D+00  0.000000D+00  0.000000D+00  0.000000D+00
     26   0.000000D+00  0.000000D+00  0.000000D+00  0.000000D+00  0.000000D+00
     27   0.000000D+00  0.000000D+00  0.000000D+00  0.596714D+00  0.000000D+00
     28   0.000000D+00  0.000000D+00  0.000000D+00  0.000000D+00  0.000000D+00
                 6             7             8             9            10 
      1  -0.282974D-01 -0.501069D-01  0.381746D+00 -0.164231D+00  0.000000D+00
      2  -0.151194D-02  0.791500D+00  0.108132D+00 -0.562789D-01  0.000000D+00
      3   0.108800D-02  0.138203D+00  0.113035D+00 -0.804628D-01  0.000000D+00
      4   0.000000D+00  0.000000D+00  0.000000D+00  0.000000D+00  0.000000D+00
      5   0.000000D+00  0.000000D+00  0.000000D+00  0.000000D+00  0.000000D+00
      6   0.620692D+00 -0.309134D-01  0.638922D+00  0.518692D+00  0.000000D+00
      7  -0.325914D-02  0.584217D+00  0.440601D-01  0.211585D-01  0.000000D+00
      8   0.000000D+00  0.000000D+00  0.000000D+00  0.000000D+00  0.000000D+00
      9   0.000000D+00  0.000000D+00  0.000000D+00  0.000000D+00  0.000000D+00
     10   0.564771D+00  0.988732D-03 -0.503837D+00 -0.602791D+00  0.000000D+00
     11  -0.196481D-01 -0.199177D+00  0.970419D-01 -0.407011D-01  0.000000D+00
     12   0.000000D+00  0.000000D+00  0.000000D+00  0.000000D+00  0.000000D+00
     13   0.000000D+00  0.000000D+00  0.000000D+00  0.000000D+00  0.000000D+00
     14  -0.154996D+00 -0.146000D-01  0.715076D-01  0.812351D-02  0.000000D+00
     15   0.221137D-01  0.165741D+00 -0.178299D+00  0.834806D-01  0.000000D+00
     16   0.000000D+00  0.000000D+00  0.000000D+00  0.000000D+00  0.000000D+00
     17   0.000000D+00  0.000000D+00  0.000000D+00  0.000000D+00  0.000000D+00
     18  -0.152134D+00 -0.329305D-01  0.349073D+00  0.322697D-01  0.000000D+00
     19   0.872232D-01  0.513670D-01 -0.558650D+00  0.732024D+00  0.000000D+00
     20   0.000000D+00  0.000000D+00  0.000000D+00  0.000000D+00  0.000000D+00
     21   0.000000D+00  0.000000D+00  0.000000D+00  0.000000D+00  0.000000D+00
     22   0.000000D+00  0.000000D+00  0.000000D+00  0.000000D+00  0.916103D+00
     23   0.000000D+00  0.000000D+00  0.000000D+00  0.000000D+00  0.000000D+00
     24   0.760643D-01  0.109123D-01  0.233108D+00 -0.610165D+00  0.000000D+00
     25   0.000000D+00  0.000000D+00  0.000000D+00  0.000000D+00  0.000000D+00
     26   0.000000D+00  0.000000D+00  0.000000D+00  0.000000D+00  0.000000D+00
     27   0.000000D+00  0.000000D+00  0.000000D+00  0.000000D+00 -0.916103D+00
     28   0.000000D+00  0.000000D+00  0.000000D+00  0.000000D+00  0.000000D+00
                11            12            13            14            15 
      1   0.842133D-01  0.752686D+00 -0.789449D+00  0.184972D+01  0.000000D+00
      2   0.509902D+00 -0.578669D-01  0.369370D-01 -0.148565D-01  0.000000D+00
      3   0.908984D+00 -0.142658D+00  0.164536D+00  0.739101D-01  0.000000D+00
      4   0.000000D+00  0.000000D+00  0.000000D+00  0.000000D+00  0.000000D+00
      5   0.000000D+00  0.000000D+00  0.000000D+00  0.000000D+00  0.000000D+00
      6  -0.593106D-01 -0.251553D+00 -0.448158D-02 -0.620293D-01  0.000000D+00
      7  -0.806855D+00  0.291230D+00 -0.182019D+00  0.502826D+00  0.000000D+00
      8   0.000000D+00  0.000000D+00  0.000000D+00  0.000000D+00  0.000000D+00
      9   0.000000D+00  0.000000D+00  0.000000D+00  0.000000D+00  0.000000D+00
     10   0.897893D-01  0.458958D+00 -0.199052D+00  0.496787D+00  0.000000D+00
     11   0.125578D+00 -0.293256D-01  0.107824D+01  0.214183D+01  0.000000D+00
     12   0.000000D+00  0.000000D+00  0.000000D+00  0.000000D+00  0.000000D+00
     13   0.000000D+00  0.000000D+00  0.000000D+00  0.000000D+00  0.000000D+00
     14  -0.732236D-02 -0.702755D+00 -0.113792D+01  0.146244D+01  0.000000D+00
     15  -0.210860D+00 -0.371871D+00  0.143805D+01  0.137019D+01  0.000000D+00
     16   0.000000D+00  0.000000D+00  0.000000D+00  0.000000D+00  0.000000D+00
     17   0.000000D+00  0.000000D+00  0.000000D+00  0.000000D+00  0.000000D+00
     18   0.385259D-01  0.100925D+01  0.800948D+00 -0.722280D+00  0.000000D+00
     19   0.153008D+00  0.198585D+00 -0.728244D-01  0.948901D-01  0.000000D+00
     20   0.000000D+00  0.000000D+00  0.000000D+00  0.000000D+00  0.000000D+00
     21   0.000000D+00  0.000000D+00  0.000000D+00  0.000000D+00  0.000000D+00
     22   0.000000D+00  0.000000D+00  0.000000D+00  0.000000D+00  0.000000D+00
     23   0.000000D+00  0.000000D+00  0.000000D+00  0.000000D+00  0.596714D+00
     24  -0.208388D+00 -0.602253D+00  0.438573D+00 -0.892616D+00  0.000000D+00
     25   0.000000D+00  0.000000D+00  0.000000D+00  0.000000D+00  0.000000D+00
     26   0.000000D+00  0.000000D+00  0.000000D+00  0.000000D+00  0.000000D+00
     27   0.000000D+00  0.000000D+00  0.000000D+00  0.000000D+00  0.000000D+00
     28   0.000000D+00  0.000000D+00  0.000000D+00  0.000000D+00  0.596714D+00
                16            17            18            19            20 
      1   0.000000D+00  0.000000D+00  0.000000D+00  0.000000D+00  0.000000D+00
      2   0.000000D+00  0.000000D+00  0.000000D+00  0.000000D+00  0.000000D+00
      3   0.000000D+00  0.000000D+00  0.000000D+00  0.000000D+00  0.000000D+00
      4   0.000000D+00  0.496550D-01  0.000000D+00  0.634889D+00 -0.838847D+00
      5   0.000000D+00  0.000000D+00  0.000000D+00  0.000000D+00  0.000000D+00
      6   0.000000D+00  0.000000D+00  0.000000D+00  0.000000D+00  0.000000D+00
      7   0.000000D+00  0.000000D+00  0.000000D+00  0.000000D+00  0.000000D+00
      8   0.000000D+00  0.179002D+00  0.000000D+00  0.575229D+00  0.875786D+00
      9   0.000000D+00  0.000000D+00  0.000000D+00  0.000000D+00  0.000000D+00
     10   0.000000D+00  0.000000D+00  0.000000D+00  0.000000D+00  0.000000D+00
     11   0.000000D+00  0.000000D+00  0.000000D+00  0.000000D+00  0.000000D+00
     12   0.000000D+00  0.513298D+00  0.000000D+00 -0.135910D+00 -0.267878D-01
     13   0.000000D+00  0.000000D+00  0.000000D+00  0.000000D+00  0.000000D+00
     14   0.000000D+00  0.000000D+00  0.000000D+00  0.000000D+00  0.000000D+00
     15   0.000000D+00  0.000000D+00  0.000000D+00  0.000000D+00  0.000000D+00
     16   0.000000D+00  0.510710D+00  0.000000D+00 -0.126746D+00 -0.198477D+00
     17   0.000000D+00  0.000000D+00  0.000000D+00  0.000000D+00  0.000000D+00
     18   0.000000D+00  0.000000D+00  0.000000D+00  0.000000D+00  0.000000D+00
     19   0.000000D+00  0.000000D+00  0.000000D+00  0.000000D+00  0.000000D+00
     20   0.000000D+00  0.000000D+00  0.596714D+00  0.000000D+00  0.000000D+00
     21   0.000000D+00  0.000000D+00  0.000000D+00  0.000000D+00  0.000000D+00
     22   0.000000D+00  0.000000D+00  0.000000D+00  0.000000D+00  0.000000D+00
     23   0.916103D+00  0.000000D+00  0.000000D+00  0.000000D+00  0.000000D+00
     24   0.000000D+00  0.000000D+00  0.000000D+00  0.000000D+00  0.000000D+00
     25   0.000000D+00  0.000000D+00  0.596714D+00  0.000000D+00  0.000000D+00
     26   0.000000D+00  0.000000D+00  0.000000D+00  0.000000D+00  0.000000D+00
     27   0.000000D+00  0.000000D+00  0.000000D+00  0.000000D+00  0.000000D+00
     28  -0.916103D+00  0.000000D+00  0.000000D+00  0.000000D+00  0.000000D+00
                21            22            23            24            25 
      1   0.000000D+00  0.000000D+00  0.000000D+00  0.000000D+00  0.000000D+00
      2   0.000000D+00  0.000000D+00  0.000000D+00  0.000000D+00  0.000000D+00
      3   0.000000D+00  0.000000D+00  0.000000D+00  0.000000D+00  0.000000D+00
      4   0.000000D+00  0.146699D+00  0.000000D+00  0.000000D+00  0.000000D+00
      5   0.000000D+00  0.000000D+00  0.496550D-01  0.000000D+00  0.634889D+00
      6   0.000000D+00  0.000000D+00  0.000000D+00  0.000000D+00  0.000000D+00
      7   0.000000D+00  0.000000D+00  0.000000D+00  0.000000D+00  0.000000D+00
      8   0.000000D+00 -0.133591D+00  0.000000D+00  0.000000D+00  0.000000D+00
      9   0.000000D+00  0.000000D+00  0.179002D+00  0.000000D+00  0.575229D+00
     10   0.000000D+00  0.000000D+00  0.000000D+00  0.000000D+00  0.000000D+00
     11   0.000000D+00  0.000000D+00  0.000000D+00  0.000000D+00  0.000000D+00
     12   0.000000D+00  0.142747D+01  0.000000D+00  0.000000D+00  0.000000D+00
     13   0.000000D+00  0.000000D+00  0.513298D+00  0.000000D+00 -0.135910D+00
     14   0.000000D+00  0.000000D+00  0.000000D+00  0.000000D+00  0.000000D+00
     15   0.000000D+00  0.000000D+00  0.000000D+00  0.000000D+00  0.000000D+00
     16   0.000000D+00 -0.140214D+01  0.000000D+00  0.000000D+00  0.000000D+00
     17   0.000000D+00  0.000000D+00  0.510710D+00  0.000000D+00 -0.126746D+00
     18   0.000000D+00  0.000000D+00  0.000000D+00  0.000000D+00  0.000000D+00
     19   0.000000D+00  0.000000D+00  0.000000D+00  0.000000D+00  0.000000D+00
     20   0.916103D+00  0.000000D+00  0.000000D+00  0.000000D+00  0.000000D+00
     21   0.000000D+00  0.000000D+00  0.000000D+00  0.596714D+00  0.000000D+00
     22   0.000000D+00  0.000000D+00  0.000000D+00  0.000000D+00  0.000000D+00
     23   0.000000D+00  0.000000D+00  0.000000D+00  0.000000D+00  0.000000D+00
     24   0.000000D+00  0.000000D+00  0.000000D+00  0.000000D+00  0.000000D+00
     25  -0.916103D+00  0.000000D+00  0.000000D+00  0.000000D+00  0.000000D+00
     26   0.000000D+00  0.000000D+00  0.000000D+00  0.596714D+00  0.000000D+00
     27   0.000000D+00  0.000000D+00  0.000000D+00  0.000000D+00  0.000000D+00
     28   0.000000D+00  0.000000D+00  0.000000D+00  0.000000D+00  0.000000D+00
                26            27            28 
      1   0.000000D+00  0.000000D+00  0.000000D+00
      2   0.000000D+00  0.000000D+00  0.000000D+00
      3   0.000000D+00  0.000000D+00  0.000000D+00
      4   0.000000D+00  0.000000D+00  0.000000D+00
      5  -0.838847D+00  0.000000D+00  0.146699D+00
      6   0.000000D+00  0.000000D+00  0.000000D+00
      7   0.000000D+00  0.000000D+00  0.000000D+00
      8   0.000000D+00  0.000000D+00  0.000000D+00
      9   0.875786D+00  0.000000D+00 -0.133591D+00
     10   0.000000D+00  0.000000D+00  0.000000D+00
     11   0.000000D+00  0.000000D+00  0.000000D+00
     12   0.000000D+00  0.000000D+00  0.000000D+00
     13  -0.267878D-01  0.000000D+00  0.142747D+01
     14   0.000000D+00  0.000000D+00  0.000000D+00
     15   0.000000D+00  0.000000D+00  0.000000D+00
     16   0.000000D+00  0.000000D+00  0.000000D+00
     17  -0.198477D+00  0.000000D+00 -0.140214D+01
     18   0.000000D+00  0.000000D+00  0.000000D+00
     19   0.000000D+00  0.000000D+00  0.000000D+00
     20   0.000000D+00  0.000000D+00  0.000000D+00
     21   0.000000D+00  0.916103D+00  0.000000D+00
     22   0.000000D+00  0.000000D+00  0.000000D+00
     23   0.000000D+00  0.000000D+00  0.000000D+00
     24   0.000000D+00  0.000000D+00  0.000000D+00
     25   0.000000D+00  0.000000D+00  0.000000D+00
     26   0.000000D+00 -0.916103D+00  0.000000D+00
     27   0.000000D+00  0.000000D+00  0.000000D+00
     28   0.000000D+00  0.000000D+00  0.000000D+00
 NBasis=    28 RedAO= T EigKep=  7.21D-02  NBF=    14     2     6     6
 NBsUse=    28 1.00D-06 EigRej= -1.00D+00 NBFU=    14     2     6     6
 Leave Link  302 at Mon Mar 28 12:47:33 2022, MaxMem=  9663676416 cpu:               5.9 elap:               0.2
 (Enter /nopt/nrel/apps/gaussian/g16C_1/g16/l303.exe)
 DipDrv will not compute anything.
 Fermi contact integrals: 
                 1             2 
      1   0.628247D+00  0.583158D-01
      2   0.000000D+00  0.554361D+02
      3   0.000000D+00 -0.784630D-01
      4   0.000000D+00  0.000000D+00
      5   0.000000D+00  0.000000D+00
      6   0.000000D+00  0.000000D+00
      7  -0.278472D-01 -0.119954D-01
      8   0.000000D+00  0.000000D+00
      9   0.000000D+00  0.000000D+00
     10  -0.682829D-01  0.000000D+00
     11  -0.736195D-01  0.536701D-01
     12   0.000000D+00  0.000000D+00
     13   0.000000D+00  0.000000D+00
     14  -0.997648D-01  0.000000D+00
     15   0.469916D-01  0.539683D-01
     16   0.000000D+00  0.000000D+00
     17   0.000000D+00  0.000000D+00
     18  -0.349672D-01  0.000000D+00
     19   0.609104D-01  0.000000D+00
     20   0.000000D+00  0.000000D+00
     21   0.000000D+00  0.000000D+00
     22   0.000000D+00  0.000000D+00
     23   0.000000D+00  0.000000D+00
     24   0.231568D+00  0.000000D+00
     25   0.000000D+00  0.000000D+00
     26   0.000000D+00  0.000000D+00
     27   0.000000D+00  0.000000D+00
     28   0.000000D+00  0.000000D+00
 Leave Link  303 at Mon Mar 28 12:47:33 2022, MaxMem=  9663676416 cpu:               1.1 elap:               0.1
 (Enter /nopt/nrel/apps/gaussian/g16C_1/g16/l401.exe)
 ExpMin= 3.20D-02 ExpMax= 4.32D+04 ExpMxC= 6.48D+03 IAcc=3 IRadAn=         5 AccDes= 0.00D+00
 Harris functional with IExCor=  205 and IRadAn=       5 diagonalized for initial guess.
 HarFok:  IExCor=  205 AccDes= 0.00D+00 IRadAn=         5 IDoV= 1 UseB2=F ITyADJ=14
 ICtDFT=  3500011 ScaDFX=  1.000000  1.000000  1.000000  1.000000
 FoFCou: FMM=F IPFlag=           0 FMFlag=      100000 FMFlg1=           0
         NFxFlg=           0 DoJE=T BraDBF=F KetDBF=T FulRan=T
         wScrn=  0.000000 ICntrl=       500 IOpCl=  0 I1Cent=   200000004 NGrid=           0
         NMat0=    1 NMatS0=      1 NMatT0=    0 NMatD0=    1 NMtDS0=    0 NMtDT0=    0
 Petite list used in FoFCou.
 Harris En= -847.833521987221    
 JPrj=0 DoOrth=F DoCkMO=F.
 Initial guess orbital symmetries:
 Alpha Orbitals:
       Occupied  (SG) (SG) (SG) (PI) (PI) (SG) (SG) (PI) (PI) (SG)
                 (SG) (PI) (PI) (DLTA)
       Virtual   (DLTA) (SG) (PI) (PI) (SG) (SG) (PI) (PI) (SG)
                 (PI) (PI) (DLTA) (DLTA) (SG)
 Beta  Orbitals:
       Occupied  (SG) (SG) (SG) (PI) (PI) (SG) (SG) (PI) (PI)
       Virtual   (SG) (SG) (PI) (PI) (DLTA) (DLTA) (SG) (PI) (PI)
                 (SG) (SG) (PI) (PI) (SG) (PI) (PI) (DLTA) (DLTA)
                 (SG)
 Initial guess <Sx>= 0.0000 <Sy>= 0.0000 <Sz>= 2.5000 <S**2>= 8.7500 S= 2.5000
 Leave Link  401 at Mon Mar 28 12:47:33 2022, MaxMem=  9663676416 cpu:               4.2 elap:               0.1
 (Enter /nopt/nrel/apps/gaussian/g16C_1/g16/l502.exe)
 Keep R1 and R2 ints in memory in symmetry-blocked form, NReq=7501073.
 FoFCou: FMM=F IPFlag=           0 FMFlag=           0 FMFlg1=           0
         NFxFlg=           0 DoJE=F BraDBF=F KetDBF=F FulRan=T
         wScrn=  0.000000 ICntrl=       600 IOpCl=  0 I1Cent=           0 NGrid=           0
         NMat0=    1 NMatS0=    406 NMatT0=    0 NMatD0=    1 NMtDS0=    0 NMtDT0=    0
 Petite list used in FoFCou.
 UHF open shell SCF:
 Using DIIS extrapolation, IDIIS=  1040.
[...]
 DIIS: error= 2.13D-07 at cycle  13 NSaved=  13.
 NSaved=13 IEnMin=13 EnMin= -848.504773065030     IErMin=13 ErrMin= 2.13D-07
 ErrMax= 2.13D-07  0.00D+00 EMaxC= 1.00D-01 BMatC= 4.06D-12 BMatP= 7.78D-11
 IDIUse=1 WtCom= 1.00D+00 WtEn= 0.00D+00
 Coeff-Com:  0.194D-04-0.291D-04 0.110D-03-0.567D-03 0.125D-02-0.155D-02
 Coeff-Com: -0.412D-03 0.784D-02-0.197D-01 0.379D-01 0.321D-01-0.437D+00
 Coeff-Com:  0.138D+01
 Coeff:      0.194D-04-0.291D-04 0.110D-03-0.567D-03 0.125D-02-0.155D-02
 Coeff:     -0.412D-03 0.784D-02-0.197D-01 0.379D-01 0.321D-01-0.437D+00
 Coeff:      0.138D+01
 Gap=     0.206 Goal=   None    Shift=    0.000
 Gap=     1.486 Goal=   None    Shift=    0.000
 RMSDP=3.94D-07 MaxDP=9.62D-06 DE=-1.23D-10 OVMax= 2.92D-07

 Cycle  14  Pass 1  IDiag  1:
 E= -848.504773065039     Delta-E=       -0.000000000009 Rises=F Damp=F
 DIIS: error= 4.38D-08 at cycle  14 NSaved=  14.
 NSaved=14 IEnMin=14 EnMin= -848.504773065039     IErMin=14 ErrMin= 4.38D-08
 ErrMax= 4.38D-08  0.00D+00 EMaxC= 1.00D-01 BMatC= 2.04D-13 BMatP= 4.06D-12
 IDIUse=1 WtCom= 1.00D+00 WtEn= 0.00D+00
 Coeff-Com: -0.753D-07 0.258D-06-0.804D-05 0.855D-04-0.214D-03 0.299D-03
 Coeff-Com: -0.211D-03-0.438D-03 0.232D-02-0.485D-02-0.821D-02 0.112D+00
 Coeff-Com: -0.509D+00 0.141D+01
 Coeff:     -0.753D-07 0.258D-06-0.804D-05 0.855D-04-0.214D-03 0.299D-03
 Coeff:     -0.211D-03-0.438D-03 0.232D-02-0.485D-02-0.821D-02 0.112D+00
 Coeff:     -0.509D+00 0.141D+01
 Gap=     0.206 Goal=   None    Shift=    0.000
 Gap=     1.486 Goal=   None    Shift=    0.000
 RMSDP=4.88D-08 MaxDP=9.56D-07 DE=-9.32D-12 OVMax= 1.38D-07

 Cycle  15  Pass 1  IDiag  1:
 E= -848.504773065039     Delta-E=       -0.000000000000 Rises=F Damp=F
 DIIS: error= 7.99D-09 at cycle  15 NSaved=  15.
 NSaved=15 IEnMin=15 EnMin= -848.504773065039     IErMin=15 ErrMin= 7.99D-09
 ErrMax= 7.99D-09  0.00D+00 EMaxC= 1.00D-01 BMatC= 5.58D-15 BMatP= 2.04D-13
 IDIUse=1 WtCom= 1.00D+00 WtEn= 0.00D+00
 Coeff-Com:  0.936D-06-0.122D-05 0.107D-05-0.136D-04 0.319D-04-0.432D-04
 Coeff-Com:  0.493D-04 0.382D-06-0.255D-03 0.362D-03 0.208D-02-0.233D-01
 Coeff-Com:  0.112D+00-0.460D+00 0.137D+01
 Coeff:      0.936D-06-0.122D-05 0.107D-05-0.136D-04 0.319D-04-0.432D-04
 Coeff:      0.493D-04 0.382D-06-0.255D-03 0.362D-03 0.208D-02-0.233D-01
 Coeff:      0.112D+00-0.460D+00 0.137D+01
 Gap=     0.206 Goal=   None    Shift=    0.000
 Gap=     1.486 Goal=   None    Shift=    0.000
 RMSDP=1.25D-08 MaxDP=3.68D-07 DE=-3.41D-13 OVMax= 1.86D-08

 Cycle  16  Pass 1  IDiag  1:
 E= -848.504773065040     Delta-E=       -0.000000000001 Rises=F Damp=F
 DIIS: error= 1.60D-09 at cycle  16 NSaved=  16.
 NSaved=16 IEnMin=16 EnMin= -848.504773065040     IErMin=16 ErrMin= 1.60D-09
 ErrMax= 1.60D-09  0.00D+00 EMaxC= 1.00D-01 BMatC= 1.86D-16 BMatP= 5.58D-15
 IDIUse=1 WtCom= 1.00D+00 WtEn= 0.00D+00
 Large coefficients: NSaved= 16 BigCof=    0.00 CofMax=   10.00 Det=-1.97D-16
 Inversion failed.  Reducing to 15 matrices.
 Coeff-Com: -0.471D-08-0.692D-07 0.766D-06-0.162D-05-0.108D-06 0.142D-04
 Coeff-Com: -0.431D-04 0.117D-03-0.137D-03-0.392D-03 0.631D-02-0.322D-01
 Coeff-Com:  0.145D+00-0.506D+00 0.139D+01
 Coeff:     -0.471D-08-0.692D-07 0.766D-06-0.162D-05-0.108D-06 0.142D-04
 Coeff:     -0.431D-04 0.117D-03-0.137D-03-0.392D-03 0.631D-02-0.322D-01
 Coeff:      0.145D+00-0.506D+00 0.139D+01
 Gap=     0.206 Goal=   None    Shift=    0.000
 Gap=     1.486 Goal=   None    Shift=    0.000
 RMSDP=1.70D-09 MaxDP=1.67D-08 DE=-6.82D-13 OVMax= 1.81D-09

 SCF Done:  E(UHF) =  -848.504773065     A.U. after   16 cycles
            NFock= 16  Conv=0.17D-08     -V/T= 1.9978
 <Sx>= 0.0000 <Sy>= 0.0000 <Sz>= 2.5000 <S**2>= 8.7527 S= 2.5004
 <L.S>= 0.000000000000E+00
 KE= 8.503552394663D+02 PE=-2.038676908723D+03 EE= 3.292333519733D+02
 Annihilation of the first spin contaminant:
 S**2 before annihilation     8.7527,   after     8.7500
 Leave Link  502 at Mon Mar 28 12:47:33 2022, MaxMem=  9663676416 cpu:               6.6 elap:               0.2
 (Enter /nopt/nrel/apps/gaussian/g16C_1/g16/l801.exe)
 Windowed orbitals will be sorted by symmetry type.
 ExpMin= 3.20D-02 ExpMax= 4.32D+04 ExpMxC= 6.48D+03 IAcc=3 IRadAn=         5 AccDes= 0.00D+00
 HarFok:  IExCor=  205 AccDes= 0.00D+00 IRadAn=         5 IDoV=-2 UseB2=F ITyADJ=14
 ICtDFT= 12500011 ScaDFX=  1.000000  1.000000  1.000000  1.000000
 Largest valence mixing into a core orbital is  1.88D-02
 Largest core mixing into a valence orbital is  1.84D-02
 Range of M.O.s used for correlation:    10    28
 NBasis=    28 NAE=    14 NBE=     9 NFC=     9 NFV=     0
 NROrb=     19 NOA=     5 NOB=     0 NVA=    14 NVB=    19
 Leave Link  801 at Mon Mar 28 12:47:33 2022, MaxMem=  9663676416 cpu:               2.5 elap:               0.1
 (Enter /nopt/nrel/apps/gaussian/g16C_1/g16/l804.exe)
 Open-shell transformation, MDV=  9663676416 ITran=4 ISComp=2.
 Unit  1 TFree=         51647 TCopy=        128016.
 Semi-Direct transformation.
 ModeAB=           2 MOrb=             5 LenV=    9663489492
 LASXX=         3330 LTotXX=        3330 LenRXX=        3330
 LTotAB=        4378 MaxLAS=       44175 LenRXY=       44175
 NonZer=       49305 LenScr=      785920 LnRSAI=           0
 LnScr1=           0 LExtra=      232387 Total=      1065812
 MaxDsk= 34359738368 SrtSym=           F ITran=            4
 DoSDTr:  NPSUse= 36
 JobTyp=1 Pass  1:  I=   1 to   5.
 (rs|ai) integrals will be sorted in core.
 Complete sort for first half transformation.
 First half transformation complete.
 Complete sort for second half transformation.
 Second half transformation complete.
 Spin components of T(2) and E(2):
     alpha-alpha T2 =       0.7713191335D-02 E2=     -0.1737928607D-01
     alpha-beta  T2 =       0.0000000000D+00 E2=      0.0000000000D+00
     beta-beta   T2 =       0.0000000000D+00 E2=      0.0000000000D+00
 ANorm=    0.1003849188D+01
 E2 =    -0.1737928607D-01 EUMP2 =    -0.84852215235111D+03
 Leave Link  804 at Mon Mar 28 12:47:33 2022, MaxMem=  9663676416 cpu:               3.8 elap:               0.1
 (Enter /nopt/nrel/apps/gaussian/g16C_1/g16/l913.exe)
 CIDS:  MDV=  9663676416.
 Frozen-core window:  NFC=   9 NFV=   0.
 IFCWin=0 IBDFC=1 NFBD=     0     0 NFCmp=     0     0 NFFFC=     0     0
 Using original routines for 1st iteration.
 Using DD4UQ or CC4UQ for 2nd and later iterations.
 Keep R2 and R3 ints in memory in symmetry-blocked form, NReq=7503631.
 FoFCou: FMM=F IPFlag=           0 FMFlag=           0 FMFlg1=           0
         NFxFlg=           0 DoJE=F BraDBF=F KetDBF=F FulRan=T
         wScrn=  0.000000 ICntrl=       600 IOpCl=  0 I1Cent=           0 NGrid=           0
         NMat0=    1 NMatS0=    406 NMatT0=    0 NMatD0=    1 NMtDS0=    0 NMtDT0=    0
 Petite list used in FoFCou.
 CIDS: In Core Option IDoMem=           1.
 Coupled Cluster theory with single and double substitutions
 ===========================================================
 Iterations= 300 Convergence= 0.100D-06
 Produce multiple copies of IABC intergrals
 Iteration Nr.   1
 **********************
 DD1Dir will call FoFMem   1 times, MxPair=        10
 NAB=     0 NAA=    10 NBB=     0.
 MP4(R+Q)=  0.62761216D-04
 Maximum subspace dimension=  5
 A-vector RMS=  3.3471772D-03 Max=  9.6032539D-03 conv= 1.00D-05.
 RLE energy=       -0.0221873444
 E3=       -0.38232682D-02        EUMP3=      -0.84852597562D+03
 E4(DQ)=   -0.96538514D-03        UMP4(DQ)=   -0.84852694100D+03
 E4(SDQ)=  -0.11744839D-02        UMP4(SDQ)=  -0.84852715010D+03
 VARIATIONAL ENERGIES WITH THE FIRST-ORDER WAVEFUNCTION:
 DE(Corr)= -0.21145427E-01 E(Corr)=     -848.52591849    
 NORM(A)=   0.10072345D+01
 Iteration Nr.   2
 **********************
 DD1Dir will call FoFMem   1 times, MxPair=        10
 NAB=     0 NAA=    10 NBB=     0.
 A-vector RMS=  2.9595239D-03 Max=  1.0812186D-02 conv= 1.00D-05.
 RLE energy=       -0.0237668142
 DE(Corr)= -0.22648483E-01 E(CORR)=     -848.52742155     Delta=-1.50D-03
 NORM(A)=   0.10133942D+01
 Iteration Nr.   3
 **********************
 DD1Dir will call FoFMem   1 times, MxPair=        10
 NAB=     0 NAA=    10 NBB=     0.
 A-vector RMS=  2.4086081D-03 Max=  1.0893130D-02 conv= 1.00D-05.
 RLE energy=       -0.0254580327
 DE(Corr)= -0.23796598E-01 E(CORR)=     -848.52856966     Delta=-1.15D-03
 NORM(A)=   0.10369099D+01
 Iteration Nr.   4
 **********************
 DD1Dir will call FoFMem   1 times, MxPair=        10
 NAB=     0 NAA=    10 NBB=     0.
 A-vector RMS=  1.8938519D-03 Max=  8.3684729D-03 conv= 1.00D-05.
 RLE energy=       -0.0260562678
 DE(Corr)= -0.25396127E-01 E(CORR)=     -848.53016919     Delta=-1.60D-03
 NORM(A)=   0.10599505D+01
 Iteration Nr.   5
 **********************
 DD1Dir will call FoFMem   1 times, MxPair=        10
 NAB=     0 NAA=    10 NBB=     0.
 A-vector RMS=  1.5233562D-03 Max=  8.7681313D-03 conv= 1.00D-05.
 RLE energy=       -0.0264322915
 DE(Corr)= -0.26076190E-01 E(CORR)=     -848.53084925     Delta=-6.80D-04
 NORM(A)=   0.10748687D+01
 Iteration Nr.   6
 **********************
 DD1Dir will call FoFMem   1 times, MxPair=        10
 NAB=     0 NAA=    10 NBB=     0.
 A-vector RMS=  7.6502714D-04 Max=  4.7573561D-03 conv= 1.00D-05.
 RLE energy=       -0.0263799934
 DE(Corr)= -0.26400091E-01 E(CORR)=     -848.53117316     Delta=-3.24D-04
 NORM(A)=   0.10783226D+01
 Iteration Nr.   7
 **********************
 DD1Dir will call FoFMem   1 times, MxPair=        10
 NAB=     0 NAA=    10 NBB=     0.
 A-vector RMS=  1.6318505D-04 Max=  7.0459478D-04 conv= 1.00D-05.
 RLE energy=       -0.0264107819
 DE(Corr)= -0.26383170E-01 E(CORR)=     -848.53115624     Delta= 1.69D-05
 NORM(A)=   0.10793214D+01
 Iteration Nr.   8
 **********************
 DD1Dir will call FoFMem   1 times, MxPair=        10
 NAB=     0 NAA=    10 NBB=     0.
 A-vector RMS=  7.9377761D-05 Max=  5.6313698D-04 conv= 1.00D-05.
 RLE energy=       -0.0264274731
 DE(Corr)= -0.26409587E-01 E(CORR)=     -848.53118265     Delta=-2.64D-05
 NORM(A)=   0.10803348D+01
 Iteration Nr.   9
 **********************
 DD1Dir will call FoFMem   1 times, MxPair=        10
 NAB=     0 NAA=    10 NBB=     0.
 A-vector RMS=  6.6863425D-05 Max=  4.7339840D-04 conv= 1.00D-05.
 RLE energy=       -0.0264278547
 DE(Corr)= -0.26428921E-01 E(CORR)=     -848.53120199     Delta=-1.93D-05
 NORM(A)=   0.10803208D+01
 Iteration Nr.  10
 **********************
 DD1Dir will call FoFMem   1 times, MxPair=        10
 NAB=     0 NAA=    10 NBB=     0.
 A-vector RMS=  4.9264926D-05 Max=  3.2472733D-04 conv= 1.00D-05.
 RLE energy=       -0.0264123611
 DE(Corr)= -0.26431198E-01 E(CORR)=     -848.53120426     Delta=-2.28D-06
 NORM(A)=   0.10796418D+01
 Iteration Nr.  11
 **********************
 DD1Dir will call FoFMem   1 times, MxPair=        10
 NAB=     0 NAA=    10 NBB=     0.
 A-vector RMS=  4.5919977D-05 Max=  2.2821342D-04 conv= 1.00D-05.
 RLE energy=       -0.0264080253
 DE(Corr)= -0.26412254E-01 E(CORR)=     -848.53118532     Delta= 1.89D-05
 NORM(A)=   0.10794949D+01
 Iteration Nr.  12
 **********************
 DD1Dir will call FoFMem   1 times, MxPair=        10
 NAB=     0 NAA=    10 NBB=     0.
 A-vector RMS=  4.2420121D-05 Max=  2.6578830D-04 conv= 1.00D-05.
 RLE energy=       -0.0264146562
 DE(Corr)= -0.26407397E-01 E(CORR)=     -848.53118046     Delta= 4.86D-06
 NORM(A)=   0.10796789D+01
 Iteration Nr.  13
 **********************
 DD1Dir will call FoFMem   1 times, MxPair=        10
 NAB=     0 NAA=    10 NBB=     0.
 A-vector RMS=  2.3441475D-05 Max=  1.3166791D-04 conv= 1.00D-05.
 RLE energy=       -0.0264196912
 DE(Corr)= -0.26413289E-01 E(CORR)=     -848.53118635     Delta=-5.89D-06
 NORM(A)=   0.10798820D+01
 Iteration Nr.  14
 **********************
 DD1Dir will call FoFMem   1 times, MxPair=        10
 NAB=     0 NAA=    10 NBB=     0.
 A-vector RMS=  6.4306539D-06 Max=  2.9805458D-05 conv= 1.00D-05.
 RLE energy=       -0.0264218755
 DE(Corr)= -0.26419202E-01 E(CORR)=     -848.53119227     Delta=-5.91D-06
 NORM(A)=   0.10799633D+01
 Iteration Nr.  15
 **********************
 DD1Dir will call FoFMem   1 times, MxPair=        10
 NAB=     0 NAA=    10 NBB=     0.
 A-vector RMS=  4.3268603D-06 Max=  1.8189138D-05 conv= 1.00D-05.
 RLE energy=       -0.0264222799
 DE(Corr)= -0.26421356E-01 E(CORR)=     -848.53119442     Delta=-2.15D-06
 NORM(A)=   0.10800021D+01
 Iteration Nr.  16
 **********************
 DD1Dir will call FoFMem   1 times, MxPair=        10
 NAB=     0 NAA=    10 NBB=     0.
 A-vector RMS=  2.7805835D-06 Max=  1.4100289D-05 conv= 1.00D-05.
 RLE energy=       -0.0264227583
 DE(Corr)= -0.26422043E-01 E(CORR)=     -848.53119511     Delta=-6.87D-07
 NORM(A)=   0.10800353D+01
 Iteration Nr.  17
 **********************
 DD1Dir will call FoFMem   1 times, MxPair=        10
 NAB=     0 NAA=    10 NBB=     0.
 A-vector RMS=  1.5044796D-06 Max=  8.5398976D-06 conv= 1.00D-05.
 RLE energy=       -0.0264226241
 DE(Corr)= -0.26422609E-01 E(CORR)=     -848.53119567     Delta=-5.66D-07
 NORM(A)=   0.10800420D+01
 Iteration Nr.  18
 **********************
 DD1Dir will call FoFMem   1 times, MxPair=        10
 NAB=     0 NAA=    10 NBB=     0.
 A-vector RMS=  5.5128615D-07 Max=  3.2436958D-06 conv= 1.00D-05.
 RLE energy=       -0.0264226260
 DE(Corr)= -0.26422585E-01 E(CORR)=     -848.53119565     Delta= 2.41D-08
 NORM(A)=   0.10800460D+01
 CI/CC converged in   18 iterations to DelEn= 2.41D-08 Conv= 1.00D-07 ErrA1= 5.51D-07 Conv= 1.00D-05
 Wavefunction amplitudes converged. E(Corr)=     -848.53119565    
 Dominant configurations:
 ***********************
 Spin Case        I    J    A    B          Value
    AA           12        15           -0.212340D+00
    AA           11        16           -0.212340D+00
 Largest amplitude= 2.12D-01
 Discarding MO integrals.
 Leave Link  913 at Mon Mar 28 12:47:34 2022, MaxMem=  9663676416 cpu:               7.1 elap:               0.2
 (Enter /nopt/nrel/apps/gaussian/g16C_1/g16/l601.exe)
 Copying SCF densities to generalized density rwf, IOpCl= 1 IROHF=0.

 **********************************************************************

            Population analysis using the SCF Density.

 **********************************************************************

 Orbital symmetries:
 Alpha Orbitals:
       Occupied  (SG) (SG) (SG) (PI) (PI) (SG) (SG) (PI) (PI) (SG)
                 (PI) (PI) (?A) (SG)
       Virtual   (PI) (PI) (SG) (SG) (SG) (PI) (PI) (?A) (SG) (PI)
                 (PI) (?A) (?A) (SG)
 Beta  Orbitals:
       Occupied  (SG) (SG) (PI) (PI) (SG) (SG) (SG) (PI) (PI)
       Virtual   (SG) (SG) (PI) (PI) (SG) (SG) (SG) (PI) (PI) (PI)
                 (PI) (DLTA) (DLTA) (SG) (DLTA) (PI) (PI) (DLTA)
                 (SG)
 Unable to determine electronic state:  an orbital has unidentified symmetry.
 Alpha  occ. eigenvalues -- -182.98907 -21.16735 -17.54261 -17.53522 -17.53522
 Alpha  occ. eigenvalues --   -2.76850  -1.80466  -1.70478  -1.70478  -0.55775
 Alpha  occ. eigenvalues --   -0.25967  -0.25967  -0.24295  -0.17377
 Alpha virt. eigenvalues --    0.03220   0.03220   0.04258   0.16682   0.24622
 Alpha virt. eigenvalues --    0.24828   0.24828   0.31605   0.86693   1.15321
 Alpha virt. eigenvalues --    1.15321   1.17247   1.29544   1.31052
  Beta  occ. eigenvalues -- -182.98364 -21.11999 -17.49248 -17.49248 -17.48890
  Beta  occ. eigenvalues --   -2.56567  -1.51653  -1.47463  -1.47463
  Beta virt. eigenvalues --    0.01144   0.06376   0.06607   0.06607   0.15887
  Beta virt. eigenvalues --    0.27283   0.31217   0.31393   0.31393   0.39005
  Beta virt. eigenvalues --    0.39005   0.39049   0.41417   1.06839   1.35152
  Beta virt. eigenvalues --    1.35923   1.35923   1.37381   1.40266
          Condensed to atoms (all electrons):
               1          2
     1  H    0.736574   0.044209
     2  Ti   0.044209  22.175008
          Atomic-Atomic Spin Densities.
               1          2
     1  H    0.700789  -0.045517
     2  Ti  -0.045517   4.390246
 Mulliken charges and spin densities:
               1          2
     1  H    0.219217   0.655271
     2  Ti  -0.219217   4.344729
 Sum of Mulliken charges =   0.00000   5.00000
 Mulliken charges and spin densities with hydrogens summed into heavy atoms:
               1          2
     2  Ti   0.000000   5.000000
 N-N= 1.058354421840D+01 E-N=-2.038676908583D+03  KE= 8.503552394663D+02
 Symmetry A1   KE= 6.591235817237D+02
 Symmetry A2   KE= 1.011770235528D-31
 Symmetry B1   KE= 9.561582887127D+01
 Symmetry B2   KE= 9.561582887127D+01
 Symmetry A1   SP= 3.000000000000D+00
 Symmetry A2   SP= 2.999519565324D-32
 Symmetry B1   SP= 1.000000000000D+00
 Symmetry B2   SP= 1.000000000000D+00

 Atomic contributions to Alpha molecular orbitals:
 Alpha occ 1 OE=-182.989 is Ti2-s=1.0000
 Alpha occ 2 OE=-21.167 is Ti2-s=1.0001
 Alpha occ 3 OE=-17.543 is Ti2-p=1.0000
 Alpha occ 4 OE=-17.535 is Ti2-p=1.0000
 Alpha occ 5 OE=-17.535 is Ti2-p=1.0000
 Alpha occ 6 OE=-2.769 is Ti2-s=0.9780
 Alpha occ 7 OE=-1.805 is Ti2-p=0.9230
 Alpha occ 8 OE=-1.705 is Ti2-p=0.9998
 Alpha occ 9 OE=-1.705 is Ti2-p=0.9998
 Alpha occ 10 OE=-0.558 is H1-s=0.6359 Ti2-d=0.2195
 Alpha occ 11 OE=-0.260 is Ti2-d=0.9824
 Alpha occ 12 OE=-0.260 is Ti2-d=0.9824
 Alpha occ 13 OE=-0.243 is Ti2-d=1.0000
 Alpha occ 14 OE=-0.174 is Ti2-s=0.8881
 Alpha vir 15 OE=0.032 is Ti2-p=0.9899
 Alpha vir 16 OE=0.032 is Ti2-p=0.9899
 Alpha vir 17 OE=0.043 is Ti2-p=0.9296
 Alpha vir 18 OE=0.167 is Ti2-s=0.9009 Ti2-d=0.1039
 Alpha vir 19 OE=0.246 is Ti2-p=0.8751 Ti2-d=0.1158
 Alpha vir 20 OE=0.248 is Ti2-p=0.9923
 Alpha vir 21 OE=0.248 is Ti2-p=0.9923
 Alpha vir 22 OE=0.316 is Ti2-d=1.0000
 Alpha vir 23 OE=0.867 is Ti2-d=0.4076 H1-s=0.3378 Ti2-p=0.1396 Ti2-s=0.1151
 Alpha vir 24 OE=1.153 is Ti2-d=0.9996
 Alpha vir 25 OE=1.153 is Ti2-d=0.9996
 Alpha vir 26 OE=1.172 is Ti2-d=1.0000
 Alpha vir 27 OE=1.295 is Ti2-d=1.0000
 Alpha vir 28 OE=1.311 is Ti2-d=1.0095

 Atomic contributions to Beta  molecular orbitals:
 Beta  occ 1 OE=-182.984 is Ti2-s=1.0000
 Beta  occ 2 OE=-21.120 is Ti2-s=1.0000
 Beta  occ 3 OE=-17.492 is Ti2-p=1.0000
 Beta  occ 4 OE=-17.492 is Ti2-p=1.0000
 Beta  occ 5 OE=-17.489 is Ti2-p=1.0000
 Beta  occ 6 OE=-2.566 is Ti2-s=0.9798
 Beta  occ 7 OE=-1.517 is Ti2-p=0.9421
 Beta  occ 8 OE=-1.475 is Ti2-p=0.9994
 Beta  occ 9 OE=-1.475 is Ti2-p=0.9994
 Beta  vir 10 OE=0.011 is Ti2-s=0.7932
 Beta  vir 11 OE=0.064 is Ti2-p=0.8547 Ti2-s=0.1307
 Beta  vir 12 OE=0.066 is Ti2-p=1.0000
 Beta  vir 13 OE=0.066 is Ti2-p=1.0000
 Beta  vir 14 OE=0.159 is Ti2-s=0.3801 H1-s=0.2398 Ti2-d=0.2321 Ti2-p=0.1480
 Beta  vir 15 OE=0.273 is Ti2-s=0.6527 Ti2-d=0.2516
 Beta  vir 16 OE=0.312 is Ti2-p=0.8244 Ti2-d=0.2077
 Beta  vir 17 OE=0.314 is Ti2-p=0.9937
 Beta  vir 18 OE=0.314 is Ti2-p=0.9937
 Beta  vir 19 OE=0.390 is Ti2-d=0.9934
 Beta  vir 20 OE=0.390 is Ti2-d=0.9934
 Beta  vir 21 OE=0.390 is Ti2-d=1.0000
 Beta  vir 22 OE=0.414 is Ti2-d=1.0000
 Beta  vir 23 OE=1.068 is H1-s=0.5756 Ti2-d=0.3121
 Beta  vir 24 OE=1.352 is Ti2-d=1.0000
 Beta  vir 25 OE=1.359 is Ti2-d=0.9997
 Beta  vir 26 OE=1.359 is Ti2-d=0.9997
 Beta  vir 27 OE=1.374 is Ti2-d=1.0000
 Beta  vir 28 OE=1.403 is Ti2-d=0.9772
 
 Leave Link  601 at Mon Mar 28 12:47:34 2022, MaxMem=  9663676416 cpu:               1.6 elap:               0.1
 (Enter /nopt/nrel/apps/gaussian/g16C_1/g16/l9999.exe)

 Test job not archived.
 1\1\GINC-R3I7N35\SP\UCCSD-FC\Gen\H1Ti1(6)\USER\28-Mar-2022\0\\#P C
 CSD(MaxCyc=300,SaveAmplitudes,ReadAmplitudes)/GEN sp pop=AllOrbitals i
 op(3/33=1,3/36=-1)\\test\\0,6\H,0,0.,0.,0.\Ti,0,0.,0.,1.1\\Version=ES6
 4L-G16RevC.01\HF=-848.5047731\MP2=-848.5221524\MP3=-848.5259756\MP4D=-
 848.5270038\MP4DQ=-848.526941\MP4SDQ=-848.5271501\CCSD=-848.5311957\S2
 =8.752669\S2-1=0.\S2A=8.75\RMSD=1.703e-09\PG=C*V [C*(H1Ti1)]\\@


 AN AIRPLANE IS A COLLECTION OF SPARE PARTS
 FLYING IN CLOSE FORMATION.
 Job cpu time:       0 days  0 hours  0 minutes 42.6 seconds.
 Elapsed time:       0 days  0 hours  0 minutes  1.6 seconds.
 File lengths (MBytes):  RWF=     13 Int=      0 D2E=      0 Chk=      1 Scr=      1
 Normal termination of Gaussian 16 at Mon Mar 28 12:47:34 2022.
