 Entering Gaussian System, Link 0=g16
 Initial command:
 /nopt/nrel/apps/gaussian/g16C_1/g16/l1.exe "/lustre/eaglefs/scratch/user/qc/tih-dissc-sto3g/tih-4-ccsd-2.6-sto3g/Gau-10268.inp" -scrdir="/lustre/eaglefs/scratch/user/qc/tih-dissc-sto3g/tih-4-ccsd-2.6-sto3g/"
 Default is to use a total of  36 processors:
                               36 via shared-memory
                                1 via Linda
 Entering Link 1 = /nopt/nrel/apps/gaussian/g16C_1/g16/l1.exe PID=     10269.
  
 Copyright (c) 1988-2019, Gaussian, Inc.  All Rights Reserved.
  
 This is part of the Gaussian(R) 16 program.  It is based on
 the Gaussian(R) 09 system (copyright 2009, Gaussian, Inc.),
 the Gaussian(R) 03 system (copyright 2003, Gaussian, Inc.),
 the Gaussian(R) 98 system (copyright 1998, Gaussian, Inc.),
 the Gaussian(R) 94 system (copyright 1995, Gaussian, Inc.),
 the Gaussian 92(TM) system (copyright 1992, Gaussian, Inc.),
 the Gaussian 90(TM) system (copyright 1990, Gaussian, Inc.),
 the Gaussian 88(TM) system (copyright 1988, Gaussian, Inc.),
 the Gaussian 86(TM) system (copyright 1986, Carnegie Mellon
 University), and the Gaussian 82(TM) system (copyright 1983,
 Carnegie Mellon University). Gaussian is a federally registered
 trademark of Gaussian, Inc.
  
 This software contains proprietary and confidential information,
 including trade secrets, belonging to Gaussian, Inc.
  
 This software is provided under written license and may be
 used, copied, transmitted, or stored only in accord with that
 written license.
  
 The following legend is applicable only to US Government
 contracts under FAR:
  
                    RESTRICTED RIGHTS LEGEND
  
 Use, reproduction and disclosure by the US Government is
 subject to restrictions as set forth in subparagraphs (a)
 and (c) of the Commercial Computer Software - Restricted
 Rights clause in FAR 52.227-19.
  
 Gaussian, Inc.
 340 Quinnipiac St., Bldg. 40, Wallingford CT 06492
  
  
 ---------------------------------------------------------------
 Warning -- This program may not be used in any manner that
 competes with the business of Gaussian, Inc. or will provide
 assistance to any competitor of Gaussian, Inc.  The licensee
 of this program is prohibited from giving any competitor of
 Gaussian, Inc. access to this program.  By using this program,
 the user acknowledges that Gaussian, Inc. is engaged in the
 business of creating and licensing software in the field of
 computational chemistry and represents and warrants to the
 licensee that it is not a competitor of Gaussian, Inc. and that
 it will not use this program in any manner prohibited above.
 ---------------------------------------------------------------
  

 Cite this work as:
 Gaussian 16, Revision C.01,
 M. J. Frisch, G. W. Trucks, H. B. Schlegel, G. E. Scuseria, 
 M. A. Robb, J. R. Cheeseman, G. Scalmani, V. Barone, 
 G. A. Petersson, H. Nakatsuji, X. Li, M. Caricato, A. V. Marenich, 
 J. Bloino, B. G. Janesko, R. Gomperts, B. Mennucci, H. P. Hratchian, 
 J. V. Ortiz, A. F. Izmaylov, J. L. Sonnenberg, D. Williams-Young, 
 F. Ding, F. Lipparini, F. Egidi, J. Goings, B. Peng, A. Petrone, 
 T. Henderson, D. Ranasinghe, V. G. Zakrzewski, J. Gao, N. Rega, 
 G. Zheng, W. Liang, M. Hada, M. Ehara, K. Toyota, R. Fukuda, 
 J. Hasegawa, M. Ishida, T. Nakajima, Y. Honda, O. Kitao, H. Nakai, 
 T. Vreven, K. Throssell, J. A. Montgomery, Jr., J. E. Peralta, 
 F. Ogliaro, M. J. Bearpark, J. J. Heyd, E. N. Brothers, K. N. Kudin, 
 V. N. Staroverov, T. A. Keith, R. Kobayashi, J. Normand, 
 K. Raghavachari, A. P. Rendell, J. C. Burant, S. S. Iyengar, 
 J. Tomasi, M. Cossi, J. M. Millam, M. Klene, C. Adamo, R. Cammi, 
 J. W. Ochterski, R. L. Martin, K. Morokuma, O. Farkas, 
 J. B. Foresman, and D. J. Fox, Gaussian, Inc., Wallingford CT, 2019.
 
 ******************************************
 Gaussian 16:  ES64L-G16RevC.01  3-Jul-2019
                25-Mar-2022 
 ******************************************
 %chk=molecule
 Default route: CacheSize=180224 MaxDisk=256GB
 --------------------------------------------------
 #P CCSD/GEN sp pop=AllOrbitals iop(3/33=1,3/36=-1)
 --------------------------------------------------
 1/4=180224,38=1,172=1/1;
 2/4=180224,12=2,17=6,18=5,40=1/2;
 3/4=180224,5=7,11=9,25=1,30=1,33=1,36=-1/1,2,3;
 4/4=180224/1;
 5/4=180224,5=2,38=5/2;
 8/4=180224,6=4,9=120000,10=1/1,4;
 9/4=180224,5=7/13;
 6/4=180224,7=2,8=2,9=2,10=2,96=-1/1;
 99/4=180224,5=1,9=1/99;
 Leave Link    1 at Fri Mar 25 14:39:07 2022, MaxMem=           0 cpu:               2.7 elap:               0.1
 (Enter /nopt/nrel/apps/gaussian/g16C_1/g16/l101.exe)
 ----
 test
 ----
 Symbolic Z-matrix:
 Charge =  0 Multiplicity = 4
 H                     0.        0.        0. 
 Ti                    0.        0.        2.6 
 
 ITRead=  0  0
 MicOpt= -1 -1
 NAtoms=      2 NQM=        2 NQMF=       0 NMMI=      0 NMMIF=      0
                NMic=       0 NMicF=      0.
                    Isotopes and Nuclear Properties:
 (Nuclear quadrupole moments (NQMom) in fm**2, nuclear magnetic moments (NMagM)
  in nuclear magnetons)

  Atom         1           2
 IAtWgt=           1          48
 AtmWgt=   1.0078250  47.9479467
 NucSpn=           1           0
 AtZEff=  -0.0000000  -0.0000000
 NQMom=    0.0000000   0.0000000
 NMagM=    2.7928460   0.0000000
 AtZNuc=   1.0000000  22.0000000
 Leave Link  101 at Fri Mar 25 14:39:07 2022, MaxMem=  9663676416 cpu:               3.8 elap:               0.1
 (Enter /nopt/nrel/apps/gaussian/g16C_1/g16/l202.exe)
                          Input orientation:                          
 ---------------------------------------------------------------------
 Center     Atomic      Atomic             Coordinates (Angstroms)
 Number     Number       Type             X           Y           Z
 ---------------------------------------------------------------------
      1          1           0        0.000000    0.000000    0.000000
      2         22           0        0.000000    0.000000    2.600000
 ---------------------------------------------------------------------
 Stoichiometry    HTi(4)
 Framework group  C*V[C*(HTi)]
 Deg. of freedom     1
 Full point group                 C*V     NOp   4
 Largest Abelian subgroup         C2V     NOp   4
 Largest concise Abelian subgroup C1      NOp   1
                         Standard orientation:                         
 ---------------------------------------------------------------------
 Center     Atomic      Atomic             Coordinates (Angstroms)
 Number     Number       Type             X           Y           Z
 ---------------------------------------------------------------------
      1          1           0        0.000000    0.000000   -2.486957
      2         22           0        0.000000    0.000000    0.113043
 ---------------------------------------------------------------------
 Rotational constants (GHZ):           0.0000000          75.7389444          75.7389444
 Leave Link  202 at Fri Mar 25 14:39:07 2022, MaxMem=  9663676416 cpu:               0.9 elap:               0.0
 (Enter /nopt/nrel/apps/gaussian/g16C_1/g16/l301.exe)
 General basis read from cards:  (5D, 7F)
                         Coordinates in L301:                         
 ---------------------------------------------------------------------
 Center     Atomic      Atomic             Coordinates (Angstroms)
 Number     Number       Type             X           Y           Z
 ---------------------------------------------------------------------
      1          1           0        0.000000    0.000000   -2.486957
      2         22           0        0.000000    0.000000    0.113043
 ---------------------------------------------------------------------
 Centers:       1
 STO-3G
 ****
 Centers:       2
 STO-3G
 ****
 FixB: optimizing general contractions.
 Ernie: Thresh=  0.10000D-02 Tol=  0.10000D-05 Strict=F.
 IA=     1 ShT= 0 ShC= 0 NL=   1 NS=   0.
 IA=     1 L=0 SC=0 ISt=    0 NBk=    0 NP=    0 IndPr=    0.
 IA=     2 ShT= 0 ShC= 0 NL=   1 NS=   0.
 IA=     2 L=0 SC=0 ISt=    0 NBk=    0 NP=    0 IndPr=    0.
 IA=     2 ShT= 1 ShC= 0 NL=   3 NS=   0.
 IA=     2 L=1 SC=0 ISt=    1 NBk=    3 NP=    9 IndPr=    0.
 DoElim1:  L=1 select primitive    1 from    2 using    1 C=-1.00D-01
 DoElim1:  L=1 select primitive    1 from    3 using    1 C=-1.00D-01
 DoElim1:  L=1 select primitive    4 from    3 using    2 C=-2.28D-01
 DoElim2:  L=1 select primitive    9 from    2 using    3 C= 1.13D+00
 DoElim2:  L=1 select primitive    9 from    1 using    3 C= 1.13D+00
 DoElim2:  L=1 select primitive    7 from    1 using    2 C= 9.17D-01
 DoElim1:  L=1 select primitive    1 from    2 using    1 C= 1.56D-01
 DoElim1:  L=1 select primitive    1 from    3 using    1 C= 1.56D-01
 DoElim1:  L=1 select primitive    4 from    3 using    2 C= 4.95D-03
 DoElim2:  L=1 select primitive    8 from    2 using    3 C= 5.72D-01
 DoElim2:  L=1 select primitive    8 from    1 using    3 C= 5.72D-01
 DoElim2:  L=1 select primitive    5 from    1 using    2 C= 5.78D-01
 Delete L=1 primitive    7 from    3 C=  0.00D+00.
 Delete L=1 primitive    5 from    3 C=  0.00D+00.
 Delete L=1 primitive    4 from    3 C=  0.00D+00.
 Delete L=1 primitive    3 from    3 C=  0.00D+00.
 Delete L=1 primitive    2 from    3 C=  0.00D+00.
 Delete L=1 primitive    1 from    3 C=  0.00D+00.
 Delete L=1 primitive    9 from    2 C=  0.00D+00.
 Delete L=1 primitive    8 from    2 C=  0.00D+00.
 Delete L=1 primitive    6 from    2 C=  0.00D+00.
 Delete L=1 primitive    3 from    2 C=  0.00D+00.
 Delete L=1 primitive    2 from    2 C=  0.00D+00.
 Delete L=1 primitive    1 from    2 C=  0.00D+00.
 Delete L=1 primitive    9 from    1 C=  0.00D+00.
 Delete L=1 primitive    8 from    1 C=  0.00D+00.
 Delete L=1 primitive    7 from    1 C=  0.00D+00.
 Delete L=1 primitive    6 from    1 C=  0.00D+00.
 Delete L=1 primitive    5 from    1 C=  0.00D+00.
 Delete L=1 primitive    4 from    1 C=  0.00D+00.
 IA=     2 L=1 SC=0 ISt=    0 NBk=    0 NP=    0 IndPr=    9.
 IA=     2 ShT= 2 ShC= 2 NL=   1 NS=   0.
 IA=     2 L=2 SC=2 ISt=    0 NBk=    0 NP=    0 IndPr=    0.
 LdAtmC:  AtmChg=     1.000000    22.000000
 AtZEff=     -1.0000000    -23.9800000
 NEqShl: 
              1            2            3            4
     1            1            1            1            1
     2            2            2            2            2
     3            3            3            3            3
     4            4            4            4            4
     5            5            5            5            5
     6            6            6            6            6
 NEqBas: 
              1            2            3            4
     1            1            1            1            1
     2            2            2            2            2
     3            3            3            3            3
     4            4           -4           -4            4
     5            5           -5            5           -5
     6            6            6            6            6
     7            7            7            7            7
     8            8           -8           -8            8
     9            9           -9            9           -9
    10           10           10           10           10
    11           11           11           11           11
    12           12          -12          -12           12
    13           13          -13           13          -13
    14           14           14           14           14
    15           15           15           15           15
    16           16           16           16           16
    17           17           17           17           17
    18           18           18          -18          -18
    19           19          -19          -19           19
    20           20          -20           20          -20
 There are    11 symmetry adapted cartesian basis functions of A1  symmetry.
   1         1   1   1   1
   2         2   2   2   2
   3         3   3   3   3
   4         6   6   6   6
   5         7   7   7   7
   6        10  10  10  10
   7        11  11  11  11
   8        14  14  14  14
   9        15  15  15  15
  10        16  16  16  16
  11        17  17  17  17
 There are     1 symmetry adapted cartesian basis functions of A2  symmetry.
  12        18  18  18  18
 There are     4 symmetry adapted cartesian basis functions of B1  symmetry.
  13         4   4   4   4
  14         8   8   8   8
  15        12  12  12  12
  16        19  19  19  19
 There are     4 symmetry adapted cartesian basis functions of B2  symmetry.
  17         5   5   5   5
  18         9   9   9   9
  19        13  13  13  13
  20        20  20  20  20
 Order= 1 2 4 3
 Reordered character table:
              1            2            3            4            5
     1            1            1            1            1            1
     2            2            1            1           -1           -1
     3            4            1           -1           -1            1
     4            3            1           -1            1           -1
 NEqShl: 
              1            2            3            4
     1            1            1            1            1
     2            2            2            2            2
     3            3            3            3            3
     4            4            4            4            4
     5            5            5            5            5
     6            6            6            6            6
 NEqBas: 
              1            2            3            4
     1            1            1            1            1
     2            2            2            2            2
     3            3            3            3            3
     4            4           -4           -4            4
     5            5           -5            5           -5
     6            6            6            6            6
     7            7            7            7            7
     8            8           -8           -8            8
     9            9           -9            9           -9
    10           10           10           10           10
    11           11           11           11           11
    12           12          -12          -12           12
    13           13          -13           13          -13
    14           14           14           14           14
    15           15           15           15           15
    16           16          -16          -16           16
    17           17          -17           17          -17
    18           18           18           18           18
    19           19           19          -19          -19
 There are    10 symmetry adapted basis functions of A1  symmetry.
   1         1   1   1   1
   2         2   2   2   2
   3         3   3   3   3
   4         6   6   6   6
   5         7   7   7   7
   6        10  10  10  10
   7        11  11  11  11
   8        14  14  14  14
   9        15  15  15  15
  10        18  18  18  18
 There are     1 symmetry adapted basis functions of A2  symmetry.
  11        19  19  19  19
 There are     4 symmetry adapted basis functions of B1  symmetry.
  12         4   4   4   4
  13         8   8   8   8
  14        12  12  12  12
  15        16  16  16  16
 There are     4 symmetry adapted basis functions of B2  symmetry.
  16         5   5   5   5
  17         9   9   9   9
  18        13  13  13  13
  19        17  17  17  17
 Order= 1 2 4 3
 Reordered character table:
              1            2            3            4            5
     1            1            1            1            1            1
     2            2            1            1           -1           -1
     3            4            1           -1           -1            1
     4            3            1           -1            1           -1
    19 basis functions,    60 primitive gaussians,    20 cartesian basis functions
    13 alpha electrons       10 beta electrons
       nuclear repulsion energy         4.4776533232 Hartrees.
 IS=     1 IAt=     1 ISR=     1 T=0 IP=      1 IndIP=      1 IndIPD=      0 C=  2.769344D-01  0.000000D+00                             NZ=T
 IS=     1 IAt=     1 ISR=     1 T=0 IP=      2 IndIP=      2 IndIPD=      1 C=  2.678389D-01  0.000000D+00                             NZ=T
 IS=     1 IAt=     1 ISR=     1 T=0 IP=      3 IndIP=      3 IndIPD=      2 C=  8.347367D-02  0.000000D+00                             NZ=T
 IS=     2 IAt=     2 ISR=     1 T=0 IP=      1 IndIP=      4 IndIPD=      0 C=  2.004993D+01  0.000000D+00                             NZ=T
 IS=     2 IAt=     2 ISR=     1 T=0 IP=      2 IndIP=      5 IndIPD=      1 C=  1.939142D+01  0.000000D+00                             NZ=T
 IS=     2 IAt=     2 ISR=     1 T=0 IP=      3 IndIP=      6 IndIPD=      2 C=  6.043458D+00  0.000000D+00                             NZ=T
 IS=     3 IAt=     2 ISR=     2 T=1 IP=      1 IndIP=      7 IndIPD=      0 C= -1.820341D+00  4.925761D+01                             NZ=T
 IS=     3 IAt=     2 ISR=     2 T=1 IP=      2 IndIP=      8 IndIPD=      1 C=  2.434854D+00  3.097451D+01                             NZ=T
 IS=     3 IAt=     2 ISR=     2 T=1 IP=      3 IndIP=      9 IndIPD=      2 C=  1.837620D+00  4.906883D+00                             NZ=T
 IS=     4 IAt=     2 ISR=     3 T=1 IP=      1 IndIP=     10 IndIPD=      0 C= -5.746721D-01  5.803915D-02                             NZ=T
 IS=     4 IAt=     2 ISR=     3 T=1 IP=      2 IndIP=     11 IndIPD=      1 C=  2.252897D-01  1.535208D+00                             NZ=T
 IS=     4 IAt=     2 ISR=     3 T=1 IP=      3 IndIP=     12 IndIPD=      2 C=  4.647390D-01  3.915940D-01                             NZ=T
 IS=     5 IAt=     2 ISR=     4 T=1 IP=      1 IndIP=     13 IndIPD=      0 C= -1.706594D-01 -1.133666D-01                             NZ=T
 IS=     5 IAt=     2 ISR=     4 T=1 IP=      2 IndIP=     14 IndIPD=      1 C=  5.129963D-03  1.533382D-01                             NZ=T
 IS=     5 IAt=     2 ISR=     4 T=1 IP=      3 IndIP=     15 IndIPD=      2 C=  1.603140D-01  5.311239D-02                             NZ=T
 IS=     6 IAt=     2 ISR=     5 T=2 IP=      1 IndIP=     16 IndIPD=      1 C=  0.000000D+00  0.000000D+00  8.652016D-01  0.000000D+00 NZ=T
 IS=     6 IAt=     2 ISR=     5 T=2 IP=      2 IndIP=     17 IndIPD=      2 C=  0.000000D+00  0.000000D+00  3.231180D-01  0.000000D+00 NZ=T
 IS=     6 IAt=     2 ISR=     5 T=2 IP=      3 IndIP=     18 IndIPD=      3 C=  0.000000D+00  0.000000D+00  2.668013D-02  0.000000D+00 NZ=T
 IExCor=    0 DFT=F Ex=HF Corr=None ExCW=0 ScaHFX=  1.000000
 ScaDFX=  1.000000  1.000000  1.000000  1.000000 ScalE2=  1.000000  1.000000
 IRadAn=      5 IRanWt=     -1 IRanGd=            0 ICorTp=0 IEmpDi=  4
 NAtoms=    2 NActive=    2 NUniq=    2 SFac= 1.00D+00 NAtFMM=   60 NAOKFM=F Big=F
 Integral buffers will be    131072 words long.
 Raffenetti 2 integral format.
 Two-electron integral symmetry is turned on.
 Leave Link  301 at Fri Mar 25 14:39:07 2022, MaxMem=  9663676416 cpu:               1.8 elap:               0.1
 (Enter /nopt/nrel/apps/gaussian/g16C_1/g16/l302.exe)
 NPDir=0 NMtPBC=     1 NCelOv=     1 NCel=       1 NClECP=     1 NCelD=      1
         NCelK=      1 NCelE2=     1 NClLst=     1 CellRange=     0.0.
 One-electron integrals computed using PRISM.
 One-electron integral symmetry used in STVInt
 Entering OneElI...
 Calculate overlap and kinetic energy integrals
    NBasis =  19  MinDer = 0  MaxDer = 0
 Requested accuracy = 0.1000D-12
 Symmetry will be used
 PrmmSu-InSpLW:  IPartL=    0 NPrtUS=   36 NPrtUL=    1 DoSpLW=F IThBeg=    0 IThEnd=   35 NThAct=   36.
 PrSmSu:  IncTry=   512 NBBP=             21 NTPThr=   100 NPartT=   36 Incr=           1 LDynOK=F GPUOK=F.
 PrsmSu:  NPrtUS=  36 ThrOK=T IAlg=1 LenDen=           0 ISkipM=0 DoSpLW=F IThBeg=    0 IThEnd=   35.
 Prism:   IPart=     0 DynPar=F LinDyn=F Incr=           1.
 PRISM was handed   268432677 working-precision words and    21 shell-pairs
 PRISM was handed   268432677 working-precision words and    21 shell-pairs
 PRISM was handed   268432677 working-precision words and    21 shell-pairs
 PRISM was handed   268432677 working-precision words and    21 shell-pairs
 PRISM was handed   268432677 working-precision words and    21 shell-pairs
 PRISM was handed   268432677 working-precision words and    21 shell-pairs
 PRISM was handed   268432677 working-precision words and    21 shell-pairs
 PRISM was handed   268432677 working-precision words and    21 shell-pairs
 PRISM was handed   268432677 working-precision words and    21 shell-pairs
 PRISM was handed   268432677 working-precision words and    21 shell-pairs
 PRISM was handed   268432677 working-precision words and    21 shell-pairs
 PRISM was handed   268432677 working-precision words and    21 shell-pairs
 PRISM was handed   268432677 working-precision words and    21 shell-pairs
 PRISM was handed   268432677 working-precision words and    21 shell-pairs
 IPart= 10 NShTot=           0 NBatch=           0 AvBLen=         0.0
 IPart=  8 NShTot=           0 NBatch=           0 AvBLen=         0.0
 IPart= 11 NShTot=           0 NBatch=           0 AvBLen=         0.0
 IPart= 27 NShTot=           0 NBatch=           0 AvBLen=         0.0
 IPart= 34 NShTot=           0 NBatch=           0 AvBLen=         0.0
 IPart= 12 NShTot=           0 NBatch=           0 AvBLen=         0.0
 IPart= 15 NShTot=           0 NBatch=           0 AvBLen=         0.0
 IPart= 35 NShTot=           0 NBatch=           0 AvBLen=         0.0
 IPart= 30 NShTot=           0 NBatch=           0 AvBLen=         0.0
 IPart= 24 NShTot=           0 NBatch=           0 AvBLen=         0.0
 IPart= 28 NShTot=           0 NBatch=           0 AvBLen=         0.0
 PRISM was handed   268432677 working-precision words and    21 shell-pairs
 PRISM was handed   268432677 working-precision words and    21 shell-pairs
 IPart= 17 NShTot=           0 NBatch=           0 AvBLen=         0.0
 IPart=  4 NShTot=           2 NBatch=           2 AvBLen=         1.0
 PRISM was handed   268432677 working-precision words and    21 shell-pairs
 PRISM was handed   268432677 working-precision words and    21 shell-pairs
 PRISM was handed   268432677 working-precision words and    21 shell-pairs
 PRISM was handed   268432677 working-precision words and    21 shell-pairs
 IPart=  6 NShTot=           0 NBatch=           0 AvBLen=         0.0
 PRISM was handed   268432677 working-precision words and    21 shell-pairs
 PRISM was handed   268432677 working-precision words and    21 shell-pairs
 IPart=  2 NShTot=           3 NBatch=           3 AvBLen=         1.0
 IPart= 23 NShTot=           0 NBatch=           0 AvBLen=         0.0
 IPart= 19 NShTot=           0 NBatch=           0 AvBLen=         0.0
 IPart= 31 NShTot=           0 NBatch=           0 AvBLen=         0.0
 PRISM was handed   268432677 working-precision words and    21 shell-pairs
 PRISM was handed   268432677 working-precision words and    21 shell-pairs
 PRISM was handed   268432677 working-precision words and    21 shell-pairs
 PRISM was handed   268432677 working-precision words and    21 shell-pairs
 PRISM was handed   268432677 working-precision words and    21 shell-pairs
 PRISM was handed   268432677 working-precision words and    21 shell-pairs
 PRISM was handed   268432677 working-precision words and    21 shell-pairs
 IPart=  1 NShTot=           5 NBatch=           5 AvBLen=         1.0
 IPart= 18 NShTot=           0 NBatch=           0 AvBLen=         0.0
 IPart= 32 NShTot=           0 NBatch=           0 AvBLen=         0.0
 PRISM was handed   268432677 working-precision words and    21 shell-pairs
 PRISM was handed   268432677 working-precision words and    21 shell-pairs
 PRISM was handed   268432677 working-precision words and    21 shell-pairs
 PRISM was handed   268432677 working-precision words and    21 shell-pairs
 IPart= 22 NShTot=           0 NBatch=           0 AvBLen=         0.0
 IPart= 13 NShTot=           0 NBatch=           0 AvBLen=         0.0
 IPart= 14 NShTot=           0 NBatch=           0 AvBLen=         0.0
 IPart=  7 NShTot=           0 NBatch=           0 AvBLen=         0.0
 IPart= 33 NShTot=           0 NBatch=           0 AvBLen=         0.0
 IPart= 29 NShTot=           0 NBatch=           0 AvBLen=         0.0
 IPart= 21 NShTot=           0 NBatch=           0 AvBLen=         0.0
 PRISM was handed   268432677 working-precision words and    21 shell-pairs
 PRISM was handed   268432677 working-precision words and    21 shell-pairs
 PRISM was handed   268432677 working-precision words and    21 shell-pairs
 IPart=  0 NShTot=           8 NBatch=           8 AvBLen=         1.0
 IPart=  5 NShTot=           1 NBatch=           1 AvBLen=         1.0
 IPart= 16 NShTot=           0 NBatch=           0 AvBLen=         0.0
 IPart= 26 NShTot=           0 NBatch=           0 AvBLen=         0.0
 IPart=  3 NShTot=           2 NBatch=           2 AvBLen=         1.0
 IPart= 20 NShTot=           0 NBatch=           0 AvBLen=         0.0
 IPart=  9 NShTot=           0 NBatch=           0 AvBLen=         0.0
 IPart= 25 NShTot=           0 NBatch=           0 AvBLen=         0.0
 PrSmSu:  NxtVal=             37.
 *** Overlap *** 
                1             2             3             4             5 
      1  0.100000D+01
      2  0.196323D-03  0.100000D+01
      3  0.139778D-02  0.371775D+00  0.100000D+01
      4  0.000000D+00  0.000000D+00  0.000000D+00  0.100000D+01
      5  0.000000D+00  0.000000D+00  0.000000D+00  0.000000D+00  0.100000D+01
      6 -0.603055D-03  0.000000D+00  0.000000D+00  0.000000D+00  0.000000D+00
      7  0.128949D-01  0.223608D-01  0.300384D+00  0.000000D+00  0.000000D+00
      8  0.000000D+00  0.000000D+00  0.000000D+00  0.313309D+00  0.000000D+00
      9  0.000000D+00  0.000000D+00  0.000000D+00  0.000000D+00  0.313309D+00
     10 -0.142519D-01  0.000000D+00  0.000000D+00  0.000000D+00  0.000000D+00
     11  0.128123D+00 -0.412730D-03  0.136941D-01  0.000000D+00  0.000000D+00
     12  0.000000D+00  0.000000D+00  0.000000D+00  0.250808D-01  0.000000D+00
     13  0.000000D+00  0.000000D+00  0.000000D+00  0.000000D+00  0.250808D-01
     14 -0.191580D+00  0.000000D+00  0.000000D+00  0.000000D+00  0.000000D+00
     15  0.808703D-01  0.000000D+00  0.000000D+00  0.000000D+00  0.000000D+00
     16  0.000000D+00  0.000000D+00  0.000000D+00  0.000000D+00  0.000000D+00
     17  0.000000D+00  0.000000D+00  0.000000D+00  0.000000D+00  0.000000D+00
     18  0.000000D+00  0.000000D+00  0.000000D+00  0.000000D+00  0.000000D+00
     19  0.000000D+00  0.000000D+00  0.000000D+00  0.000000D+00  0.000000D+00
                6             7             8             9            10 
      6  0.100000D+01
      7  0.000000D+00  0.100000D+01
      8  0.000000D+00  0.000000D+00  0.100000D+01
      9  0.000000D+00  0.000000D+00  0.000000D+00  0.100000D+01
     10  0.313309D+00  0.000000D+00  0.000000D+00  0.000000D+00  0.100000D+01
     11  0.000000D+00  0.395149D+00  0.000000D+00  0.000000D+00  0.000000D+00
     12  0.000000D+00  0.000000D+00  0.407435D+00  0.000000D+00  0.000000D+00
     13  0.000000D+00  0.000000D+00  0.000000D+00  0.407435D+00  0.000000D+00
     14  0.250808D-01  0.000000D+00  0.000000D+00  0.000000D+00  0.407435D+00
     15  0.000000D+00  0.000000D+00  0.000000D+00  0.000000D+00  0.000000D+00
     16  0.000000D+00  0.000000D+00  0.000000D+00  0.000000D+00  0.000000D+00
     17  0.000000D+00  0.000000D+00  0.000000D+00  0.000000D+00  0.000000D+00
     18  0.000000D+00  0.000000D+00  0.000000D+00  0.000000D+00  0.000000D+00
     19  0.000000D+00  0.000000D+00  0.000000D+00  0.000000D+00  0.000000D+00
               11            12            13            14            15 
     11  0.100000D+01
     12  0.000000D+00  0.100000D+01
     13  0.000000D+00  0.000000D+00  0.100000D+01
     14  0.000000D+00  0.000000D+00  0.000000D+00  0.100000D+01
     15  0.000000D+00  0.000000D+00  0.000000D+00  0.000000D+00  0.100000D+01
     16  0.000000D+00  0.000000D+00  0.000000D+00  0.000000D+00  0.000000D+00
     17  0.000000D+00  0.000000D+00  0.000000D+00  0.000000D+00  0.000000D+00
     18  0.000000D+00  0.000000D+00  0.000000D+00  0.000000D+00  0.000000D+00
     19  0.000000D+00  0.000000D+00  0.000000D+00  0.000000D+00  0.000000D+00
               16            17            18            19 
     16  0.100000D+01
     17  0.000000D+00  0.100000D+01
     18  0.000000D+00  0.000000D+00  0.100000D+01
     19  0.000000D+00  0.000000D+00  0.000000D+00  0.100000D+01
 *** Kinetic Energy *** 
                1             2             3             4             5 
      1  0.760032D+00
      2 -0.169895D-03  0.229340D+03
      3 -0.114037D-02  0.137973D+01  0.120824D+02
      4  0.000000D+00  0.000000D+00  0.000000D+00  0.378073D+02
      5  0.000000D+00  0.000000D+00  0.000000D+00  0.000000D+00  0.378073D+02
      6  0.298725D-03  0.000000D+00  0.000000D+00  0.000000D+00  0.000000D+00
      7 -0.685756D-02 -0.798994D+00 -0.840664D+00  0.000000D+00  0.000000D+00
      8  0.000000D+00  0.000000D+00  0.000000D+00  0.187471D+01  0.000000D+00
      9  0.000000D+00  0.000000D+00  0.000000D+00  0.000000D+00  0.187471D+01
     10  0.497035D-02  0.000000D+00  0.000000D+00  0.000000D+00  0.000000D+00
     11 -0.698975D-02 -0.407071D-01 -0.207745D+00  0.000000D+00  0.000000D+00
     12  0.000000D+00  0.000000D+00  0.000000D+00 -0.209473D-01  0.000000D+00
     13  0.000000D+00  0.000000D+00  0.000000D+00  0.000000D+00 -0.209473D-01
     14 -0.381055D-02  0.000000D+00  0.000000D+00  0.000000D+00  0.000000D+00
     15  0.252664D-02  0.000000D+00  0.000000D+00  0.000000D+00  0.000000D+00
     16  0.000000D+00  0.000000D+00  0.000000D+00  0.000000D+00  0.000000D+00
     17  0.000000D+00  0.000000D+00  0.000000D+00  0.000000D+00  0.000000D+00
     18  0.000000D+00  0.000000D+00  0.000000D+00  0.000000D+00  0.000000D+00
     19  0.000000D+00  0.000000D+00  0.000000D+00  0.000000D+00  0.000000D+00
                6             7             8             9            10 
      6  0.378073D+02
      7  0.000000D+00  0.116813D+01
      8  0.000000D+00  0.000000D+00  0.275070D+01
      9  0.000000D+00  0.000000D+00  0.000000D+00  0.275070D+01
     10  0.187471D+01  0.000000D+00  0.000000D+00  0.000000D+00  0.275070D+01
     11  0.000000D+00 -0.927537D-01  0.000000D+00  0.000000D+00  0.000000D+00
     12  0.000000D+00  0.000000D+00  0.199329D+00  0.000000D+00  0.000000D+00
     13  0.000000D+00  0.000000D+00  0.000000D+00  0.199329D+00  0.000000D+00
     14 -0.209473D-01  0.000000D+00  0.000000D+00  0.000000D+00  0.199329D+00
     15  0.000000D+00  0.000000D+00  0.000000D+00  0.000000D+00  0.000000D+00
     16  0.000000D+00  0.000000D+00  0.000000D+00  0.000000D+00  0.000000D+00
     17  0.000000D+00  0.000000D+00  0.000000D+00  0.000000D+00  0.000000D+00
     18  0.000000D+00  0.000000D+00  0.000000D+00  0.000000D+00  0.000000D+00
     19  0.000000D+00  0.000000D+00  0.000000D+00  0.000000D+00  0.000000D+00
               11            12            13            14            15 
     11  0.207443D+00
     12  0.000000D+00  0.409500D+00
     13  0.000000D+00  0.000000D+00  0.409500D+00
     14  0.000000D+00  0.000000D+00  0.000000D+00  0.409500D+00
     15  0.000000D+00  0.000000D+00  0.000000D+00  0.000000D+00  0.180044D+01
     16  0.000000D+00  0.000000D+00  0.000000D+00  0.000000D+00  0.000000D+00
     17  0.000000D+00  0.000000D+00  0.000000D+00  0.000000D+00  0.000000D+00
     18  0.000000D+00  0.000000D+00  0.000000D+00  0.000000D+00  0.000000D+00
     19  0.000000D+00  0.000000D+00  0.000000D+00  0.000000D+00  0.000000D+00
               16            17            18            19 
     16  0.180044D+01
     17  0.000000D+00  0.180044D+01
     18  0.000000D+00  0.000000D+00  0.180044D+01
     19  0.000000D+00  0.000000D+00  0.000000D+00  0.180044D+01
 Entering OneElI...
 Calculate potential energy integrals
    NBasis =  19  MinDer = 0  MaxDer = 0
 Requested accuracy = 0.1000D-12
 Symmetry will be used
 PrmmSu-InSpLW:  IPartL=    0 NPrtUS=   36 NPrtUL=    1 DoSpLW=F IThBeg=    0 IThEnd=   35 NThAct=   36.
 PrSmSu:  IncTry=   512 NBBP=             42 NTPThr=   100 NPartT=   36 Incr=           1 LDynOK=F GPUOK=F.
 PrsmSu:  NPrtUS=  36 ThrOK=T IAlg=1 LenDen=           0 ISkipM=0 DoSpLW=F IThBeg=    0 IThEnd=   35.
 Prism:   IPart=     0 DynPar=F LinDyn=F Incr=           1.
 PRISM was handed   268432888 working-precision words and    21 shell-pairs
 PRISM was handed   268432888 working-precision words and    21 shell-pairs
 PRISM was handed   268432888 working-precision words and    21 shell-pairs
 PRISM was handed   268432888 working-precision words and    21 shell-pairs
 PRISM was handed   268432888 working-precision words and    21 shell-pairs
 PRISM was handed   268432888 working-precision words and    21 shell-pairs
 PRISM was handed   268432888 working-precision words and    21 shell-pairs
 PRISM was handed   268432888 working-precision words and    21 shell-pairs
 PRISM was handed   268432888 working-precision words and    21 shell-pairs
 PRISM was handed   268432888 working-precision words and    21 shell-pairs
 PRISM was handed   268432888 working-precision words and    21 shell-pairs
 PRISM was handed   268432888 working-precision words and    21 shell-pairs
 PRISM was handed   268432888 working-precision words and    21 shell-pairs
 PRISM was handed   268432888 working-precision words and    21 shell-pairs
 PRISM was handed   268432888 working-precision words and    21 shell-pairs
 PRISM was handed   268432888 working-precision words and    21 shell-pairs
 PRISM was handed   268432888 working-precision words and    21 shell-pairs
 PRISM was handed   268432888 working-precision words and    21 shell-pairs
 PRISM was handed   268432888 working-precision words and    21 shell-pairs
 PRISM was handed   268432888 working-precision words and    21 shell-pairs
 PRISM was handed   268432888 working-precision words and    21 shell-pairs
 PRISM was handed   268432888 working-precision words and    21 shell-pairs
 PRISM was handed   268432888 working-precision words and    21 shell-pairs
 PRISM was handed   268432888 working-precision words and    21 shell-pairs
 PRISM was handed   268432888 working-precision words and    21 shell-pairs
 PRISM was handed   268432888 working-precision words and    21 shell-pairs
 PRISM was handed   268432888 working-precision words and    21 shell-pairs
 PRISM was handed   268432888 working-precision words and    21 shell-pairs
 PRISM was handed   268432888 working-precision words and    21 shell-pairs
 PRISM was handed   268432888 working-precision words and    21 shell-pairs
 PRISM was handed   268432888 working-precision words and    21 shell-pairs
 PRISM was handed   268432888 working-precision words and    21 shell-pairs
 PRISM was handed   268432888 working-precision words and    21 shell-pairs
 PRISM was handed   268432888 working-precision words and    21 shell-pairs
 PRISM was handed   268432888 working-precision words and    21 shell-pairs
 PRISM was handed   268432888 working-precision words and    21 shell-pairs
 IPart= 33 NShTot=           0 NBatch=           0 AvBLen=         0.0
 IPart= 23 NShTot=           0 NBatch=           0 AvBLen=         0.0
 IPart= 29 NShTot=           0 NBatch=           0 AvBLen=         0.0
 IPart= 20 NShTot=           0 NBatch=           0 AvBLen=         0.0
 IPart= 19 NShTot=           0 NBatch=           0 AvBLen=         0.0
 IPart= 26 NShTot=           0 NBatch=           0 AvBLen=         0.0
 IPart= 34 NShTot=           0 NBatch=           0 AvBLen=         0.0
 IPart= 30 NShTot=           0 NBatch=           0 AvBLen=         0.0
 IPart= 10 NShTot=           0 NBatch=           0 AvBLen=         0.0
 IPart= 12 NShTot=           0 NBatch=           0 AvBLen=         0.0
 IPart= 35 NShTot=           0 NBatch=           0 AvBLen=         0.0
 IPart= 31 NShTot=           0 NBatch=           0 AvBLen=         0.0
 IPart= 18 NShTot=           0 NBatch=           0 AvBLen=         0.0
 IPart= 27 NShTot=           0 NBatch=           0 AvBLen=         0.0
 IPart=  2 NShTot=           6 NBatch=           3 AvBLen=         2.0
 IPart= 16 NShTot=           0 NBatch=           0 AvBLen=         0.0
 IPart=  4 NShTot=           2 NBatch=           1 AvBLen=         2.0
 IPart= 32 NShTot=           0 NBatch=           0 AvBLen=         0.0
 IPart= 24 NShTot=           0 NBatch=           0 AvBLen=         0.0
 IPart= 22 NShTot=           0 NBatch=           0 AvBLen=         0.0
 IPart= 21 NShTot=           0 NBatch=           0 AvBLen=         0.0
 IPart=  3 NShTot=           4 NBatch=           2 AvBLen=         2.0
 IPart= 17 NShTot=           0 NBatch=           0 AvBLen=         0.0
 IPart= 11 NShTot=           0 NBatch=           0 AvBLen=         0.0
 IPart= 13 NShTot=           0 NBatch=           0 AvBLen=         0.0
 IPart=  5 NShTot=           2 NBatch=           1 AvBLen=         2.0
 IPart= 15 NShTot=           0 NBatch=           0 AvBLen=         0.0
 IPart= 25 NShTot=           0 NBatch=           0 AvBLen=         0.0
 IPart=  7 NShTot=           0 NBatch=           0 AvBLen=         0.0
 IPart=  9 NShTot=           0 NBatch=           0 AvBLen=         0.0
 IPart=  1 NShTot=          10 NBatch=           5 AvBLen=         2.0
 IPart=  0 NShTot=          18 NBatch=           9 AvBLen=         2.0
 IPart= 14 NShTot=           0 NBatch=           0 AvBLen=         0.0
 IPart= 28 NShTot=           0 NBatch=           0 AvBLen=         0.0
 IPart=  6 NShTot=           0 NBatch=           0 AvBLen=         0.0
 IPart=  8 NShTot=           0 NBatch=           0 AvBLen=         0.0
 PrSmSu:  NxtVal=             37.
 ***** Potential Energy ***** 
                1             2             3             4             5 
      1  0.570422D+01
      2  0.474024D-01  0.468968D+03
      3  0.897640D-01  0.902216D+02  0.964556D+02
      4  0.000000D+00  0.000000D+00  0.000000D+00  0.956849D+02
      5  0.000000D+00  0.000000D+00  0.000000D+00  0.000000D+00  0.956849D+02
      6 -0.292326D-01 -0.112856D-02 -0.686901D-02  0.000000D+00  0.000000D+00
      7  0.221717D+00  0.472464D+01  0.170227D+02  0.000000D+00  0.000000D+00
      8  0.000000D+00  0.000000D+00  0.000000D+00  0.174498D+02  0.000000D+00
      9  0.000000D+00  0.000000D+00  0.000000D+00  0.000000D+00  0.174498D+02
     10 -0.209742D+00 -0.783834D-04 -0.343662D-02  0.000000D+00  0.000000D+00
     11  0.899858D+00 -0.133752D+00  0.484195D+00  0.000000D+00  0.000000D+00
     12  0.000000D+00  0.000000D+00  0.000000D+00  0.120344D+01  0.000000D+00
     13  0.000000D+00  0.000000D+00  0.000000D+00  0.000000D+00  0.120344D+01
     14 -0.130414D+01 -0.399788D-05 -0.304118D-03  0.000000D+00  0.000000D+00
     15  0.614306D+00  0.000000D+00  0.949870D-04  0.000000D+00  0.000000D+00
     16  0.000000D+00  0.000000D+00  0.000000D+00 -0.818217D-03  0.000000D+00
     17  0.000000D+00  0.000000D+00  0.000000D+00  0.000000D+00 -0.818217D-03
     18  0.000000D+00  0.000000D+00  0.000000D+00  0.000000D+00  0.000000D+00
     19  0.000000D+00  0.000000D+00  0.000000D+00  0.000000D+00  0.000000D+00
                6             7             8             9            10 
      6  0.956854D+02
      7 -0.358911D-02  0.254375D+02
      8  0.000000D+00  0.000000D+00  0.254793D+02
      9  0.000000D+00  0.000000D+00  0.000000D+00  0.254793D+02
     10  0.174502D+02 -0.243175D-01  0.000000D+00  0.000000D+00  0.254853D+02
     11 -0.242259D-03  0.652218D+01  0.000000D+00  0.000000D+00 -0.149875D-01
     12  0.000000D+00  0.000000D+00  0.683965D+01  0.000000D+00  0.000000D+00
     13  0.000000D+00  0.000000D+00  0.000000D+00  0.683965D+01  0.000000D+00
     14  0.120349D+01 -0.143778D-01  0.000000D+00  0.000000D+00  0.684513D+01
     15 -0.964360D-03  0.527944D-02  0.000000D+00  0.000000D+00 -0.220715D-01
     16  0.000000D+00  0.000000D+00 -0.171224D-01  0.000000D+00  0.000000D+00
     17  0.000000D+00  0.000000D+00  0.000000D+00 -0.171224D-01  0.000000D+00
     18  0.000000D+00  0.000000D+00  0.000000D+00  0.000000D+00  0.000000D+00
     19  0.000000D+00  0.000000D+00  0.000000D+00  0.000000D+00  0.000000D+00
               11            12            13            14            15 
     11  0.955862D+01
     12  0.000000D+00  0.954587D+01
     13  0.000000D+00  0.000000D+00  0.954587D+01
     14 -0.628772D-01  0.000000D+00  0.000000D+00  0.958446D+01
     15  0.182684D-01  0.000000D+00  0.000000D+00 -0.491394D-01  0.141129D+02
     16  0.000000D+00 -0.315568D-01  0.000000D+00  0.000000D+00  0.000000D+00
     17  0.000000D+00  0.000000D+00 -0.315568D-01  0.000000D+00  0.000000D+00
     18  0.000000D+00  0.000000D+00  0.000000D+00  0.000000D+00  0.000000D+00
     19  0.000000D+00  0.000000D+00  0.000000D+00  0.000000D+00  0.000000D+00
               16            17            18            19 
     16  0.141042D+02
     17  0.000000D+00  0.141042D+02
     18  0.000000D+00  0.000000D+00  0.140922D+02
     19  0.000000D+00  0.000000D+00  0.000000D+00  0.140922D+02
 ****** Core Hamiltonian ****** 
                1             2             3             4             5 
      1 -0.494419D+01
      2 -0.475723D-01 -0.239628D+03
      3 -0.909044D-01 -0.888418D+02 -0.843732D+02
      4  0.000000D+00  0.000000D+00  0.000000D+00 -0.578776D+02
      5  0.000000D+00  0.000000D+00  0.000000D+00  0.000000D+00 -0.578776D+02
      6  0.295313D-01  0.112856D-02  0.686901D-02  0.000000D+00  0.000000D+00
      7 -0.228575D+00 -0.552363D+01 -0.178634D+02  0.000000D+00  0.000000D+00
      8  0.000000D+00  0.000000D+00  0.000000D+00 -0.155751D+02  0.000000D+00
      9  0.000000D+00  0.000000D+00  0.000000D+00  0.000000D+00 -0.155751D+02
     10  0.214712D+00  0.783834D-04  0.343662D-02  0.000000D+00  0.000000D+00
     11 -0.906848D+00  0.930449D-01 -0.691941D+00  0.000000D+00  0.000000D+00
     12  0.000000D+00  0.000000D+00  0.000000D+00 -0.122439D+01  0.000000D+00
     13  0.000000D+00  0.000000D+00  0.000000D+00  0.000000D+00 -0.122439D+01
     14  0.130033D+01  0.399788D-05  0.304118D-03  0.000000D+00  0.000000D+00
     15 -0.611780D+00  0.000000D+00 -0.949870D-04  0.000000D+00  0.000000D+00
     16  0.000000D+00  0.000000D+00  0.000000D+00  0.818217D-03  0.000000D+00
     17  0.000000D+00  0.000000D+00  0.000000D+00  0.000000D+00  0.818217D-03
     18  0.000000D+00  0.000000D+00  0.000000D+00  0.000000D+00  0.000000D+00
     19  0.000000D+00  0.000000D+00  0.000000D+00  0.000000D+00  0.000000D+00
                6             7             8             9            10 
      6 -0.578781D+02
      7  0.358911D-02 -0.242693D+02
      8  0.000000D+00  0.000000D+00 -0.227286D+02
      9  0.000000D+00  0.000000D+00  0.000000D+00 -0.227286D+02
     10 -0.155755D+02  0.243175D-01  0.000000D+00  0.000000D+00 -0.227346D+02
     11  0.242259D-03 -0.661493D+01  0.000000D+00  0.000000D+00  0.149875D-01
     12  0.000000D+00  0.000000D+00 -0.664032D+01  0.000000D+00  0.000000D+00
     13  0.000000D+00  0.000000D+00  0.000000D+00 -0.664032D+01  0.000000D+00
     14 -0.122443D+01  0.143778D-01  0.000000D+00  0.000000D+00 -0.664580D+01
     15  0.964360D-03 -0.527944D-02  0.000000D+00  0.000000D+00  0.220715D-01
     16  0.000000D+00  0.000000D+00  0.171224D-01  0.000000D+00  0.000000D+00
     17  0.000000D+00  0.000000D+00  0.000000D+00  0.171224D-01  0.000000D+00
     18  0.000000D+00  0.000000D+00  0.000000D+00  0.000000D+00  0.000000D+00
     19  0.000000D+00  0.000000D+00  0.000000D+00  0.000000D+00  0.000000D+00
               11            12            13            14            15 
     11 -0.935117D+01
     12  0.000000D+00 -0.913637D+01
     13  0.000000D+00  0.000000D+00 -0.913637D+01
     14  0.628772D-01  0.000000D+00  0.000000D+00 -0.917496D+01
     15 -0.182684D-01  0.000000D+00  0.000000D+00  0.491394D-01 -0.123125D+02
     16  0.000000D+00  0.315568D-01  0.000000D+00  0.000000D+00  0.000000D+00
     17  0.000000D+00  0.000000D+00  0.315568D-01  0.000000D+00  0.000000D+00
     18  0.000000D+00  0.000000D+00  0.000000D+00  0.000000D+00  0.000000D+00
     19  0.000000D+00  0.000000D+00  0.000000D+00  0.000000D+00  0.000000D+00
               16            17            18            19 
     16 -0.123038D+02
     17  0.000000D+00 -0.123038D+02
     18  0.000000D+00  0.000000D+00 -0.122918D+02
     19  0.000000D+00  0.000000D+00  0.000000D+00 -0.122918D+02
 SVDSVc IOpt=   1 NormSV=T IR=1
 SVDSVc V= 1.59D+00 1.55D+00 1.27D+00 1.11D+00 1.00D+00 9.92D-01 8.59D-01 7.04D-01 4.80D-01 4.47D-01
 SVDSVc IOpt=   1 NormSV=T IR=2
 SVDSVc V= 1.00D+00
 SVDSVc IOpt=   1 NormSV=T IR=3
 SVDSVc V= 1.53D+00 1.00D+00 9.76D-01 4.98D-01
 SVDSVc IOpt=   1 NormSV=T IR=4
 SVDSVc V= 1.53D+00 1.00D+00 9.76D-01 4.98D-01
 TstOVc:  Largest diagonal error= 8.88D-16 IB=1 I=    7.
 TstOVc:  Largest same sym error= 8.08D-16 IB=1 I=    3 J=    2.
 TstOVc:  Largest diff sym error= 0.00D+00 IB=0 JB=0 I=    0 J=    0.
 Orthogonalized basis functions: 
                 1             2             3             4             5 
      1   0.145932D+00 -0.142063D+00 -0.264993D+00  0.565211D+00  0.000000D+00
      2   0.267520D+00  0.131549D+00  0.497598D+00  0.206694D+00  0.000000D+00
      3   0.399459D+00  0.184250D+00  0.376400D+00  0.729362D-01  0.000000D+00
      4   0.000000D+00  0.000000D+00  0.000000D+00  0.000000D+00  0.000000D+00
      5   0.000000D+00  0.000000D+00  0.000000D+00  0.000000D+00  0.000000D+00
      6  -0.100400D+00  0.306388D+00 -0.123118D+00  0.428390D+00  0.000000D+00
      7   0.439520D+00  0.170417D+00 -0.254331D+00 -0.225616D+00  0.000000D+00
      8   0.000000D+00  0.000000D+00  0.000000D+00  0.000000D+00  0.000000D+00
      9   0.000000D+00  0.000000D+00  0.000000D+00  0.000000D+00  0.000000D+00
     10  -0.175453D+00  0.501877D+00 -0.107762D+00  0.169431D+00  0.000000D+00
     11   0.334313D+00  0.939726D-01 -0.479479D+00 -0.147028D+00  0.000000D+00
     12   0.000000D+00  0.000000D+00  0.000000D+00  0.000000D+00  0.000000D+00
     13   0.000000D+00  0.000000D+00  0.000000D+00  0.000000D+00  0.000000D+00
     14  -0.172390D+00  0.435896D+00  0.139706D-01 -0.264902D+00  0.000000D+00
     15   0.199533D-01 -0.209198D-01 -0.793450D-01  0.424760D+00  0.000000D+00
     16   0.000000D+00  0.000000D+00  0.000000D+00  0.000000D+00  0.000000D+00
     17   0.000000D+00  0.000000D+00  0.000000D+00  0.000000D+00  0.000000D+00
     18   0.000000D+00  0.000000D+00  0.000000D+00  0.000000D+00  0.100000D+01
     19   0.000000D+00  0.000000D+00  0.000000D+00  0.000000D+00  0.000000D+00
                 6             7             8             9            10 
      1  -0.804473D-01  0.654276D+00 -0.303073D+00 -0.249283D+00  0.227848D+00
      2  -0.208467D-01  0.219761D+00  0.685521D+00  0.196889D+00  0.487333D+00
      3  -0.107186D-02 -0.686925D-01 -0.522856D+00 -0.291610D+00 -0.777945D+00
      4   0.000000D+00  0.000000D+00  0.000000D+00  0.000000D+00  0.000000D+00
      5   0.000000D+00  0.000000D+00  0.000000D+00  0.000000D+00  0.000000D+00
      6  -0.457229D+00 -0.539661D+00  0.143579D+00 -0.527749D+00  0.151690D+00
      7   0.260172D-01 -0.247654D+00 -0.361266D+00  0.268530D+00  0.858567D+00
      8   0.000000D+00  0.000000D+00  0.000000D+00  0.000000D+00  0.000000D+00
      9   0.000000D+00  0.000000D+00  0.000000D+00  0.000000D+00  0.000000D+00
     10  -0.164954D-01  0.215074D+00 -0.134261D+00  0.939848D+00 -0.290391D+00
     11   0.409610D-02  0.106817D+00  0.639010D+00 -0.134774D+00 -0.646138D+00
     12   0.000000D+00  0.000000D+00  0.000000D+00  0.000000D+00  0.000000D+00
     13   0.000000D+00  0.000000D+00  0.000000D+00  0.000000D+00  0.000000D+00
     14   0.349107D+00  0.363431D+00 -0.235320D-01 -0.802630D+00  0.285778D+00
     15   0.818052D+00 -0.375195D+00  0.828551D-01  0.387609D-01 -0.332936D-01
     16   0.000000D+00  0.000000D+00  0.000000D+00  0.000000D+00  0.000000D+00
     17   0.000000D+00  0.000000D+00  0.000000D+00  0.000000D+00  0.000000D+00
     18   0.000000D+00  0.000000D+00  0.000000D+00  0.000000D+00  0.000000D+00
     19   0.000000D+00  0.000000D+00  0.000000D+00  0.000000D+00  0.000000D+00
                11            12            13            14            15 
      1   0.000000D+00  0.000000D+00  0.000000D+00  0.000000D+00  0.000000D+00
      2   0.000000D+00  0.000000D+00  0.000000D+00  0.000000D+00  0.000000D+00
      3   0.000000D+00  0.000000D+00  0.000000D+00  0.000000D+00  0.000000D+00
      4   0.000000D+00  0.358362D+00  0.000000D+00  0.802807D+00 -0.593005D+00
      5   0.000000D+00  0.000000D+00  0.000000D+00  0.000000D+00  0.000000D+00
      6   0.000000D+00  0.000000D+00  0.000000D+00  0.000000D+00  0.000000D+00
      7   0.000000D+00  0.000000D+00  0.000000D+00  0.000000D+00  0.000000D+00
      8   0.000000D+00  0.565532D+00  0.000000D+00 -0.127423D-01  0.101370D+01
      9   0.000000D+00  0.000000D+00  0.000000D+00  0.000000D+00  0.000000D+00
     10   0.000000D+00  0.000000D+00  0.000000D+00  0.000000D+00  0.000000D+00
     11   0.000000D+00  0.000000D+00  0.000000D+00  0.000000D+00  0.000000D+00
     12   0.000000D+00  0.454909D+00  0.000000D+00 -0.616584D+00 -0.793056D+00
     13   0.000000D+00  0.000000D+00  0.000000D+00  0.000000D+00  0.000000D+00
     14   0.000000D+00  0.000000D+00  0.000000D+00  0.000000D+00  0.000000D+00
     15   0.000000D+00  0.000000D+00  0.000000D+00  0.000000D+00  0.000000D+00
     16   0.000000D+00  0.000000D+00  0.100000D+01  0.000000D+00  0.000000D+00
     17   0.000000D+00  0.000000D+00  0.000000D+00  0.000000D+00  0.000000D+00
     18   0.000000D+00  0.000000D+00  0.000000D+00  0.000000D+00  0.000000D+00
     19   0.100000D+01  0.000000D+00  0.000000D+00  0.000000D+00  0.000000D+00
                16            17            18            19 
      1   0.000000D+00  0.000000D+00  0.000000D+00  0.000000D+00
      2   0.000000D+00  0.000000D+00  0.000000D+00  0.000000D+00
      3   0.000000D+00  0.000000D+00  0.000000D+00  0.000000D+00
      4   0.000000D+00  0.000000D+00  0.000000D+00  0.000000D+00
      5   0.358362D+00  0.000000D+00  0.802807D+00 -0.593005D+00
      6   0.000000D+00  0.000000D+00  0.000000D+00  0.000000D+00
      7   0.000000D+00  0.000000D+00  0.000000D+00  0.000000D+00
      8   0.000000D+00  0.000000D+00  0.000000D+00  0.000000D+00
      9   0.565532D+00  0.000000D+00 -0.127423D-01  0.101370D+01
     10   0.000000D+00  0.000000D+00  0.000000D+00  0.000000D+00
     11   0.000000D+00  0.000000D+00  0.000000D+00  0.000000D+00
     12   0.000000D+00  0.000000D+00  0.000000D+00  0.000000D+00
     13   0.454909D+00  0.000000D+00 -0.616584D+00 -0.793056D+00
     14   0.000000D+00  0.000000D+00  0.000000D+00  0.000000D+00
     15   0.000000D+00  0.000000D+00  0.000000D+00  0.000000D+00
     16   0.000000D+00  0.000000D+00  0.000000D+00  0.000000D+00
     17   0.000000D+00  0.100000D+01  0.000000D+00  0.000000D+00
     18   0.000000D+00  0.000000D+00  0.000000D+00  0.000000D+00
     19   0.000000D+00  0.000000D+00  0.000000D+00  0.000000D+00
 NBasis=    19 RedAO= T EigKep=  4.47D-01  NBF=    10     1     4     4
 NBsUse=    19 1.00D-06 EigRej= -1.00D+00 NBFU=    10     1     4     4
 Leave Link  302 at Fri Mar 25 14:39:07 2022, MaxMem=  9663676416 cpu:               3.5 elap:               0.1
 (Enter /nopt/nrel/apps/gaussian/g16C_1/g16/l303.exe)
 DipDrv will not compute anything.
 Fermi contact integrals: 
                 1             2 
      1   0.628247D+00  0.141673D-02
      2   0.000000D+00  0.454848D+02
      3   0.000000D+00  0.245213D+01
      4   0.000000D+00  0.000000D+00
      5   0.000000D+00  0.000000D+00
      6   0.000000D+00  0.000000D+00
      7   0.000000D+00  0.115357D+00
      8   0.000000D+00  0.000000D+00
      9   0.000000D+00  0.000000D+00
     10   0.000000D+00  0.000000D+00
     11   0.973464D-02 -0.521539D-02
     12   0.000000D+00  0.000000D+00
     13   0.000000D+00  0.000000D+00
     14  -0.171528D-01  0.000000D+00
     15   0.604036D-02  0.000000D+00
     16   0.000000D+00  0.000000D+00
     17   0.000000D+00  0.000000D+00
     18   0.000000D+00  0.000000D+00
     19   0.000000D+00  0.000000D+00
 Leave Link  303 at Fri Mar 25 14:39:07 2022, MaxMem=  9663676416 cpu:               1.1 elap:               0.1
 (Enter /nopt/nrel/apps/gaussian/g16C_1/g16/l401.exe)
 ExpMin= 1.16D-01 ExpMax= 1.03D+03 ExpMxC= 1.03D+03 IAcc=3 IRadAn=         5 AccDes= 0.00D+00
 Harris functional with IExCor=  205 and IRadAn=       5 diagonalized for initial guess.
 HarFok:  IExCor=  205 AccDes= 0.00D+00 IRadAn=         5 IDoV= 1 UseB2=F ITyADJ=14
 ICtDFT=  3500011 ScaDFX=  1.000000  1.000000  1.000000  1.000000
 FoFCou: FMM=F IPFlag=           0 FMFlag=      100000 FMFlg1=           0
         NFxFlg=           0 DoJE=T BraDBF=F KetDBF=T FulRan=T
         wScrn=  0.000000 ICntrl=       500 IOpCl=  0 I1Cent=   200000004 NGrid=           0
         NMat0=    1 NMatS0=      1 NMatT0=    0 NMatD0=    1 NMtDS0=    0 NMtDT0=    0
 Petite list used in FoFCou.
 Harris En= -839.317936313628    
 JPrj=0 DoOrth=F DoCkMO=F.
 Initial guess orbital symmetries:
 Alpha Orbitals:
       Occupied  (SG) (SG) (SG) (PI) (PI) (SG) (SG) (PI) (PI) (SG)
                 (SG) (PI) (PI)
       Virtual   (DLTA) (DLTA) (SG) (PI) (PI) (SG)
 Beta  Orbitals:
       Occupied  (SG) (SG) (SG) (PI) (PI) (SG) (SG) (PI) (PI) (SG)
       Virtual   (SG) (PI) (PI) (DLTA) (DLTA) (SG) (PI) (PI) (SG)
 The electronic state of the initial guess is 4-SG.
 Initial guess <Sx>= 0.0000 <Sy>= 0.0000 <Sz>= 1.5000 <S**2>= 3.7500 S= 1.5000
 Leave Link  401 at Fri Mar 25 14:39:08 2022, MaxMem=  9663676416 cpu:               4.3 elap:               0.1
 (Enter /nopt/nrel/apps/gaussian/g16C_1/g16/l502.exe)
 Keep R1 and R2 ints in memory in symmetry-blocked form, NReq=7412976.
 FoFCou: FMM=F IPFlag=           0 FMFlag=           0 FMFlg1=           0
         NFxFlg=           0 DoJE=F BraDBF=F KetDBF=F FulRan=T
         wScrn=  0.000000 ICntrl=       600 IOpCl=  0 I1Cent=           0 NGrid=           0
         NMat0=    1 NMatS0=    190 NMatT0=    0 NMatD0=    1 NMtDS0=    0 NMtDT0=    0
 Petite list used in FoFCou.
 UHF open shell SCF:
 Using DIIS extrapolation, IDIIS=  1040.
 NGot=  9663676416 LenX=  9663662661 LenY=  9663661779
 Requested convergence on RMS density matrix=1.00D-08 within 128 cycles.
 Requested convergence on MAX density matrix=1.00D-06.
 Requested convergence on             energy=1.00D-06.
 No special actions if energy rises.

 Cycle   1  Pass 1  IDiag  1:
 E= -839.894200001897    
 DIIS: error= 7.33D-02 at cycle   1 NSaved=   1.
 NSaved= 1 IEnMin= 1 EnMin= -839.894200001897     IErMin= 1 ErrMin= 7.33D-02
 ErrMax= 7.33D-02  0.00D+00 EMaxC= 1.00D-01 BMatC= 3.60D-01 BMatP= 3.60D-01
 IDIUse=3 WtCom= 2.67D-01 WtEn= 7.33D-01
 Coeff-Com:  0.100D+01
 Coeff-En:   0.100D+01
 Coeff:      0.100D+01
 Gap=     0.383 Goal=   None    Shift=    0.000
 Gap=     0.183 Goal=   None    Shift=    0.000
 GapD=    0.183 DampG=1.000 DampE=0.250 DampFc=0.2500 IDamp=-1.
 Damping current iteration by 2.50D-01
 RMSDP=3.02D-02 MaxDP=3.67D-01              OVMax= 0.00D+00

 Cycle   2  Pass 1  IDiag  1:
 E= -839.919037827714     Delta-E=       -0.024837825817 Rises=F Damp=T
 DIIS: error= 5.48D-02 at cycle   2 NSaved=   2.
 NSaved= 2 IEnMin= 2 EnMin= -839.919037827714     IErMin= 2 ErrMin= 5.48D-02
 ErrMax= 5.48D-02  0.00D+00 EMaxC= 1.00D-01 BMatC= 1.99D-01 BMatP= 3.60D-01
 IDIUse=3 WtCom= 4.52D-01 WtEn= 5.48D-01
 Coeff-Com: -0.281D+01 0.381D+01
 Coeff-En:   0.000D+00 0.100D+01
 Coeff:     -0.127D+01 0.227D+01
 Gap=     0.382 Goal=   None    Shift=    0.000
 Gap=     0.275 Goal=   None    Shift=    0.000
 RMSDP=2.33D-02 MaxDP=2.92D-01 DE=-2.48D-02 OVMax= 0.00D+00

 Cycle   3  Pass 1  IDiag  1:
 E= -840.003430827869     Delta-E=       -0.084393000155 Rises=F Damp=F
 DIIS: error= 8.76D-03 at cycle   3 NSaved=   3.
 NSaved= 3 IEnMin= 3 EnMin= -840.003430827869     IErMin= 3 ErrMin= 8.76D-03
 ErrMax= 8.76D-03  0.00D+00 EMaxC= 1.00D-01 BMatC= 6.95D-03 BMatP= 1.99D-01
 IDIUse=3 WtCom= 9.12D-01 WtEn= 8.76D-02
 Coeff-Com: -0.186D+01 0.253D+01 0.332D+00
 Coeff-En:   0.000D+00 0.000D+00 0.100D+01
 Coeff:     -0.170D+01 0.230D+01 0.391D+00
 Gap=     0.393 Goal=   None    Shift=    0.000
 Gap=     0.311 Goal=   None    Shift=    0.000
 RMSDP=4.51D-03 MaxDP=4.00D-02 DE=-8.44D-02 OVMax= 0.00D+00

 Cycle   4  Pass 1  IDiag  1:
 E= -840.010686980204     Delta-E=       -0.007256152335 Rises=F Damp=F
 DIIS: error= 7.24D-03 at cycle   4 NSaved=   4.
 NSaved= 4 IEnMin= 4 EnMin= -840.010686980204     IErMin= 4 ErrMin= 7.24D-03
 ErrMax= 7.24D-03  0.00D+00 EMaxC= 1.00D-01 BMatC= 5.59D-03 BMatP= 6.95D-03
 IDIUse=3 WtCom= 9.28D-01 WtEn= 7.24D-02
 Coeff-Com: -0.265D+01 0.355D+01-0.281D+01 0.291D+01
 Coeff-En:   0.000D+00 0.000D+00 0.000D+00 0.100D+01
 Coeff:     -0.246D+01 0.329D+01-0.261D+01 0.277D+01
 Gap=     0.397 Goal=   None    Shift=    0.000
 Gap=     0.331 Goal=   None    Shift=    0.000
 RMSDP=1.06D-02 MaxDP=1.11D-01 DE=-7.26D-03 OVMax= 0.00D+00

 Cycle   5  Pass 1  IDiag  1:
 E= -840.025161050959     Delta-E=       -0.014474070756 Rises=F Damp=F
 DIIS: error= 5.63D-03 at cycle   5 NSaved=   5.
 NSaved= 5 IEnMin= 5 EnMin= -840.025161050959     IErMin= 5 ErrMin= 5.63D-03
 ErrMax= 5.63D-03  0.00D+00 EMaxC= 1.00D-01 BMatC= 3.40D-03 BMatP= 5.59D-03
 IDIUse=3 WtCom= 9.44D-01 WtEn= 5.63D-02
 Coeff-Com: -0.453D+00 0.650D+00 0.142D+01-0.484D+01 0.422D+01
 Coeff-En:   0.000D+00 0.000D+00 0.000D+00 0.000D+00 0.100D+01
 Coeff:     -0.427D+00 0.614D+00 0.134D+01-0.457D+01 0.404D+01
 Gap=     0.403 Goal=   None    Shift=    0.000
 Gap=     0.404 Goal=   None    Shift=    0.000
 RMSDP=2.27D-02 MaxDP=1.95D-01 DE=-1.45D-02 OVMax= 0.00D+00

 Cycle   6  Pass 1  IDiag  1:
 E= -840.037511922675     Delta-E=       -0.012350871716 Rises=F Damp=F
 DIIS: error= 3.11D-03 at cycle   6 NSaved=   6.
 NSaved= 6 IEnMin= 6 EnMin= -840.037511922675     IErMin= 6 ErrMin= 3.11D-03
 ErrMax= 3.11D-03  0.00D+00 EMaxC= 1.00D-01 BMatC= 7.43D-04 BMatP= 3.40D-03
 IDIUse=3 WtCom= 9.69D-01 WtEn= 3.11D-02
 Coeff-Com: -0.140D-01 0.178D-01 0.474D+00-0.949D+00 0.813D+00 0.659D+00
 Coeff-En:   0.000D+00 0.000D+00 0.000D+00 0.000D+00 0.000D+00 0.100D+01
 Coeff:     -0.136D-01 0.173D-01 0.459D+00-0.920D+00 0.787D+00 0.670D+00
 Gap=     0.403 Goal=   None    Shift=    0.000
 Gap=     0.395 Goal=   None    Shift=    0.000
 RMSDP=4.18D-03 MaxDP=3.69D-02 DE=-1.24D-02 OVMax= 0.00D+00

 Cycle   7  Pass 1  IDiag  1:
 E= -840.038117487092     Delta-E=       -0.000605564417 Rises=F Damp=F
 DIIS: error= 1.91D-03 at cycle   7 NSaved=   7.
 NSaved= 7 IEnMin= 7 EnMin= -840.038117487092     IErMin= 7 ErrMin= 1.91D-03
 ErrMax= 1.91D-03  0.00D+00 EMaxC= 1.00D-01 BMatC= 1.21D-04 BMatP= 7.43D-04
 IDIUse=3 WtCom= 9.81D-01 WtEn= 1.91D-02
 Coeff-Com: -0.383D-01 0.553D-01-0.301D+00 0.362D+00-0.490D+00-0.946D+00
 Coeff-Com:  0.236D+01
 Coeff-En:   0.000D+00 0.000D+00 0.000D+00 0.000D+00 0.000D+00 0.000D+00
 Coeff-En:   0.100D+01
 Coeff:     -0.375D-01 0.543D-01-0.295D+00 0.355D+00-0.481D+00-0.928D+00
 Coeff:      0.233D+01
 Gap=     0.410 Goal=   None    Shift=    0.000
 Gap=     0.410 Goal=   None    Shift=    0.000
 RMSDP=4.46D-03 MaxDP=3.97D-02 DE=-6.06D-04 OVMax= 0.00D+00

 Cycle   8  Pass 1  IDiag  1:
 E= -840.038681574170     Delta-E=       -0.000564087078 Rises=F Damp=F
 DIIS: error= 1.22D-03 at cycle   8 NSaved=   8.
 NSaved= 8 IEnMin= 8 EnMin= -840.038681574170     IErMin= 8 ErrMin= 1.22D-03
 ErrMax= 1.22D-03  0.00D+00 EMaxC= 1.00D-01 BMatC= 1.35D-04 BMatP= 1.21D-04
 IDIUse=3 WtCom= 9.81D-01 WtEn= 1.91D-02
 Coeff-Com: -0.363D+00 0.492D+00 0.112D-01-0.740D+00 0.889D+00-0.520D+00
 Coeff-Com: -0.842D+00 0.207D+01
 Coeff-En:   0.000D+00 0.000D+00 0.000D+00 0.000D+00 0.000D+00 0.000D+00
 Coeff-En:   0.000D+00 0.100D+01
 Coeff:     -0.356D+00 0.483D+00 0.110D-01-0.726D+00 0.872D+00-0.510D+00
 Coeff:     -0.826D+00 0.205D+01
 Gap=     0.408 Goal=   None    Shift=    0.000
 Gap=     0.409 Goal=   None    Shift=    0.000
 RMSDP=3.15D-03 MaxDP=2.74D-02 DE=-5.64D-04 OVMax= 0.00D+00

 Cycle   9  Pass 1  IDiag  1:
 E= -840.039120155855     Delta-E=       -0.000438581685 Rises=F Damp=F
 DIIS: error= 8.35D-04 at cycle   9 NSaved=   9.
 NSaved= 9 IEnMin= 9 EnMin= -840.039120155855     IErMin= 9 ErrMin= 8.35D-04
 ErrMax= 8.35D-04  0.00D+00 EMaxC= 1.00D-01 BMatC= 6.31D-05 BMatP= 1.21D-04
 IDIUse=3 WtCom= 9.92D-01 WtEn= 8.35D-03
 Coeff-Com: -0.203D+00 0.273D+00 0.324D-01-0.423D+00 0.426D+00 0.278D+00
 Coeff-Com:  0.280D+00-0.215D+01 0.249D+01
 Coeff-En:   0.000D+00 0.000D+00 0.000D+00 0.000D+00 0.000D+00 0.000D+00
 Coeff-En:   0.000D+00 0.000D+00 0.100D+01
 Coeff:     -0.201D+00 0.271D+00 0.321D-01-0.419D+00 0.423D+00 0.276D+00
 Coeff:      0.278D+00-0.214D+01 0.248D+01
 Gap=     0.407 Goal=   None    Shift=    0.000
 Gap=     0.409 Goal=   None    Shift=    0.000
 RMSDP=2.83D-03 MaxDP=2.23D-02 DE=-4.39D-04 OVMax= 0.00D+00

 Cycle  10  Pass 1  IDiag  1:
 E= -840.039403977490     Delta-E=       -0.000283821635 Rises=F Damp=F
 DIIS: error= 5.10D-04 at cycle  10 NSaved=  10.
 NSaved=10 IEnMin=10 EnMin= -840.039403977490     IErMin=10 ErrMin= 5.10D-04
 ErrMax= 5.10D-04  0.00D+00 EMaxC= 1.00D-01 BMatC= 2.19D-05 BMatP= 6.31D-05
 IDIUse=3 WtCom= 9.95D-01 WtEn= 5.10D-03
 Coeff-Com: -0.208D-01 0.296D-01 0.299D-01-0.746D-01 0.567D-01-0.298D+00
 Coeff-Com: -0.274D+00 0.162D+01-0.279D+01 0.272D+01
 Coeff-En:   0.000D+00 0.000D+00 0.000D+00 0.000D+00 0.000D+00 0.000D+00
 Coeff-En:   0.000D+00 0.000D+00 0.000D+00 0.100D+01
 Coeff:     -0.207D-01 0.294D-01 0.297D-01-0.743D-01 0.564D-01-0.296D+00
 Coeff:     -0.272D+00 0.161D+01-0.278D+01 0.272D+01
 Gap=     0.407 Goal=   None    Shift=    0.000
 Gap=     0.408 Goal=   None    Shift=    0.000
 RMSDP=3.16D-03 MaxDP=2.74D-02 DE=-2.84D-04 OVMax= 0.00D+00

 Cycle  11  Pass 1  IDiag  1:
 E= -840.039535344331     Delta-E=       -0.000131366841 Rises=F Damp=F
 DIIS: error= 5.64D-05 at cycle  11 NSaved=  11.
 NSaved=11 IEnMin=11 EnMin= -840.039535344331     IErMin=11 ErrMin= 5.64D-05
 ErrMax= 5.64D-05  0.00D+00 EMaxC= 1.00D-01 BMatC= 3.31D-07 BMatP= 2.19D-05
 IDIUse=1 WtCom= 1.00D+00 WtEn= 0.00D+00
 Coeff-Com:  0.221D-02-0.330D-02-0.195D-01 0.424D-01-0.478D-01-0.510D-02
 Coeff-Com:  0.105D+00-0.196D+00 0.408D+00-0.536D+00 0.125D+01
 Coeff:      0.221D-02-0.330D-02-0.195D-01 0.424D-01-0.478D-01-0.510D-02
 Coeff:      0.105D+00-0.196D+00 0.408D+00-0.536D+00 0.125D+01
 Gap=     0.407 Goal=   None    Shift=    0.000
 Gap=     0.409 Goal=   None    Shift=    0.000
 RMSDP=2.68D-04 MaxDP=2.11D-03 DE=-1.31D-04 OVMax= 0.00D+00

 Cycle  12  Pass 1  IDiag  1:
 E= -840.039536502121     Delta-E=       -0.000001157790 Rises=F Damp=F
 DIIS: error= 2.85D-05 at cycle  12 NSaved=  12.
 NSaved=12 IEnMin=12 EnMin= -840.039536502121     IErMin=12 ErrMin= 2.85D-05
 ErrMax= 2.85D-05  0.00D+00 EMaxC= 1.00D-01 BMatC= 8.23D-08 BMatP= 3.31D-07
 IDIUse=1 WtCom= 1.00D+00 WtEn= 0.00D+00
 Coeff-Com:  0.437D-02-0.571D-02 0.728D-02-0.141D-01 0.171D-01-0.638D-02
 Coeff-Com: -0.160D-01 0.699D-01-0.183D+00 0.227D+00-0.982D+00 0.188D+01
 Coeff:      0.437D-02-0.571D-02 0.728D-02-0.141D-01 0.171D-01-0.638D-02
 Coeff:     -0.160D-01 0.699D-01-0.183D+00 0.227D+00-0.982D+00 0.188D+01
 Gap=     0.407 Goal=   None    Shift=    0.000
 Gap=     0.409 Goal=   None    Shift=    0.000
 RMSDP=1.03D-04 MaxDP=1.04D-03 DE=-1.16D-06 OVMax= 0.00D+00

 Cycle  13  Pass 1  IDiag  1:
 E= -840.039536686913     Delta-E=       -0.000000184793 Rises=F Damp=F
 DIIS: error= 6.11D-06 at cycle  13 NSaved=  13.
 NSaved=13 IEnMin=13 EnMin= -840.039536686913     IErMin=13 ErrMin= 6.11D-06
 ErrMax= 6.11D-06  0.00D+00 EMaxC= 1.00D-01 BMatC= 6.54D-09 BMatP= 8.23D-08
 IDIUse=1 WtCom= 1.00D+00 WtEn= 0.00D+00
 Coeff-Com: -0.660D-03 0.889D-03 0.352D-03-0.428D-02 0.699D-02 0.922D-02
 Coeff-Com: -0.162D-01-0.282D-01 0.115D+00-0.130D+00 0.375D+00-0.716D+00
 Coeff-Com:  0.139D+01
 Coeff:     -0.660D-03 0.889D-03 0.352D-03-0.428D-02 0.699D-02 0.922D-02
 Coeff:     -0.162D-01-0.282D-01 0.115D+00-0.130D+00 0.375D+00-0.716D+00
 Coeff:      0.139D+01
 Gap=     0.407 Goal=   None    Shift=    0.000
 Gap=     0.409 Goal=   None    Shift=    0.000
 RMSDP=3.69D-05 MaxDP=2.52D-04 DE=-1.85D-07 OVMax= 0.00D+00

 Cycle  14  Pass 1  IDiag  1:
 E= -840.039536694135     Delta-E=       -0.000000007222 Rises=F Damp=F
 DIIS: error= 2.91D-06 at cycle  14 NSaved=  14.
 NSaved=14 IEnMin=14 EnMin= -840.039536694135     IErMin=14 ErrMin= 2.91D-06
 ErrMax= 2.91D-06  0.00D+00 EMaxC= 1.00D-01 BMatC= 8.03D-10 BMatP= 6.54D-09
 IDIUse=1 WtCom= 1.00D+00 WtEn= 0.00D+00
 Coeff-Com: -0.548D-03 0.737D-03-0.675D-03 0.683D-03-0.202D-02-0.331D-02
 Coeff-Com:  0.862D-02 0.683D-03-0.135D-01 0.826D-02-0.226D-01 0.533D-01
 Coeff-Com: -0.344D+00 0.131D+01
 Coeff:     -0.548D-03 0.737D-03-0.675D-03 0.683D-03-0.202D-02-0.331D-02
 Coeff:      0.862D-02 0.683D-03-0.135D-01 0.826D-02-0.226D-01 0.533D-01
 Coeff:     -0.344D+00 0.131D+01
 Gap=     0.407 Goal=   None    Shift=    0.000
 Gap=     0.409 Goal=   None    Shift=    0.000
 RMSDP=9.50D-06 MaxDP=6.42D-05 DE=-7.22D-09 OVMax= 0.00D+00

 Cycle  15  Pass 1  IDiag  1:
 E= -840.039536695252     Delta-E=       -0.000000001117 Rises=F Damp=F
 DIIS: error= 3.64D-06 at cycle  15 NSaved=  15.
 NSaved=15 IEnMin=15 EnMin= -840.039536695252     IErMin=14 ErrMin= 2.91D-06
 ErrMax= 3.64D-06  0.00D+00 EMaxC= 1.00D-01 BMatC= 9.40D-10 BMatP= 8.03D-10
 IDIUse=1 WtCom= 1.00D+00 WtEn= 0.00D+00
 Coeff-Com:  0.299D-03-0.398D-03 0.368D-03-0.702D-03 0.135D-02-0.242D-03
 Coeff-Com: -0.221D-02-0.364D-04 0.169D-02 0.209D-02 0.945D-02-0.411D-01
 Coeff-Com:  0.151D+00-0.985D+00 0.186D+01
 Coeff:      0.299D-03-0.398D-03 0.368D-03-0.702D-03 0.135D-02-0.242D-03
 Coeff:     -0.221D-02-0.364D-04 0.169D-02 0.209D-02 0.945D-02-0.411D-01
 Coeff:      0.151D+00-0.985D+00 0.186D+01
 Gap=     0.407 Goal=   None    Shift=    0.000
 Gap=     0.409 Goal=   None    Shift=    0.000
 RMSDP=9.98D-06 MaxDP=1.22D-04 DE=-1.12D-09 OVMax= 0.00D+00

 Cycle  16  Pass 1  IDiag  1:
 E= -840.039536697054     Delta-E=       -0.000000001802 Rises=F Damp=F
 DIIS: error= 7.16D-07 at cycle  16 NSaved=  16.
 NSaved=16 IEnMin=16 EnMin= -840.039536697054     IErMin=16 ErrMin= 7.16D-07
 ErrMax= 7.16D-07  0.00D+00 EMaxC= 1.00D-01 BMatC= 4.00D-11 BMatP= 8.03D-10
 IDIUse=1 WtCom= 1.00D+00 WtEn= 0.00D+00
 Coeff-Com: -0.416D-04 0.562D-04-0.188D-04-0.532D-06-0.324D-04 0.178D-03
 Coeff-Com:  0.586D-04 0.391D-04-0.436D-03 0.378D-03-0.611D-02 0.188D-01
 Coeff-Com: -0.591D-01 0.146D+00-0.174D+00 0.107D+01
 Coeff:     -0.416D-04 0.562D-04-0.188D-04-0.532D-06-0.324D-04 0.178D-03
 Coeff:      0.586D-04 0.391D-04-0.436D-03 0.378D-03-0.611D-02 0.188D-01
 Coeff:     -0.591D-01 0.146D+00-0.174D+00 0.107D+01
 Gap=     0.407 Goal=   None    Shift=    0.000
 Gap=     0.409 Goal=   None    Shift=    0.000
 RMSDP=2.59D-06 MaxDP=2.40D-05 DE=-1.80D-09 OVMax= 0.00D+00

 Cycle  17  Pass 1  IDiag  1:
 E= -840.039536697133     Delta-E=       -0.000000000078 Rises=F Damp=F
 DIIS: error= 3.85D-08 at cycle  17 NSaved=  17.
 NSaved=17 IEnMin=17 EnMin= -840.039536697133     IErMin=17 ErrMin= 3.85D-08
 ErrMax= 3.85D-08  0.00D+00 EMaxC= 1.00D-01 BMatC= 1.73D-13 BMatP= 4.00D-11
 IDIUse=1 WtCom= 1.00D+00 WtEn= 0.00D+00
 Coeff-Com: -0.239D-05 0.317D-05-0.378D-05 0.430D-05 0.104D-05 0.201D-04
 Coeff-Com: -0.720D-05-0.844D-04 0.234D-03-0.320D-03 0.228D-03-0.543D-03
 Coeff-Com:  0.615D-02-0.790D-02-0.105D-01-0.839D-01 0.110D+01
 Coeff:     -0.239D-05 0.317D-05-0.378D-05 0.430D-05 0.104D-05 0.201D-04
 Coeff:     -0.720D-05-0.844D-04 0.234D-03-0.320D-03 0.228D-03-0.543D-03
 Coeff:      0.615D-02-0.790D-02-0.105D-01-0.839D-01 0.110D+01
 Gap=     0.407 Goal=   None    Shift=    0.000
 Gap=     0.409 Goal=   None    Shift=    0.000
 RMSDP=2.88D-07 MaxDP=2.52D-06 DE=-7.83D-11 OVMax= 0.00D+00

 Cycle  18  Pass 1  IDiag  1:
 E= -840.039536697133     Delta-E=       -0.000000000001 Rises=F Damp=F
 DIIS: error= 7.66D-09 at cycle  18 NSaved=  18.
 NSaved=18 IEnMin=18 EnMin= -840.039536697133     IErMin=18 ErrMin= 7.66D-09
 ErrMax= 7.66D-09  0.00D+00 EMaxC= 1.00D-01 BMatC= 4.32D-15 BMatP= 1.73D-13
 IDIUse=1 WtCom= 1.00D+00 WtEn= 0.00D+00
 Large coefficients: NSaved= 18 BigCof=    0.00 CofMax=   10.00 Det=-9.06D-16
 Inversion failed.  Reducing to 17 matrices.
 Large coefficients: NSaved= 17 BigCof=    0.00 CofMax=   10.00 Det=-9.15D-16
 Inversion failed.  Reducing to 16 matrices.
 Large coefficients: NSaved= 16 BigCof=    0.00 CofMax=   10.00 Det=-9.62D-16
 Inversion failed.  Reducing to 15 matrices.
 Coeff-Com:  0.309D-06-0.428D-06-0.174D-07-0.152D-05 0.101D-04-0.318D-04
 Coeff-Com:  0.576D-04-0.253D-04 0.116D-03-0.135D-02 0.130D-02 0.390D-02
 Coeff-Com:  0.227D-01-0.352D+00 0.132D+01
 Coeff:      0.309D-06-0.428D-06-0.174D-07-0.152D-05 0.101D-04-0.318D-04
 Coeff:      0.576D-04-0.253D-04 0.116D-03-0.135D-02 0.130D-02 0.390D-02
 Coeff:      0.227D-01-0.352D+00 0.132D+01
 Gap=     0.407 Goal=   None    Shift=    0.000
 Gap=     0.409 Goal=   None    Shift=    0.000
 RMSDP=1.27D-08 MaxDP=8.81D-08 DE=-6.82D-13 OVMax= 0.00D+00

 Cycle  19  Pass 1  IDiag  1:
 E= -840.039536697134     Delta-E=       -0.000000000001 Rises=F Damp=F
 DIIS: error= 8.81D-10 at cycle  19 NSaved=  16.
 NSaved=16 IEnMin=16 EnMin= -840.039536697134     IErMin=16 ErrMin= 8.81D-10
 ErrMax= 8.81D-10  0.00D+00 EMaxC= 1.00D-01 BMatC= 4.58D-17 BMatP= 4.32D-15
 IDIUse=1 WtCom= 1.00D+00 WtEn= 0.00D+00
 Large coefficients: NSaved= 16 BigCof=    0.00 CofMax=   10.00 Det=-7.17D-18
 Inversion failed.  Reducing to 15 matrices.
 Coeff-Com: -0.220D-07 0.200D-06 0.341D-07-0.110D-05 0.382D-05-0.649D-05
 Coeff-Com: -0.142D-05-0.101D-05 0.109D-03-0.285D-04-0.467D-03-0.145D-02
 Coeff-Com:  0.389D-01-0.192D+00 0.116D+01
 Coeff:     -0.220D-07 0.200D-06 0.341D-07-0.110D-05 0.382D-05-0.649D-05
 Coeff:     -0.142D-05-0.101D-05 0.109D-03-0.285D-04-0.467D-03-0.145D-02
 Coeff:      0.389D-01-0.192D+00 0.116D+01
 Gap=     0.407 Goal=   None    Shift=    0.000
 Gap=     0.409 Goal=   None    Shift=    0.000
 RMSDP=1.64D-09 MaxDP=2.09D-08 DE=-5.68D-13 OVMax= 0.00D+00

 SCF Done:  E(UHF) =  -840.039536697     A.U. after   19 cycles
            NFock= 19  Conv=0.16D-08     -V/T= 2.0043
 <Sx>= 0.0000 <Sy>= 0.0000 <Sz>= 1.5000 <S**2>= 3.9611 S= 1.5521
 <L.S>= 0.000000000000E+00
 KE= 8.364565051301D+02 PE=-1.993716587854D+03 EE= 3.127428927039D+02
 Annihilation of the first spin contaminant:
 S**2 before annihilation     3.9611,   after     3.7501
 Leave Link  502 at Fri Mar 25 14:39:08 2022, MaxMem=  9663676416 cpu:               6.1 elap:               0.2
 (Enter /nopt/nrel/apps/gaussian/g16C_1/g16/l801.exe)
 Windowed orbitals will be sorted by symmetry type.
 ExpMin= 1.16D-01 ExpMax= 1.03D+03 ExpMxC= 1.03D+03 IAcc=3 IRadAn=         5 AccDes= 0.00D+00
 HarFok:  IExCor=  205 AccDes= 0.00D+00 IRadAn=         5 IDoV=-2 UseB2=F ITyADJ=14
 ICtDFT= 12500011 ScaDFX=  1.000000  1.000000  1.000000  1.000000
 Largest valence mixing into a core orbital is  3.66D-04
 Largest core mixing into a valence orbital is  4.13D-04
 Largest valence mixing into a core orbital is  9.11D-04
 Largest core mixing into a valence orbital is  5.69D-04
 Range of M.O.s used for correlation:    10    19
 NBasis=    19 NAE=    13 NBE=    10 NFC=     9 NFV=     0
 NROrb=     10 NOA=     4 NOB=     1 NVA=     6 NVB=     9
 Leave Link  801 at Fri Mar 25 14:39:08 2022, MaxMem=  9663676416 cpu:               1.4 elap:               0.1
 (Enter /nopt/nrel/apps/gaussian/g16C_1/g16/l804.exe)
 Open-shell transformation, MDV=  9663676416 ITran=4 ISComp=2.
 Unit  1 TFree=         25012 TCopy=        222819.
 Semi-Direct transformation.
 ModeAB=           2 MOrb=             4 LenV=    9663501562
 LASXX=          307 LTotXX=         307 LenRXX=         307
 LTotAB=         523 MaxLAS=        8400 LenRXY=        8400
 NonZer=        9720 LenScr=      785920 LnRSAI=           0
 LnScr1=           0 LExtra=      224069 Total=      1018696
 MaxDsk= 34359738368 SrtSym=           F ITran=            4
 DoSDTr:  NPSUse= 36
 JobTyp=1 Pass  1:  I=   1 to   4.
 (rs|ai) integrals will be sorted in core.
 Complete sort for first half transformation.
 First half transformation complete.
 Complete sort for second half transformation.
 Second half transformation complete.
 ModeAB=           2 MOrb=             1 LenV=    9663501562
 LASXX=          105 LTotXX=         105 LenRXX=        2100
 LTotAB=          65 MaxLAS=        2100 LenRXY=          65
 NonZer=        2430 LenScr=      785920 LnRSAI=           0
 LnScr1=           0 LExtra=      232776 Total=      1020861
 MaxDsk= 34359738368 SrtSym=           F ITran=            4
 DoSDTr:  NPSUse= 36
 JobTyp=2 Pass  1:  I=   1 to   1.
 (rs|ai) integrals will be sorted in core.
 Complete sort for first half transformation.
 First half transformation complete.
 Complete sort for second half transformation.
 Second half transformation complete.
 Spin components of T(2) and E(2):
     alpha-alpha T2 =       0.1371575487D-02 E2=     -0.1212649852D-02
     alpha-beta  T2 =       0.1439409757D-01 E2=     -0.1476956411D-01
     beta-beta   T2 =       0.0000000000D+00 E2=      0.0000000000D+00
 ANorm=    0.1007852010D+01
 E2 =    -0.1598221397D-01 EUMP2 =    -0.84005551891110D+03
 (S**2,0)=  0.39611D+01           (S**2,1)=  0.39038D+01
 E(PUHF)=      -0.84004626093D+03        E(PMP2)=      -0.84006133062D+03
 Leave Link  804 at Fri Mar 25 14:39:08 2022, MaxMem=  9663676416 cpu:              13.3 elap:               0.4
 (Enter /nopt/nrel/apps/gaussian/g16C_1/g16/l913.exe)
 CIDS:  MDV=  9663676416.
 Frozen-core window:  NFC=   9 NFV=   0.
 IFCWin=0 IBDFC=1 NFBD=     0     0 NFCmp=     0     0 NFFFC=     0     0
 Using original routines for 1st iteration.
 Using DD4UQ or CC4UQ for 2nd and later iterations.
 Keep R2 and R3 ints in memory in symmetry-blocked form, NReq=7415434.
 FoFCou: FMM=F IPFlag=           0 FMFlag=           0 FMFlg1=           0
         NFxFlg=           0 DoJE=F BraDBF=F KetDBF=F FulRan=T
         wScrn=  0.000000 ICntrl=       600 IOpCl=  0 I1Cent=           0 NGrid=           0
         NMat0=    1 NMatS0=    190 NMatT0=    0 NMatD0=    1 NMtDS0=    0 NMtDT0=    0
 Petite list used in FoFCou.
 CIDS: In Core Option IDoMem=           1.
 Coupled Cluster theory with single and double substitutions
 ===========================================================
 Iterations=  50 Convergence= 0.100D-06
 Produce multiple copies of IABC intergrals
 Iteration Nr.   1
 **********************
 DD1Dir will call FoFMem   1 times, MxPair=        14
 NAB=     4 NAA=     6 NBB=     0.
 E(PMP3)=      -0.84006959994D+03
 MP4(R+Q)=  0.23325898D-03
 Maximum subspace dimension=  5
 A-vector RMS=  1.7623868D-02 Max=  2.6773008D-02 conv= 1.00D-05.
 RLE energy=       -0.0371252648
 E3=       -0.93226312D-02        EUMP3=      -0.84006484154D+03
 E4(DQ)=   -0.56057079D-02        UMP4(DQ)=   -0.84007044725D+03
 E4(SDQ)=  -0.59818187D-02        UMP4(SDQ)=  -0.84007082336D+03
 VARIATIONAL ENERGIES WITH THE FIRST-ORDER WAVEFUNCTION:
 DE(Corr)= -0.25084199E-01 E(Corr)=     -840.06462090    
 NORM(A)=   0.10445800D+01
 Iteration Nr.   2
 **********************
 DD1Dir will call FoFMem   1 times, MxPair=        14
 NAB=     4 NAA=     6 NBB=     0.
 A-vector RMS=  1.4944607D-02 Max=  1.7710627D-02 conv= 1.00D-05.
 RLE energy=       -0.0435022297
 DE(Corr)= -0.38248621E-01 E(CORR)=     -840.07778532     Delta=-1.32D-02
 NORM(A)=   0.10737287D+01
 Iteration Nr.   3
 **********************
 DD1Dir will call FoFMem   1 times, MxPair=        14
 NAB=     4 NAA=     6 NBB=     0.
 A-vector RMS=  7.6987747D-03 Max=  1.3620166D-02 conv= 1.00D-05.
 RLE energy=       -0.0516922159
 DE(Corr)= -0.44224207E-01 E(CORR)=     -840.08376090     Delta=-5.98D-03
 NORM(A)=   0.11145608D+01
 Iteration Nr.   4
 **********************
 DD1Dir will call FoFMem   1 times, MxPair=        14
 NAB=     4 NAA=     6 NBB=     0.
 A-vector RMS=  5.5985551D-03 Max=  8.4555345D-03 conv= 1.00D-05.
 RLE energy=       -0.0443836904
 DE(Corr)= -0.50103580E-01 E(CORR)=     -840.08964028     Delta=-5.88D-03
 NORM(A)=   0.10979196D+01
 Iteration Nr.   5
 **********************
 DD1Dir will call FoFMem   1 times, MxPair=        14
 NAB=     4 NAA=     6 NBB=     0.
 A-vector RMS=  3.1764661D-03 Max=  9.2204770D-03 conv= 1.00D-05.
 RLE energy=       -0.0585554922
 DE(Corr)= -0.46042034E-01 E(CORR)=     -840.08557873     Delta= 4.06D-03
 NORM(A)=   0.11890257D+01
 Iteration Nr.   6
 **********************
 DD1Dir will call FoFMem   1 times, MxPair=        14
 NAB=     4 NAA=     6 NBB=     0.
 A-vector RMS=  5.2640828D-03 Max=  8.4933514D-03 conv= 1.00D-05.
 RLE energy=       -0.0450820161
 DE(Corr)= -0.55727141E-01 E(CORR)=     -840.09526384     Delta=-9.69D-03
 NORM(A)=   0.11080568D+01
 Iteration Nr.   7
 **********************
 DD1Dir will call FoFMem   1 times, MxPair=        14
 NAB=     4 NAA=     6 NBB=     0.
 A-vector RMS=  3.1984123D-03 Max=  6.9870501D-03 conv= 1.00D-05.
 RLE energy=       -0.0488243362
 DE(Corr)= -0.46463503E-01 E(CORR)=     -840.08600020     Delta= 9.26D-03
 NORM(A)=   0.11394661D+01
 Iteration Nr.   8
 **********************
 DD1Dir will call FoFMem   1 times, MxPair=        14
 NAB=     4 NAA=     6 NBB=     0.
 A-vector RMS=  1.9276757D-03 Max=  2.7358776D-03 conv= 1.00D-05.
 RLE energy=       -0.0508077462
 DE(Corr)= -0.49282837E-01 E(CORR)=     -840.08881953     Delta=-2.82D-03
 NORM(A)=   0.11530854D+01
 Iteration Nr.   9
 **********************
 DD1Dir will call FoFMem   1 times, MxPair=        14
 NAB=     4 NAA=     6 NBB=     0.
 A-vector RMS=  1.2148952D-03 Max=  1.8362861D-03 conv= 1.00D-05.
 RLE energy=       -0.0500718265
 DE(Corr)= -0.50711013E-01 E(CORR)=     -840.09024771     Delta=-1.43D-03
 NORM(A)=   0.11471412D+01
 Iteration Nr.  10
 **********************
 DD1Dir will call FoFMem   1 times, MxPair=        14
 NAB=     4 NAA=     6 NBB=     0.
 A-vector RMS=  5.4546644D-04 Max=  9.3582445D-04 conv= 1.00D-05.
 RLE energy=       -0.0502963158
 DE(Corr)= -0.50161546E-01 E(CORR)=     -840.08969824     Delta= 5.49D-04
 NORM(A)=   0.11500970D+01
 Iteration Nr.  11
 **********************
 DD1Dir will call FoFMem   1 times, MxPair=        14
 NAB=     4 NAA=     6 NBB=     0.
 A-vector RMS=  4.6678375D-04 Max=  5.5975959D-04 conv= 1.00D-05.
 RLE energy=       -0.0504755213
 DE(Corr)= -0.50346955E-01 E(CORR)=     -840.08988365     Delta=-1.85D-04
 NORM(A)=   0.11512368D+01
 Iteration Nr.  12
 **********************
 DD1Dir will call FoFMem   1 times, MxPair=        14
 NAB=     4 NAA=     6 NBB=     0.
 A-vector RMS=  2.8915689D-04 Max=  3.8121257D-04 conv= 1.00D-05.
 RLE energy=       -0.0504831017
 DE(Corr)= -0.50479342E-01 E(CORR)=     -840.09001604     Delta=-1.32D-04
 NORM(A)=   0.11509629D+01
 Iteration Nr.  13
 **********************
 DD1Dir will call FoFMem   1 times, MxPair=        14
 NAB=     4 NAA=     6 NBB=     0.
 A-vector RMS=  1.9498869D-04 Max=  2.5089108D-04 conv= 1.00D-05.
 RLE energy=       -0.0504798670
 DE(Corr)= -0.50481901E-01 E(CORR)=     -840.09001860     Delta=-2.56D-06
 NORM(A)=   0.11509555D+01
 Iteration Nr.  14
 **********************
 DD1Dir will call FoFMem   1 times, MxPair=        14
 NAB=     4 NAA=     6 NBB=     0.
 A-vector RMS=  1.1452902D-04 Max=  1.7827455D-04 conv= 1.00D-05.
 RLE energy=       -0.0504817666
 DE(Corr)= -0.50481634E-01 E(CORR)=     -840.09001833     Delta= 2.67D-07
 NORM(A)=   0.11510172D+01
 Iteration Nr.  15
 **********************
 DD1Dir will call FoFMem   1 times, MxPair=        14
 NAB=     4 NAA=     6 NBB=     0.
 A-vector RMS=  8.5046304D-05 Max=  1.1474223D-04 conv= 1.00D-05.
 RLE energy=       -0.0504839862
 DE(Corr)= -0.50483754E-01 E(CORR)=     -840.09002045     Delta=-2.12D-06
 NORM(A)=   0.11509000D+01
 Iteration Nr.  16
 **********************
 DD1Dir will call FoFMem   1 times, MxPair=        14
 NAB=     4 NAA=     6 NBB=     0.
 A-vector RMS=  3.8367894D-05 Max=  6.0195556D-05 conv= 1.00D-05.
 RLE energy=       -0.0504791252
 DE(Corr)= -0.50483390E-01 E(CORR)=     -840.09002009     Delta= 3.64D-07
 NORM(A)=   0.11507376D+01
 Iteration Nr.  17
 **********************
 DD1Dir will call FoFMem   1 times, MxPair=        14
 NAB=     4 NAA=     6 NBB=     0.
 A-vector RMS=  2.5446162D-05 Max=  3.1149440D-05 conv= 1.00D-05.
 RLE energy=       -0.0504806129
 DE(Corr)= -0.50478366E-01 E(CORR)=     -840.09001506     Delta= 5.02D-06
 NORM(A)=   0.11507565D+01
 Iteration Nr.  18
 **********************
 DD1Dir will call FoFMem   1 times, MxPair=        14
 NAB=     4 NAA=     6 NBB=     0.
 A-vector RMS=  1.7795016D-05 Max=  1.9960692D-05 conv= 1.00D-05.
 RLE energy=       -0.0504784455
 DE(Corr)= -0.50479311E-01 E(CORR)=     -840.09001601     Delta=-9.44D-07
 NORM(A)=   0.11507803D+01
 Iteration Nr.  19
 **********************
 DD1Dir will call FoFMem   1 times, MxPair=        14
 NAB=     4 NAA=     6 NBB=     0.
 A-vector RMS=  1.0637814D-05 Max=  1.5856654D-05 conv= 1.00D-05.
 RLE energy=       -0.0504809643
 DE(Corr)= -0.50478323E-01 E(CORR)=     -840.09001502     Delta= 9.88D-07
 NORM(A)=   0.11508088D+01
 Iteration Nr.  20
 **********************
 DD1Dir will call FoFMem   1 times, MxPair=        14
 NAB=     4 NAA=     6 NBB=     0.
 A-vector RMS=  6.8607772D-06 Max=  1.5454143D-05 conv= 1.00D-05.
 RLE energy=       -0.0504787440
 DE(Corr)= -0.50480440E-01 E(CORR)=     -840.09001714     Delta=-2.12D-06
 NORM(A)=   0.11507877D+01
 Iteration Nr.  21
 **********************
 DD1Dir will call FoFMem   1 times, MxPair=        14
 NAB=     4 NAA=     6 NBB=     0.
 A-vector RMS=  5.9076953D-06 Max=  1.1067583D-05 conv= 1.00D-05.
 RLE energy=       -0.0504826719
 DE(Corr)= -0.50479074E-01 E(CORR)=     -840.09001577     Delta= 1.37D-06
 NORM(A)=   0.11508178D+01
 Iteration Nr.  22
 **********************
 DD1Dir will call FoFMem   1 times, MxPair=        14
 NAB=     4 NAA=     6 NBB=     0.
 A-vector RMS=  5.4320519D-06 Max=  7.0796836D-06 conv= 1.00D-05.
 RLE energy=       -0.0504789600
 DE(Corr)= -0.50481720E-01 E(CORR)=     -840.09001842     Delta=-2.65D-06
 NORM(A)=   0.11507981D+01
 Iteration Nr.  23
 **********************
 DD1Dir will call FoFMem   1 times, MxPair=        14
 NAB=     4 NAA=     6 NBB=     0.
 A-vector RMS=  4.5858932D-06 Max=  6.0287705D-06 conv= 1.00D-05.
 RLE energy=       -0.0504827531
 DE(Corr)= -0.50479258E-01 E(CORR)=     -840.09001595     Delta= 2.46D-06
 NORM(A)=   0.11508180D+01
 Iteration Nr.  24
 **********************
 DD1Dir will call FoFMem   1 times, MxPair=        14
 NAB=     4 NAA=     6 NBB=     0.
 A-vector RMS=  3.2719574D-06 Max=  4.0733714D-06 conv= 1.00D-05.
 RLE energy=       -0.0504794459
 DE(Corr)= -0.50481770E-01 E(CORR)=     -840.09001847     Delta=-2.51D-06
 NORM(A)=   0.11507953D+01
 Iteration Nr.  25
 **********************
 DD1Dir will call FoFMem   1 times, MxPair=        14
 NAB=     4 NAA=     6 NBB=     0.
 A-vector RMS=  1.6602267D-06 Max=  1.9418247D-06 conv= 1.00D-05.
 RLE energy=       -0.0504806588
 DE(Corr)= -0.50479627E-01 E(CORR)=     -840.09001632     Delta= 2.14D-06
 NORM(A)=   0.11507985D+01
 Iteration Nr.  26
 **********************
 DD1Dir will call FoFMem   1 times, MxPair=        14
 NAB=     4 NAA=     6 NBB=     0.
 A-vector RMS=  1.2317093D-06 Max=  1.5182964D-06 conv= 1.00D-05.
 RLE energy=       -0.0504795775
 DE(Corr)= -0.50480412E-01 E(CORR)=     -840.09001711     Delta=-7.85D-07
 NORM(A)=   0.11507901D+01
 Iteration Nr.  27
 **********************
 DD1Dir will call FoFMem   1 times, MxPair=        14
 NAB=     4 NAA=     6 NBB=     0.
 A-vector RMS=  7.5177197D-07 Max=  9.8689661D-07 conv= 1.00D-05.
 RLE energy=       -0.0504799907
 DE(Corr)= -0.50479655E-01 E(CORR)=     -840.09001635     Delta= 7.57D-07
 NORM(A)=   0.11507923D+01
 Iteration Nr.  28
 **********************
 DD1Dir will call FoFMem   1 times, MxPair=        14
 NAB=     4 NAA=     6 NBB=     0.
 A-vector RMS=  5.3033420D-07 Max=  7.0671960D-07 conv= 1.00D-05.
 RLE energy=       -0.0504793922
 DE(Corr)= -0.50479891E-01 E(CORR)=     -840.09001659     Delta=-2.37D-07
 NORM(A)=   0.11507894D+01
 Iteration Nr.  29
 **********************
 DD1Dir will call FoFMem   1 times, MxPair=        14
 NAB=     4 NAA=     6 NBB=     0.
 A-vector RMS=  3.0977630D-07 Max=  4.5926459D-07 conv= 1.00D-05.
 RLE energy=       -0.0504797486
 DE(Corr)= -0.50479506E-01 E(CORR)=     -840.09001620     Delta= 3.85D-07
 NORM(A)=   0.11507923D+01
 Iteration Nr.  30
 **********************
 DD1Dir will call FoFMem   1 times, MxPair=        14
 NAB=     4 NAA=     6 NBB=     0.
 A-vector RMS=  1.4481951D-07 Max=  2.4561651D-07 conv= 1.00D-05.
 RLE energy=       -0.0504797182
 DE(Corr)= -0.50479762E-01 E(CORR)=     -840.09001646     Delta=-2.56D-07
 NORM(A)=   0.11507925D+01
 Iteration Nr.  31
 **********************
 DD1Dir will call FoFMem   1 times, MxPair=        14
 NAB=     4 NAA=     6 NBB=     0.
 A-vector RMS=  9.0015177D-08 Max=  1.6672959D-07 conv= 1.00D-05.
 RLE energy=       -0.0504798321
 DE(Corr)= -0.50479751E-01 E(CORR)=     -840.09001645     Delta= 1.07D-08
 NORM(A)=   0.11507935D+01
 CI/CC converged in   31 iterations to DelEn= 1.07D-08 Conv= 1.00D-07 ErrA1= 9.00D-08 Conv= 1.00D-05
 Wavefunction amplitudes converged. E(Corr)=     -840.09001645    
 Dominant configurations:
 ***********************
 Spin Case        I    J    A    B          Value
    AA           12        14           -0.116610D+00
    AA           13        15           -0.116610D+00
   AAAA          12   13   16   17      -0.377994D+00
   ABAB          10   10   19   11       0.105036D+00
   ABAB          11   10   14   12      -0.115127D+00
   ABAB          11   10   15   13      -0.115127D+00
 Largest amplitude= 3.78D-01

 S**2, projected HF & approx projected MPn energies after annihilation of
 unwanted spin states (see manual for definitions):

 spins       (S**2,0) (S**2,1)    PUHF        PMP2        PMP3        PMP4
 annihilated
 s+1         3.74992  3.74995 -840.046261 -840.061331 -840.069600

 Discarding MO integrals.
 Leave Link  913 at Fri Mar 25 14:39:09 2022, MaxMem=  9663676416 cpu:              10.3 elap:               0.3
 (Enter /nopt/nrel/apps/gaussian/g16C_1/g16/l601.exe)
 Copying SCF densities to generalized density rwf, IOpCl= 1 IROHF=0.

 **********************************************************************

            Population analysis using the SCF Density.

 **********************************************************************

 Orbital symmetries:
 Alpha Orbitals:
       Occupied  (SG) (SG) (PI) (PI) (SG) (SG) (SG) (PI) (PI) (SG)
                 (SG) (PI) (PI)
       Virtual   (PI) (PI) (DLTA) (DLTA) (SG) (SG)
 Beta  Orbitals:
       Occupied  (SG) (SG) (PI) (PI) (SG) (SG) (PI) (PI) (SG) (SG)
       Virtual   (SG) (PI) (PI) (DLTA) (DLTA) (SG) (PI) (PI) (SG)
 The electronic state is 4-SG.
 Alpha  occ. eigenvalues -- -181.59219 -21.36379 -17.94790 -17.94790 -17.94190
 Alpha  occ. eigenvalues --   -2.98074  -1.92849  -1.91539  -1.91539  -0.41759
 Alpha  occ. eigenvalues --   -0.20844  -0.13404  -0.13404
 Alpha virt. eigenvalues --    0.27305   0.27305   0.30543   0.30543   0.31250
 Alpha virt. eigenvalues --    0.36936
  Beta  occ. eigenvalues -- -181.59087 -21.35899 -17.94431 -17.94431 -17.93904
  Beta  occ. eigenvalues --   -2.90693  -1.84124  -1.84124  -1.80195  -0.17761
  Beta virt. eigenvalues --    0.23132   0.30664   0.30664   0.36494   0.36494
  Beta virt. eigenvalues --    0.40858   0.42027   0.42027   0.45232
          Condensed to atoms (all electrons):
               1          2
     1  H    1.017767   0.076522
     2  Ti   0.076522  21.829189
          Atomic-Atomic Spin Densities.
               1          2
     1  H    0.847716  -0.031872
     2  Ti  -0.031872   2.216028
 Mulliken charges and spin densities:
               1          2
     1  H   -0.094289   0.815844
     2  Ti   0.094289   2.184156
 Sum of Mulliken charges =   0.00000   3.00000
 Mulliken charges and spin densities with hydrogens summed into heavy atoms:
               1          2
     2  Ti   0.000000   3.000000
 N-N= 4.477653323169D+00 E-N=-1.993716587880D+03  KE= 8.364565051301D+02
 Symmetry A1   KE= 6.595788390443D+02
 Symmetry A2   KE=-4.971465522338D-52
 Symmetry B1   KE= 8.843883304290D+01
 Symmetry B2   KE= 8.843883304290D+01
 Symmetry A1   SP= 1.000000000000D+00
 Symmetry A2   SP= 5.268183343371D-52
 Symmetry B1   SP= 1.000000000000D+00
 Symmetry B2   SP= 1.000000000000D+00

 Atomic contributions to Alpha molecular orbitals:
 Alpha occ 1 OE=-181.592 is Ti2-s=1.0000
 Alpha occ 2 OE=-21.364 is Ti2-s=1.0000
 Alpha occ 3 OE=-17.948 is Ti2-p=1.0000
 Alpha occ 4 OE=-17.948 is Ti2-p=1.0000
 Alpha occ 5 OE=-17.942 is Ti2-p=1.0000
 Alpha occ 6 OE=-2.981 is Ti2-s=0.9999
 Alpha occ 7 OE=-1.928 is Ti2-p=0.9999
 Alpha occ 8 OE=-1.915 is Ti2-p=0.9999
 Alpha occ 9 OE=-1.915 is Ti2-p=0.9999
 Alpha occ 10 OE=-0.418 is H1-s=0.9238
 Alpha occ 11 OE=-0.208 is Ti2-s=0.8904
 Alpha occ 12 OE=-0.134 is Ti2-d=0.8625 Ti2-p=0.1375
 Alpha occ 13 OE=-0.134 is Ti2-d=0.8625 Ti2-p=0.1375
 Alpha vir 14 OE=0.273 is Ti2-p=0.8626 Ti2-d=0.1374
 Alpha vir 15 OE=0.273 is Ti2-p=0.8626 Ti2-d=0.1374
 Alpha vir 16 OE=0.305 is Ti2-d=1.0000
 Alpha vir 17 OE=0.305 is Ti2-d=1.0000
 Alpha vir 18 OE=0.312 is Ti2-p=0.7553 Ti2-d=0.1918
 Alpha vir 19 OE=0.369 is Ti2-d=0.7969 Ti2-p=0.1534

 Atomic contributions to Beta  molecular orbitals:
 Beta  occ 1 OE=-181.591 is Ti2-s=1.0000
 Beta  occ 2 OE=-21.359 is Ti2-s=1.0000
 Beta  occ 3 OE=-17.944 is Ti2-p=1.0000
 Beta  occ 4 OE=-17.944 is Ti2-p=1.0000
 Beta  occ 5 OE=-17.939 is Ti2-p=1.0000
 Beta  occ 6 OE=-2.907 is Ti2-s=0.9998
 Beta  occ 7 OE=-1.841 is Ti2-p=0.9999
 Beta  occ 8 OE=-1.841 is Ti2-p=0.9999
 Beta  occ 9 OE=-1.802 is Ti2-p=0.9998
 Beta  occ 10 OE=-0.178 is Ti2-s=0.7205 H1-s=0.1392 Ti2-p=0.1330
 Beta  vir 11 OE=0.231 is H1-s=0.4256 Ti2-s=0.2639 Ti2-p=0.1899 Ti2-d=0.1206
 Beta  vir 12 OE=0.307 is Ti2-p=0.8549 Ti2-d=0.1451
 Beta  vir 13 OE=0.307 is Ti2-p=0.8549 Ti2-d=0.1451
 Beta  vir 14 OE=0.365 is Ti2-d=1.0000
 Beta  vir 15 OE=0.365 is Ti2-d=1.0000
 Beta  vir 16 OE=0.409 is Ti2-d=0.7823 Ti2-p=0.1952
 Beta  vir 17 OE=0.420 is Ti2-d=0.8549 Ti2-p=0.1451
 Beta  vir 18 OE=0.420 is Ti2-d=0.8549 Ti2-p=0.1451
 Beta  vir 19 OE=0.452 is Ti2-p=0.4820 H1-s=0.4302
 
 Leave Link  601 at Fri Mar 25 14:39:09 2022, MaxMem=  9663676416 cpu:               3.9 elap:               0.2
 (Enter /nopt/nrel/apps/gaussian/g16C_1/g16/l9999.exe)

 Test job not archived.
 1\1\GINC-R3I7N35\SP\UCCSD-FC\Gen\H1Ti1(4)\USER\25-Mar-2022\0\\#P C
 CSD/GEN sp pop=AllOrbitals iop(3/33=1,3/36=-1)\\test\\0,4\H,0,0.,0.,0.
 \Ti,0,0.,0.,2.6\\Version=ES64L-G16RevC.01\State=4-SG\HF=-840.0395367\M
 P2=-840.0555189\MP3=-840.0648415\MP4D=-840.0706805\MP4DQ=-840.0704473\
 PUHF=-840.0462609\PMP2-0=-840.0613306\PMP3-0=-840.0695999\MP4SDQ=-840.
 0708234\CCSD=-840.0900164\S2=3.961091\S2-1=3.903775\S2A=3.750115\RMSD=
 1.638e-09\PG=C*V [C*(H1Ti1)]\\@


 YOU KNOW YOU'VE SPOKEN TOO LONG WHEN THE AUDIENCE STOPS LOOKING AT
 THEIR WATCHES AND STARTS SHAKING THEM.
 Job cpu time:       0 days  0 hours  0 minutes 54.3 seconds.
 Elapsed time:       0 days  0 hours  0 minutes  1.9 seconds.
 File lengths (MBytes):  RWF=     13 Int=      0 D2E=      0 Chk=      1 Scr=      1
 Normal termination of Gaussian 16 at Fri Mar 25 14:39:09 2022.
