 Entering Gaussian System, Link 0=g16
 Initial command:
 /nopt/nrel/apps/gaussian/g16C_1/g16/l1.exe "/lustre/eaglefs/scratch/user/qc/tih-dissc-sto3g/tih-2-ccsd-2.2-ccd/Gau-225200.inp" -scrdir="/lustre/eaglefs/scratch/user/qc/tih-dissc-sto3g/tih-2-ccsd-2.2-ccd/"
 Default is to use a total of  36 processors:
                               36 via shared-memory
                                1 via Linda
 Entering Link 1 = /nopt/nrel/apps/gaussian/g16C_1/g16/l1.exe PID=    225201.
  
 Copyright (c) 1988-2019, Gaussian, Inc.  All Rights Reserved.
  
 This is part of the Gaussian(R) 16 program.  It is based on
 the Gaussian(R) 09 system (copyright 2009, Gaussian, Inc.),
 the Gaussian(R) 03 system (copyright 2003, Gaussian, Inc.),
 the Gaussian(R) 98 system (copyright 1998, Gaussian, Inc.),
 the Gaussian(R) 94 system (copyright 1995, Gaussian, Inc.),
 the Gaussian 92(TM) system (copyright 1992, Gaussian, Inc.),
 the Gaussian 90(TM) system (copyright 1990, Gaussian, Inc.),
 the Gaussian 88(TM) system (copyright 1988, Gaussian, Inc.),
 the Gaussian 86(TM) system (copyright 1986, Carnegie Mellon
 University), and the Gaussian 82(TM) system (copyright 1983,
 Carnegie Mellon University). Gaussian is a federally registered
 trademark of Gaussian, Inc.
  
 This software contains proprietary and confidential information,
 including trade secrets, belonging to Gaussian, Inc.
  
 This software is provided under written license and may be
 used, copied, transmitted, or stored only in accord with that
 written license.
  
 The following legend is applicable only to US Government
 contracts under FAR:
  
                    RESTRICTED RIGHTS LEGEND
  
 Use, reproduction and disclosure by the US Government is
 subject to restrictions as set forth in subparagraphs (a)
 and (c) of the Commercial Computer Software - Restricted
 Rights clause in FAR 52.227-19.
  
 Gaussian, Inc.
 340 Quinnipiac St., Bldg. 40, Wallingford CT 06492
  
  
 ---------------------------------------------------------------
 Warning -- This program may not be used in any manner that
 competes with the business of Gaussian, Inc. or will provide
 assistance to any competitor of Gaussian, Inc.  The licensee
 of this program is prohibited from giving any competitor of
 Gaussian, Inc. access to this program.  By using this program,
 the user acknowledges that Gaussian, Inc. is engaged in the
 business of creating and licensing software in the field of
 computational chemistry and represents and warrants to the
 licensee that it is not a competitor of Gaussian, Inc. and that
 it will not use this program in any manner prohibited above.
 ---------------------------------------------------------------
  

 Cite this work as:
 Gaussian 16, Revision C.01,
 M. J. Frisch, G. W. Trucks, H. B. Schlegel, G. E. Scuseria, 
 M. A. Robb, J. R. Cheeseman, G. Scalmani, V. Barone, 
 G. A. Petersson, H. Nakatsuji, X. Li, M. Caricato, A. V. Marenich, 
 J. Bloino, B. G. Janesko, R. Gomperts, B. Mennucci, H. P. Hratchian, 
 J. V. Ortiz, A. F. Izmaylov, J. L. Sonnenberg, D. Williams-Young, 
 F. Ding, F. Lipparini, F. Egidi, J. Goings, B. Peng, A. Petrone, 
 T. Henderson, D. Ranasinghe, V. G. Zakrzewski, J. Gao, N. Rega, 
 G. Zheng, W. Liang, M. Hada, M. Ehara, K. Toyota, R. Fukuda, 
 J. Hasegawa, M. Ishida, T. Nakajima, Y. Honda, O. Kitao, H. Nakai, 
 T. Vreven, K. Throssell, J. A. Montgomery, Jr., J. E. Peralta, 
 F. Ogliaro, M. J. Bearpark, J. J. Heyd, E. N. Brothers, K. N. Kudin, 
 V. N. Staroverov, T. A. Keith, R. Kobayashi, J. Normand, 
 K. Raghavachari, A. P. Rendell, J. C. Burant, S. S. Iyengar, 
 J. Tomasi, M. Cossi, J. M. Millam, M. Klene, C. Adamo, R. Cammi, 
 J. W. Ochterski, R. L. Martin, K. Morokuma, O. Farkas, 
 J. B. Foresman, and D. J. Fox, Gaussian, Inc., Wallingford CT, 2019.
 
 ******************************************
 Gaussian 16:  ES64L-G16RevC.01  3-Jul-2019
                28-Mar-2022 
 ******************************************
 %chk=molecule
 Default route: CacheSize=180224 MaxDisk=256GB
 --------------------------------------------------------------
 #P CCSD(MaxCyc=200)/GEN sp pop=AllOrbitals iop(3/33=1,3/36=-1)
 --------------------------------------------------------------
 1/4=180224,38=1,172=1/1;
 2/4=180224,12=2,17=6,18=5,40=1/2;
 3/4=180224,5=7,11=9,25=1,30=1,33=1,36=-1/1,2,3;
 4/4=180224/1;
 5/4=180224,5=2,38=5/2;
 8/4=180224,6=4,9=120000,10=1/1,4;
 9/4=180224,5=7,6=200/13;
 6/4=180224,7=2,8=2,9=2,10=2,96=-1/1;
 99/4=180224,5=1,9=1/99;
 Leave Link    1 at Mon Mar 28 09:59:46 2022, MaxMem=           0 cpu:               3.5 elap:               0.1
 (Enter /nopt/nrel/apps/gaussian/g16C_1/g16/l101.exe)
 ----
 test
 ----
 Symbolic Z-matrix:
 Charge =  0 Multiplicity = 2
 H                     0.        0.        0. 
 Ti                    0.        0.        2.2 
 
 ITRead=  0  0
 MicOpt= -1 -1
 NAtoms=      2 NQM=        2 NQMF=       0 NMMI=      0 NMMIF=      0
                NMic=       0 NMicF=      0.
                    Isotopes and Nuclear Properties:
 (Nuclear quadrupole moments (NQMom) in fm**2, nuclear magnetic moments (NMagM)
  in nuclear magnetons)

  Atom         1           2
 IAtWgt=           1          48
 AtmWgt=   1.0078250  47.9479467
 NucSpn=           1           0
 AtZEff=  -0.0000000  -0.0000000
 NQMom=    0.0000000   0.0000000
 NMagM=    2.7928460   0.0000000
 AtZNuc=   1.0000000  22.0000000
 Leave Link  101 at Mon Mar 28 09:59:47 2022, MaxMem=  9663676416 cpu:               2.6 elap:               0.1
 (Enter /nopt/nrel/apps/gaussian/g16C_1/g16/l202.exe)
                          Input orientation:                          
 ---------------------------------------------------------------------
 Center     Atomic      Atomic             Coordinates (Angstroms)
 Number     Number       Type             X           Y           Z
 ---------------------------------------------------------------------
      1          1           0        0.000000    0.000000    0.000000
      2         22           0        0.000000    0.000000    2.200000
 ---------------------------------------------------------------------
 Stoichiometry    HTi(2)
 Framework group  C*V[C*(HTi)]
 Deg. of freedom     1
 Full point group                 C*V     NOp   4
 Largest Abelian subgroup         C2V     NOp   4
 Largest concise Abelian subgroup C1      NOp   1
                         Standard orientation:                         
 ---------------------------------------------------------------------
 Center     Atomic      Atomic             Coordinates (Angstroms)
 Number     Number       Type             X           Y           Z
 ---------------------------------------------------------------------
      1          1           0        0.000000    0.000000   -2.104348
      2         22           0        0.000000    0.000000    0.095652
 ---------------------------------------------------------------------
 Rotational constants (GHZ):           0.0000000         105.7841455         105.7841455
 Leave Link  202 at Mon Mar 28 09:59:47 2022, MaxMem=  9663676416 cpu:               0.6 elap:               0.0
 (Enter /nopt/nrel/apps/gaussian/g16C_1/g16/l301.exe)
 General basis read from cards:  (5D, 7F)
                         Coordinates in L301:                         
 ---------------------------------------------------------------------
 Center     Atomic      Atomic             Coordinates (Angstroms)
 Number     Number       Type             X           Y           Z
 ---------------------------------------------------------------------
      1          1           0        0.000000    0.000000   -2.104348
      2         22           0        0.000000    0.000000    0.095652
 ---------------------------------------------------------------------
 Centers:       1
 STO-3G
 ****
 Centers:       2
 cc-pVDZ
 ****
 FixB: optimizing general contractions.
 Ernie: Thresh=  0.10000D-02 Tol=  0.10000D-05 Strict=F.
 IA=     1 ShT= 0 ShC= 0 NL=   1 NS=   0.
 IA=     1 L=0 SC=0 ISt=    0 NBk=    0 NP=    0 IndPr=    0.
 IA=     2 ShT= 0 ShC= 0 NL=   6 NS=   1.
 IA=     2 L=0 SC=0 ISt=    1 NBk=    5 NP=   20 IndPr=    0.
 DoElim1:  L=0 select primitive    4 from    2 using    1 C= 1.39D-03
 DoElim1:  L=0 select primitive    4 from    3 using    1 C= 1.39D-03
 DoElim1:  L=0 select primitive    4 from    4 using    1 C= 1.39D-03
 DoElim1:  L=0 select primitive    4 from    5 using    1 C= 1.39D-03
 DoElim1:  L=0 select primitive    8 from    3 using    2 C=-3.89D-03
 DoElim1:  L=0 select primitive    8 from    4 using    2 C=-3.89D-03
 DoElim1:  L=0 select primitive    8 from    5 using    2 C=-3.89D-03
 DoElim1:  L=0 select primitive   11 from    3 using    5 C= 1.17D-02
 DoElim1:  L=0 select primitive   11 from    4 using    5 C= 1.17D-02
 DoElim1:  L=0 select primitive   13 from    4 using    3 C=-8.51D-02
 DoElim2:  L=0 select primitive   19 from    3 using    4 C= 5.74D-01
 DoElim2:  L=0 select primitive   19 from    5 using    4 C= 5.74D-01
 DoElim2:  L=0 select primitive   19 from    2 using    4 C= 5.74D-01
 DoElim2:  L=0 select primitive   19 from    1 using    4 C= 5.74D-01
 DoElim2:  L=0 select primitive   16 from    5 using    3 C= 9.20D-01
 DoElim2:  L=0 select primitive   16 from    2 using    3 C= 9.20D-01
 DoElim2:  L=0 select primitive   16 from    1 using    3 C= 9.20D-01
 DoElim2:  L=0 select primitive   18 from    2 using    5 C= 2.21D+00
 DoElim2:  L=0 select primitive   18 from    1 using    5 C= 2.21D+00
 DoElim2:  L=0 select primitive   14 from    1 using    2 C= 5.61D-01
 DoElim:  L=0 eliminating redundant primitive   20        0.025465 from    1
 DoElim:  L=0 eliminating redundant primitive   20        0.025465 from    2
 DoElim:  L=0 eliminating redundant primitive   20        0.025465 from    3
 DoElim:  L=0 eliminating redundant primitive   20        0.025465 from    4
 DoElim:  L=0 eliminating redundant primitive   20        0.025465 from    5
 Delete L=0 primitive   20 from    5 C=  0.00D+00.
 Delete L=0 primitive   19 from    5 C=  1.06D-16.
 Delete L=0 primitive   16 from    5 C=  8.35D-17.
 Delete L=0 primitive    8 from    5 C=  4.74D-20.
 Delete L=0 primitive    4 from    5 C=  4.08D-21.
 Delete L=0 primitive    3 from    5 C=  5.15D-07.
 Delete L=0 primitive    2 from    5 C=  2.27D-08.
 Delete L=0 primitive    1 from    5 C=  9.55D-09.
 Delete L=0 primitive   20 from    4 C=  0.00D+00.
 Delete L=0 primitive   13 from    4 C=  1.29D-19.
 Delete L=0 primitive   11 from    4 C=  2.99D-20.
 Delete L=0 primitive    8 from    4 C=  1.24D-20.
 Delete L=0 primitive    7 from    4 C=  4.43D-07.
 Delete L=0 primitive    6 from    4 C=  1.27D-08.
 Delete L=0 primitive    5 from    4 C=  3.14D-08.
 Delete L=0 primitive    4 from    4 C=  2.49D-21.
 Delete L=0 primitive    3 from    4 C=  1.55D-09.
 Delete L=0 primitive    2 from    4 C=  6.75D-11.
 Delete L=0 primitive    1 from    4 C=  2.88D-11.
 Delete L=0 primitive   20 from    3 C=  0.00D+00.
 Delete L=0 primitive   19 from    3 C=  1.53D-17.
 Delete L=0 primitive   11 from    3 C=  7.09D-20.
 Delete L=0 primitive    8 from    3 C=  2.65D-20.
 Delete L=0 primitive    4 from    3 C=  2.52D-20.
 Delete L=0 primitive    3 from    3 C=  1.58D-07.
 Delete L=0 primitive    2 from    3 C=  6.88D-09.
 Delete L=0 primitive    1 from    3 C=  2.93D-09.
 Delete L=0 primitive   20 from    2 C=  0.00D+00.
 Delete L=0 primitive   19 from    2 C=  2.91D-19.
 Delete L=0 primitive   18 from    2 C=  6.20D-20.
 Delete L=0 primitive   16 from    2 C=  4.25D-19.
 Delete L=0 primitive    4 from    2 C=  7.32D-20.
 Delete L=0 primitive    3 from    2 C=  1.41D-07.
 Delete L=0 primitive    2 from    2 C=  3.76D-08.
 Delete L=0 primitive    1 from    2 C=  4.97D-09.
 Delete L=0 primitive   20 from    1 C=  0.00D+00.
 Delete L=0 primitive   19 from    1 C=  3.58D-20.
 Delete L=0 primitive   18 from    1 C=  2.69D-21.
 Delete L=0 primitive   16 from    1 C=  3.10D-20.
 Delete L=0 primitive   14 from    1 C=  5.49D-19.
 IA=     2 L=0 SC=0 ISt=    0 NBk=    0 NP=    0 IndPr=   60.
 IA=     2 ShT= 1 ShC= 1 NL=   5 NS=   1.
 IA=     2 L=1 SC=1 ISt=    1 NBk=    4 NP=   16 IndPr=    0.
 DoElim1:  L=1 select primitive    3 from    2 using    1 C= 2.25D-03
 DoElim1:  L=1 select primitive    3 from    3 using    1 C= 2.25D-03
 DoElim1:  L=1 select primitive    3 from    4 using    1 C= 2.25D-03
 DoElim1:  L=1 select primitive    6 from    3 using    2 C=-1.46D-03
 DoElim1:  L=1 select primitive    6 from    4 using    2 C=-1.46D-03
 DoElim1:  L=1 select primitive    9 from    3 using    4 C=-2.24D-03
 DoElim2:  L=1 select primitive   15 from    4 using    3 C= 9.82D-01
 DoElim2:  L=1 select primitive   15 from    2 using    3 C= 9.82D-01
 DoElim2:  L=1 select primitive   15 from    1 using    3 C= 9.82D-01
 DoElim2:  L=1 select primitive   16 from    2 using    4 C=-1.67D-01
 DoElim2:  L=1 select primitive   16 from    1 using    4 C=-1.67D-01
 DoElim2:  L=1 select primitive   12 from    1 using    2 C= 4.62D-01
 DoElim:  L=1 eliminating redundant primitive   16        0.029401 from    1
 DoElim:  L=1 eliminating redundant primitive   16        0.029401 from    2
 DoElim:  L=1 eliminating redundant primitive   16        0.029401 from    3
 DoElim:  L=1 eliminating redundant primitive   16        0.029401 from    4
 Delete L=1 primitive   16 from    4 C=  0.00D+00.
 Delete L=1 primitive   15 from    4 C=  5.44D-18.
 Delete L=1 primitive    6 from    4 C=  1.08D-20.
 Delete L=1 primitive    3 from    4 C=  1.02D-21.
 Delete L=1 primitive    2 from    4 C=  6.07D-07.
 Delete L=1 primitive    1 from    4 C=  5.39D-07.
 Delete L=1 primitive   16 from    3 C=  0.00D+00.
 Delete L=1 primitive    9 from    3 C=  2.49D-20.
 Delete L=1 primitive    6 from    3 C=  1.35D-20.
 Delete L=1 primitive    4 from    3 C=  8.39D-07.
 Delete L=1 primitive    3 from    3 C=  1.18D-21.
 Delete L=1 primitive    2 from    3 C=  3.85D-07.
 Delete L=1 primitive    1 from    3 C=  1.23D-07.
 Delete L=1 primitive   16 from    2 C=  0.00D+00.
 Delete L=1 primitive   15 from    2 C=  4.51D-20.
 Delete L=1 primitive    3 from    2 C=  4.45D-21.
 Delete L=1 primitive    2 from    2 C=  3.29D-07.
 Delete L=1 primitive    1 from    2 C=  2.32D-07.
 Delete L=1 primitive   16 from    1 C=  0.00D+00.
 Delete L=1 primitive   15 from    1 C=  1.95D-23.
 Delete L=1 primitive   12 from    1 C=  4.81D-20.
 IA=     2 L=1 SC=1 ISt=    0 NBk=    0 NP=    0 IndPr=   43.
 IA=     2 ShT= 2 ShC= 2 NL=   3 NS=   1.
 IA=     2 L=2 SC=2 ISt=    1 NBk=    2 NP=    8 IndPr=    0.
 DoElim1:  L=2 select primitive    1 from    1 using    2 C=-3.97D-03
 DoElim2:  L=2 select primitive    7 from    2 using    1 C= 8.24D-01
 DoElim:  L=2 eliminating redundant primitive    8        0.051884 from    1
 DoElim:  L=2 eliminating redundant primitive    8        0.051884 from    2
 Delete L=2 primitive    8 from    2 C=  0.00D+00.
 Delete L=2 primitive    7 from    2 C=  3.53D-17.
 Delete L=2 primitive    8 from    1 C=  0.00D+00.
 Delete L=2 primitive    1 from    1 C=  6.00D-20.
 IA=     2 L=2 SC=2 ISt=    0 NBk=    0 NP=    0 IndPr=   12.
 IA=     2 ShT= 3 ShC= 3 NL=   1 NS=   0.
 IA=     2 L=3 SC=3 ISt=    0 NBk=    0 NP=    0 IndPr=    0.
 Ernie:  65 primitive shells out of 188 were deleted.
 LdAtmC:  AtmChg=     1.000000    22.000000
 AtZEff=     -1.0000000    -23.9800000
 NEqShl: 
              1            2            3            4
     1            1            1            1            1
     2            2            2            2            2
     3            3            3            3            3
     4            4            4            4            4
     5            5            5            5            5
     6            6            6            6            6
     7            7            7            7            7
     8            8            8            8            8
     9            9            9            9            9
    10           10           10           10           10
    11           11           11           11           11
    12           12           12           12           12
    13           13           13           13           13
    14           14           14           14           14
    15           15           15           15           15
    16           16           16           16           16
 NEqBas: 
              1            2            3            4
     1            1            1            1            1
     2            2            2            2            2
     3            3            3            3            3
     4            4            4            4            4
     5            5            5            5            5
     6            6            6            6            6
     7            7            7            7            7
     8            8           -8           -8            8
     9            9           -9            9           -9
    10           10           10           10           10
    11           11          -11          -11           11
    12           12          -12           12          -12
    13           13           13           13           13
    14           14          -14          -14           14
    15           15          -15           15          -15
    16           16           16           16           16
    17           17          -17          -17           17
    18           18          -18           18          -18
    19           19           19           19           19
    20           20          -20          -20           20
    21           21          -21           21          -21
    22           22           22           22           22
    23           23           23           23           23
    24           24           24           24           24
    25           25           25           25           25
    26           26           26          -26          -26
    27           27          -27          -27           27
    28           28          -28           28          -28
    29           29           29           29           29
    30           30           30           30           30
    31           31           31           31           31
    32           32           32          -32          -32
    33           33          -33          -33           33
    34           34          -34           34          -34
    35           35           35           35           35
    36           36           36           36           36
    37           37           37           37           37
    38           38           38          -38          -38
    39           39          -39          -39           39
    40           40          -40           40          -40
    41           41          -41          -41           41
    42           42          -42           42          -42
    43           43           43           43           43
    44           44          -44          -44           44
    45           45          -45           45          -45
    46           46           46           46           46
    47           47          -47          -47           47
    48           48          -48           48          -48
    49           49           49           49           49
    50           50           50          -50          -50
 There are    24 symmetry adapted cartesian basis functions of A1  symmetry.
   1         1   1   1   1
   2         2   2   2   2
   3         3   3   3   3
   4         4   4   4   4
   5         5   5   5   5
   6         6   6   6   6
   7         7   7   7   7
   8        10  10  10  10
   9        13  13  13  13
  10        16  16  16  16
  11        19  19  19  19
  12        22  22  22  22
  13        23  23  23  23
  14        24  24  24  24
  15        25  25  25  25
  16        29  29  29  29
  17        30  30  30  30
  18        31  31  31  31
  19        35  35  35  35
  20        36  36  36  36
  21        37  37  37  37
  22        43  43  43  43
  23        46  46  46  46
  24        49  49  49  49
 There are     4 symmetry adapted cartesian basis functions of A2  symmetry.
  25        26  26  26  26
  26        32  32  32  32
  27        38  38  38  38
  28        50  50  50  50
 There are    11 symmetry adapted cartesian basis functions of B1  symmetry.
  29         8   8   8   8
  30        11  11  11  11
  31        14  14  14  14
  32        17  17  17  17
  33        20  20  20  20
  34        27  27  27  27
  35        33  33  33  33
  36        39  39  39  39
  37        41  41  41  41
  38        44  44  44  44
  39        47  47  47  47
 There are    11 symmetry adapted cartesian basis functions of B2  symmetry.
  40         9   9   9   9
  41        12  12  12  12
  42        15  15  15  15
  43        18  18  18  18
  44        21  21  21  21
  45        28  28  28  28
  46        34  34  34  34
  47        40  40  40  40
  48        42  42  42  42
  49        45  45  45  45
  50        48  48  48  48
 Order= 1 2 4 3
 Reordered character table:
              1            2            3            4            5
     1            1            1            1            1            1
     2            2            1            1           -1           -1
     3            4            1           -1           -1            1
     4            3            1           -1            1           -1
 NEqShl: 
              1            2            3            4
     1            1            1            1            1
     2            2            2            2            2
     3            3            3            3            3
     4            4            4            4            4
     5            5            5            5            5
     6            6            6            6            6
     7            7            7            7            7
     8            8            8            8            8
     9            9            9            9            9
    10           10           10           10           10
    11           11           11           11           11
    12           12           12           12           12
    13           13           13           13           13
    14           14           14           14           14
    15           15           15           15           15
    16           16           16           16           16
 NEqBas: 
              1            2            3            4
     1            1            1            1            1
     2            2            2            2            2
     3            3            3            3            3
     4            4            4            4            4
     5            5            5            5            5
     6            6            6            6            6
     7            7            7            7            7
     8            8           -8           -8            8
     9            9           -9            9           -9
    10           10           10           10           10
    11           11          -11          -11           11
    12           12          -12           12          -12
    13           13           13           13           13
    14           14          -14          -14           14
    15           15          -15           15          -15
    16           16           16           16           16
    17           17          -17          -17           17
    18           18          -18           18          -18
    19           19           19           19           19
    20           20          -20          -20           20
    21           21          -21           21          -21
    22           22           22           22           22
    23           23           23           23           23
    24           24          -24          -24           24
    25           25          -25           25          -25
    26           26           26           26           26
    27           27           27          -27          -27
    28           28           28           28           28
    29           29          -29          -29           29
    30           30          -30           30          -30
    31           31           31           31           31
    32           32           32          -32          -32
    33           33           33           33           33
    34           34          -34          -34           34
    35           35          -35           35          -35
    36           36           36           36           36
    37           37           37          -37          -37
    38           38           38           38           38
    39           39          -39          -39           39
    40           40          -40           40          -40
    41           41           41           41           41
    42           42           42          -42          -42
    43           43          -43          -43           43
    44           44          -44           44          -44
 There are    20 symmetry adapted basis functions of A1  symmetry.
   1         1   1   1   1
   2         2   2   2   2
   3         3   3   3   3
   4         4   4   4   4
   5         5   5   5   5
   6         6   6   6   6
   7         7   7   7   7
   8        10  10  10  10
   9        13  13  13  13
  10        16  16  16  16
  11        19  19  19  19
  12        22  22  22  22
  13        23  23  23  23
  14        26  26  26  26
  15        28  28  28  28
  16        31  31  31  31
  17        33  33  33  33
  18        36  36  36  36
  19        38  38  38  38
  20        41  41  41  41
 There are     4 symmetry adapted basis functions of A2  symmetry.
  21        27  27  27  27
  22        32  32  32  32
  23        37  37  37  37
  24        42  42  42  42
 There are    10 symmetry adapted basis functions of B1  symmetry.
  25         8   8   8   8
  26        11  11  11  11
  27        14  14  14  14
  28        17  17  17  17
  29        20  20  20  20
  30        24  24  24  24
  31        29  29  29  29
  32        34  34  34  34
  33        39  39  39  39
  34        43  43  43  43
 There are    10 symmetry adapted basis functions of B2  symmetry.
  35         9   9   9   9
  36        12  12  12  12
  37        15  15  15  15
  38        18  18  18  18
  39        21  21  21  21
  40        25  25  25  25
  41        30  30  30  30
  42        35  35  35  35
  43        40  40  40  40
  44        44  44  44  44
 Order= 1 2 4 3
 Reordered character table:
              1            2            3            4            5
     1            1            1            1            1            1
     2            2            1            1           -1           -1
     3            4            1           -1           -1            1
     4            3            1           -1            1           -1
    44 basis functions,   294 primitive gaussians,    50 cartesian basis functions
    12 alpha electrons       11 beta electrons
       nuclear repulsion energy         5.2917721092 Hartrees.
 IS=     1 IAt=     1 ISR=     1 T=0 IP=      1 IndIP=      1 IndIPD=      0 C=  2.769344D-01  0.000000D+00                             NZ=T
 IS=     1 IAt=     1 ISR=     1 T=0 IP=      2 IndIP=      2 IndIPD=      1 C=  2.678389D-01  0.000000D+00                             NZ=T
 IS=     1 IAt=     1 ISR=     1 T=0 IP=      3 IndIP=      3 IndIPD=      2 C=  8.347367D-02  0.000000D+00                             NZ=T
 IS=     2 IAt=     2 ISR=     1 T=0 IP=      1 IndIP=      4 IndIPD=      0 C=  4.601961D-01  0.000000D+00                             NZ=T
 IS=     2 IAt=     2 ISR=     1 T=0 IP=      2 IndIP=      5 IndIPD=      1 C=  8.613523D-01  0.000000D+00                             NZ=T
 IS=     2 IAt=     2 ISR=     1 T=0 IP=      3 IndIP=      6 IndIPD=      2 C=  1.492098D+00  0.000000D+00                             NZ=T
 IS=     2 IAt=     2 ISR=     1 T=0 IP=      4 IndIP=      7 IndIPD=      3 C=  2.442647D+00  0.000000D+00                             NZ=T
 IS=     2 IAt=     2 ISR=     1 T=0 IP=      5 IndIP=      8 IndIPD=      4 C=  3.817597D+00  0.000000D+00                             NZ=T
 IS=     2 IAt=     2 ISR=     1 T=0 IP=      6 IndIP=      9 IndIPD=      5 C=  5.697836D+00  0.000000D+00                             NZ=T
 IS=     2 IAt=     2 ISR=     1 T=0 IP=      7 IndIP=     10 IndIPD=      6 C=  8.012644D+00  0.000000D+00                             NZ=T
 IS=     2 IAt=     2 ISR=     1 T=0 IP=      8 IndIP=     11 IndIPD=      7 C=  1.023886D+01  0.000000D+00                             NZ=T
 IS=     2 IAt=     2 ISR=     1 T=0 IP=      9 IndIP=     12 IndIPD=      8 C=  1.103553D+01  0.000000D+00                             NZ=T
 IS=     2 IAt=     2 ISR=     1 T=0 IP=     10 IndIP=     13 IndIPD=      9 C=  8.646511D+00  0.000000D+00                             NZ=T
 IS=     2 IAt=     2 ISR=     1 T=0 IP=     11 IndIP=     14 IndIPD=     10 C=  3.676375D+00  0.000000D+00                             NZ=T
 IS=     2 IAt=     2 ISR=     1 T=0 IP=     12 IndIP=     15 IndIPD=     11 C=  4.678885D-01  0.000000D+00                             NZ=T
 IS=     2 IAt=     2 ISR=     1 T=0 IP=     13 IndIP=     16 IndIPD=     12 C= -1.409058D-02  0.000000D+00                             NZ=T
 IS=     2 IAt=     2 ISR=     1 T=0 IP=     14 IndIP=     17 IndIPD=     13 C= -1.843009D-03  0.000000D+00                             NZ=T
 IS=     2 IAt=     2 ISR=     1 T=0 IP=     15 IndIP=     18 IndIPD=     14 C= -1.927139D-04  0.000000D+00                             NZ=T
 IS=     3 IAt=     2 ISR=     2 T=0 IP=      1 IndIP=     19 IndIPD=      0 C= -4.156296D-03  0.000000D+00                             NZ=T
 IS=     3 IAt=     2 ISR=     2 T=0 IP=      2 IndIP=     20 IndIPD=      1 C= -2.174157D-02  0.000000D+00                             NZ=T
 IS=     3 IAt=     2 ISR=     2 T=0 IP=      3 IndIP=     21 IndIPD=      2 C= -8.573226D-02  0.000000D+00                             NZ=T
 IS=     3 IAt=     2 ISR=     2 T=0 IP=      4 IndIP=     22 IndIPD=      3 C= -2.732897D-01  0.000000D+00                             NZ=T
 IS=     3 IAt=     2 ISR=     2 T=0 IP=      5 IndIP=     23 IndIPD=      4 C= -7.085232D-01  0.000000D+00                             NZ=T
 IS=     3 IAt=     2 ISR=     2 T=0 IP=      6 IndIP=     24 IndIPD=      5 C= -1.357083D+00  0.000000D+00                             NZ=T
 IS=     3 IAt=     2 ISR=     2 T=0 IP=      7 IndIP=     25 IndIPD=      6 C= -1.326175D+00  0.000000D+00                             NZ=T
 IS=     3 IAt=     2 ISR=     2 T=0 IP=      8 IndIP=     26 IndIPD=      7 C=  4.708339D-01  0.000000D+00                             NZ=T
 IS=     3 IAt=     2 ISR=     2 T=0 IP=      9 IndIP=     27 IndIPD=      8 C=  2.041210D+00  0.000000D+00                             NZ=T
 IS=     3 IAt=     2 ISR=     2 T=0 IP=     10 IndIP=     28 IndIPD=      9 C=  1.171232D+00  0.000000D+00                             NZ=T
 IS=     3 IAt=     2 ISR=     2 T=0 IP=     11 IndIP=     29 IndIPD=     10 C=  1.186302D-01  0.000000D+00                             NZ=T
 IS=     3 IAt=     2 ISR=     2 T=0 IP=     12 IndIP=     30 IndIPD=     11 C=  1.645608D-03  0.000000D+00                             NZ=T
 IS=     4 IAt=     2 ISR=     3 T=0 IP=      1 IndIP=     31 IndIPD=      0 C= -2.009719D-03  0.000000D+00                             NZ=T
 IS=     4 IAt=     2 ISR=     3 T=0 IP=      2 IndIP=     32 IndIPD=      1 C=  3.685234D-04  0.000000D+00                             NZ=T
 IS=     4 IAt=     2 ISR=     3 T=0 IP=      3 IndIP=     33 IndIPD=      2 C= -6.543288D-03  0.000000D+00                             NZ=T
 IS=     4 IAt=     2 ISR=     3 T=0 IP=      4 IndIP=     34 IndIPD=      3 C= -1.867953D-02  0.000000D+00                             NZ=T
 IS=     4 IAt=     2 ISR=     3 T=0 IP=      5 IndIP=     35 IndIPD=      4 C=  1.006848D-02  0.000000D+00                             NZ=T
 IS=     4 IAt=     2 ISR=     3 T=0 IP=      6 IndIP=     36 IndIPD=      5 C=  2.898501D-02  0.000000D+00                             NZ=T
 IS=     4 IAt=     2 ISR=     3 T=0 IP=      7 IndIP=     37 IndIPD=      6 C= -3.297137D-01  0.000000D+00                             NZ=T
 IS=     4 IAt=     2 ISR=     3 T=0 IP=      8 IndIP=     38 IndIPD=      7 C= -5.569360D-01  0.000000D+00                             NZ=T
 IS=     4 IAt=     2 ISR=     3 T=0 IP=      9 IndIP=     39 IndIPD=      8 C=  1.218651D-01  0.000000D+00                             NZ=T
 IS=     4 IAt=     2 ISR=     3 T=0 IP=     10 IndIP=     40 IndIPD=      9 C=  6.285222D-01  0.000000D+00                             NZ=T
 IS=     4 IAt=     2 ISR=     3 T=0 IP=     11 IndIP=     41 IndIPD=     10 C=  1.786727D-01  0.000000D+00                             NZ=T
 IS=     4 IAt=     2 ISR=     3 T=0 IP=     12 IndIP=     42 IndIPD=     11 C= -6.692340D-02  0.000000D+00                             NZ=T
 IS=     5 IAt=     2 ISR=     4 T=0 IP=      1 IndIP=     43 IndIPD=      0 C= -2.538325D-04  0.000000D+00                             NZ=T
 IS=     5 IAt=     2 ISR=     4 T=0 IP=      2 IndIP=     44 IndIPD=      1 C=  1.195747D-04  0.000000D+00                             NZ=T
 IS=     5 IAt=     2 ISR=     4 T=0 IP=      3 IndIP=     45 IndIPD=      2 C=  4.327939D-05  0.000000D+00                             NZ=T
 IS=     5 IAt=     2 ISR=     4 T=0 IP=      4 IndIP=     46 IndIPD=      3 C=  5.652494D-03  0.000000D+00                             NZ=T
 IS=     5 IAt=     2 ISR=     4 T=0 IP=      5 IndIP=     47 IndIPD=      4 C= -9.239048D-03  0.000000D+00                             NZ=T
 IS=     5 IAt=     2 ISR=     4 T=0 IP=      6 IndIP=     48 IndIPD=      5 C= -3.834623D-02  0.000000D+00                             NZ=T
 IS=     5 IAt=     2 ISR=     4 T=0 IP=      7 IndIP=     49 IndIPD=      6 C= -8.755720D-02  0.000000D+00                             NZ=T
 IS=     5 IAt=     2 ISR=     4 T=0 IP=      8 IndIP=     50 IndIPD=      7 C=  5.141708D-02  0.000000D+00                             NZ=T
 IS=     5 IAt=     2 ISR=     4 T=0 IP=      9 IndIP=     51 IndIPD=      8 C=  6.056180D-02  0.000000D+00                             NZ=T
 IS=     6 IAt=     2 ISR=     5 T=0 IP=      1 IndIP=     52 IndIPD=      0 C=  2.864993D-03  0.000000D+00                             NZ=T
 IS=     6 IAt=     2 ISR=     5 T=0 IP=      2 IndIP=     53 IndIPD=      1 C= -6.088676D-04  0.000000D+00                             NZ=T
 IS=     6 IAt=     2 ISR=     5 T=0 IP=      3 IndIP=     54 IndIPD=      2 C=  9.145188D-03  0.000000D+00                             NZ=T
 IS=     6 IAt=     2 ISR=     5 T=0 IP=      4 IndIP=     55 IndIPD=      3 C=  3.068466D-02  0.000000D+00                             NZ=T
 IS=     6 IAt=     2 ISR=     5 T=0 IP=      5 IndIP=     56 IndIPD=      4 C=  1.270586D-02  0.000000D+00                             NZ=T
 IS=     6 IAt=     2 ISR=     5 T=0 IP=      6 IndIP=     57 IndIPD=      5 C=  6.411399D-02  0.000000D+00                             NZ=T
 IS=     6 IAt=     2 ISR=     5 T=0 IP=      7 IndIP=     58 IndIPD=      6 C= -4.813885D-02  0.000000D+00                             NZ=T
 IS=     6 IAt=     2 ISR=     5 T=0 IP=      8 IndIP=     59 IndIPD=      7 C= -7.768119D-02  0.000000D+00                             NZ=T
 IS=     6 IAt=     2 ISR=     5 T=0 IP=      9 IndIP=     60 IndIPD=      8 C= -2.457033D-01  0.000000D+00                             NZ=T
 IS=     6 IAt=     2 ISR=     5 T=0 IP=     10 IndIP=     61 IndIPD=      9 C=  9.551324D-02  0.000000D+00                             NZ=T
 IS=     6 IAt=     2 ISR=     5 T=0 IP=     11 IndIP=     62 IndIPD=     10 C=  5.526306D-02  0.000000D+00                             NZ=T
 IS=     6 IAt=     2 ISR=     5 T=0 IP=     12 IndIP=     63 IndIPD=     11 C=  1.188443D-01  0.000000D+00                             NZ=T
 IS=     7 IAt=     2 ISR=     6 T=0 IP=      1 IndIP=     64 IndIPD=      0 C=  4.543263D-02  0.000000D+00                             NZ=T
 IS=     8 IAt=     2 ISR=     7 T=1 IP=      1 IndIP=     65 IndIPD=      0 C=  0.000000D+00  7.795981D+00                             NZ=T
 IS=     8 IAt=     2 ISR=     7 T=1 IP=      2 IndIP=     66 IndIPD=      1 C=  0.000000D+00  1.143990D+01                             NZ=T
 IS=     8 IAt=     2 ISR=     7 T=1 IP=      3 IndIP=     67 IndIPD=      2 C=  0.000000D+00  1.612790D+01                             NZ=T
 IS=     8 IAt=     2 ISR=     7 T=1 IP=      4 IndIP=     68 IndIPD=      3 C=  0.000000D+00  2.120141D+01                             NZ=T
 IS=     8 IAt=     2 ISR=     7 T=1 IP=      5 IndIP=     69 IndIPD=      4 C=  0.000000D+00  2.533977D+01                             NZ=T
 IS=     8 IAt=     2 ISR=     7 T=1 IP=      6 IndIP=     70 IndIPD=      5 C=  0.000000D+00  2.664657D+01                             NZ=T
 IS=     8 IAt=     2 ISR=     7 T=1 IP=      7 IndIP=     71 IndIPD=      6 C=  0.000000D+00  2.296005D+01                             NZ=T
 IS=     8 IAt=     2 ISR=     7 T=1 IP=      8 IndIP=     72 IndIPD=      7 C=  0.000000D+00  1.495671D+01                             NZ=T
 IS=     8 IAt=     2 ISR=     7 T=1 IP=      9 IndIP=     73 IndIPD=      8 C=  0.000000D+00  6.394973D+00                             NZ=T
 IS=     8 IAt=     2 ISR=     7 T=1 IP=     10 IndIP=     74 IndIPD=      9 C=  0.000000D+00  1.316040D+00                             NZ=T
 IS=     8 IAt=     2 ISR=     7 T=1 IP=     11 IndIP=     75 IndIPD=     10 C=  0.000000D+00  8.037045D-02                             NZ=T
 IS=     8 IAt=     2 ISR=     7 T=1 IP=     12 IndIP=     76 IndIPD=     11 C=  0.000000D+00 -1.639389D-04                             NZ=T
 IS=     8 IAt=     2 ISR=     7 T=1 IP=     13 IndIP=     77 IndIPD=     12 C=  0.000000D+00 -1.884516D-05                             NZ=T
 IS=     9 IAt=     2 ISR=     8 T=1 IP=      1 IndIP=     78 IndIPD=      0 C=  0.000000D+00 -4.027304D-02                             NZ=T
 IS=     9 IAt=     2 ISR=     8 T=1 IP=      2 IndIP=     79 IndIPD=      1 C=  0.000000D+00 -1.519980D-01                             NZ=T
 IS=     9 IAt=     2 ISR=     8 T=1 IP=      3 IndIP=     80 IndIPD=      2 C=  0.000000D+00 -3.797862D-01                             NZ=T
 IS=     9 IAt=     2 ISR=     8 T=1 IP=      4 IndIP=     81 IndIPD=      3 C=  0.000000D+00 -6.057571D-01                             NZ=T
 IS=     9 IAt=     2 ISR=     8 T=1 IP=      5 IndIP=     82 IndIPD=      4 C=  0.000000D+00 -6.349846D-01                             NZ=T
 IS=     9 IAt=     2 ISR=     8 T=1 IP=      6 IndIP=     83 IndIPD=      5 C=  0.000000D+00 -3.948474D-01                             NZ=T
 IS=     9 IAt=     2 ISR=     8 T=1 IP=      7 IndIP=     84 IndIPD=      6 C=  0.000000D+00  5.551180D-01                             NZ=T
 IS=     9 IAt=     2 ISR=     8 T=1 IP=      8 IndIP=     85 IndIPD=      7 C=  0.000000D+00  1.049291D+00                             NZ=T
 IS=     9 IAt=     2 ISR=     8 T=1 IP=      9 IndIP=     86 IndIPD=      8 C=  0.000000D+00  6.036670D-01                             NZ=T
 IS=     9 IAt=     2 ISR=     8 T=1 IP=     10 IndIP=     87 IndIPD=      9 C=  0.000000D+00  1.523990D-01                             NZ=T
 IS=     9 IAt=     2 ISR=     8 T=1 IP=     11 IndIP=     88 IndIPD=     10 C=  0.000000D+00  8.253888D-03                             NZ=T
 IS=    10 IAt=     2 ISR=     9 T=1 IP=      1 IndIP=     89 IndIPD=      0 C=  0.000000D+00 -3.269879D-03                             NZ=T
 IS=    10 IAt=     2 ISR=     9 T=1 IP=      2 IndIP=     90 IndIPD=      1 C=  0.000000D+00 -8.378074D-03                             NZ=T
 IS=    10 IAt=     2 ISR=     9 T=1 IP=      3 IndIP=     91 IndIPD=      2 C=  0.000000D+00  2.529722D-03                             NZ=T
 IS=    10 IAt=     2 ISR=     9 T=1 IP=      4 IndIP=     92 IndIPD=      3 C=  0.000000D+00 -8.607827D-03                             NZ=T
 IS=    10 IAt=     2 ISR=     9 T=1 IP=      5 IndIP=     93 IndIPD=      4 C=  0.000000D+00 -2.397739D-02                             NZ=T
 IS=    10 IAt=     2 ISR=     9 T=1 IP=      6 IndIP=     94 IndIPD=      5 C=  0.000000D+00 -3.614299D-02                             NZ=T
 IS=    10 IAt=     2 ISR=     9 T=1 IP=      7 IndIP=     95 IndIPD=      6 C=  0.000000D+00 -2.100047D-02                             NZ=T
 IS=    10 IAt=     2 ISR=     9 T=1 IP=      8 IndIP=     96 IndIPD=      7 C=  0.000000D+00  5.981245D-02                             NZ=T
 IS=    10 IAt=     2 ISR=     9 T=1 IP=      9 IndIP=     97 IndIPD=      8 C=  0.000000D+00  3.898314D-02                             NZ=T
 IS=    11 IAt=     2 ISR=    10 T=1 IP=      1 IndIP=     98 IndIPD=      0 C=  0.000000D+00  1.995377D-01                             NZ=T
 IS=    11 IAt=     2 ISR=    10 T=1 IP=      2 IndIP=     99 IndIPD=      1 C=  0.000000D+00 -9.916829D-02                             NZ=T
 IS=    11 IAt=     2 ISR=    10 T=1 IP=      3 IndIP=    100 IndIPD=      2 C=  0.000000D+00 -5.154941D-01                             NZ=T
 IS=    11 IAt=     2 ISR=    10 T=1 IP=      4 IndIP=    101 IndIPD=      3 C=  0.000000D+00 -2.299023D-01                             NZ=T
 IS=    11 IAt=     2 ISR=    10 T=1 IP=      5 IndIP=    102 IndIPD=      4 C=  0.000000D+00 -4.427241D-01                             NZ=T
 IS=    11 IAt=     2 ISR=    10 T=1 IP=      6 IndIP=    103 IndIPD=      5 C=  0.000000D+00  6.312007D-01                             NZ=T
 IS=    11 IAt=     2 ISR=    10 T=1 IP=      7 IndIP=    104 IndIPD=      6 C=  0.000000D+00  7.247077D-01                             NZ=T
 IS=    11 IAt=     2 ISR=    10 T=1 IP=      8 IndIP=    105 IndIPD=      7 C=  0.000000D+00  5.879952D-01                             NZ=T
 IS=    11 IAt=     2 ISR=    10 T=1 IP=      9 IndIP=    106 IndIPD=      8 C=  0.000000D+00 -4.923816D-02                             NZ=T
 IS=    11 IAt=     2 ISR=    10 T=1 IP=     10 IndIP=    107 IndIPD=      9 C=  0.000000D+00  1.070378D-01                             NZ=T
 IS=    12 IAt=     2 ISR=    11 T=1 IP=      1 IndIP=    108 IndIPD=      0 C=  0.000000D+00  1.735373D-02                             NZ=T
 IS=    13 IAt=     2 ISR=    12 T=2 IP=      1 IndIP=    109 IndIPD=      1 C=  0.000000D+00  0.000000D+00  2.253599D-02  0.000000D+00 NZ=T
 IS=    13 IAt=     2 ISR=    12 T=2 IP=      2 IndIP=    110 IndIPD=      2 C=  0.000000D+00  0.000000D+00 -1.113976D-01  0.000000D+00 NZ=T
 IS=    13 IAt=     2 ISR=    12 T=2 IP=      3 IndIP=    111 IndIPD=      3 C=  0.000000D+00  0.000000D+00  7.556885D-04  0.000000D+00 NZ=T
 IS=    13 IAt=     2 ISR=    12 T=2 IP=      4 IndIP=    112 IndIPD=      4 C=  0.000000D+00  0.000000D+00  8.195510D-02  0.000000D+00 NZ=T
 IS=    13 IAt=     2 ISR=    12 T=2 IP=      5 IndIP=    113 IndIPD=      5 C=  0.000000D+00  0.000000D+00  1.108254D-01  0.000000D+00 NZ=T
 IS=    13 IAt=     2 ISR=    12 T=2 IP=      6 IndIP=    114 IndIPD=      6 C=  0.000000D+00  0.000000D+00  4.815533D-02  0.000000D+00 NZ=T
 IS=    14 IAt=     2 ISR=    13 T=2 IP=      1 IndIP=    115 IndIPD=      7 C=  0.000000D+00  0.000000D+00 -1.207446D+01  0.000000D+00 NZ=T
 IS=    14 IAt=     2 ISR=    13 T=2 IP=      2 IndIP=    116 IndIPD=      8 C=  0.000000D+00  0.000000D+00 -9.614714D+00  0.000000D+00 NZ=T
 IS=    14 IAt=     2 ISR=    13 T=2 IP=      3 IndIP=    117 IndIPD=      9 C=  0.000000D+00  0.000000D+00 -5.925403D+00  0.000000D+00 NZ=T
 IS=    14 IAt=     2 ISR=    13 T=2 IP=      4 IndIP=    118 IndIPD=     10 C=  0.000000D+00  0.000000D+00 -2.773498D+00  0.000000D+00 NZ=T
 IS=    14 IAt=     2 ISR=    13 T=2 IP=      5 IndIP=    119 IndIPD=     11 C=  0.000000D+00  0.000000D+00 -8.295859D-01  0.000000D+00 NZ=T
 IS=    14 IAt=     2 ISR=    13 T=2 IP=      6 IndIP=    120 IndIPD=     12 C=  0.000000D+00  0.000000D+00 -1.298928D-01  0.000000D+00 NZ=T
 IS=    15 IAt=     2 ISR=    14 T=2 IP=      1 IndIP=    121 IndIPD=     13 C=  0.000000D+00  0.000000D+00  9.283634D-03  0.000000D+00 NZ=T
 IS=    16 IAt=     2 ISR=    15 T=3 IP=      1 IndIP=    122 IndIPD=     14 C=  0.000000D+00  0.000000D+00  0.000000D+00  8.360800D-01 NZ=T
 IS=    16 IAt=     2 ISR=    15 T=3 IP=      2 IndIP=    123 IndIPD=     15 C=  0.000000D+00  0.000000D+00  0.000000D+00  6.866491D-02 NZ=T
 IExCor=    0 DFT=F Ex=HF Corr=None ExCW=0 ScaHFX=  1.000000
 ScaDFX=  1.000000  1.000000  1.000000  1.000000 ScalE2=  1.000000  1.000000
 IRadAn=      5 IRanWt=     -1 IRanGd=            0 ICorTp=0 IEmpDi=  4
 NAtoms=    2 NActive=    2 NUniq=    2 SFac= 1.00D+00 NAtFMM=   60 NAOKFM=F Big=F
 Integral buffers will be    131072 words long.
 Raffenetti 2 integral format.
 Two-electron integral symmetry is turned on.
 Leave Link  301 at Mon Mar 28 09:59:47 2022, MaxMem=  9663676416 cpu:               2.0 elap:               0.1
 (Enter /nopt/nrel/apps/gaussian/g16C_1/g16/l302.exe)
 NPDir=0 NMtPBC=     1 NCelOv=     1 NCel=       1 NClECP=     1 NCelD=      1
         NCelK=      1 NCelE2=     1 NClLst=     1 CellRange=     0.0.
 One-electron integrals computed using PRISM.
 One-electron integral symmetry used in STVInt
 Entering OneElI...
 Calculate overlap and kinetic energy integrals
    NBasis =  44  MinDer = 0  MaxDer = 0
 Requested accuracy = 0.1000D-12
 Symmetry will be used
 PrmmSu-InSpLW:  IPartL=    0 NPrtUS=   36 NPrtUL=    1 DoSpLW=F IThBeg=    0 IThEnd=   35 NThAct=   36.
 PrSmSu:  IncTry=   512 NBBP=            136 NTPThr=   100 NPartT=   36 Incr=           1 LDynOK=F GPUOK=F.
 PrsmSu:  NPrtUS=  36 ThrOK=T IAlg=1 LenDen=           0 ISkipM=0 DoSpLW=F IThBeg=    0 IThEnd=   35.
 Prism:   IPart=     0 DynPar=F LinDyn=F Incr=           1.
 PRISM was handed   268364502 working-precision words and   136 shell-pairs
 PRISM was handed   268364502 working-precision words and   136 shell-pairs
 PRISM was handed   268364502 working-precision words and   136 shell-pairs
 PRISM was handed   268364502 working-precision words and   136 shell-pairs
 PRISM was handed   268364502 working-precision words and   136 shell-pairs
 PRISM was handed   268364502 working-precision words and   136 shell-pairs
 PRISM was handed   268364502 working-precision words and   136 shell-pairs
 PRISM was handed   268364502 working-precision words and   136 shell-pairs
 PRISM was handed   268364502 working-precision words and   136 shell-pairs
 PRISM was handed   268364502 working-precision words and   136 shell-pairs
 PRISM was handed   268364502 working-precision words and   136 shell-pairs
 PRISM was handed   268364502 working-precision words and   136 shell-pairs
 PRISM was handed   268364502 working-precision words and   136 shell-pairs
 PRISM was handed   268364502 working-precision words and   136 shell-pairs
 PRISM was handed   268364502 working-precision words and   136 shell-pairs
 PRISM was handed   268364502 working-precision words and   136 shell-pairs
 PRISM was handed   268364502 working-precision words and   136 shell-pairs
 IPart= 24 NShTot=           0 NBatch=           0 AvBLen=         0.0
 IPart= 32 NShTot=           0 NBatch=           0 AvBLen=         0.0
 IPart= 16 NShTot=           0 NBatch=           0 AvBLen=         0.0
 IPart=  6 NShTot=           0 NBatch=           0 AvBLen=         0.0
 IPart= 28 NShTot=           0 NBatch=           0 AvBLen=         0.0
 IPart= 30 NShTot=           0 NBatch=           0 AvBLen=         0.0
 IPart= 25 NShTot=           0 NBatch=           0 AvBLen=         0.0
 PRISM was handed   268364502 working-precision words and   136 shell-pairs
 IPart= 20 NShTot=           0 NBatch=           0 AvBLen=         0.0
 IPart= 27 NShTot=           0 NBatch=           0 AvBLen=         0.0
 IPart=  9 NShTot=           0 NBatch=           0 AvBLen=         0.0
 IPart= 19 NShTot=           0 NBatch=           0 AvBLen=         0.0
 IPart= 17 NShTot=           0 NBatch=           0 AvBLen=         0.0
 PRISM was handed   268364502 working-precision words and   136 shell-pairs
 IPart= 21 NShTot=           0 NBatch=           0 AvBLen=         0.0
 IPart= 18 NShTot=           0 NBatch=           0 AvBLen=         0.0
 IPart= 26 NShTot=           0 NBatch=           0 AvBLen=         0.0
 PRISM was handed   268364502 working-precision words and   136 shell-pairs
 PRISM was handed   268364502 working-precision words and   136 shell-pairs
 PRISM was handed   268364502 working-precision words and   136 shell-pairs
 PRISM was handed   268364502 working-precision words and   136 shell-pairs
 PRISM was handed   268364502 working-precision words and   136 shell-pairs
 PRISM was handed   268364502 working-precision words and   136 shell-pairs
 IPart= 14 NShTot=           0 NBatch=           0 AvBLen=         0.0
 IPart=  0 NShTot=          90 NBatch=          90 AvBLen=         1.0
 PRISM was handed   268364502 working-precision words and   136 shell-pairs
 PRISM was handed   268364502 working-precision words and   136 shell-pairs
 PRISM was handed   268364502 working-precision words and   136 shell-pairs
 PRISM was handed   268364502 working-precision words and   136 shell-pairs
 IPart=  4 NShTot=           2 NBatch=           2 AvBLen=         1.0
 PRISM was handed   268364502 working-precision words and   136 shell-pairs
 PRISM was handed   268364502 working-precision words and   136 shell-pairs
 IPart= 15 NShTot=           0 NBatch=           0 AvBLen=         0.0
 IPart= 35 NShTot=           0 NBatch=           0 AvBLen=         0.0
 PRISM was handed   268364502 working-precision words and   136 shell-pairs
 PRISM was handed   268364502 working-precision words and   136 shell-pairs
 PRISM was handed   268364502 working-precision words and   136 shell-pairs
 PRISM was handed   268364502 working-precision words and   136 shell-pairs
 PRISM was handed   268364502 working-precision words and   136 shell-pairs
 IPart= 11 NShTot=           0 NBatch=           0 AvBLen=         0.0
 IPart=  8 NShTot=           0 NBatch=           0 AvBLen=         0.0
 IPart= 34 NShTot=           0 NBatch=           0 AvBLen=         0.0
 IPart= 29 NShTot=           0 NBatch=           0 AvBLen=         0.0
 IPart=  7 NShTot=           0 NBatch=           0 AvBLen=         0.0
 IPart= 13 NShTot=           0 NBatch=           0 AvBLen=         0.0
 IPart=  3 NShTot=           2 NBatch=           2 AvBLen=         1.0
 IPart= 33 NShTot=           0 NBatch=           0 AvBLen=         0.0
 IPart= 31 NShTot=           0 NBatch=           0 AvBLen=         0.0
 IPart=  2 NShTot=          13 NBatch=          13 AvBLen=         1.0
 IPart=  1 NShTot=          27 NBatch=          27 AvBLen=         1.0
 IPart= 22 NShTot=           0 NBatch=           0 AvBLen=         0.0
 IPart= 12 NShTot=           0 NBatch=           0 AvBLen=         0.0
 IPart= 10 NShTot=           0 NBatch=           0 AvBLen=         0.0
 IPart= 23 NShTot=           0 NBatch=           0 AvBLen=         0.0
 IPart=  5 NShTot=           2 NBatch=           2 AvBLen=         1.0
 PrSmSu:  NxtVal=             37.
 *** Overlap *** 
                1             2             3             4             5 
      1  0.100000D+01
      2  0.613985D-03  0.100000D+01
      3  0.534163D-02  0.279117D+00  0.100000D+01
      4 -0.672277D-01  0.133214D-01  0.392900D+00  0.100000D+01
      5  0.271654D+00 -0.249446D-02  0.242605D-02 -0.181656D+00  0.100000D+01
      6  0.194859D+00 -0.202905D-02  0.120603D+00  0.248298D+00  0.863186D+00
      7  0.260071D+00  0.625628D-02  0.500412D-01 -0.893107D-01  0.867545D+00
      8  0.000000D+00  0.000000D+00  0.000000D+00  0.000000D+00  0.000000D+00
      9  0.000000D+00  0.000000D+00  0.000000D+00  0.000000D+00  0.000000D+00
     10 -0.187360D-02  0.000000D+00  0.000000D+00  0.000000D+00  0.000000D+00
     11  0.000000D+00  0.000000D+00  0.000000D+00  0.000000D+00  0.000000D+00
     12  0.000000D+00  0.000000D+00  0.000000D+00  0.000000D+00  0.000000D+00
     13 -0.542394D-01  0.000000D+00  0.000000D+00  0.000000D+00  0.000000D+00
     14  0.000000D+00  0.000000D+00  0.000000D+00  0.000000D+00  0.000000D+00
     15  0.000000D+00  0.000000D+00  0.000000D+00  0.000000D+00  0.000000D+00
     16 -0.409452D+00  0.000000D+00  0.000000D+00  0.000000D+00  0.000000D+00
     17  0.000000D+00  0.000000D+00  0.000000D+00  0.000000D+00  0.000000D+00
     18  0.000000D+00  0.000000D+00  0.000000D+00  0.000000D+00  0.000000D+00
     19 -0.190130D+00  0.000000D+00  0.000000D+00  0.000000D+00  0.000000D+00
     20  0.000000D+00  0.000000D+00  0.000000D+00  0.000000D+00  0.000000D+00
     21  0.000000D+00  0.000000D+00  0.000000D+00  0.000000D+00  0.000000D+00
     22 -0.340035D+00  0.000000D+00  0.000000D+00  0.000000D+00  0.000000D+00
     23  0.318707D+00  0.000000D+00  0.000000D+00  0.000000D+00  0.000000D+00
     24  0.000000D+00  0.000000D+00  0.000000D+00  0.000000D+00  0.000000D+00
     25  0.000000D+00  0.000000D+00  0.000000D+00  0.000000D+00  0.000000D+00
     26  0.000000D+00  0.000000D+00  0.000000D+00  0.000000D+00  0.000000D+00
     27  0.000000D+00  0.000000D+00  0.000000D+00  0.000000D+00  0.000000D+00
     28 -0.475290D-01  0.000000D+00  0.000000D+00  0.000000D+00  0.000000D+00
     29  0.000000D+00  0.000000D+00  0.000000D+00  0.000000D+00  0.000000D+00
     30  0.000000D+00  0.000000D+00  0.000000D+00  0.000000D+00  0.000000D+00
     31  0.000000D+00  0.000000D+00  0.000000D+00  0.000000D+00  0.000000D+00
     32  0.000000D+00  0.000000D+00  0.000000D+00  0.000000D+00  0.000000D+00
     33  0.387659D+00  0.000000D+00  0.000000D+00  0.000000D+00  0.000000D+00
     34  0.000000D+00  0.000000D+00  0.000000D+00  0.000000D+00  0.000000D+00
     35  0.000000D+00  0.000000D+00  0.000000D+00  0.000000D+00  0.000000D+00
     36  0.000000D+00  0.000000D+00  0.000000D+00  0.000000D+00  0.000000D+00
     37  0.000000D+00  0.000000D+00  0.000000D+00  0.000000D+00  0.000000D+00
     38 -0.181246D+00  0.000000D+00  0.000000D+00  0.000000D+00  0.000000D+00
     39  0.000000D+00  0.000000D+00  0.000000D+00  0.000000D+00  0.000000D+00
     40  0.000000D+00  0.000000D+00  0.000000D+00  0.000000D+00  0.000000D+00
     41  0.000000D+00  0.000000D+00  0.000000D+00  0.000000D+00  0.000000D+00
     42  0.000000D+00  0.000000D+00  0.000000D+00  0.000000D+00  0.000000D+00
     43  0.000000D+00  0.000000D+00  0.000000D+00  0.000000D+00  0.000000D+00
     44  0.000000D+00  0.000000D+00  0.000000D+00  0.000000D+00  0.000000D+00
                6             7             8             9            10 
      6  0.100000D+01
      7  0.671026D+00  0.100000D+01
      8  0.000000D+00  0.000000D+00  0.100000D+01
      9  0.000000D+00  0.000000D+00  0.000000D+00  0.100000D+01
     10  0.000000D+00  0.000000D+00  0.000000D+00  0.000000D+00  0.100000D+01
     11  0.000000D+00  0.000000D+00  0.321080D+00  0.000000D+00  0.000000D+00
     12  0.000000D+00  0.000000D+00  0.000000D+00  0.321080D+00  0.000000D+00
     13  0.000000D+00  0.000000D+00  0.000000D+00  0.000000D+00  0.321080D+00
     14  0.000000D+00  0.000000D+00  0.108247D-01  0.000000D+00  0.000000D+00
     15  0.000000D+00  0.000000D+00  0.000000D+00  0.108247D-01  0.000000D+00
     16  0.000000D+00  0.000000D+00  0.000000D+00  0.000000D+00  0.108247D-01
     17  0.000000D+00  0.000000D+00  0.264262D+00  0.000000D+00  0.000000D+00
     18  0.000000D+00  0.000000D+00  0.000000D+00  0.264262D+00  0.000000D+00
     19  0.000000D+00  0.000000D+00  0.000000D+00  0.000000D+00  0.264262D+00
     20  0.000000D+00  0.000000D+00  0.499923D-02  0.000000D+00  0.000000D+00
     21  0.000000D+00  0.000000D+00  0.000000D+00  0.499923D-02  0.000000D+00
     22  0.000000D+00  0.000000D+00  0.000000D+00  0.000000D+00  0.499923D-02
     23  0.000000D+00  0.000000D+00  0.000000D+00  0.000000D+00  0.000000D+00
     24  0.000000D+00  0.000000D+00  0.000000D+00  0.000000D+00  0.000000D+00
     25  0.000000D+00  0.000000D+00  0.000000D+00  0.000000D+00  0.000000D+00
     26  0.000000D+00  0.000000D+00  0.000000D+00  0.000000D+00  0.000000D+00
     27  0.000000D+00  0.000000D+00  0.000000D+00  0.000000D+00  0.000000D+00
     28  0.000000D+00  0.000000D+00  0.000000D+00  0.000000D+00  0.000000D+00
     29  0.000000D+00  0.000000D+00  0.000000D+00  0.000000D+00  0.000000D+00
     30  0.000000D+00  0.000000D+00  0.000000D+00  0.000000D+00  0.000000D+00
     31  0.000000D+00  0.000000D+00  0.000000D+00  0.000000D+00  0.000000D+00
     32  0.000000D+00  0.000000D+00  0.000000D+00  0.000000D+00  0.000000D+00
     33  0.000000D+00  0.000000D+00  0.000000D+00  0.000000D+00  0.000000D+00
     34  0.000000D+00  0.000000D+00  0.000000D+00  0.000000D+00  0.000000D+00
     35  0.000000D+00  0.000000D+00  0.000000D+00  0.000000D+00  0.000000D+00
     36  0.000000D+00  0.000000D+00  0.000000D+00  0.000000D+00  0.000000D+00
     37  0.000000D+00  0.000000D+00  0.000000D+00  0.000000D+00  0.000000D+00
     38  0.000000D+00  0.000000D+00  0.000000D+00  0.000000D+00  0.000000D+00
     39  0.000000D+00  0.000000D+00  0.000000D+00  0.000000D+00  0.000000D+00
     40  0.000000D+00  0.000000D+00  0.000000D+00  0.000000D+00  0.000000D+00
     41  0.000000D+00  0.000000D+00  0.000000D+00  0.000000D+00  0.000000D+00
     42  0.000000D+00  0.000000D+00  0.000000D+00  0.000000D+00  0.000000D+00
     43  0.000000D+00  0.000000D+00  0.000000D+00  0.000000D+00  0.000000D+00
     44  0.000000D+00  0.000000D+00  0.000000D+00  0.000000D+00  0.000000D+00
               11            12            13            14            15 
     11  0.100000D+01
     12  0.000000D+00  0.100000D+01
     13  0.000000D+00  0.000000D+00  0.100000D+01
     14  0.312924D+00  0.000000D+00  0.000000D+00  0.100000D+01
     15  0.000000D+00  0.312924D+00  0.000000D+00  0.000000D+00  0.100000D+01
     16  0.000000D+00  0.000000D+00  0.312924D+00  0.000000D+00  0.000000D+00
     17  0.908738D+00  0.000000D+00  0.000000D+00  0.652514D+00  0.000000D+00
     18  0.000000D+00  0.908738D+00  0.000000D+00  0.000000D+00  0.652514D+00
     19  0.000000D+00  0.000000D+00  0.908738D+00  0.000000D+00  0.000000D+00
     20  0.102417D+00  0.000000D+00  0.000000D+00  0.695333D+00  0.000000D+00
     21  0.000000D+00  0.102417D+00  0.000000D+00  0.000000D+00  0.695333D+00
     22  0.000000D+00  0.000000D+00  0.102417D+00  0.000000D+00  0.000000D+00
     23  0.000000D+00  0.000000D+00  0.000000D+00  0.000000D+00  0.000000D+00
     24  0.000000D+00  0.000000D+00  0.000000D+00  0.000000D+00  0.000000D+00
     25  0.000000D+00  0.000000D+00  0.000000D+00  0.000000D+00  0.000000D+00
     26  0.000000D+00  0.000000D+00  0.000000D+00  0.000000D+00  0.000000D+00
     27  0.000000D+00  0.000000D+00  0.000000D+00  0.000000D+00  0.000000D+00
     28  0.000000D+00  0.000000D+00  0.000000D+00  0.000000D+00  0.000000D+00
     29  0.000000D+00  0.000000D+00  0.000000D+00  0.000000D+00  0.000000D+00
     30  0.000000D+00  0.000000D+00  0.000000D+00  0.000000D+00  0.000000D+00
     31  0.000000D+00  0.000000D+00  0.000000D+00  0.000000D+00  0.000000D+00
     32  0.000000D+00  0.000000D+00  0.000000D+00  0.000000D+00  0.000000D+00
     33  0.000000D+00  0.000000D+00  0.000000D+00  0.000000D+00  0.000000D+00
     34  0.000000D+00  0.000000D+00  0.000000D+00  0.000000D+00  0.000000D+00
     35  0.000000D+00  0.000000D+00  0.000000D+00  0.000000D+00  0.000000D+00
     36  0.000000D+00  0.000000D+00  0.000000D+00  0.000000D+00  0.000000D+00
     37  0.000000D+00  0.000000D+00  0.000000D+00  0.000000D+00  0.000000D+00
     38  0.000000D+00  0.000000D+00  0.000000D+00  0.000000D+00  0.000000D+00
     39  0.000000D+00  0.000000D+00  0.000000D+00  0.000000D+00  0.000000D+00
     40  0.000000D+00  0.000000D+00  0.000000D+00  0.000000D+00  0.000000D+00
     41  0.000000D+00  0.000000D+00  0.000000D+00  0.000000D+00  0.000000D+00
     42  0.000000D+00  0.000000D+00  0.000000D+00  0.000000D+00  0.000000D+00
     43  0.000000D+00  0.000000D+00  0.000000D+00  0.000000D+00  0.000000D+00
     44  0.000000D+00  0.000000D+00  0.000000D+00  0.000000D+00  0.000000D+00
               16            17            18            19            20 
     16  0.100000D+01
     17  0.000000D+00  0.100000D+01
     18  0.000000D+00  0.000000D+00  0.100000D+01
     19  0.652514D+00  0.000000D+00  0.000000D+00  0.100000D+01
     20  0.000000D+00  0.287068D+00  0.000000D+00  0.000000D+00  0.100000D+01
     21  0.000000D+00  0.000000D+00  0.287068D+00  0.000000D+00  0.000000D+00
     22  0.695333D+00  0.000000D+00  0.000000D+00  0.287068D+00  0.000000D+00
     23  0.000000D+00  0.000000D+00  0.000000D+00  0.000000D+00  0.000000D+00
     24  0.000000D+00  0.000000D+00  0.000000D+00  0.000000D+00  0.000000D+00
     25  0.000000D+00  0.000000D+00  0.000000D+00  0.000000D+00  0.000000D+00
     26  0.000000D+00  0.000000D+00  0.000000D+00  0.000000D+00  0.000000D+00
     27  0.000000D+00  0.000000D+00  0.000000D+00  0.000000D+00  0.000000D+00
     28  0.000000D+00  0.000000D+00  0.000000D+00  0.000000D+00  0.000000D+00
     29  0.000000D+00  0.000000D+00  0.000000D+00  0.000000D+00  0.000000D+00
     30  0.000000D+00  0.000000D+00  0.000000D+00  0.000000D+00  0.000000D+00
     31  0.000000D+00  0.000000D+00  0.000000D+00  0.000000D+00  0.000000D+00
     32  0.000000D+00  0.000000D+00  0.000000D+00  0.000000D+00  0.000000D+00
     33  0.000000D+00  0.000000D+00  0.000000D+00  0.000000D+00  0.000000D+00
     34  0.000000D+00  0.000000D+00  0.000000D+00  0.000000D+00  0.000000D+00
     35  0.000000D+00  0.000000D+00  0.000000D+00  0.000000D+00  0.000000D+00
     36  0.000000D+00  0.000000D+00  0.000000D+00  0.000000D+00  0.000000D+00
     37  0.000000D+00  0.000000D+00  0.000000D+00  0.000000D+00  0.000000D+00
     38  0.000000D+00  0.000000D+00  0.000000D+00  0.000000D+00  0.000000D+00
     39  0.000000D+00  0.000000D+00  0.000000D+00  0.000000D+00  0.000000D+00
     40  0.000000D+00  0.000000D+00  0.000000D+00  0.000000D+00  0.000000D+00
     41  0.000000D+00  0.000000D+00  0.000000D+00  0.000000D+00  0.000000D+00
     42  0.000000D+00  0.000000D+00  0.000000D+00  0.000000D+00  0.000000D+00
     43  0.000000D+00  0.000000D+00  0.000000D+00  0.000000D+00  0.000000D+00
     44  0.000000D+00  0.000000D+00  0.000000D+00  0.000000D+00  0.000000D+00
               21            22            23            24            25 
     21  0.100000D+01
     22  0.000000D+00  0.100000D+01
     23  0.000000D+00  0.000000D+00  0.100000D+01
     24  0.000000D+00  0.000000D+00  0.000000D+00  0.100000D+01
     25  0.000000D+00  0.000000D+00  0.000000D+00  0.000000D+00  0.100000D+01
     26  0.000000D+00  0.000000D+00  0.000000D+00  0.000000D+00  0.000000D+00
     27  0.000000D+00  0.000000D+00  0.000000D+00  0.000000D+00  0.000000D+00
     28  0.000000D+00  0.000000D+00 -0.540500D+00  0.000000D+00  0.000000D+00
     29  0.000000D+00  0.000000D+00  0.000000D+00 -0.540500D+00  0.000000D+00
     30  0.000000D+00  0.000000D+00  0.000000D+00  0.000000D+00 -0.540500D+00
     31  0.000000D+00  0.000000D+00  0.000000D+00  0.000000D+00  0.000000D+00
     32  0.000000D+00  0.000000D+00  0.000000D+00  0.000000D+00  0.000000D+00
     33  0.000000D+00  0.000000D+00  0.516004D+00  0.000000D+00  0.000000D+00
     34  0.000000D+00  0.000000D+00  0.000000D+00  0.516004D+00  0.000000D+00
     35  0.000000D+00  0.000000D+00  0.000000D+00  0.000000D+00  0.516004D+00
     36  0.000000D+00  0.000000D+00  0.000000D+00  0.000000D+00  0.000000D+00
     37  0.000000D+00  0.000000D+00  0.000000D+00  0.000000D+00  0.000000D+00
     38  0.000000D+00  0.000000D+00  0.000000D+00  0.000000D+00  0.000000D+00
     39  0.000000D+00  0.000000D+00  0.000000D+00  0.000000D+00  0.000000D+00
     40  0.000000D+00  0.000000D+00  0.000000D+00  0.000000D+00  0.000000D+00
     41  0.000000D+00  0.000000D+00  0.000000D+00  0.000000D+00  0.000000D+00
     42  0.000000D+00  0.000000D+00  0.000000D+00  0.000000D+00  0.000000D+00
     43  0.000000D+00  0.000000D+00  0.000000D+00  0.000000D+00  0.000000D+00
     44  0.000000D+00  0.000000D+00  0.000000D+00  0.000000D+00  0.000000D+00
               26            27            28            29            30 
     26  0.100000D+01
     27  0.000000D+00  0.100000D+01
     28  0.000000D+00  0.000000D+00  0.100000D+01
     29  0.000000D+00  0.000000D+00  0.000000D+00  0.100000D+01
     30  0.000000D+00  0.000000D+00  0.000000D+00  0.000000D+00  0.100000D+01
     31 -0.540500D+00  0.000000D+00  0.000000D+00  0.000000D+00  0.000000D+00
     32  0.000000D+00 -0.540500D+00  0.000000D+00  0.000000D+00  0.000000D+00
     33  0.000000D+00  0.000000D+00 -0.926197D-01  0.000000D+00  0.000000D+00
     34  0.000000D+00  0.000000D+00  0.000000D+00 -0.926197D-01  0.000000D+00
     35  0.000000D+00  0.000000D+00  0.000000D+00  0.000000D+00 -0.926197D-01
     36  0.516004D+00  0.000000D+00  0.000000D+00  0.000000D+00  0.000000D+00
     37  0.000000D+00  0.516004D+00  0.000000D+00  0.000000D+00  0.000000D+00
     38  0.000000D+00  0.000000D+00  0.000000D+00  0.000000D+00  0.000000D+00
     39  0.000000D+00  0.000000D+00  0.000000D+00  0.000000D+00  0.000000D+00
     40  0.000000D+00  0.000000D+00  0.000000D+00  0.000000D+00  0.000000D+00
     41  0.000000D+00  0.000000D+00  0.000000D+00  0.000000D+00  0.000000D+00
     42  0.000000D+00  0.000000D+00  0.000000D+00  0.000000D+00  0.000000D+00
     43  0.000000D+00  0.000000D+00  0.000000D+00  0.000000D+00  0.000000D+00
     44  0.000000D+00  0.000000D+00  0.000000D+00  0.000000D+00  0.000000D+00
               31            32            33            34            35 
     31  0.100000D+01
     32  0.000000D+00  0.100000D+01
     33  0.000000D+00  0.000000D+00  0.100000D+01
     34  0.000000D+00  0.000000D+00  0.000000D+00  0.100000D+01
     35  0.000000D+00  0.000000D+00  0.000000D+00  0.000000D+00  0.100000D+01
     36 -0.926197D-01  0.000000D+00  0.000000D+00  0.000000D+00  0.000000D+00
     37  0.000000D+00 -0.926197D-01  0.000000D+00  0.000000D+00  0.000000D+00
     38  0.000000D+00  0.000000D+00  0.000000D+00  0.000000D+00  0.000000D+00
     39  0.000000D+00  0.000000D+00  0.000000D+00  0.000000D+00  0.000000D+00
     40  0.000000D+00  0.000000D+00  0.000000D+00  0.000000D+00  0.000000D+00
     41  0.000000D+00  0.000000D+00  0.000000D+00  0.000000D+00  0.000000D+00
     42  0.000000D+00  0.000000D+00  0.000000D+00  0.000000D+00  0.000000D+00
     43  0.000000D+00  0.000000D+00  0.000000D+00  0.000000D+00  0.000000D+00
     44  0.000000D+00  0.000000D+00  0.000000D+00  0.000000D+00  0.000000D+00
               36            37            38            39            40 
     36  0.100000D+01
     37  0.000000D+00  0.100000D+01
     38  0.000000D+00  0.000000D+00  0.100000D+01
     39  0.000000D+00  0.000000D+00  0.000000D+00  0.100000D+01
     40  0.000000D+00  0.000000D+00  0.000000D+00  0.000000D+00  0.100000D+01
     41  0.000000D+00  0.000000D+00  0.000000D+00  0.000000D+00  0.000000D+00
     42  0.000000D+00  0.000000D+00  0.000000D+00  0.000000D+00  0.000000D+00
     43  0.000000D+00  0.000000D+00  0.000000D+00  0.000000D+00  0.000000D+00
     44  0.000000D+00  0.000000D+00  0.000000D+00  0.000000D+00  0.000000D+00
               41            42            43            44 
     41  0.100000D+01
     42  0.000000D+00  0.100000D+01
     43  0.000000D+00  0.000000D+00  0.100000D+01
     44  0.000000D+00  0.000000D+00  0.000000D+00  0.100000D+01
 *** Kinetic Energy *** 
                1             2             3             4             5 
      1  0.760032D+00
      2 -0.305122D-03  0.232583D+03
      3 -0.242877D-02 -0.128622D+02  0.115288D+02
      4 -0.167361D-01 -0.154895D+01 -0.820755D+00  0.179517D+01
      5  0.190634D-01 -0.285017D-01 -0.171041D+00 -0.215769D+00  0.125751D+00
      6  0.282656D-02 -0.104443D+00 -0.732067D+00  0.362044D+00  0.760212D-01
      7  0.131684D-01  0.478399D-03  0.379823D-02 -0.234796D-02  0.464183D-01
      8  0.000000D+00  0.000000D+00  0.000000D+00  0.000000D+00  0.000000D+00
      9  0.000000D+00  0.000000D+00  0.000000D+00  0.000000D+00  0.000000D+00
     10  0.371495D-03  0.000000D+00  0.000000D+00  0.000000D+00  0.000000D+00
     11  0.000000D+00  0.000000D+00  0.000000D+00  0.000000D+00  0.000000D+00
     12  0.000000D+00  0.000000D+00  0.000000D+00  0.000000D+00  0.000000D+00
     13  0.637964D-02  0.000000D+00  0.000000D+00  0.000000D+00  0.000000D+00
     14  0.000000D+00  0.000000D+00  0.000000D+00  0.000000D+00  0.000000D+00
     15  0.000000D+00  0.000000D+00  0.000000D+00  0.000000D+00  0.000000D+00
     16 -0.656930D-01  0.000000D+00  0.000000D+00  0.000000D+00  0.000000D+00
     17  0.000000D+00  0.000000D+00  0.000000D+00  0.000000D+00  0.000000D+00
     18  0.000000D+00  0.000000D+00  0.000000D+00  0.000000D+00  0.000000D+00
     19 -0.185361D-01  0.000000D+00  0.000000D+00  0.000000D+00  0.000000D+00
     20  0.000000D+00  0.000000D+00  0.000000D+00  0.000000D+00  0.000000D+00
     21  0.000000D+00  0.000000D+00  0.000000D+00  0.000000D+00  0.000000D+00
     22 -0.364877D-01  0.000000D+00  0.000000D+00  0.000000D+00  0.000000D+00
     23  0.959205D-01  0.000000D+00  0.000000D+00  0.000000D+00  0.000000D+00
     24  0.000000D+00  0.000000D+00  0.000000D+00  0.000000D+00  0.000000D+00
     25  0.000000D+00  0.000000D+00  0.000000D+00  0.000000D+00  0.000000D+00
     26  0.000000D+00  0.000000D+00  0.000000D+00  0.000000D+00  0.000000D+00
     27  0.000000D+00  0.000000D+00  0.000000D+00  0.000000D+00  0.000000D+00
     28  0.127478D-02  0.000000D+00  0.000000D+00  0.000000D+00  0.000000D+00
     29  0.000000D+00  0.000000D+00  0.000000D+00  0.000000D+00  0.000000D+00
     30  0.000000D+00  0.000000D+00  0.000000D+00  0.000000D+00  0.000000D+00
     31  0.000000D+00  0.000000D+00  0.000000D+00  0.000000D+00  0.000000D+00
     32  0.000000D+00  0.000000D+00  0.000000D+00  0.000000D+00  0.000000D+00
     33  0.924998D-01  0.000000D+00  0.000000D+00  0.000000D+00  0.000000D+00
     34  0.000000D+00  0.000000D+00  0.000000D+00  0.000000D+00  0.000000D+00
     35  0.000000D+00  0.000000D+00  0.000000D+00  0.000000D+00  0.000000D+00
     36  0.000000D+00  0.000000D+00  0.000000D+00  0.000000D+00  0.000000D+00
     37  0.000000D+00  0.000000D+00  0.000000D+00  0.000000D+00  0.000000D+00
     38 -0.825145D-01  0.000000D+00  0.000000D+00  0.000000D+00  0.000000D+00
     39  0.000000D+00  0.000000D+00  0.000000D+00  0.000000D+00  0.000000D+00
     40  0.000000D+00  0.000000D+00  0.000000D+00  0.000000D+00  0.000000D+00
     41  0.000000D+00  0.000000D+00  0.000000D+00  0.000000D+00  0.000000D+00
     42  0.000000D+00  0.000000D+00  0.000000D+00  0.000000D+00  0.000000D+00
     43  0.000000D+00  0.000000D+00  0.000000D+00  0.000000D+00  0.000000D+00
     44  0.000000D+00  0.000000D+00  0.000000D+00  0.000000D+00  0.000000D+00
                6             7             8             9            10 
      6  0.256601D+00
      7  0.417924D-01  0.381975D-01
      8  0.000000D+00  0.000000D+00  0.395927D+02
      9  0.000000D+00  0.000000D+00  0.000000D+00  0.395927D+02
     10  0.000000D+00  0.000000D+00  0.000000D+00  0.000000D+00  0.395927D+02
     11  0.000000D+00  0.000000D+00  0.114763D+01  0.000000D+00  0.000000D+00
     12  0.000000D+00  0.000000D+00  0.000000D+00  0.114763D+01  0.000000D+00
     13  0.000000D+00  0.000000D+00  0.000000D+00  0.000000D+00  0.114763D+01
     14  0.000000D+00  0.000000D+00 -0.629779D-01  0.000000D+00  0.000000D+00
     15  0.000000D+00  0.000000D+00  0.000000D+00 -0.629779D-01  0.000000D+00
     16  0.000000D+00  0.000000D+00  0.000000D+00  0.000000D+00 -0.629779D-01
     17  0.000000D+00  0.000000D+00  0.118366D+01  0.000000D+00  0.000000D+00
     18  0.000000D+00  0.000000D+00  0.000000D+00  0.118366D+01  0.000000D+00
     19  0.000000D+00  0.000000D+00  0.000000D+00  0.000000D+00  0.118366D+01
     20  0.000000D+00  0.000000D+00  0.731911D-03  0.000000D+00  0.000000D+00
     21  0.000000D+00  0.000000D+00  0.000000D+00  0.731911D-03  0.000000D+00
     22  0.000000D+00  0.000000D+00  0.000000D+00  0.000000D+00  0.731911D-03
     23  0.000000D+00  0.000000D+00  0.000000D+00  0.000000D+00  0.000000D+00
     24  0.000000D+00  0.000000D+00  0.000000D+00  0.000000D+00  0.000000D+00
     25  0.000000D+00  0.000000D+00  0.000000D+00  0.000000D+00  0.000000D+00
     26  0.000000D+00  0.000000D+00  0.000000D+00  0.000000D+00  0.000000D+00
     27  0.000000D+00  0.000000D+00  0.000000D+00  0.000000D+00  0.000000D+00
     28  0.000000D+00  0.000000D+00  0.000000D+00  0.000000D+00  0.000000D+00
     29  0.000000D+00  0.000000D+00  0.000000D+00  0.000000D+00  0.000000D+00
     30  0.000000D+00  0.000000D+00  0.000000D+00  0.000000D+00  0.000000D+00
     31  0.000000D+00  0.000000D+00  0.000000D+00  0.000000D+00  0.000000D+00
     32  0.000000D+00  0.000000D+00  0.000000D+00  0.000000D+00  0.000000D+00
     33  0.000000D+00  0.000000D+00  0.000000D+00  0.000000D+00  0.000000D+00
     34  0.000000D+00  0.000000D+00  0.000000D+00  0.000000D+00  0.000000D+00
     35  0.000000D+00  0.000000D+00  0.000000D+00  0.000000D+00  0.000000D+00
     36  0.000000D+00  0.000000D+00  0.000000D+00  0.000000D+00  0.000000D+00
     37  0.000000D+00  0.000000D+00  0.000000D+00  0.000000D+00  0.000000D+00
     38  0.000000D+00  0.000000D+00  0.000000D+00  0.000000D+00  0.000000D+00
     39  0.000000D+00  0.000000D+00  0.000000D+00  0.000000D+00  0.000000D+00
     40  0.000000D+00  0.000000D+00  0.000000D+00  0.000000D+00  0.000000D+00
     41  0.000000D+00  0.000000D+00  0.000000D+00  0.000000D+00  0.000000D+00
     42  0.000000D+00  0.000000D+00  0.000000D+00  0.000000D+00  0.000000D+00
     43  0.000000D+00  0.000000D+00  0.000000D+00  0.000000D+00  0.000000D+00
     44  0.000000D+00  0.000000D+00  0.000000D+00  0.000000D+00  0.000000D+00
               11            12            13            14            15 
     11  0.260289D+01
     12  0.000000D+00  0.260289D+01
     13  0.000000D+00  0.000000D+00  0.260289D+01
     14  0.536747D-01  0.000000D+00  0.000000D+00  0.237446D+00
     15  0.000000D+00  0.536747D-01  0.000000D+00  0.000000D+00  0.237446D+00
     16  0.000000D+00  0.000000D+00  0.536747D-01  0.000000D+00  0.000000D+00
     17  0.203947D+01  0.000000D+00  0.000000D+00  0.159802D+00  0.000000D+00
     18  0.000000D+00  0.203947D+01  0.000000D+00  0.000000D+00  0.159802D+00
     19  0.000000D+00  0.000000D+00  0.203947D+01  0.000000D+00  0.000000D+00
     20  0.140941D-01  0.000000D+00  0.000000D+00  0.758826D-01  0.000000D+00
     21  0.000000D+00  0.140941D-01  0.000000D+00  0.000000D+00  0.758826D-01
     22  0.000000D+00  0.000000D+00  0.140941D-01  0.000000D+00  0.000000D+00
     23  0.000000D+00  0.000000D+00  0.000000D+00  0.000000D+00  0.000000D+00
     24  0.000000D+00  0.000000D+00  0.000000D+00  0.000000D+00  0.000000D+00
     25  0.000000D+00  0.000000D+00  0.000000D+00  0.000000D+00  0.000000D+00
     26  0.000000D+00  0.000000D+00  0.000000D+00  0.000000D+00  0.000000D+00
     27  0.000000D+00  0.000000D+00  0.000000D+00  0.000000D+00  0.000000D+00
     28  0.000000D+00  0.000000D+00  0.000000D+00  0.000000D+00  0.000000D+00
     29  0.000000D+00  0.000000D+00  0.000000D+00  0.000000D+00  0.000000D+00
     30  0.000000D+00  0.000000D+00  0.000000D+00  0.000000D+00  0.000000D+00
     31  0.000000D+00  0.000000D+00  0.000000D+00  0.000000D+00  0.000000D+00
     32  0.000000D+00  0.000000D+00  0.000000D+00  0.000000D+00  0.000000D+00
     33  0.000000D+00  0.000000D+00  0.000000D+00  0.000000D+00  0.000000D+00
     34  0.000000D+00  0.000000D+00  0.000000D+00  0.000000D+00  0.000000D+00
     35  0.000000D+00  0.000000D+00  0.000000D+00  0.000000D+00  0.000000D+00
     36  0.000000D+00  0.000000D+00  0.000000D+00  0.000000D+00  0.000000D+00
     37  0.000000D+00  0.000000D+00  0.000000D+00  0.000000D+00  0.000000D+00
     38  0.000000D+00  0.000000D+00  0.000000D+00  0.000000D+00  0.000000D+00
     39  0.000000D+00  0.000000D+00  0.000000D+00  0.000000D+00  0.000000D+00
     40  0.000000D+00  0.000000D+00  0.000000D+00  0.000000D+00  0.000000D+00
     41  0.000000D+00  0.000000D+00  0.000000D+00  0.000000D+00  0.000000D+00
     42  0.000000D+00  0.000000D+00  0.000000D+00  0.000000D+00  0.000000D+00
     43  0.000000D+00  0.000000D+00  0.000000D+00  0.000000D+00  0.000000D+00
     44  0.000000D+00  0.000000D+00  0.000000D+00  0.000000D+00  0.000000D+00
               16            17            18            19            20 
     16  0.237446D+00
     17  0.000000D+00  0.167591D+01
     18  0.000000D+00  0.000000D+00  0.167591D+01
     19  0.159802D+00  0.000000D+00  0.000000D+00  0.167591D+01
     20  0.000000D+00  0.366117D-01  0.000000D+00  0.000000D+00  0.735025D-01
     21  0.000000D+00  0.000000D+00  0.366117D-01  0.000000D+00  0.000000D+00
     22  0.758826D-01  0.000000D+00  0.000000D+00  0.366117D-01  0.000000D+00
     23  0.000000D+00  0.000000D+00  0.000000D+00  0.000000D+00  0.000000D+00
     24  0.000000D+00  0.000000D+00  0.000000D+00  0.000000D+00  0.000000D+00
     25  0.000000D+00  0.000000D+00  0.000000D+00  0.000000D+00  0.000000D+00
     26  0.000000D+00  0.000000D+00  0.000000D+00  0.000000D+00  0.000000D+00
     27  0.000000D+00  0.000000D+00  0.000000D+00  0.000000D+00  0.000000D+00
     28  0.000000D+00  0.000000D+00  0.000000D+00  0.000000D+00  0.000000D+00
     29  0.000000D+00  0.000000D+00  0.000000D+00  0.000000D+00  0.000000D+00
     30  0.000000D+00  0.000000D+00  0.000000D+00  0.000000D+00  0.000000D+00
     31  0.000000D+00  0.000000D+00  0.000000D+00  0.000000D+00  0.000000D+00
     32  0.000000D+00  0.000000D+00  0.000000D+00  0.000000D+00  0.000000D+00
     33  0.000000D+00  0.000000D+00  0.000000D+00  0.000000D+00  0.000000D+00
     34  0.000000D+00  0.000000D+00  0.000000D+00  0.000000D+00  0.000000D+00
     35  0.000000D+00  0.000000D+00  0.000000D+00  0.000000D+00  0.000000D+00
     36  0.000000D+00  0.000000D+00  0.000000D+00  0.000000D+00  0.000000D+00
     37  0.000000D+00  0.000000D+00  0.000000D+00  0.000000D+00  0.000000D+00
     38  0.000000D+00  0.000000D+00  0.000000D+00  0.000000D+00  0.000000D+00
     39  0.000000D+00  0.000000D+00  0.000000D+00  0.000000D+00  0.000000D+00
     40  0.000000D+00  0.000000D+00  0.000000D+00  0.000000D+00  0.000000D+00
     41  0.000000D+00  0.000000D+00  0.000000D+00  0.000000D+00  0.000000D+00
     42  0.000000D+00  0.000000D+00  0.000000D+00  0.000000D+00  0.000000D+00
     43  0.000000D+00  0.000000D+00  0.000000D+00  0.000000D+00  0.000000D+00
     44  0.000000D+00  0.000000D+00  0.000000D+00  0.000000D+00  0.000000D+00
               21            22            23            24            25 
     21  0.735025D-01
     22  0.000000D+00  0.735025D-01
     23  0.000000D+00  0.000000D+00  0.748962D+00
     24  0.000000D+00  0.000000D+00  0.000000D+00  0.748962D+00
     25  0.000000D+00  0.000000D+00  0.000000D+00  0.000000D+00  0.748962D+00
     26  0.000000D+00  0.000000D+00  0.000000D+00  0.000000D+00  0.000000D+00
     27  0.000000D+00  0.000000D+00  0.000000D+00  0.000000D+00  0.000000D+00
     28  0.000000D+00  0.000000D+00 -0.801358D+00  0.000000D+00  0.000000D+00
     29  0.000000D+00  0.000000D+00  0.000000D+00 -0.801358D+00  0.000000D+00
     30  0.000000D+00  0.000000D+00  0.000000D+00  0.000000D+00 -0.801358D+00
     31  0.000000D+00  0.000000D+00  0.000000D+00  0.000000D+00  0.000000D+00
     32  0.000000D+00  0.000000D+00  0.000000D+00  0.000000D+00  0.000000D+00
     33  0.000000D+00  0.000000D+00  0.143749D+00  0.000000D+00  0.000000D+00
     34  0.000000D+00  0.000000D+00  0.000000D+00  0.143749D+00  0.000000D+00
     35  0.000000D+00  0.000000D+00  0.000000D+00  0.000000D+00  0.143749D+00
     36  0.000000D+00  0.000000D+00  0.000000D+00  0.000000D+00  0.000000D+00
     37  0.000000D+00  0.000000D+00  0.000000D+00  0.000000D+00  0.000000D+00
     38  0.000000D+00  0.000000D+00  0.000000D+00  0.000000D+00  0.000000D+00
     39  0.000000D+00  0.000000D+00  0.000000D+00  0.000000D+00  0.000000D+00
[...]
 NAB=     6 NAA=     3 NBB=     1.
 A-vector RMS=  3.6340977D-03 Max=  1.2177706D-02 conv= 1.00D-05.
 RLE energy=       -0.1280204980
 DE(Corr)= -0.12789116     E(CORR)=     -848.98589896     Delta= 3.82D-03
 NORM(A)=   0.22900364D+01
 Iteration Nr. 148
 **********************
 DD1Dir will call FoFMem   1 times, MxPair=        16
 NAB=     6 NAA=     3 NBB=     1.
 A-vector RMS=  2.3278862D-03 Max=  9.2110750D-03 conv= 1.00D-05.
 RLE energy=       -0.4364964493
 DE(Corr)= -0.12894529     E(CORR)=     -848.98695309     Delta=-1.05D-03
 NORM(A)=   0.96230663D+01
 Iteration Nr. 149
 **********************
 DD1Dir will call FoFMem   1 times, MxPair=        16
 NAB=     6 NAA=     3 NBB=     1.
 A-vector RMS=  9.8444338D-01 Max=  3.9104817D+00 conv= 1.00D-05.
 RLE energy=       -0.1297617504
 DE(Corr)= -0.86069189E-01 E(CORR)=     -848.94407699     Delta= 4.29D-02
 NORM(A)=   0.22996948D+01
 Iteration Nr. 150
 **********************
 DD1Dir will call FoFMem   1 times, MxPair=        16
 NAB=     6 NAA=     3 NBB=     1.
 A-vector RMS=  1.5561122D-03 Max=  8.3865815D-03 conv= 1.00D-05.
 RLE energy=       -0.1297144464
 DE(Corr)= -0.12912865     E(CORR)=     -848.98713645     Delta=-4.31D-02
 NORM(A)=   0.23146681D+01
 Iteration Nr. 151
 **********************
 DD1Dir will call FoFMem   1 times, MxPair=        16
 NAB=     6 NAA=     3 NBB=     1.
 A-vector RMS=  2.0517568D-03 Max=  8.3903453D-03 conv= 1.00D-05.
 RLE energy=       -0.1674826016
 DE(Corr)= -0.12988113     E(CORR)=     -848.98788893     Delta=-7.52D-04
 NORM(A)=   0.72342583D+01
 Iteration Nr. 152
 **********************
 DD1Dir will call FoFMem   1 times, MxPair=        16
 NAB=     6 NAA=     3 NBB=     1.
 A-vector RMS=  8.5423855D-02 Max=  2.7907503D-01 conv= 1.00D-05.
 RLE energy=       -0.1315375057
 DE(Corr)= -0.13599270     E(CORR)=     -848.99400050     Delta=-6.11D-03
 NORM(A)=   0.23455098D+01
 Iteration Nr. 153
 **********************
 DD1Dir will call FoFMem   1 times, MxPair=        16
 NAB=     6 NAA=     3 NBB=     1.
 A-vector RMS=  1.6960180D-03 Max=  9.3407769D-03 conv= 1.00D-05.
 RLE energy=       -0.1291689100
 DE(Corr)= -0.13043826     E(CORR)=     -848.98844606     Delta= 5.55D-03
 NORM(A)=   0.24265424D+01
 Iteration Nr. 154
 **********************
 DD1Dir will call FoFMem   1 times, MxPair=        16
 NAB=     6 NAA=     3 NBB=     1.
 A-vector RMS=  4.0855388D-03 Max=  1.6674721D-02 conv= 1.00D-05.
 RLE energy=       -0.1468444474
 DE(Corr)= -0.13104318     E(CORR)=     -848.98905098     Delta=-6.05D-04
 NORM(A)=   0.55057293D+01
 Iteration Nr. 155
 **********************
 DD1Dir will call FoFMem   1 times, MxPair=        16
 NAB=     6 NAA=     3 NBB=     1.
 A-vector RMS=  6.4680142D-02 Max=  1.9912970D-01 conv= 1.00D-05.
 RLE energy=       -0.1300935404
 DE(Corr)= -0.12588667     E(CORR)=     -848.98389447     Delta= 5.16D-03
 NORM(A)=   0.33321148D+01
 Iteration Nr. 156
 **********************
 DD1Dir will call FoFMem   1 times, MxPair=        16
 NAB=     6 NAA=     3 NBB=     1.
 A-vector RMS=  1.0175911D-02 Max=  2.5910831D-02 conv= 1.00D-05.
 RLE energy=       -0.1310596665
 DE(Corr)= -0.12565699     E(CORR)=     -848.98366479     Delta= 2.30D-04
 NORM(A)=   0.23571374D+01
 Iteration Nr. 157
 **********************
 DD1Dir will call FoFMem   1 times, MxPair=        16
 NAB=     6 NAA=     3 NBB=     1.
 A-vector RMS=  1.8505192D-03 Max=  4.8355918D-03 conv= 1.00D-05.
 RLE energy=       -0.1333531865
 DE(Corr)= -0.13001593     E(CORR)=     -848.98802373     Delta=-4.36D-03
 NORM(A)=   0.23917581D+01
 Iteration Nr. 158
 **********************
 DD1Dir will call FoFMem   1 times, MxPair=        16
 NAB=     6 NAA=     3 NBB=     1.
 A-vector RMS=  3.1066386D-03 Max=  1.0477846D-02 conv= 1.00D-05.
 RLE energy=       -0.1290415310
 DE(Corr)= -0.13062586     E(CORR)=     -848.98863366     Delta=-6.10D-04
 NORM(A)=   0.23667808D+01
 Iteration Nr. 159
 **********************
 DD1Dir will call FoFMem   1 times, MxPair=        16
 NAB=     6 NAA=     3 NBB=     1.
 A-vector RMS=  2.9484435D-03 Max=  1.2964838D-02 conv= 1.00D-05.
 RLE energy=       -0.1326650825
 DE(Corr)= -0.13064642     E(CORR)=     -848.98865422     Delta=-2.06D-05
 NORM(A)=   0.24089622D+01
 Iteration Nr. 160
 **********************
 DD1Dir will call FoFMem   1 times, MxPair=        16
 NAB=     6 NAA=     3 NBB=     1.
 A-vector RMS=  1.9512108D-03 Max=  6.5547120D-03 conv= 1.00D-05.
 RLE energy=       -0.2039135326
 DE(Corr)= -0.13117112     E(CORR)=     -848.98917892     Delta=-5.25D-04
 NORM(A)=   0.56394136D+01
 Iteration Nr. 161
 **********************
 DD1Dir will call FoFMem   1 times, MxPair=        16
 NAB=     6 NAA=     3 NBB=     1.
 A-vector RMS=  1.3091932D-01 Max=  4.2651691D-01 conv= 1.00D-05.
 RLE energy=       -0.1314136333
 DE(Corr)= -0.11254551     E(CORR)=     -848.97055331     Delta= 1.86D-02
 NORM(A)=   0.23121146D+01
 Iteration Nr. 162
 **********************
 DD1Dir will call FoFMem   1 times, MxPair=        16
 NAB=     6 NAA=     3 NBB=     1.
 A-vector RMS=  2.6808199D-03 Max=  9.4215560D-03 conv= 1.00D-05.
 RLE energy=       -0.1288976253
 DE(Corr)= -0.12938306     E(CORR)=     -848.98739086     Delta=-1.68D-02
 NORM(A)=   0.22113003D+01
 Iteration Nr. 163
 **********************
 DD1Dir will call FoFMem   1 times, MxPair=        16
 NAB=     6 NAA=     3 NBB=     1.
 A-vector RMS=  2.8439819D-03 Max=  1.3531377D-02 conv= 1.00D-05.
 RLE energy=       -0.1277688804
 DE(Corr)= -0.12865667     E(CORR)=     -848.98666448     Delta= 7.26D-04
 NORM(A)=   0.22443639D+01
 Iteration Nr. 164
 **********************
 DD1Dir will call FoFMem   1 times, MxPair=        16
 NAB=     6 NAA=     3 NBB=     1.
 A-vector RMS=  5.0402453D-03 Max=  1.9065554D-02 conv= 1.00D-05.
 RLE energy=       -0.1286316071
 DE(Corr)= -0.12938154     E(CORR)=     -848.98738935     Delta=-7.25D-04
 NORM(A)=   0.26727144D+01
 Iteration Nr. 165
 **********************
 DD1Dir will call FoFMem   1 times, MxPair=        16
 NAB=     6 NAA=     3 NBB=     1.
 A-vector RMS=  6.4431777D-03 Max=  2.7450262D-02 conv= 1.00D-05.
 RLE energy=       -0.1350825516
 DE(Corr)= -0.13213970     E(CORR)=     -848.99014750     Delta=-2.76D-03
 NORM(A)=   0.25884565D+01
 Iteration Nr. 166
 **********************
 DD1Dir will call FoFMem   1 times, MxPair=        16
 NAB=     6 NAA=     3 NBB=     1.
 A-vector RMS=  4.4205492D-03 Max=  2.0581572D-02 conv= 1.00D-05.
 RLE energy=       -0.1675378004
 DE(Corr)= -0.13138473     E(CORR)=     -848.98939253     Delta= 7.55D-04
 NORM(A)=   0.51493501D+01
 Iteration Nr. 167
 **********************
 DD1Dir will call FoFMem   1 times, MxPair=        16
 NAB=     6 NAA=     3 NBB=     1.
 A-vector RMS=  4.7109180D-02 Max=  1.6034931D-01 conv= 1.00D-05.
 RLE energy=       -0.2018011705
 DE(Corr)= -0.13332443     E(CORR)=     -848.99133223     Delta=-1.94D-03
 NORM(A)=   0.10490424D+02
 Iteration Nr. 168
 **********************
 DD1Dir will call FoFMem   1 times, MxPair=        16
 NAB=     6 NAA=     3 NBB=     1.
 A-vector RMS=  1.6537307D-01 Max=  6.7989225D-01 conv= 1.00D-05.
 RLE energy=       -0.1289292188
 DE(Corr)= -0.10740884     E(CORR)=     -848.96541664     Delta= 2.59D-02
 NORM(A)=   0.22559675D+01
 Iteration Nr. 169
 **********************
 DD1Dir will call FoFMem   1 times, MxPair=        16
 NAB=     6 NAA=     3 NBB=     1.
 A-vector RMS=  2.3785956D-03 Max=  1.0979543D-02 conv= 1.00D-05.
 RLE energy=       -0.1259309000
 DE(Corr)= -0.12906127     E(CORR)=     -848.98706908     Delta=-2.17D-02
 NORM(A)=   0.22345195D+01
 Iteration Nr. 170
 **********************
 DD1Dir will call FoFMem   1 times, MxPair=        16
 NAB=     6 NAA=     3 NBB=     1.
 A-vector RMS=  4.1633950D-03 Max=  1.5687554D-02 conv= 1.00D-05.
 RLE energy=       -0.1343108013
 DE(Corr)= -0.12835416     E(CORR)=     -848.98636196     Delta= 7.07D-04
 NORM(A)=   0.24012368D+01
 Iteration Nr. 171
 **********************
 DD1Dir will call FoFMem   1 times, MxPair=        16
 NAB=     6 NAA=     3 NBB=     1.
 A-vector RMS=  4.9320812D-03 Max=  1.7846529D-02 conv= 1.00D-05.
 RLE energy=       -0.1277350883
 DE(Corr)= -0.12996944     E(CORR)=     -848.98797724     Delta=-1.62D-03
 NORM(A)=   0.22804815D+01
 Iteration Nr. 172
 **********************
 DD1Dir will call FoFMem   1 times, MxPair=        16
 NAB=     6 NAA=     3 NBB=     1.
 A-vector RMS=  2.7049881D-03 Max=  9.5933286D-03 conv= 1.00D-05.
 RLE energy=       -0.1283959492
 DE(Corr)= -0.12887143     E(CORR)=     -848.98687923     Delta= 1.10D-03
 NORM(A)=   0.22870897D+01
 Iteration Nr. 173
 **********************
 DD1Dir will call FoFMem   1 times, MxPair=        16
 NAB=     6 NAA=     3 NBB=     1.
 A-vector RMS=  2.5492471D-03 Max=  8.9492741D-03 conv= 1.00D-05.
 RLE energy=       -0.2952516676
 DE(Corr)= -0.12938579     E(CORR)=     -848.98739359     Delta=-5.14D-04
 NORM(A)=   0.13494234D+02
 Iteration Nr. 174
 **********************
 DD1Dir will call FoFMem   1 times, MxPair=        16
 NAB=     6 NAA=     3 NBB=     1.
 A-vector RMS=  5.3835846D-01 Max=  2.2823720D+00 conv= 1.00D-05.
 RLE energy=       -0.1254798075
 DE(Corr)= -0.10618841     E(CORR)=     -848.96419621     Delta= 2.32D-02
 NORM(A)=   0.22523533D+01
 Iteration Nr. 175
 **********************
 DD1Dir will call FoFMem   1 times, MxPair=        16
 NAB=     6 NAA=     3 NBB=     1.
 A-vector RMS=  4.7880587D-03 Max=  1.9975542D-02 conv= 1.00D-05.
 RLE energy=       -0.1292462179
 DE(Corr)= -0.12881328     E(CORR)=     -848.98682109     Delta=-2.26D-02
 NORM(A)=   0.23536730D+01
 Iteration Nr. 176
 **********************
 DD1Dir will call FoFMem   1 times, MxPair=        16
 NAB=     6 NAA=     3 NBB=     1.
 A-vector RMS=  2.4051122D-03 Max=  9.8691708D-03 conv= 1.00D-05.
 RLE energy=       -0.1292109824
 DE(Corr)= -0.13047936     E(CORR)=     -848.98848716     Delta=-1.67D-03
 NORM(A)=   0.23876932D+01
 Iteration Nr. 177
 **********************
 DD1Dir will call FoFMem   1 times, MxPair=        16
 NAB=     6 NAA=     3 NBB=     1.
 A-vector RMS=  2.6162224D-03 Max=  1.1170773D-02 conv= 1.00D-05.
 RLE energy=       -0.1352057460
 DE(Corr)= -0.13079080     E(CORR)=     -848.98879860     Delta=-3.11D-04
 NORM(A)=   0.25901141D+01
 Iteration Nr. 178
 **********************
 DD1Dir will call FoFMem   1 times, MxPair=        16
 NAB=     6 NAA=     3 NBB=     1.
 A-vector RMS=  3.2403315D-03 Max=  1.1504743D-02 conv= 1.00D-05.
 RLE energy=       -0.1308224131
 DE(Corr)= -0.13241791     E(CORR)=     -848.99042571     Delta=-1.63D-03
 NORM(A)=   0.23731576D+01
 Iteration Nr. 179
 **********************
 DD1Dir will call FoFMem   1 times, MxPair=        16
 NAB=     6 NAA=     3 NBB=     1.
 A-vector RMS=  1.3097223D-03 Max=  7.0344280D-03 conv= 1.00D-05.
 RLE energy=       -0.1122135449
 DE(Corr)= -0.13054317     E(CORR)=     -848.98855097     Delta= 1.87D-03
 NORM(A)=   0.24676306D+01
 Iteration Nr. 180
 **********************
 DD1Dir will call FoFMem   1 times, MxPair=        16
 NAB=     6 NAA=     3 NBB=     1.
 A-vector RMS=  1.9476438D-02 Max=  8.0946499D-02 conv= 1.00D-05.
 RLE energy=       -0.1320895117
 DE(Corr)= -0.12892223     E(CORR)=     -848.98693003     Delta= 1.62D-03
 NORM(A)=   0.23453194D+01
 Iteration Nr. 181
 **********************
 DD1Dir will call FoFMem   1 times, MxPair=        16
 NAB=     6 NAA=     3 NBB=     1.
 A-vector RMS=  2.4943181D-03 Max=  8.6158281D-03 conv= 1.00D-05.
 RLE energy=       -0.1302667153
 DE(Corr)= -0.13061387     E(CORR)=     -848.98862167     Delta=-1.69D-03
 NORM(A)=   0.25507519D+01
 Iteration Nr. 182
 **********************
 DD1Dir will call FoFMem   1 times, MxPair=        16
 NAB=     6 NAA=     3 NBB=     1.
 A-vector RMS=  2.3515993D-03 Max=  9.0192691D-03 conv= 1.00D-05.
 RLE energy=       -0.2957047351
 DE(Corr)= -0.13137543     E(CORR)=     -848.98938323     Delta=-7.62D-04
 NORM(A)=   0.14513522D+02
 Iteration Nr. 183
 **********************
 DD1Dir will call FoFMem   1 times, MxPair=        16
 NAB=     6 NAA=     3 NBB=     1.
 A-vector RMS=  5.7262311D-01 Max=  2.4566281D+00 conv= 1.00D-05.
 RLE energy=       -0.1282691125
 DE(Corr)= -0.13873409E-01 E(CORR)=     -848.87188121     Delta= 1.18D-01
 NORM(A)=   0.22942217D+01
 Iteration Nr. 184
 **********************
 DD1Dir will call FoFMem   1 times, MxPair=        16
 NAB=     6 NAA=     3 NBB=     1.
 A-vector RMS=  2.2840809D-03 Max=  9.0727597D-03 conv= 1.00D-05.
 RLE energy=       -0.1287179786
 DE(Corr)= -0.12931636     E(CORR)=     -848.98732417     Delta=-1.15D-01
 NORM(A)=   0.23104399D+01
 Iteration Nr. 185
 **********************
 DD1Dir will call FoFMem   1 times, MxPair=        16
 NAB=     6 NAA=     3 NBB=     1.
 A-vector RMS=  1.8086671D-03 Max=  9.4599714D-03 conv= 1.00D-05.
 RLE energy=       -0.1852993120
 DE(Corr)= -0.12845393     E(CORR)=     -848.98646173     Delta= 8.62D-04
 NORM(A)=   0.41436057D+01
 Iteration Nr. 186
 **********************
 DD1Dir will call FoFMem   1 times, MxPair=        16
 NAB=     6 NAA=     3 NBB=     1.
 A-vector RMS=  8.1566533D-02 Max=  2.8325085D-01 conv= 1.00D-05.
 RLE energy=       -0.1341570999
 DE(Corr)= -0.12213100     E(CORR)=     -848.98013880     Delta= 6.32D-03
 NORM(A)=   0.29551174D+01
 Iteration Nr. 187
 **********************
 DD1Dir will call FoFMem   1 times, MxPair=        16
 NAB=     6 NAA=     3 NBB=     1.
 A-vector RMS=  1.3397074D-02 Max=  4.5449379D-02 conv= 1.00D-05.
 RLE energy=       -0.1296502368
 DE(Corr)= -0.12670570     E(CORR)=     -848.98471350     Delta=-4.57D-03
 NORM(A)=   0.23008724D+01
 Iteration Nr. 188
 **********************
 DD1Dir will call FoFMem   1 times, MxPair=        16
 NAB=     6 NAA=     3 NBB=     1.
 A-vector RMS=  1.4916683D-03 Max=  8.0330108D-03 conv= 1.00D-05.
 RLE energy=       -0.1390936754
 DE(Corr)= -0.12916641     E(CORR)=     -848.98717421     Delta=-2.46D-03
 NORM(A)=   0.24238090D+01
 Iteration Nr. 189
 **********************
 DD1Dir will call FoFMem   1 times, MxPair=        16
 NAB=     6 NAA=     3 NBB=     1.
 A-vector RMS=  8.8470394D-03 Max=  3.0881141D-02 conv= 1.00D-05.
 RLE energy=       -0.1307094164
 DE(Corr)= -0.13077574     E(CORR)=     -848.98878354     Delta=-1.61D-03
 NORM(A)=   0.23562688D+01
 Iteration Nr. 190
 **********************
 DD1Dir will call FoFMem   1 times, MxPair=        16
 NAB=     6 NAA=     3 NBB=     1.
 A-vector RMS=  1.1344489D-03 Max=  5.3457512D-03 conv= 1.00D-05.
 RLE energy=       -0.1323667847
 DE(Corr)= -0.13041906     E(CORR)=     -848.98842686     Delta= 3.57D-04
 NORM(A)=   0.24857418D+01
 Iteration Nr. 191
 **********************
 DD1Dir will call FoFMem   1 times, MxPair=        16
 NAB=     6 NAA=     3 NBB=     1.
 A-vector RMS=  1.4080065D-03 Max=  4.2649949D-03 conv= 1.00D-05.
 RLE energy=       -0.1302625591
 DE(Corr)= -0.13146459     E(CORR)=     -848.98947239     Delta=-1.05D-03
 NORM(A)=   0.23384371D+01
 Iteration Nr. 192
 **********************
 DD1Dir will call FoFMem   1 times, MxPair=        16
 NAB=     6 NAA=     3 NBB=     1.
 A-vector RMS=  1.2491268D-03 Max=  5.9055350D-03 conv= 1.00D-05.
 RLE energy=       -0.1421029389
 DE(Corr)= -0.13018808     E(CORR)=     -848.98819588     Delta= 1.28D-03
 NORM(A)=   0.28062885D+01
 Iteration Nr. 193
 **********************
 DD1Dir will call FoFMem   1 times, MxPair=        16
 NAB=     6 NAA=     3 NBB=     1.
 A-vector RMS=  1.2427436D-02 Max=  5.1341883D-02 conv= 1.00D-05.
 RLE energy=       -0.1349861828
 DE(Corr)= -0.13282506     E(CORR)=     -848.99083286     Delta=-2.64D-03
 NORM(A)=   0.25528858D+01
 Iteration Nr. 194
 **********************
 DD1Dir will call FoFMem   1 times, MxPair=        16
 NAB=     6 NAA=     3 NBB=     1.
 A-vector RMS=  4.1359967D-03 Max=  1.3287856D-02 conv= 1.00D-05.
 RLE energy=       -0.1268437777
 DE(Corr)= -0.13215493     E(CORR)=     -848.99016273     Delta= 6.70D-04
 NORM(A)=   0.27835492D+01
 Iteration Nr. 195
 **********************
 DD1Dir will call FoFMem   1 times, MxPair=        16
 NAB=     6 NAA=     3 NBB=     1.
 A-vector RMS=  4.8628613D-03 Max=  1.7274439D-02 conv= 1.00D-05.
 RLE energy=       -0.1321444526
 DE(Corr)= -0.12661234     E(CORR)=     -848.98462014     Delta= 5.54D-03
 NORM(A)=   0.33556632D+01
 Iteration Nr. 196
 **********************
 DD1Dir will call FoFMem   1 times, MxPair=        16
 NAB=     6 NAA=     3 NBB=     1.
 A-vector RMS=  5.0434084D-03 Max=  1.9343353D-02 conv= 1.00D-05.
 RLE energy=       -0.2551955695
 DE(Corr)= -0.13348523     E(CORR)=     -848.99149303     Delta=-6.87D-03
 NORM(A)=   0.92952442D+01
 Iteration Nr. 197
 **********************
 DD1Dir will call FoFMem   1 times, MxPair=        16
 NAB=     6 NAA=     3 NBB=     1.
 A-vector RMS=  3.2028763D-01 Max=  1.1127716D+00 conv= 1.00D-05.
 RLE energy=       -0.1601915337
 DE(Corr)= -0.64368460E-01 E(CORR)=     -848.92237626     Delta= 6.91D-02
 NORM(A)=   0.51751868D+01
 Iteration Nr. 198
 **********************
 DD1Dir will call FoFMem   1 times, MxPair=        16
 NAB=     6 NAA=     3 NBB=     1.
 A-vector RMS=  4.9789678D-02 Max=  1.5301364D-01 conv= 1.00D-05.
 RLE energy=       -0.1337559328
 DE(Corr)= -0.12907448     E(CORR)=     -848.98708228     Delta=-6.47D-02
 NORM(A)=   0.24747137D+01
 Iteration Nr. 199
 **********************
 DD1Dir will call FoFMem   1 times, MxPair=        16
 NAB=     6 NAA=     3 NBB=     1.
 A-vector RMS=  2.5054967D-03 Max=  9.5254488D-03 conv= 1.00D-05.
 RLE energy=       -0.1309038233
 DE(Corr)= -0.13156840     E(CORR)=     -848.98957620     Delta=-2.49D-03
 NORM(A)=   0.23882751D+01
 Iteration Nr. 200
 **********************
 DD1Dir will call FoFMem   1 times, MxPair=        16
 NAB=     6 NAA=     3 NBB=     1.
 A-vector RMS=  9.5623580D-04 Max=  4.0113820D-03 conv= 1.00D-05.
 RLE energy=       -0.1310497032
 DE(Corr)= -0.13073340     E(CORR)=     -848.98874120     Delta= 8.35D-04
 NORM(A)=   0.23527346D+01
 *************
 *MAX. CYCLES*
 *************
 Dominant configurations:
 ***********************
 Spin Case        I    J    A    B          Value
    AA           11        13            0.205743D+00
    AA           12        13           -0.101015D+01
    AA           12        16           -0.481226D+00
    AA           12        18           -0.346582D+00
    AA           12        21           -0.239206D+00
    AA           12        26            0.306039D+00
    AA           12        31            0.142303D+00
    BB           11        12            0.115468D+01
    BB           11        15            0.397500D+00
    BB           11        17            0.453460D+00
    BB           11        20            0.259350D+00
    BB           11        24           -0.263397D+00
   AAAA          12   10   17   19       0.303337D+00
   AAAA          12   10   17   27      -0.273170D+00
   AAAA          12   10   25   19      -0.236588D+00
   AAAA          12   10   25   27       0.206454D+00
   ABAB          11   11   13   12      -0.139203D+00
   ABAB          12   11   13   12       0.461096D+00
   ABAB          12   11   13   15       0.230050D+00
   ABAB          12   11   13   17       0.216477D+00
   ABAB          12   11   13   20       0.114053D+00
   ABAB          12   11   13   24      -0.161117D+00
   ABAB          12   11   16   12       0.196667D+00
   ABAB          12   11   16   15       0.125262D+00
   ABAB          12   11   16   17       0.110447D+00
   ABAB          12   11   18   12       0.190689D+00
   ABAB          12   11   26   12      -0.129011D+00
   ABAB          10   11   13   19       0.192599D+00
   ABAB          10   11   13   27      -0.206835D+00
   ABAB          10   11   16   19       0.110960D+00
   ABAB          10   11   16   27      -0.105610D+00
 Largest amplitude= 1.15D+00
 Error termination via Lnk1e in /nopt/nrel/apps/gaussian/g16C_1/g16/l913.exe at Mon Mar 28 09:59:53 2022.
 Job cpu time:       0 days  0 hours  3 minutes 32.0 seconds.
 Elapsed time:       0 days  0 hours  0 minutes  6.3 seconds.
 File lengths (MBytes):  RWF=     14 Int=      0 D2E=      0 Chk=      1 Scr=      1
