 Entering Gaussian System, Link 0=g16
 Initial command:
 /nopt/nrel/apps/gaussian/g16C_1/g16/l1.exe "/lustre/eaglefs/scratch/user/qc/nah-dissc/nah-3-ccsd-2.9-ccd/Gau-608.inp" -scrdir="/lustre/eaglefs/scratch/user/qc/nah-dissc/nah-3-ccsd-2.9-ccd/"
 Default is to use a total of  36 processors:
                               36 via shared-memory
                                1 via Linda
 Entering Link 1 = /nopt/nrel/apps/gaussian/g16C_1/g16/l1.exe PID=       609.
  
 Copyright (c) 1988-2019, Gaussian, Inc.  All Rights Reserved.
  
 This is part of the Gaussian(R) 16 program.  It is based on
 the Gaussian(R) 09 system (copyright 2009, Gaussian, Inc.),
 the Gaussian(R) 03 system (copyright 2003, Gaussian, Inc.),
 the Gaussian(R) 98 system (copyright 1998, Gaussian, Inc.),
 the Gaussian(R) 94 system (copyright 1995, Gaussian, Inc.),
 the Gaussian 92(TM) system (copyright 1992, Gaussian, Inc.),
 the Gaussian 90(TM) system (copyright 1990, Gaussian, Inc.),
 the Gaussian 88(TM) system (copyright 1988, Gaussian, Inc.),
 the Gaussian 86(TM) system (copyright 1986, Carnegie Mellon
 University), and the Gaussian 82(TM) system (copyright 1983,
 Carnegie Mellon University). Gaussian is a federally registered
 trademark of Gaussian, Inc.
  
 This software contains proprietary and confidential information,
 including trade secrets, belonging to Gaussian, Inc.
  
 This software is provided under written license and may be
 used, copied, transmitted, or stored only in accord with that
 written license.
  
 The following legend is applicable only to US Government
 contracts under FAR:
  
                    RESTRICTED RIGHTS LEGEND
  
 Use, reproduction and disclosure by the US Government is
 subject to restrictions as set forth in subparagraphs (a)
 and (c) of the Commercial Computer Software - Restricted
 Rights clause in FAR 52.227-19.
  
 Gaussian, Inc.
 340 Quinnipiac St., Bldg. 40, Wallingford CT 06492
  
  
 ---------------------------------------------------------------
 Warning -- This program may not be used in any manner that
 competes with the business of Gaussian, Inc. or will provide
 assistance to any competitor of Gaussian, Inc.  The licensee
 of this program is prohibited from giving any competitor of
 Gaussian, Inc. access to this program.  By using this program,
 the user acknowledges that Gaussian, Inc. is engaged in the
 business of creating and licensing software in the field of
 computational chemistry and represents and warrants to the
 licensee that it is not a competitor of Gaussian, Inc. and that
 it will not use this program in any manner prohibited above.
 ---------------------------------------------------------------
  

 Cite this work as:
 Gaussian 16, Revision C.01,
 M. J. Frisch, G. W. Trucks, H. B. Schlegel, G. E. Scuseria, 
 M. A. Robb, J. R. Cheeseman, G. Scalmani, V. Barone, 
 G. A. Petersson, H. Nakatsuji, X. Li, M. Caricato, A. V. Marenich, 
 J. Bloino, B. G. Janesko, R. Gomperts, B. Mennucci, H. P. Hratchian, 
 J. V. Ortiz, A. F. Izmaylov, J. L. Sonnenberg, D. Williams-Young, 
 F. Ding, F. Lipparini, F. Egidi, J. Goings, B. Peng, A. Petrone, 
 T. Henderson, D. Ranasinghe, V. G. Zakrzewski, J. Gao, N. Rega, 
 G. Zheng, W. Liang, M. Hada, M. Ehara, K. Toyota, R. Fukuda, 
 J. Hasegawa, M. Ishida, T. Nakajima, Y. Honda, O. Kitao, H. Nakai, 
 T. Vreven, K. Throssell, J. A. Montgomery, Jr., J. E. Peralta, 
 F. Ogliaro, M. J. Bearpark, J. J. Heyd, E. N. Brothers, K. N. Kudin, 
 V. N. Staroverov, T. A. Keith, R. Kobayashi, J. Normand, 
 K. Raghavachari, A. P. Rendell, J. C. Burant, S. S. Iyengar, 
 J. Tomasi, M. Cossi, J. M. Millam, M. Klene, C. Adamo, R. Cammi, 
 J. W. Ochterski, R. L. Martin, K. Morokuma, O. Farkas, 
 J. B. Foresman, and D. J. Fox, Gaussian, Inc., Wallingford CT, 2019.
 
 ******************************************
 Gaussian 16:  ES64L-G16RevC.01  3-Jul-2019
                28-Mar-2022 
 ******************************************
 %chk=molecule
 Default route: CacheSize=180224 MaxDisk=256GB
 ----------------------------------------------------------------------
 #P CCSD(MaxCyc=200,SaveAmplitudes,ReadAmplitudes)/GEN sp pop=AllOrbita
 ls iop(3/33=1,3/36=-1)
 ----------------------------------------------------------------------
 1/4=180224,38=1,172=1/1;
 2/4=180224,12=2,17=6,18=5,40=1/2;
 3/4=180224,5=7,11=9,25=1,30=1,33=1,36=-1/1,2,3;
 4/4=180224/1;
 5/4=180224,5=2,38=5/2;
 8/4=180224,6=4,9=120000,10=1,24=1/1,4;
 9/4=180224,5=7,6=200,77=1/13;
 6/4=180224,7=2,8=2,9=2,10=2,96=-1/1;
 99/4=180224,5=1,9=1/99;
 Leave Link    1 at Mon Mar 28 14:26:33 2022, MaxMem=           0 cpu:               2.1 elap:               0.1
 (Enter /nopt/nrel/apps/gaussian/g16C_1/g16/l101.exe)
 ----
 test
 ----
 Symbolic Z-matrix:
 Charge =  0 Multiplicity = 3
 H                     0.        0.        0. 
 Na                    0.        0.        2.9 
 
 ITRead=  0  0
 MicOpt= -1 -1
 NAtoms=      2 NQM=        2 NQMF=       0 NMMI=      0 NMMIF=      0
                NMic=       0 NMicF=      0.
                    Isotopes and Nuclear Properties:
 (Nuclear quadrupole moments (NQMom) in fm**2, nuclear magnetic moments (NMagM)
  in nuclear magnetons)

  Atom         1           2
 IAtWgt=           1          23
 AtmWgt=   1.0078250  22.9897697
 NucSpn=           1           3
 AtZEff=  -0.0000000  -0.0000000
 NQMom=    0.0000000  10.4000000
 NMagM=    2.7928460   2.2175200
 AtZNuc=   1.0000000  11.0000000
 Leave Link  101 at Mon Mar 28 14:26:33 2022, MaxMem=  9663676416 cpu:               3.1 elap:               0.1
 (Enter /nopt/nrel/apps/gaussian/g16C_1/g16/l202.exe)
                          Input orientation:                          
 ---------------------------------------------------------------------
 Center     Atomic      Atomic             Coordinates (Angstroms)
 Number     Number       Type             X           Y           Z
 ---------------------------------------------------------------------
      1          1           0        0.000000    0.000000    0.000000
      2         11           0        0.000000    0.000000    2.900000
 ---------------------------------------------------------------------
 Stoichiometry    HNa(3)
 Framework group  C*V[C*(HNa)]
 Deg. of freedom     1
 Full point group                 C*V     NOp   4
 Largest Abelian subgroup         C2V     NOp   4
 Largest concise Abelian subgroup C1      NOp   1
                         Standard orientation:                         
 ---------------------------------------------------------------------
 Center     Atomic      Atomic             Coordinates (Angstroms)
 Number     Number       Type             X           Y           Z
 ---------------------------------------------------------------------
      1          1           0        0.000000    0.000000   -2.658333
      2         11           0        0.000000    0.000000    0.241667
 ---------------------------------------------------------------------
 Rotational constants (GHZ):           0.0000000          62.2399385          62.2399385
 Leave Link  202 at Mon Mar 28 14:26:33 2022, MaxMem=  9663676416 cpu:               1.3 elap:               0.1
 (Enter /nopt/nrel/apps/gaussian/g16C_1/g16/l301.exe)
 General basis read from cards:  (5D, 7F)
                         Coordinates in L301:                         
 ---------------------------------------------------------------------
 Center     Atomic      Atomic             Coordinates (Angstroms)
 Number     Number       Type             X           Y           Z
 ---------------------------------------------------------------------
      1          1           0        0.000000    0.000000   -2.658333
      2         11           0        0.000000    0.000000    0.241667
 ---------------------------------------------------------------------
 Centers:       1
 STO-3G
 ****
 Centers:       2
 cc-pVDZ
 ****
 FixB: optimizing general contractions.
 Ernie: Thresh=  0.10000D-02 Tol=  0.10000D-05 Strict=F.
 IA=     1 ShT= 0 ShC= 0 NL=   1 NS=   0.
 IA=     1 L=0 SC=0 ISt=    0 NBk=    0 NP=    0 IndPr=    0.
 IA=     2 ShT= 0 ShC= 0 NL=   4 NS=   1.
 IA=     2 L=0 SC=0 ISt=    1 NBk=    3 NP=   11 IndPr=    0.
 DoElim1:  L=0 select primitive    2 from    2 using    1 C= 3.55D-03
 DoElim1:  L=0 select primitive    2 from    3 using    1 C= 3.55D-03
 DoElim1:  L=0 select primitive    5 from    3 using    2 C=-6.14D-03
 DoElim2:  L=0 select primitive   11 from    2 using    3 C= 6.58D-01
 DoElim2:  L=0 select primitive   11 from    1 using    3 C= 6.58D-01
 DoElim2:  L=0 select primitive    9 from    1 using    2 C= 6.03D-01
 Delete L=0 primitive    5 from    3 C=  6.52D-20.
 Delete L=0 primitive    2 from    3 C=  2.06D-20.
 Delete L=0 primitive    1 from    3 C=  1.41D-07.
 Delete L=0 primitive   11 from    2 C=  1.18D-19.
 Delete L=0 primitive    2 from    2 C=  4.53D-20.
 Delete L=0 primitive    1 from    2 C=  7.82D-08.
 Delete L=0 primitive   11 from    1 C=  5.55D-21.
 Delete L=0 primitive    9 from    1 C=  4.94D-19.
 IA=     2 L=0 SC=0 ISt=    0 NBk=    0 NP=    0 IndPr=   25.
 IA=     2 ShT= 1 ShC= 1 NL=   3 NS=   1.
 IA=     2 L=1 SC=1 ISt=    1 NBk=    2 NP=    7 IndPr=    0.
 DoElim1:  L=1 select primitive    1 from    2 using    1 C= 5.80D-03
 DoElim2:  L=1 select primitive    7 from    1 using    2 C= 4.35D-01
 Delete L=1 primitive    1 from    2 C=  1.56D-20.
 Delete L=1 primitive    7 from    1 C=  1.56D-19.
 IA=     2 L=1 SC=1 ISt=    0 NBk=    0 NP=    0 IndPr=   12.
 IA=     2 ShT= 2 ShC= 2 NL=   1 NS=   1.
 IA=     2 L=2 SC=2 ISt=    0 NBk=    0 NP=    0 IndPr=    0.
 Ernie:  10 primitive shells out of 53 were deleted.
 LdAtmC:  AtmChg=     1.000000    11.000000
 AtZEff=     -1.0000000    -10.0400000
 NEqShl: 
              1            2            3            4
     1            1            1            1            1
     2            2            2            2            2
     3            3            3            3            3
     4            4            4            4            4
     5            5            5            5            5
     6            6            6            6            6
     7            7            7            7            7
     8            8            8            8            8
     9            9            9            9            9
 NEqBas: 
              1            2            3            4
     1            1            1            1            1
     2            2            2            2            2
     3            3            3            3            3
     4            4            4            4            4
     5            5            5            5            5
     6            6           -6           -6            6
     7            7           -7            7           -7
     8            8            8            8            8
     9            9           -9           -9            9
    10           10          -10           10          -10
    11           11           11           11           11
    12           12          -12          -12           12
    13           13          -13           13          -13
    14           14           14           14           14
    15           15           15           15           15
    16           16           16           16           16
    17           17           17           17           17
    18           18           18          -18          -18
    19           19          -19          -19           19
    20           20          -20           20          -20
 There are    11 symmetry adapted cartesian basis functions of A1  symmetry.
   1         1   1   1   1
   2         2   2   2   2
   3         3   3   3   3
   4         4   4   4   4
   5         5   5   5   5
   6         8   8   8   8
   7        11  11  11  11
   8        14  14  14  14
   9        15  15  15  15
  10        16  16  16  16
  11        17  17  17  17
 There are     1 symmetry adapted cartesian basis functions of A2  symmetry.
  12        18  18  18  18
 There are     4 symmetry adapted cartesian basis functions of B1  symmetry.
  13         6   6   6   6
  14         9   9   9   9
  15        12  12  12  12
  16        19  19  19  19
 There are     4 symmetry adapted cartesian basis functions of B2  symmetry.
  17         7   7   7   7
  18        10  10  10  10
  19        13  13  13  13
  20        20  20  20  20
 Order= 1 2 4 3
 Reordered character table:
              1            2            3            4            5
     1            1            1            1            1            1
     2            2            1            1           -1           -1
     3            4            1           -1           -1            1
     4            3            1           -1            1           -1
 NEqShl: 
              1            2            3            4
     1            1            1            1            1
     2            2            2            2            2
     3            3            3            3            3
     4            4            4            4            4
     5            5            5            5            5
     6            6            6            6            6
     7            7            7            7            7
     8            8            8            8            8
     9            9            9            9            9
 NEqBas: 
              1            2            3            4
     1            1            1            1            1
     2            2            2            2            2
     3            3            3            3            3
     4            4            4            4            4
     5            5            5            5            5
     6            6           -6           -6            6
     7            7           -7            7           -7
     8            8            8            8            8
     9            9           -9           -9            9
    10           10          -10           10          -10
    11           11           11           11           11
    12           12          -12          -12           12
    13           13          -13           13          -13
    14           14           14           14           14
    15           15           15           15           15
    16           16          -16          -16           16
    17           17          -17           17          -17
    18           18           18           18           18
    19           19           19          -19          -19
 There are    10 symmetry adapted basis functions of A1  symmetry.
   1         1   1   1   1
   2         2   2   2   2
   3         3   3   3   3
   4         4   4   4   4
   5         5   5   5   5
   6         8   8   8   8
   7        11  11  11  11
   8        14  14  14  14
   9        15  15  15  15
  10        18  18  18  18
 There are     1 symmetry adapted basis functions of A2  symmetry.
  11        19  19  19  19
 There are     4 symmetry adapted basis functions of B1  symmetry.
  12         6   6   6   6
  13         9   9   9   9
  14        12  12  12  12
  15        16  16  16  16
 There are     4 symmetry adapted basis functions of B2  symmetry.
  16         7   7   7   7
  17        10  10  10  10
  18        13  13  13  13
  19        17  17  17  17
 Order= 1 2 4 3
 Reordered character table:
              1            2            3            4            5
     1            1            1            1            1            1
     2            2            1            1           -1           -1
     3            4            1           -1           -1            1
     4            3            1           -1            1           -1
    19 basis functions,    74 primitive gaussians,    20 cartesian basis functions
     7 alpha electrons        5 beta electrons
       nuclear repulsion energy         2.0072239035 Hartrees.
 IS=     1 IAt=     1 ISR=     1 T=0 IP=      1 IndIP=      1 IndIPD=      0 C=  2.769344D-01  0.000000D+00                             NZ=T
 IS=     1 IAt=     1 ISR=     1 T=0 IP=      2 IndIP=      2 IndIPD=      1 C=  2.678389D-01  0.000000D+00                             NZ=T
 IS=     1 IAt=     1 ISR=     1 T=0 IP=      3 IndIP=      3 IndIPD=      2 C=  8.347367D-02  0.000000D+00                             NZ=T
 IS=     2 IAt=     2 ISR=     1 T=0 IP=      1 IndIP=      4 IndIPD=      0 C=  7.749657D-01  0.000000D+00                             NZ=T
 IS=     2 IAt=     2 ISR=     1 T=0 IP=      2 IndIP=      5 IndIPD=      1 C=  1.445329D+00  0.000000D+00                             NZ=T
 IS=     2 IAt=     2 ISR=     1 T=0 IP=      3 IndIP=      6 IndIPD=      2 C=  2.449022D+00  0.000000D+00                             NZ=T
 IS=     2 IAt=     2 ISR=     1 T=0 IP=      4 IndIP=      7 IndIPD=      3 C=  3.730568D+00  0.000000D+00                             NZ=T
 IS=     2 IAt=     2 ISR=     1 T=0 IP=      5 IndIP=      8 IndIPD=      4 C=  4.755208D+00  0.000000D+00                             NZ=T
 IS=     2 IAt=     2 ISR=     1 T=0 IP=      6 IndIP=      9 IndIPD=      5 C=  4.291841D+00  0.000000D+00                             NZ=T
 IS=     2 IAt=     2 ISR=     1 T=0 IP=      7 IndIP=     10 IndIPD=      6 C=  1.841498D+00  0.000000D+00                             NZ=T
 IS=     2 IAt=     2 ISR=     1 T=0 IP=      8 IndIP=     11 IndIPD=      7 C=  1.370586D-01  0.000000D+00                             NZ=T
 IS=     2 IAt=     2 ISR=     1 T=0 IP=      9 IndIP=     12 IndIPD=      8 C=  3.324917D-03  0.000000D+00                             NZ=T
 IS=     3 IAt=     2 ISR=     2 T=0 IP=      1 IndIP=     13 IndIPD=      0 C= -6.085686D-03  0.000000D+00                             NZ=T
 IS=     3 IAt=     2 ISR=     2 T=0 IP=      2 IndIP=     14 IndIPD=      1 C= -3.114138D-02  0.000000D+00                             NZ=T
 IS=     3 IAt=     2 ISR=     2 T=0 IP=      3 IndIP=     15 IndIPD=      2 C= -1.340760D-01  0.000000D+00                             NZ=T
 IS=     3 IAt=     2 ISR=     2 T=0 IP=      4 IndIP=     16 IndIPD=      3 C= -3.604805D-01  0.000000D+00                             NZ=T
 IS=     3 IAt=     2 ISR=     2 T=0 IP=      5 IndIP=     17 IndIPD=      4 C= -4.954545D-01  0.000000D+00                             NZ=T
 IS=     3 IAt=     2 ISR=     2 T=0 IP=      6 IndIP=     18 IndIPD=      5 C=  2.126614D-01  0.000000D+00                             NZ=T
 IS=     3 IAt=     2 ISR=     2 T=0 IP=      7 IndIP=     19 IndIPD=      6 C=  6.152727D-01  0.000000D+00                             NZ=T
 IS=     3 IAt=     2 ISR=     2 T=0 IP=      8 IndIP=     20 IndIPD=      7 C=  2.071440D-01  0.000000D+00                             NZ=T
 IS=     4 IAt=     2 ISR=     3 T=0 IP=      1 IndIP=     21 IndIPD=      0 C=  1.521098D-03  0.000000D+00                             NZ=T
 IS=     4 IAt=     2 ISR=     3 T=0 IP=      2 IndIP=     22 IndIPD=      1 C= -2.379509D-03  0.000000D+00                             NZ=T
 IS=     4 IAt=     2 ISR=     3 T=0 IP=      3 IndIP=     23 IndIPD=      2 C= -1.988937D-02  0.000000D+00                             NZ=T
 IS=     4 IAt=     2 ISR=     3 T=0 IP=      4 IndIP=     24 IndIPD=      3 C= -6.775799D-03  0.000000D+00                             NZ=T
 IS=     4 IAt=     2 ISR=     3 T=0 IP=      5 IndIP=     25 IndIPD=      4 C= -9.360493D-03  0.000000D+00                             NZ=T
 IS=     4 IAt=     2 ISR=     3 T=0 IP=      6 IndIP=     26 IndIPD=      5 C=  1.615288D-02  0.000000D+00                             NZ=T
 IS=     4 IAt=     2 ISR=     3 T=0 IP=      7 IndIP=     27 IndIPD=      6 C= -9.059148D-02  0.000000D+00                             NZ=T
 IS=     4 IAt=     2 ISR=     3 T=0 IP=      8 IndIP=     28 IndIPD=      7 C=  8.779692D-02  0.000000D+00                             NZ=T
 IS=     5 IAt=     2 ISR=     4 T=0 IP=      1 IndIP=     29 IndIPD=      0 C=  4.218867D-02  0.000000D+00                             NZ=T
 IS=     6 IAt=     2 ISR=     5 T=1 IP=      1 IndIP=     30 IndIPD=      0 C=  0.000000D+00  3.916140D+00                             NZ=T
 IS=     6 IAt=     2 ISR=     5 T=1 IP=      2 IndIP=     31 IndIPD=      1 C=  0.000000D+00  4.557958D+00                             NZ=T
 IS=     6 IAt=     2 ISR=     5 T=1 IP=      3 IndIP=     32 IndIPD=      2 C=  0.000000D+00  4.125852D+00                             NZ=T
 IS=     6 IAt=     2 ISR=     5 T=1 IP=      4 IndIP=     33 IndIPD=      3 C=  0.000000D+00  2.441280D+00                             NZ=T
 IS=     6 IAt=     2 ISR=     5 T=1 IP=      5 IndIP=     34 IndIPD=      4 C=  0.000000D+00  8.329269D-01                             NZ=T
 IS=     6 IAt=     2 ISR=     5 T=1 IP=      6 IndIP=     35 IndIPD=      5 C=  0.000000D+00  1.089733D-01                             NZ=T
 IS=     7 IAt=     2 ISR=     6 T=1 IP=      1 IndIP=     36 IndIPD=      0 C=  0.000000D+00  2.457740D-02                             NZ=T
 IS=     7 IAt=     2 ISR=     6 T=1 IP=      2 IndIP=     37 IndIPD=      1 C=  0.000000D+00 -2.625009D-02                             NZ=T
 IS=     7 IAt=     2 ISR=     6 T=1 IP=      3 IndIP=     38 IndIPD=      2 C=  0.000000D+00  1.134429D-02                             NZ=T
 IS=     7 IAt=     2 ISR=     6 T=1 IP=      4 IndIP=     39 IndIPD=      3 C=  0.000000D+00 -2.983152D-02                             NZ=T
 IS=     7 IAt=     2 ISR=     6 T=1 IP=      5 IndIP=     40 IndIPD=      4 C=  0.000000D+00  6.561456D-03                             NZ=T
 IS=     7 IAt=     2 ISR=     6 T=1 IP=      6 IndIP=     41 IndIPD=      5 C=  0.000000D+00  4.674178D-02                             NZ=T
 IS=     8 IAt=     2 ISR=     7 T=1 IP=      1 IndIP=     42 IndIPD=      0 C=  0.000000D+00  1.107711D-02                             NZ=T
 IS=     9 IAt=     2 ISR=     8 T=2 IP=      1 IndIP=     43 IndIPD=      1 C=  0.000000D+00  0.000000D+00  2.790017D-02  0.000000D+00 NZ=T
 IExCor=    0 DFT=F Ex=HF Corr=None ExCW=0 ScaHFX=  1.000000
 ScaDFX=  1.000000  1.000000  1.000000  1.000000 ScalE2=  1.000000  1.000000
 IRadAn=      5 IRanWt=     -1 IRanGd=            0 ICorTp=0 IEmpDi=  4
 NAtoms=    2 NActive=    2 NUniq=    2 SFac= 1.00D+00 NAtFMM=   60 NAOKFM=F Big=F
 Integral buffers will be    131072 words long.
 Raffenetti 2 integral format.
 Two-electron integral symmetry is turned on.
 Leave Link  301 at Mon Mar 28 14:26:33 2022, MaxMem=  9663676416 cpu:               2.3 elap:               0.1
 (Enter /nopt/nrel/apps/gaussian/g16C_1/g16/l302.exe)
 NPDir=0 NMtPBC=     1 NCelOv=     1 NCel=       1 NClECP=     1 NCelD=      1
         NCelK=      1 NCelE2=     1 NClLst=     1 CellRange=     0.0.
 One-electron integrals computed using PRISM.
 One-electron integral symmetry used in STVInt
 Entering OneElI...
 Calculate overlap and kinetic energy integrals
    NBasis =  19  MinDer = 0  MaxDer = 0
 Requested accuracy = 0.1000D-12
 Symmetry will be used
 PrmmSu-InSpLW:  IPartL=    0 NPrtUS=   36 NPrtUL=    1 DoSpLW=F IThBeg=    0 IThEnd=   35 NThAct=   36.
 PrSmSu:  IncTry=   512 NBBP=             45 NTPThr=   100 NPartT=   36 Incr=           1 LDynOK=F GPUOK=F.
 PrsmSu:  NPrtUS=  36 ThrOK=T IAlg=1 LenDen=           0 ISkipM=0 DoSpLW=F IThBeg=    0 IThEnd=   35.
 Prism:   IPart=     0 DynPar=F LinDyn=F Incr=           1.
 PRISM was handed   268425711 working-precision words and    45 shell-pairs
 PRISM was handed   268425711 working-precision words and    45 shell-pairs
 PRISM was handed   268425711 working-precision words and    45 shell-pairs
 PRISM was handed   268425711 working-precision words and    45 shell-pairs
 PRISM was handed   268425711 working-precision words and    45 shell-pairs
 PRISM was handed   268425711 working-precision words and    45 shell-pairs
 PRISM was handed   268425711 working-precision words and    45 shell-pairs
 PRISM was handed   268425711 working-precision words and    45 shell-pairs
 PRISM was handed   268425711 working-precision words and    45 shell-pairs
 PRISM was handed   268425711 working-precision words and    45 shell-pairs
 IPart=  5 NShTot=           0 NBatch=           0 AvBLen=         0.0
 PRISM was handed   268425711 working-precision words and    45 shell-pairs
 IPart= 24 NShTot=           0 NBatch=           0 AvBLen=         0.0
 IPart=  7 NShTot=           0 NBatch=           0 AvBLen=         0.0
 IPart= 10 NShTot=           0 NBatch=           0 AvBLen=         0.0
 IPart=  4 NShTot=           0 NBatch=           0 AvBLen=         0.0
 IPart= 32 NShTot=           0 NBatch=           0 AvBLen=         0.0
 PRISM was handed   268425711 working-precision words and    45 shell-pairs
 IPart= 15 NShTot=           0 NBatch=           0 AvBLen=         0.0
 PRISM was handed   268425711 working-precision words and    45 shell-pairs
 IPart= 25 NShTot=           0 NBatch=           0 AvBLen=         0.0
 PRISM was handed   268425711 working-precision words and    45 shell-pairs
 PRISM was handed   268425711 working-precision words and    45 shell-pairs
 PRISM was handed   268425711 working-precision words and    45 shell-pairs
 PRISM was handed   268425711 working-precision words and    45 shell-pairs
 PRISM was handed   268425711 working-precision words and    45 shell-pairs
 PRISM was handed   268425711 working-precision words and    45 shell-pairs
 PRISM was handed   268425711 working-precision words and    45 shell-pairs
 PRISM was handed   268425711 working-precision words and    45 shell-pairs
 PRISM was handed   268425711 working-precision words and    45 shell-pairs
 IPart= 12 NShTot=           0 NBatch=           0 AvBLen=         0.0
 IPart= 13 NShTot=           0 NBatch=           0 AvBLen=         0.0
 PRISM was handed   268425711 working-precision words and    45 shell-pairs
 PRISM was handed   268425711 working-precision words and    45 shell-pairs
 PRISM was handed   268425711 working-precision words and    45 shell-pairs
 PRISM was handed   268425711 working-precision words and    45 shell-pairs
 PRISM was handed   268425711 working-precision words and    45 shell-pairs
 PRISM was handed   268425711 working-precision words and    45 shell-pairs
 PRISM was handed   268425711 working-precision words and    45 shell-pairs
 IPart= 27 NShTot=           0 NBatch=           0 AvBLen=         0.0
 IPart= 22 NShTot=           0 NBatch=           0 AvBLen=         0.0
 IPart= 31 NShTot=           0 NBatch=           0 AvBLen=         0.0
 IPart= 14 NShTot=           0 NBatch=           0 AvBLen=         0.0
 IPart= 16 NShTot=           0 NBatch=           0 AvBLen=         0.0
 IPart= 17 NShTot=           0 NBatch=           0 AvBLen=         0.0
 IPart=  9 NShTot=           0 NBatch=           0 AvBLen=         0.0
 IPart= 30 NShTot=           0 NBatch=           0 AvBLen=         0.0
 IPart= 26 NShTot=           0 NBatch=           0 AvBLen=         0.0
 IPart=  6 NShTot=           0 NBatch=           0 AvBLen=         0.0
 IPart= 23 NShTot=           0 NBatch=           0 AvBLen=         0.0
 IPart=  8 NShTot=           0 NBatch=           0 AvBLen=         0.0
 PRISM was handed   268425711 working-precision words and    45 shell-pairs
 IPart=  2 NShTot=           3 NBatch=           3 AvBLen=         1.0
 IPart=  3 NShTot=           1 NBatch=           1 AvBLen=         1.0
 IPart= 35 NShTot=           0 NBatch=           0 AvBLen=         0.0
 IPart= 28 NShTot=           0 NBatch=           0 AvBLen=         0.0
 PRISM was handed   268425711 working-precision words and    45 shell-pairs
 PRISM was handed   268425711 working-precision words and    45 shell-pairs
 PRISM was handed   268425711 working-precision words and    45 shell-pairs
 PRISM was handed   268425711 working-precision words and    45 shell-pairs
 PRISM was handed   268425711 working-precision words and    45 shell-pairs
 PRISM was handed   268425711 working-precision words and    45 shell-pairs
 IPart= 19 NShTot=           0 NBatch=           0 AvBLen=         0.0
 IPart=  1 NShTot=          14 NBatch=          14 AvBLen=         1.0
 IPart= 33 NShTot=           0 NBatch=           0 AvBLen=         0.0
 IPart=  0 NShTot=          27 NBatch=          27 AvBLen=         1.0
 IPart= 29 NShTot=           0 NBatch=           0 AvBLen=         0.0
 IPart= 11 NShTot=           0 NBatch=           0 AvBLen=         0.0
 IPart= 20 NShTot=           0 NBatch=           0 AvBLen=         0.0
 IPart= 34 NShTot=           0 NBatch=           0 AvBLen=         0.0
 IPart= 18 NShTot=           0 NBatch=           0 AvBLen=         0.0
 IPart= 21 NShTot=           0 NBatch=           0 AvBLen=         0.0
 PrSmSu:  NxtVal=             37.
 *** Overlap *** 
                1             2             3             4             5 
      1  0.100000D+01
      2  0.287938D-03  0.100000D+01
      3  0.404114D-02  0.247971D+00  0.100000D+01
      4  0.159298D+00  0.318917D-02  0.166761D+00  0.100000D+01
      5  0.193866D+00  0.200816D-01  0.169469D+00  0.877618D+00  0.100000D+01
      6  0.000000D+00  0.000000D+00  0.000000D+00  0.000000D+00  0.000000D+00
      7  0.000000D+00  0.000000D+00  0.000000D+00  0.000000D+00  0.000000D+00
      8 -0.723785D-02  0.000000D+00  0.000000D+00  0.000000D+00  0.000000D+00
      9  0.000000D+00  0.000000D+00  0.000000D+00  0.000000D+00  0.000000D+00
     10  0.000000D+00  0.000000D+00  0.000000D+00  0.000000D+00  0.000000D+00
     11 -0.296910D+00  0.000000D+00  0.000000D+00  0.000000D+00  0.000000D+00
     12  0.000000D+00  0.000000D+00  0.000000D+00  0.000000D+00  0.000000D+00
     13  0.000000D+00  0.000000D+00  0.000000D+00  0.000000D+00  0.000000D+00
     14 -0.277309D+00  0.000000D+00  0.000000D+00  0.000000D+00  0.000000D+00
     15  0.311477D+00  0.000000D+00  0.000000D+00  0.000000D+00  0.000000D+00
     16  0.000000D+00  0.000000D+00  0.000000D+00  0.000000D+00  0.000000D+00
     17  0.000000D+00  0.000000D+00  0.000000D+00  0.000000D+00  0.000000D+00
     18  0.000000D+00  0.000000D+00  0.000000D+00  0.000000D+00  0.000000D+00
     19  0.000000D+00  0.000000D+00  0.000000D+00  0.000000D+00  0.000000D+00
                6             7             8             9            10 
      6  0.100000D+01
      7  0.000000D+00  0.100000D+01
      8  0.000000D+00  0.000000D+00  0.100000D+01
      9  0.154548D+00  0.000000D+00  0.000000D+00  0.100000D+01
     10  0.000000D+00  0.154548D+00  0.000000D+00  0.000000D+00  0.100000D+01
     11  0.000000D+00  0.000000D+00  0.154548D+00  0.000000D+00  0.000000D+00
     12  0.447959D-01  0.000000D+00  0.000000D+00  0.672325D+00  0.000000D+00
     13  0.000000D+00  0.447959D-01  0.000000D+00  0.000000D+00  0.672325D+00
     14  0.000000D+00  0.000000D+00  0.447959D-01  0.000000D+00  0.000000D+00
     15  0.000000D+00  0.000000D+00  0.000000D+00  0.000000D+00  0.000000D+00
     16  0.000000D+00  0.000000D+00  0.000000D+00  0.000000D+00  0.000000D+00
     17  0.000000D+00  0.000000D+00  0.000000D+00  0.000000D+00  0.000000D+00
     18  0.000000D+00  0.000000D+00  0.000000D+00  0.000000D+00  0.000000D+00
     19  0.000000D+00  0.000000D+00  0.000000D+00  0.000000D+00  0.000000D+00
               11            12            13            14            15 
     11  0.100000D+01
     12  0.000000D+00  0.100000D+01
     13  0.000000D+00  0.000000D+00  0.100000D+01
     14  0.672325D+00  0.000000D+00  0.000000D+00  0.100000D+01
     15  0.000000D+00  0.000000D+00  0.000000D+00  0.000000D+00  0.100000D+01
     16  0.000000D+00  0.000000D+00  0.000000D+00  0.000000D+00  0.000000D+00
     17  0.000000D+00  0.000000D+00  0.000000D+00  0.000000D+00  0.000000D+00
     18  0.000000D+00  0.000000D+00  0.000000D+00  0.000000D+00  0.000000D+00
     19  0.000000D+00  0.000000D+00  0.000000D+00  0.000000D+00  0.000000D+00
               16            17            18            19 
     16  0.100000D+01
     17  0.000000D+00  0.100000D+01
     18  0.000000D+00  0.000000D+00  0.100000D+01
     19  0.000000D+00  0.000000D+00  0.000000D+00  0.100000D+01
 *** Kinetic Energy *** 
                1             2             3             4             5 
      1  0.760032D+00
      2 -0.312640D-03  0.559245D+02
      3 -0.306689D-02 -0.270711D+01  0.198850D+01
      4  0.256493D-02 -0.186861D+00 -0.113978D+00  0.981361D-01
      5  0.706661D-02  0.138303D-02  0.114008D-01  0.423571D-01  0.346050D-01
      6  0.000000D+00  0.000000D+00  0.000000D+00  0.000000D+00  0.000000D+00
      7  0.000000D+00  0.000000D+00  0.000000D+00  0.000000D+00  0.000000D+00
      8  0.332955D-02  0.000000D+00  0.000000D+00  0.000000D+00  0.000000D+00
      9  0.000000D+00  0.000000D+00  0.000000D+00  0.000000D+00  0.000000D+00
     10  0.000000D+00  0.000000D+00  0.000000D+00  0.000000D+00  0.000000D+00
     11 -0.283442D-01  0.000000D+00  0.000000D+00  0.000000D+00  0.000000D+00
     12  0.000000D+00  0.000000D+00  0.000000D+00  0.000000D+00  0.000000D+00
     13  0.000000D+00  0.000000D+00  0.000000D+00  0.000000D+00  0.000000D+00
     14 -0.202402D-01  0.000000D+00  0.000000D+00  0.000000D+00  0.000000D+00
     15  0.576280D-01  0.000000D+00  0.000000D+00  0.000000D+00  0.000000D+00
     16  0.000000D+00  0.000000D+00  0.000000D+00  0.000000D+00  0.000000D+00
     17  0.000000D+00  0.000000D+00  0.000000D+00  0.000000D+00  0.000000D+00
     18  0.000000D+00  0.000000D+00  0.000000D+00  0.000000D+00  0.000000D+00
     19  0.000000D+00  0.000000D+00  0.000000D+00  0.000000D+00  0.000000D+00
                6             7             8             9            10 
      6  0.590429D+01
      7  0.000000D+00  0.590429D+01
      8  0.000000D+00  0.000000D+00  0.590429D+01
      9  0.132596D-01  0.000000D+00  0.000000D+00  0.163902D+00
     10  0.000000D+00  0.132596D-01  0.000000D+00  0.000000D+00  0.163902D+00
     11  0.000000D+00  0.000000D+00  0.132596D-01  0.000000D+00  0.000000D+00
     12  0.444443D-02  0.000000D+00  0.000000D+00  0.524934D-01  0.000000D+00
     13  0.000000D+00  0.444443D-02  0.000000D+00  0.000000D+00  0.524934D-01
     14  0.000000D+00  0.000000D+00  0.444443D-02  0.000000D+00  0.000000D+00
     15  0.000000D+00  0.000000D+00  0.000000D+00  0.000000D+00  0.000000D+00
     16  0.000000D+00  0.000000D+00  0.000000D+00  0.000000D+00  0.000000D+00
     17  0.000000D+00  0.000000D+00  0.000000D+00  0.000000D+00  0.000000D+00
     18  0.000000D+00  0.000000D+00  0.000000D+00  0.000000D+00  0.000000D+00
     19  0.000000D+00  0.000000D+00  0.000000D+00  0.000000D+00  0.000000D+00
               11            12            13            14            15 
     11  0.163902D+00
     12  0.000000D+00  0.513250D-01
     13  0.000000D+00  0.000000D+00  0.513250D-01
     14  0.524934D-01  0.000000D+00  0.000000D+00  0.513250D-01
     15  0.000000D+00  0.000000D+00  0.000000D+00  0.000000D+00  0.340550D+00
     16  0.000000D+00  0.000000D+00  0.000000D+00  0.000000D+00  0.000000D+00
     17  0.000000D+00  0.000000D+00  0.000000D+00  0.000000D+00  0.000000D+00
     18  0.000000D+00  0.000000D+00  0.000000D+00  0.000000D+00  0.000000D+00
     19  0.000000D+00  0.000000D+00  0.000000D+00  0.000000D+00  0.000000D+00
               16            17            18            19 
     16  0.340550D+00
     17  0.000000D+00  0.340550D+00
     18  0.000000D+00  0.000000D+00  0.340550D+00
     19  0.000000D+00  0.000000D+00  0.000000D+00  0.340550D+00
 Entering OneElI...
 Calculate potential energy integrals
    NBasis =  19  MinDer = 0  MaxDer = 0
 Requested accuracy = 0.1000D-12
 Symmetry will be used
 PrmmSu-InSpLW:  IPartL=    0 NPrtUS=   36 NPrtUL=    1 DoSpLW=F IThBeg=    0 IThEnd=   35 NThAct=   36.
 PrSmSu:  IncTry=   512 NBBP=             90 NTPThr=   100 NPartT=   36 Incr=           1 LDynOK=F GPUOK=F.
 PrsmSu:  NPrtUS=  36 ThrOK=T IAlg=1 LenDen=           0 ISkipM=0 DoSpLW=F IThBeg=    0 IThEnd=   35.
 Prism:   IPart=     0 DynPar=F LinDyn=F Incr=           1.
 PRISM was handed   268425936 working-precision words and    45 shell-pairs
 PRISM was handed   268425936 working-precision words and    45 shell-pairs
 PRISM was handed   268425936 working-precision words and    45 shell-pairs
 PRISM was handed   268425936 working-precision words and    45 shell-pairs
 PRISM was handed   268425936 working-precision words and    45 shell-pairs
 PRISM was handed   268425936 working-precision words and    45 shell-pairs
 PRISM was handed   268425936 working-precision words and    45 shell-pairs
 PRISM was handed   268425936 working-precision words and    45 shell-pairs
 PRISM was handed   268425936 working-precision words and    45 shell-pairs
 PRISM was handed   268425936 working-precision words and    45 shell-pairs
 PRISM was handed   268425936 working-precision words and    45 shell-pairs
 PRISM was handed   268425936 working-precision words and    45 shell-pairs
 PRISM was handed   268425936 working-precision words and    45 shell-pairs
 PRISM was handed   268425936 working-precision words and    45 shell-pairs
 PRISM was handed   268425936 working-precision words and    45 shell-pairs
 PRISM was handed   268425936 working-precision words and    45 shell-pairs
 PRISM was handed   268425936 working-precision words and    45 shell-pairs
 PRISM was handed   268425936 working-precision words and    45 shell-pairs
 PRISM was handed   268425936 working-precision words and    45 shell-pairs
 PRISM was handed   268425936 working-precision words and    45 shell-pairs
 PRISM was handed   268425936 working-precision words and    45 shell-pairs
 PRISM was handed   268425936 working-precision words and    45 shell-pairs
 PRISM was handed   268425936 working-precision words and    45 shell-pairs
 PRISM was handed   268425936 working-precision words and    45 shell-pairs
 PRISM was handed   268425936 working-precision words and    45 shell-pairs
 PRISM was handed   268425936 working-precision words and    45 shell-pairs
 PRISM was handed   268425936 working-precision words and    45 shell-pairs
 PRISM was handed   268425936 working-precision words and    45 shell-pairs
 PRISM was handed   268425936 working-precision words and    45 shell-pairs
 PRISM was handed   268425936 working-precision words and    45 shell-pairs
 PRISM was handed   268425936 working-precision words and    45 shell-pairs
 PRISM was handed   268425936 working-precision words and    45 shell-pairs
 PRISM was handed   268425936 working-precision words and    45 shell-pairs
 PRISM was handed   268425936 working-precision words and    45 shell-pairs
 PRISM was handed   268425936 working-precision words and    45 shell-pairs
 PRISM was handed   268425936 working-precision words and    45 shell-pairs
 IPart=  5 NShTot=           0 NBatch=           0 AvBLen=         0.0
 IPart= 16 NShTot=           0 NBatch=           0 AvBLen=         0.0
 IPart= 18 NShTot=           0 NBatch=           0 AvBLen=         0.0
 IPart= 24 NShTot=           0 NBatch=           0 AvBLen=         0.0
 IPart= 21 NShTot=           0 NBatch=           0 AvBLen=         0.0
 IPart= 10 NShTot=           0 NBatch=           0 AvBLen=         0.0
 IPart=  6 NShTot=           0 NBatch=           0 AvBLen=         0.0
 IPart= 33 NShTot=           0 NBatch=           0 AvBLen=         0.0
 IPart= 14 NShTot=           0 NBatch=           0 AvBLen=         0.0
 IPart= 22 NShTot=           0 NBatch=           0 AvBLen=         0.0
 IPart= 34 NShTot=           0 NBatch=           0 AvBLen=         0.0
 IPart= 27 NShTot=           0 NBatch=           0 AvBLen=         0.0
 IPart= 29 NShTot=           0 NBatch=           0 AvBLen=         0.0
 IPart= 19 NShTot=           0 NBatch=           0 AvBLen=         0.0
 IPart= 20 NShTot=           0 NBatch=           0 AvBLen=         0.0
 IPart= 32 NShTot=           0 NBatch=           0 AvBLen=         0.0
 IPart= 31 NShTot=           0 NBatch=           0 AvBLen=         0.0
 IPart= 35 NShTot=           0 NBatch=           0 AvBLen=         0.0
 IPart=  9 NShTot=           0 NBatch=           0 AvBLen=         0.0
 IPart=  7 NShTot=           0 NBatch=           0 AvBLen=         0.0
 IPart= 25 NShTot=           0 NBatch=           0 AvBLen=         0.0
 IPart=  8 NShTot=           0 NBatch=           0 AvBLen=         0.0
 IPart=  4 NShTot=           0 NBatch=           0 AvBLen=         0.0
 IPart= 28 NShTot=           0 NBatch=           0 AvBLen=         0.0
 IPart= 12 NShTot=           0 NBatch=           0 AvBLen=         0.0
 IPart= 15 NShTot=           0 NBatch=           0 AvBLen=         0.0
 IPart= 11 NShTot=           0 NBatch=           0 AvBLen=         0.0
 IPart= 26 NShTot=           0 NBatch=           0 AvBLen=         0.0
 IPart= 30 NShTot=           0 NBatch=           0 AvBLen=         0.0
 IPart= 23 NShTot=           0 NBatch=           0 AvBLen=         0.0
 IPart= 17 NShTot=           0 NBatch=           0 AvBLen=         0.0
 IPart= 13 NShTot=           0 NBatch=           0 AvBLen=         0.0
 IPart=  1 NShTot=          26 NBatch=          13 AvBLen=         2.0
 IPart=  2 NShTot=           6 NBatch=           3 AvBLen=         2.0
 IPart=  3 NShTot=           2 NBatch=           1 AvBLen=         2.0
 IPart=  0 NShTot=          56 NBatch=          28 AvBLen=         2.0
 PrSmSu:  NxtVal=             37.
 ***** Potential Energy ***** 
                1             2             3             4             5 
      1  0.323383D+01
      2  0.135211D-01  0.116484D+03
      3  0.398734D-01  0.107914D+02  0.180236D+02
      4  0.494133D+00 -0.127414D+00  0.153242D+01  0.370582D+01
      5  0.555205D+00  0.104847D+01  0.207193D+01  0.296344D+01  0.283113D+01
      6  0.000000D+00  0.000000D+00  0.000000D+00  0.000000D+00  0.000000D+00
      7  0.000000D+00  0.000000D+00  0.000000D+00  0.000000D+00  0.000000D+00
      8 -0.482718D-01 -0.179204D-02 -0.147823D-01 -0.726358D-02 -0.562256D-02
      9  0.000000D+00  0.000000D+00  0.000000D+00  0.000000D+00  0.000000D+00
     10  0.000000D+00  0.000000D+00  0.000000D+00  0.000000D+00  0.000000D+00
     11 -0.892214D+00 -0.620846D-04 -0.322586D-02 -0.683379D-01 -0.672945D-01
     12  0.000000D+00  0.000000D+00  0.000000D+00  0.000000D+00  0.000000D+00
     13  0.000000D+00  0.000000D+00  0.000000D+00  0.000000D+00  0.000000D+00
     14 -0.746173D+00 -0.187785D-04 -0.906690D-03 -0.435262D-01 -0.595723D-01
     15  0.955540D+00  0.946039D-05  0.607298D-03  0.390525D-01  0.392872D-01
     16  0.000000D+00  0.000000D+00  0.000000D+00  0.000000D+00  0.000000D+00
     17  0.000000D+00  0.000000D+00  0.000000D+00  0.000000D+00  0.000000D+00
     18  0.000000D+00  0.000000D+00  0.000000D+00  0.000000D+00  0.000000D+00
     19  0.000000D+00  0.000000D+00  0.000000D+00  0.000000D+00  0.000000D+00
                6             7             8             9            10 
      6  0.188665D+02
      7  0.000000D+00  0.188665D+02
      8  0.000000D+00  0.000000D+00  0.188695D+02
      9  0.121470D+01  0.000000D+00  0.000000D+00  0.315096D+01
     10  0.000000D+00  0.121470D+01  0.000000D+00  0.000000D+00  0.315096D+01
     11  0.000000D+00  0.000000D+00  0.121680D+01  0.000000D+00  0.000000D+00
     12  0.350882D+00  0.000000D+00  0.000000D+00  0.172954D+01  0.000000D+00
     13  0.000000D+00  0.350882D+00  0.000000D+00  0.000000D+00  0.172954D+01
     14  0.000000D+00  0.000000D+00  0.351547D+00  0.000000D+00  0.000000D+00
     15  0.000000D+00  0.000000D+00 -0.421378D-02  0.000000D+00  0.000000D+00
     16 -0.297836D-02  0.000000D+00  0.000000D+00 -0.423700D-01  0.000000D+00
     17  0.000000D+00 -0.297836D-02  0.000000D+00  0.000000D+00 -0.423700D-01
     18  0.000000D+00  0.000000D+00  0.000000D+00  0.000000D+00  0.000000D+00
     19  0.000000D+00  0.000000D+00  0.000000D+00  0.000000D+00  0.000000D+00
               11            12            13            14            15 
     11  0.320908D+01
     12  0.000000D+00  0.179962D+01
     13  0.000000D+00  0.000000D+00  0.179962D+01
     14  0.177253D+01  0.000000D+00  0.000000D+00  0.184811D+01
     15 -0.918601D-01  0.000000D+00  0.000000D+00 -0.618094D-01  0.314767D+01
     16  0.000000D+00 -0.264118D-01  0.000000D+00  0.000000D+00  0.000000D+00
     17  0.000000D+00  0.000000D+00 -0.264118D-01  0.000000D+00  0.000000D+00
     18  0.000000D+00  0.000000D+00  0.000000D+00  0.000000D+00  0.000000D+00
     19  0.000000D+00  0.000000D+00  0.000000D+00  0.000000D+00  0.000000D+00
               16            17            18            19 
     16  0.310268D+01
     17  0.000000D+00  0.310268D+01
     18  0.000000D+00  0.000000D+00  0.307549D+01
     19  0.000000D+00  0.000000D+00  0.000000D+00  0.307549D+01
 ****** Core Hamiltonian ****** 
                1             2             3             4             5 
      1 -0.247380D+01
      2 -0.138338D-01 -0.605599D+02
      3 -0.429403D-01 -0.134985D+02 -0.160351D+02
      4 -0.491568D+00 -0.594465D-01 -0.164639D+01 -0.360768D+01
      5 -0.548138D+00 -0.104709D+01 -0.206053D+01 -0.292109D+01 -0.279652D+01
      6  0.000000D+00  0.000000D+00  0.000000D+00  0.000000D+00  0.000000D+00
      7  0.000000D+00  0.000000D+00  0.000000D+00  0.000000D+00  0.000000D+00
      8  0.516013D-01  0.179204D-02  0.147823D-01  0.726358D-02  0.562256D-02
      9  0.000000D+00  0.000000D+00  0.000000D+00  0.000000D+00  0.000000D+00
     10  0.000000D+00  0.000000D+00  0.000000D+00  0.000000D+00  0.000000D+00
     11  0.863869D+00  0.620846D-04  0.322586D-02  0.683379D-01  0.672945D-01
     12  0.000000D+00  0.000000D+00  0.000000D+00  0.000000D+00  0.000000D+00
     13  0.000000D+00  0.000000D+00  0.000000D+00  0.000000D+00  0.000000D+00
     14  0.725933D+00  0.187785D-04  0.906690D-03  0.435262D-01  0.595723D-01
     15 -0.897912D+00 -0.946039D-05 -0.607298D-03 -0.390525D-01 -0.392872D-01
     16  0.000000D+00  0.000000D+00  0.000000D+00  0.000000D+00  0.000000D+00
     17  0.000000D+00  0.000000D+00  0.000000D+00  0.000000D+00  0.000000D+00
     18  0.000000D+00  0.000000D+00  0.000000D+00  0.000000D+00  0.000000D+00
     19  0.000000D+00  0.000000D+00  0.000000D+00  0.000000D+00  0.000000D+00
                6             7             8             9            10 
      6 -0.129622D+02
      7  0.000000D+00 -0.129622D+02
      8  0.000000D+00  0.000000D+00 -0.129652D+02
      9 -0.120144D+01  0.000000D+00  0.000000D+00 -0.298706D+01
     10  0.000000D+00 -0.120144D+01  0.000000D+00  0.000000D+00 -0.298706D+01
     11  0.000000D+00  0.000000D+00 -0.120354D+01  0.000000D+00  0.000000D+00
     12 -0.346437D+00  0.000000D+00  0.000000D+00 -0.167704D+01  0.000000D+00
     13  0.000000D+00 -0.346437D+00  0.000000D+00  0.000000D+00 -0.167704D+01
     14  0.000000D+00  0.000000D+00 -0.347103D+00  0.000000D+00  0.000000D+00
     15  0.000000D+00  0.000000D+00  0.421378D-02  0.000000D+00  0.000000D+00
     16  0.297836D-02  0.000000D+00  0.000000D+00  0.423700D-01  0.000000D+00
     17  0.000000D+00  0.297836D-02  0.000000D+00  0.000000D+00  0.423700D-01
     18  0.000000D+00  0.000000D+00  0.000000D+00  0.000000D+00  0.000000D+00
     19  0.000000D+00  0.000000D+00  0.000000D+00  0.000000D+00  0.000000D+00
               11            12            13            14            15 
     11 -0.304518D+01
     12  0.000000D+00 -0.174830D+01
     13  0.000000D+00  0.000000D+00 -0.174830D+01
     14 -0.172004D+01  0.000000D+00  0.000000D+00 -0.179678D+01
     15  0.918601D-01  0.000000D+00  0.000000D+00  0.618094D-01 -0.280712D+01
     16  0.000000D+00  0.264118D-01  0.000000D+00  0.000000D+00  0.000000D+00
     17  0.000000D+00  0.000000D+00  0.264118D-01  0.000000D+00  0.000000D+00
     18  0.000000D+00  0.000000D+00  0.000000D+00  0.000000D+00  0.000000D+00
     19  0.000000D+00  0.000000D+00  0.000000D+00  0.000000D+00  0.000000D+00
               16            17            18            19 
     16 -0.276213D+01
     17  0.000000D+00 -0.276213D+01
     18  0.000000D+00  0.000000D+00 -0.273494D+01
     19  0.000000D+00  0.000000D+00  0.000000D+00 -0.273494D+01
 SVDSVc IOpt=   1 NormSV=T IR=1
 SVDSVc V= 2.06D+00 1.83D+00 1.22D+00 1.16D+00 1.00D+00 9.81D-01 7.33D-01 5.69D-01 3.18D-01 1.21D-01
 SVDSVc IOpt=   1 NormSV=T IR=2
 SVDSVc V= 1.00D+00
 SVDSVc IOpt=   1 NormSV=T IR=3
 SVDSVc V= 1.70D+00 1.00D+00 9.81D-01 3.19D-01
 SVDSVc IOpt=   1 NormSV=T IR=4
 SVDSVc V= 1.70D+00 1.00D+00 9.81D-01 3.19D-01
 TstOVc:  Largest diagonal error= 1.33D-15 IB=1 I=    2.
 TstOVc:  Largest same sym error= 1.09D-15 IB=1 I=    8 J=    3.
 TstOVc:  Largest diff sym error= 0.00D+00 IB=0 JB=0 I=    0 J=    0.
 Orthogonalized basis functions: 
                 1             2             3             4             5 
      1   0.266719D+00 -0.190581D+00 -0.247500D+00  0.338107D+00  0.000000D+00
      2   0.398863D-01  0.441404D-01  0.562427D+00  0.374493D+00  0.000000D+00
      3   0.133402D+00  0.122751D+00  0.510923D+00  0.262237D+00  0.000000D+00
      4   0.384616D+00  0.275070D+00 -0.754017D-01 -0.160714D+00  0.000000D+00
      5   0.389913D+00  0.271847D+00 -0.732842D-01 -0.142753D+00  0.000000D+00
      6   0.000000D+00  0.000000D+00  0.000000D+00  0.000000D+00  0.000000D+00
      7   0.000000D+00  0.000000D+00  0.000000D+00  0.000000D+00  0.000000D+00
      8  -0.415007D-01  0.993375D-01 -0.113196D+00  0.179094D+00  0.000000D+00
      9   0.000000D+00  0.000000D+00  0.000000D+00  0.000000D+00  0.000000D+00
     10   0.000000D+00  0.000000D+00  0.000000D+00  0.000000D+00  0.000000D+00
     11  -0.211919D+00  0.409819D+00 -0.137003D+00  0.163901D+00  0.000000D+00
     12   0.000000D+00  0.000000D+00  0.000000D+00  0.000000D+00  0.000000D+00
     13   0.000000D+00  0.000000D+00  0.000000D+00  0.000000D+00  0.000000D+00
     14  -0.206267D+00  0.400088D+00 -0.128536D+00  0.148339D+00  0.000000D+00
     15   0.784970D-01 -0.713571D-01 -0.347111D+00  0.638733D+00  0.000000D+00
     16   0.000000D+00  0.000000D+00  0.000000D+00  0.000000D+00  0.000000D+00
     17   0.000000D+00  0.000000D+00  0.000000D+00  0.000000D+00  0.000000D+00
     18   0.000000D+00  0.000000D+00  0.000000D+00  0.000000D+00  0.100000D+01
     19   0.000000D+00  0.000000D+00  0.000000D+00  0.000000D+00  0.000000D+00
                 6             7             8             9            10 
      1   0.128800D-01 -0.113957D+00  0.996580D+00  0.835227D-01 -0.112426D+00
      2   0.327885D-02 -0.773778D+00 -0.863746D-01 -0.169920D-02 -0.395558D-01
      3  -0.386733D-04  0.843925D+00  0.160752D+00  0.501398D-02  0.104204D-02
      4  -0.286450D-02 -0.864278D-01 -0.191796D+00 -0.173315D-01 -0.201704D+01
      5  -0.228188D-02 -0.110550D+00 -0.117033D+00 -0.263463D-02  0.203997D+01
      6   0.000000D+00  0.000000D+00  0.000000D+00  0.000000D+00  0.000000D+00
      7   0.000000D+00  0.000000D+00  0.000000D+00  0.000000D+00  0.000000D+00
      8   0.960983D+00  0.222872D-01 -0.916087D-01 -0.208815D+00  0.468546D-02
      9   0.000000D+00  0.000000D+00  0.000000D+00  0.000000D+00  0.000000D+00
     10   0.000000D+00  0.000000D+00  0.000000D+00  0.000000D+00  0.000000D+00
     11  -0.528168D-01 -0.314138D-01  0.206537D+00  0.127646D+01 -0.276951D-01
     12   0.000000D+00  0.000000D+00  0.000000D+00  0.000000D+00  0.000000D+00
     13   0.000000D+00  0.000000D+00  0.000000D+00  0.000000D+00  0.000000D+00
     14  -0.213757D+00 -0.429646D-01  0.328906D+00 -0.121033D+01 -0.145281D-01
     15  -0.216209D+00  0.132849D+00 -0.720997D+00 -0.381346D-01  0.398502D-01
     16   0.000000D+00  0.000000D+00  0.000000D+00  0.000000D+00  0.000000D+00
     17   0.000000D+00  0.000000D+00  0.000000D+00  0.000000D+00  0.000000D+00
     18   0.000000D+00  0.000000D+00  0.000000D+00  0.000000D+00  0.000000D+00
     19   0.000000D+00  0.000000D+00  0.000000D+00  0.000000D+00  0.000000D+00
                11            12            13            14            15 
      1   0.000000D+00  0.000000D+00  0.000000D+00  0.000000D+00  0.000000D+00
      2   0.000000D+00  0.000000D+00  0.000000D+00  0.000000D+00  0.000000D+00
      3   0.000000D+00  0.000000D+00  0.000000D+00  0.000000D+00  0.000000D+00
      4   0.000000D+00  0.000000D+00  0.000000D+00  0.000000D+00  0.000000D+00
      5   0.000000D+00  0.000000D+00  0.000000D+00  0.000000D+00  0.000000D+00
      6   0.000000D+00  0.152093D+00  0.000000D+00  0.982915D+00 -0.204821D+00
      7   0.000000D+00  0.000000D+00  0.000000D+00  0.000000D+00  0.000000D+00
      8   0.000000D+00  0.000000D+00  0.000000D+00  0.000000D+00  0.000000D+00
      9   0.000000D+00  0.537460D+00  0.000000D+00 -0.589883D-01  0.125925D+01
     10   0.000000D+00  0.000000D+00  0.000000D+00  0.000000D+00  0.000000D+00
     11   0.000000D+00  0.000000D+00  0.000000D+00  0.000000D+00  0.000000D+00
     12   0.000000D+00  0.525304D+00  0.000000D+00 -0.224234D+00 -0.122909D+01
     13   0.000000D+00  0.000000D+00  0.000000D+00  0.000000D+00  0.000000D+00
     14   0.000000D+00  0.000000D+00  0.000000D+00  0.000000D+00  0.000000D+00
     15   0.000000D+00  0.000000D+00  0.000000D+00  0.000000D+00  0.000000D+00
     16   0.000000D+00  0.000000D+00  0.100000D+01  0.000000D+00  0.000000D+00
     17   0.000000D+00  0.000000D+00  0.000000D+00  0.000000D+00  0.000000D+00
     18   0.000000D+00  0.000000D+00  0.000000D+00  0.000000D+00  0.000000D+00
     19   0.100000D+01  0.000000D+00  0.000000D+00  0.000000D+00  0.000000D+00
                16            17            18            19 
      1   0.000000D+00  0.000000D+00  0.000000D+00  0.000000D+00
      2   0.000000D+00  0.000000D+00  0.000000D+00  0.000000D+00
      3   0.000000D+00  0.000000D+00  0.000000D+00  0.000000D+00
      4   0.000000D+00  0.000000D+00  0.000000D+00  0.000000D+00
      5   0.000000D+00  0.000000D+00  0.000000D+00  0.000000D+00
      6   0.000000D+00  0.000000D+00  0.000000D+00  0.000000D+00
      7   0.152093D+00  0.000000D+00  0.982915D+00 -0.204821D+00
      8   0.000000D+00  0.000000D+00  0.000000D+00  0.000000D+00
      9   0.000000D+00  0.000000D+00  0.000000D+00  0.000000D+00
     10   0.537460D+00  0.000000D+00 -0.589883D-01  0.125925D+01
     11   0.000000D+00  0.000000D+00  0.000000D+00  0.000000D+00
     12   0.000000D+00  0.000000D+00  0.000000D+00  0.000000D+00
     13   0.525304D+00  0.000000D+00 -0.224234D+00 -0.122909D+01
     14   0.000000D+00  0.000000D+00  0.000000D+00  0.000000D+00
     15   0.000000D+00  0.000000D+00  0.000000D+00  0.000000D+00
     16   0.000000D+00  0.000000D+00  0.000000D+00  0.000000D+00
     17   0.000000D+00  0.100000D+01  0.000000D+00  0.000000D+00
     18   0.000000D+00  0.000000D+00  0.000000D+00  0.000000D+00
     19   0.000000D+00  0.000000D+00  0.000000D+00  0.000000D+00
 NBasis=    19 RedAO= T EigKep=  1.21D-01  NBF=    10     1     4     4
 NBsUse=    19 1.00D-06 EigRej= -1.00D+00 NBFU=    10     1     4     4
 Leave Link  302 at Mon Mar 28 14:26:34 2022, MaxMem=  9663676416 cpu:               4.6 elap:               0.2
 (Enter /nopt/nrel/apps/gaussian/g16C_1/g16/l303.exe)
 DipDrv will not compute anything.
 Fermi contact integrals: 
                 1             2 
      1   0.628247D+00  0.523802D-03
      2   0.000000D+00  0.194288D+02
      3   0.000000D+00  0.784000D-02
      4   0.161381D-01 -0.235257D-01
      5   0.211005D-01  0.421887D-01
      6   0.000000D+00  0.000000D+00
      7   0.000000D+00  0.000000D+00
      8  -0.212838D-05  0.000000D+00
      9   0.000000D+00  0.000000D+00
     10   0.000000D+00  0.000000D+00
     11  -0.362253D-01  0.000000D+00
     12   0.000000D+00  0.000000D+00
     13   0.000000D+00  0.000000D+00
     14  -0.327680D-01  0.000000D+00
     15   0.450936D-01  0.000000D+00
     16   0.000000D+00  0.000000D+00
     17   0.000000D+00  0.000000D+00
     18   0.000000D+00  0.000000D+00
     19   0.000000D+00  0.000000D+00
 Leave Link  303 at Mon Mar 28 14:26:34 2022, MaxMem=  9663676416 cpu:               1.3 elap:               0.1
 (Enter /nopt/nrel/apps/gaussian/g16C_1/g16/l401.exe)
 ExpMin= 2.05D-02 ExpMax= 3.17D+04 ExpMxC= 1.08D+03 IAcc=3 IRadAn=         5 AccDes= 0.00D+00
 Harris functional with IExCor=  205 and IRadAn=       5 diagonalized for initial guess.
 HarFok:  IExCor=  205 AccDes= 0.00D+00 IRadAn=         5 IDoV= 1 UseB2=F ITyADJ=14
 ICtDFT=  3500011 ScaDFX=  1.000000  1.000000  1.000000  1.000000
 FoFCou: FMM=F IPFlag=           0 FMFlag=      100000 FMFlg1=           0
         NFxFlg=           0 DoJE=T BraDBF=F KetDBF=T FulRan=T
         wScrn=  0.000000 ICntrl=       500 IOpCl=  0 I1Cent=   200000004 NGrid=           0
         NMat0=    1 NMatS0=      1 NMatT0=    0 NMatD0=    1 NMtDS0=    0 NMtDT0=    0
 Petite list used in FoFCou.
 Harris En= -162.059936084643    
 JPrj=0 DoOrth=F DoCkMO=F.
 Initial guess orbital symmetries:
 Alpha Orbitals:
       Occupied  (SG) (SG) (SG) (PI) (PI) (SG) (SG)
       Virtual   (PI) (PI) (SG) (SG) (SG) (PI) (PI) (PI) (PI) (DLTA)
                 (DLTA) (SG)
 Beta  Orbitals:
       Occupied  (SG) (SG) (SG) (PI) (PI)
       Virtual   (SG) (SG) (PI) (PI) (SG) (SG) (SG) (PI) (PI) (PI)
                 (PI) (DLTA) (DLTA) (SG)
 The electronic state of the initial guess is 3-SG.
 Initial guess <Sx>= 0.0000 <Sy>= 0.0000 <Sz>= 1.0000 <S**2>= 2.0000 S= 1.0000
 Leave Link  401 at Mon Mar 28 14:26:34 2022, MaxMem=  9663676416 cpu:               4.2 elap:               0.1
 (Enter /nopt/nrel/apps/gaussian/g16C_1/g16/l502.exe)
 Keep R1 and R2 ints in memory in symmetry-blocked form, NReq=7462317.
 FoFCou: FMM=F IPFlag=           0 FMFlag=           0 FMFlg1=           0
         NFxFlg=           0 DoJE=F BraDBF=F KetDBF=F FulRan=T
         wScrn=  0.000000 ICntrl=       600 IOpCl=  0 I1Cent=           0 NGrid=           0
         NMat0=    1 NMatS0=    190 NMatT0=    0 NMatD0=    1 NMtDS0=    0 NMtDT0=    0
 Petite list used in FoFCou.
 UHF open shell SCF:
 Using DIIS extrapolation, IDIIS=  1040.
 NGot=  9663676416 LenX=  9663662649 LenY=  9663661767
 Requested convergence on RMS density matrix=1.00D-08 within 128 cycles.
 Requested convergence on MAX density matrix=1.00D-06.
 Requested convergence on             energy=1.00D-06.
 No special actions if energy rises.

 Cycle   1  Pass 1  IDiag  1:
 E= -162.307197267794    
 DIIS: error= 2.43D-02 at cycle   1 NSaved=   1.
 NSaved= 1 IEnMin= 1 EnMin= -162.307197267794     IErMin= 1 ErrMin= 2.43D-02
 ErrMax= 2.43D-02  0.00D+00 EMaxC= 1.00D-01 BMatC= 2.49D-02 BMatP= 2.49D-02
 IDIUse=3 WtCom= 7.57D-01 WtEn= 2.43D-01
 Coeff-Com:  0.100D+01
 Coeff-En:   0.100D+01
 Coeff:      0.100D+01
 Gap=     0.204 Goal=   None    Shift=    0.000
 Gap=     1.566 Goal=   None    Shift=    0.000
 GapD=    0.204 DampG=1.000 DampE=0.500 DampFc=0.5000 IDamp=-1.
 Damping current iteration by 5.00D-01
 RMSDP=7.41D-03 MaxDP=1.38D-01              OVMax= 1.72D-02

 Cycle   2  Pass 1  IDiag  1:
 E= -162.313944322127     Delta-E=       -0.006747054333 Rises=F Damp=T
 DIIS: error= 1.66D-02 at cycle   2 NSaved=   2.
 NSaved= 2 IEnMin= 2 EnMin= -162.313944322127     IErMin= 2 ErrMin= 1.66D-02
 ErrMax= 1.66D-02  0.00D+00 EMaxC= 1.00D-01 BMatC= 9.11D-03 BMatP= 2.49D-02
 IDIUse=3 WtCom= 8.34D-01 WtEn= 1.66D-01
 Coeff-Com: -0.141D+01 0.241D+01
 Coeff-En:   0.000D+00 0.100D+01
 Coeff:     -0.118D+01 0.218D+01
 Gap=     0.194 Goal=   None    Shift=    0.000
 Gap=     1.507 Goal=   None    Shift=    0.000
 RMSDP=6.23D-03 MaxDP=1.21D-01 DE=-6.75D-03 OVMax= 2.01D-03

 Cycle   3  Pass 1  IDiag  1:
 E= -162.323940932405     Delta-E=       -0.009996610278 Rises=F Damp=F
 DIIS: error= 2.84D-03 at cycle   3 NSaved=   3.
 NSaved= 3 IEnMin= 3 EnMin= -162.323940932405     IErMin= 3 ErrMin= 2.84D-03
 ErrMax= 2.84D-03  0.00D+00 EMaxC= 1.00D-01 BMatC= 1.45D-04 BMatP= 9.11D-03
 IDIUse=3 WtCom= 9.72D-01 WtEn= 2.84D-02
 Coeff-Com:  0.596D+00-0.112D+01 0.152D+01
 Coeff-En:   0.000D+00 0.000D+00 0.100D+01
 Coeff:      0.580D+00-0.109D+01 0.151D+01
 Gap=     0.194 Goal=   None    Shift=    0.000
 Gap=     1.510 Goal=   None    Shift=    0.000
 RMSDP=1.23D-03 MaxDP=2.25D-02 DE=-1.00D-02 OVMax= 1.99D-04

 Cycle   4  Pass 1  IDiag  1:
 E= -162.324113022615     Delta-E=       -0.000172090210 Rises=F Damp=F
 DIIS: error= 1.44D-04 at cycle   4 NSaved=   4.
 NSaved= 4 IEnMin= 4 EnMin= -162.324113022615     IErMin= 4 ErrMin= 1.44D-04
 ErrMax= 1.44D-04  0.00D+00 EMaxC= 1.00D-01 BMatC= 8.48D-07 BMatP= 1.45D-04
 IDIUse=3 WtCom= 9.99D-01 WtEn= 1.44D-03
 Coeff-Com: -0.102D+00 0.195D+00-0.317D+00 0.122D+01
 Coeff-En:   0.000D+00 0.000D+00 0.000D+00 0.100D+01
 Coeff:     -0.102D+00 0.195D+00-0.317D+00 0.122D+01
 Gap=     0.194 Goal=   None    Shift=    0.000
 Gap=     1.511 Goal=   None    Shift=    0.000
 RMSDP=1.27D-04 MaxDP=1.40D-03 DE=-1.72D-04 OVMax= 5.23D-05

 Cycle   5  Pass 1  IDiag  1:
 E= -162.324114901673     Delta-E=       -0.000001879057 Rises=F Damp=F
 DIIS: error= 5.52D-05 at cycle   5 NSaved=   5.
 NSaved= 5 IEnMin= 5 EnMin= -162.324114901673     IErMin= 5 ErrMin= 5.52D-05
 ErrMax= 5.52D-05  0.00D+00 EMaxC= 1.00D-01 BMatC= 9.09D-08 BMatP= 8.48D-07
 IDIUse=1 WtCom= 1.00D+00 WtEn= 0.00D+00
 Coeff-Com:  0.347D-01-0.670D-01 0.117D+00-0.668D+00 0.158D+01
 Coeff:      0.347D-01-0.670D-01 0.117D+00-0.668D+00 0.158D+01
 Gap=     0.194 Goal=   None    Shift=    0.000
 Gap=     1.511 Goal=   None    Shift=    0.000
 RMSDP=6.04D-05 MaxDP=6.98D-04 DE=-1.88D-06 OVMax= 8.91D-06

 Cycle   6  Pass 1  IDiag  1:
 E= -162.324115263505     Delta-E=       -0.000000361832 Rises=F Damp=F
 DIIS: error= 1.84D-05 at cycle   6 NSaved=   6.
 NSaved= 6 IEnMin= 6 EnMin= -162.324115263505     IErMin= 6 ErrMin= 1.84D-05
 ErrMax= 1.84D-05  0.00D+00 EMaxC= 1.00D-01 BMatC= 8.74D-09 BMatP= 9.09D-08
 IDIUse=1 WtCom= 1.00D+00 WtEn= 0.00D+00
 Coeff-Com: -0.107D-01 0.211D-01-0.415D-01 0.304D+00-0.101D+01 0.173D+01
 Coeff:     -0.107D-01 0.211D-01-0.415D-01 0.304D+00-0.101D+01 0.173D+01
 Gap=     0.194 Goal=   None    Shift=    0.000
 Gap=     1.511 Goal=   None    Shift=    0.000
 RMSDP=2.30D-05 MaxDP=2.76D-04 DE=-3.62D-07 OVMax= 6.92D-06

 Cycle   7  Pass 1  IDiag  1:
 E= -162.324115301130     Delta-E=       -0.000000037626 Rises=F Damp=F
 DIIS: error= 3.08D-06 at cycle   7 NSaved=   7.
 NSaved= 7 IEnMin= 7 EnMin= -162.324115301130     IErMin= 7 ErrMin= 3.08D-06
 ErrMax= 3.08D-06  0.00D+00 EMaxC= 1.00D-01 BMatC= 2.81D-10 BMatP= 8.74D-09
 IDIUse=1 WtCom= 1.00D+00 WtEn= 0.00D+00
 Coeff-Com:  0.333D-02-0.656D-02 0.129D-01-0.938D-01 0.334D+00-0.680D+00
 Coeff-Com:  0.143D+01
 Coeff:      0.333D-02-0.656D-02 0.129D-01-0.938D-01 0.334D+00-0.680D+00
 Coeff:      0.143D+01
 Gap=     0.194 Goal=   None    Shift=    0.000
 Gap=     1.511 Goal=   None    Shift=    0.000
 RMSDP=4.65D-06 MaxDP=7.39D-05 DE=-3.76D-08 OVMax= 1.39D-06

 Cycle   8  Pass 1  IDiag  1:
 E= -162.324115301995     Delta-E=       -0.000000000865 Rises=F Damp=F
 DIIS: error= 9.58D-07 at cycle   8 NSaved=   8.
 NSaved= 8 IEnMin= 8 EnMin= -162.324115301995     IErMin= 8 ErrMin= 9.58D-07
 ErrMax= 9.58D-07  0.00D+00 EMaxC= 1.00D-01 BMatC= 1.68D-11 BMatP= 2.81D-10
 IDIUse=1 WtCom= 1.00D+00 WtEn= 0.00D+00
 Coeff-Com: -0.795D-03 0.158D-02-0.318D-02 0.234D-01-0.922D-01 0.211D+00
 Coeff-Com: -0.691D+00 0.155D+01
 Coeff:     -0.795D-03 0.158D-02-0.318D-02 0.234D-01-0.922D-01 0.211D+00
 Coeff:     -0.691D+00 0.155D+01
 Gap=     0.194 Goal=   None    Shift=    0.000
 Gap=     1.511 Goal=   None    Shift=    0.000
 RMSDP=1.56D-06 MaxDP=2.25D-05 DE=-8.65D-10 OVMax= 2.66D-07

 Cycle   9  Pass 1  IDiag  1:
 E= -162.324115302046     Delta-E=       -0.000000000051 Rises=F Damp=F
 DIIS: error= 5.83D-08 at cycle   9 NSaved=   9.
 NSaved= 9 IEnMin= 9 EnMin= -162.324115302046     IErMin= 9 ErrMin= 5.83D-08
 ErrMax= 5.83D-08  0.00D+00 EMaxC= 1.00D-01 BMatC= 1.25D-13 BMatP= 1.68D-11
 IDIUse=1 WtCom= 1.00D+00 WtEn= 0.00D+00
 Coeff-Com:  0.537D-04-0.107D-03 0.215D-03-0.148D-02 0.704D-02-0.172D-01
 Coeff-Com:  0.830D-01-0.248D+00 0.118D+01
 Coeff:      0.537D-04-0.107D-03 0.215D-03-0.148D-02 0.704D-02-0.172D-01
 Coeff:      0.830D-01-0.248D+00 0.118D+01
 Gap=     0.194 Goal=   None    Shift=    0.000
 Gap=     1.511 Goal=   None    Shift=    0.000
 RMSDP=9.38D-08 MaxDP=9.78D-07 DE=-5.09D-11 OVMax= 3.45D-08

 Cycle  10  Pass 1  IDiag  1:
 E= -162.324115302046     Delta-E=       -0.000000000000 Rises=F Damp=F
 DIIS: error= 1.31D-08 at cycle  10 NSaved=  10.
 NSaved=10 IEnMin=10 EnMin= -162.324115302046     IErMin=10 ErrMin= 1.31D-08
 ErrMax= 1.31D-08  0.00D+00 EMaxC= 1.00D-01 BMatC= 3.12D-15 BMatP= 1.25D-13
 IDIUse=1 WtCom= 1.00D+00 WtEn= 0.00D+00
 Coeff-Com: -0.926D-05 0.185D-04-0.351D-04 0.199D-03-0.101D-02 0.236D-02
 Coeff-Com: -0.138D-01 0.421D-01-0.280D+00 0.125D+01
 Coeff:     -0.926D-05 0.185D-04-0.351D-04 0.199D-03-0.101D-02 0.236D-02
 Coeff:     -0.138D-01 0.421D-01-0.280D+00 0.125D+01
 Gap=     0.194 Goal=   None    Shift=    0.000
 Gap=     1.511 Goal=   None    Shift=    0.000
 RMSDP=2.29D-08 MaxDP=4.61D-07 DE=-2.27D-13 OVMax= 6.42D-09

 Cycle  11  Pass 1  IDiag  1:
 E= -162.324115302046     Delta-E=       -0.000000000000 Rises=F Damp=F
 DIIS: error= 3.68D-09 at cycle  11 NSaved=  11.
 NSaved=11 IEnMin=11 EnMin= -162.324115302046     IErMin=11 ErrMin= 3.68D-09
 ErrMax= 3.68D-09  0.00D+00 EMaxC= 1.00D-01 BMatC= 3.09D-16 BMatP= 3.12D-15
 IDIUse=1 WtCom= 1.00D+00 WtEn= 0.00D+00
 Coeff-Com:  0.146D-05-0.293D-05 0.497D-05-0.106D-04 0.151D-03-0.357D-03
 Coeff-Com:  0.391D-02-0.127D-01 0.117D+00-0.832D+00 0.172D+01
 Coeff:      0.146D-05-0.293D-05 0.497D-05-0.106D-04 0.151D-03-0.357D-03
 Coeff:      0.391D-02-0.127D-01 0.117D+00-0.832D+00 0.172D+01
 Gap=     0.194 Goal=   None    Shift=    0.000
 Gap=     1.511 Goal=   None    Shift=    0.000
 RMSDP=9.46D-09 MaxDP=1.87D-07 DE=-8.53D-14 OVMax= 9.97D-10

 SCF Done:  E(UHF) =  -162.324115302     A.U. after   11 cycles
            NFock= 11  Conv=0.95D-08     -V/T= 1.9989
 <Sx>= 0.0000 <Sy>= 0.0000 <Sz>= 1.0000 <S**2>= 2.0000 S= 1.0000
 <L.S>= 0.000000000000E+00
 KE= 1.624964623245D+02 PE=-3.948596594246D+02 EE= 6.803185789454D+01
 Annihilation of the first spin contaminant:
 S**2 before annihilation     2.0000,   after     2.0000
 Leave Link  502 at Mon Mar 28 14:26:34 2022, MaxMem=  9663676416 cpu:               5.7 elap:               0.2
 (Enter /nopt/nrel/apps/gaussian/g16C_1/g16/l801.exe)
 Windowed orbitals will be sorted by symmetry type.
 ExpMin= 2.05D-02 ExpMax= 3.17D+04 ExpMxC= 1.08D+03 IAcc=3 IRadAn=         5 AccDes= 0.00D+00
 HarFok:  IExCor=  205 AccDes= 0.00D+00 IRadAn=         5 IDoV=-2 UseB2=F ITyADJ=14
 ICtDFT= 12500011 ScaDFX=  1.000000  1.000000  1.000000  1.000000
 Largest valence mixing into a core orbital is  9.26D-05
 Largest core mixing into a valence orbital is  6.60D-05
 Range of M.O.s used for correlation:     6    19
 NBasis=    19 NAE=     7 NBE=     5 NFC=     5 NFV=     0
 NROrb=     14 NOA=     2 NOB=     0 NVA=    12 NVB=    14
 Leave Link  801 at Mon Mar 28 14:26:34 2022, MaxMem=  9663676416 cpu:               3.3 elap:               0.1
 (Enter /nopt/nrel/apps/gaussian/g16C_1/g16/l804.exe)
 Open-shell transformation, MDV=  9663676416 ITran=4 ISComp=2.
 Unit  1 TFree=         24747 TCopy=        223312.
 Semi-Direct transformation.
 ModeAB=           2 MOrb=             2 LenV=    9663483134
 LASXX=          607 LTotXX=         607 LenRXX=         607
 LTotAB=         853 MaxLAS=        5880 LenRXY=        5880
 NonZer=        6552 LenScr=      785920 LnRSAI=           0
 LnScr1=           0 LExtra=      224307 Total=      1016714
 MaxDsk= 34359738368 SrtSym=           F ITran=            4
 DoSDTr:  NPSUse= 36
 JobTyp=1 Pass  1:  I=   1 to   2.
 (rs|ai) integrals will be sorted in core.
 Complete sort for first half transformation.
 First half transformation complete.
 Complete sort for second half transformation.
 Second half transformation complete.
 Spin components of T(2) and E(2):
     alpha-alpha T2 =       0.8863613277D-04 E2=     -0.8849125076D-04
     alpha-beta  T2 =       0.0000000000D+00 E2=      0.0000000000D+00
     beta-beta   T2 =       0.0000000000D+00 E2=      0.0000000000D+00
 ANorm=    0.1000044317D+01
 E2 =    -0.8849125076D-04 EUMP2 =    -0.16232420379330D+03
 Leave Link  804 at Mon Mar 28 14:26:34 2022, MaxMem=  9663676416 cpu:               3.9 elap:               0.2
 (Enter /nopt/nrel/apps/gaussian/g16C_1/g16/l913.exe)
 CIDS:  MDV=  9663676416.
 Frozen-core window:  NFC=   5 NFV=   0.
 IFCWin=0 IBDFC=1 NFBD=     0     0 NFCmp=     0     0 NFFFC=     0     0
 Using original routines for 1st iteration.
 Using DD4UQ or CC4UQ for 2nd and later iterations.
 Keep R2 and R3 ints in memory in symmetry-blocked form, NReq=7464769.
 FoFCou: FMM=F IPFlag=           0 FMFlag=           0 FMFlg1=           0
         NFxFlg=           0 DoJE=F BraDBF=F KetDBF=F FulRan=T
         wScrn=  0.000000 ICntrl=       600 IOpCl=  0 I1Cent=           0 NGrid=           0
         NMat0=    1 NMatS0=    190 NMatT0=    0 NMatD0=    1 NMtDS0=    0 NMtDT0=    0
 Petite list used in FoFCou.
 CIDS: In Core Option IDoMem=           1.
 Coupled Cluster theory with single and double substitutions
 ===========================================================
 Iterations= 200 Convergence= 0.100D-06
 Produce multiple copies of IABC intergrals
 Iteration Nr.   1
 **********************
 DD1Dir will call FoFMem   1 times, MxPair=         2
 NAB=     0 NAA=     1 NBB=     0.
 MP4(R+Q)=  0.78435223D-08
 Maximum subspace dimension=  5
 A-vector RMS=  5.8950999D-04 Max=  1.5936448D-03 conv= 1.00D-05.
 RLE energy=       -0.0001396575
 E3=       -0.32427403D-04        EUMP3=      -0.16232423622D+03
 E4(DQ)=   -0.12025055D-04        UMP4(DQ)=   -0.16232424825D+03
 E4(SDQ)=  -0.12365132D-04        UMP4(SDQ)=  -0.16232424859D+03
 VARIATIONAL ENERGIES WITH THE FIRST-ORDER WAVEFUNCTION:
 DE(Corr)= -0.12091174E-03 E(Corr)=     -162.32423621    
 NORM(A)=   0.10001117D+01
 Iteration Nr.   2
 **********************
 DD1Dir will call FoFMem   1 times, MxPair=         2
 NAB=     0 NAA=     1 NBB=     0.
 A-vector RMS=  1.1465352D-04 Max=  2.6766693D-04 conv= 1.00D-05.
 RLE energy=       -0.0001414370
 DE(Corr)= -0.14042371E-03 E(CORR)=     -162.32425573     Delta=-1.95D-05
 NORM(A)=   0.10001159D+01
 Iteration Nr.   3
 **********************
 DD1Dir will call FoFMem   1 times, MxPair=         2
 NAB=     0 NAA=     1 NBB=     0.
 A-vector RMS=  2.4271648D-05 Max=  6.6476119D-05 conv= 1.00D-05.
 RLE energy=       -0.0001415054
 DE(Corr)= -0.14144013E-03 E(CORR)=     -162.32425674     Delta=-1.02D-06
 NORM(A)=   0.10001163D+01
 Iteration Nr.   4
 **********************
 DD1Dir will call FoFMem   1 times, MxPair=         2
 NAB=     0 NAA=     1 NBB=     0.
 A-vector RMS=  4.7043203D-06 Max=  1.5196905D-05 conv= 1.00D-05.
 RLE energy=       -0.0001415039
 DE(Corr)= -0.14150427E-03 E(CORR)=     -162.32425681     Delta=-6.41D-08
 NORM(A)=   0.10001163D+01
 Iteration Nr.   5
 **********************
 DD1Dir will call FoFMem   1 times, MxPair=         2
 NAB=     0 NAA=     1 NBB=     0.
 A-vector RMS=  4.4437880D-07 Max=  1.2794921D-06 conv= 1.00D-05.
 RLE energy=       -0.0001415053
 DE(Corr)= -0.14150458E-03 E(CORR)=     -162.32425681     Delta=-3.04D-10
 NORM(A)=   0.10001163D+01
 CI/CC converged in    5 iterations to DelEn=-3.04D-10 Conv= 1.00D-07 ErrA1= 4.44D-07 Conv= 1.00D-05
 Wavefunction amplitudes converged. E(Corr)=     -162.32425681    
 Largest amplitude= 6.71D-03
 Discarding MO integrals.
 Leave Link  913 at Mon Mar 28 14:26:35 2022, MaxMem=  9663676416 cpu:               5.8 elap:               0.2
 (Enter /nopt/nrel/apps/gaussian/g16C_1/g16/l601.exe)
 Copying SCF densities to generalized density rwf, IOpCl= 1 IROHF=0.

 **********************************************************************

            Population analysis using the SCF Density.

 **********************************************************************

 Orbital symmetries:
 Alpha Orbitals:
       Occupied  (SG) (SG) (SG) (PI) (PI) (SG) (SG)
       Virtual   (PI) (PI) (SG) (SG) (PI) (PI) (SG) (PI) (PI) (DLTA)
                 (DLTA) (SG)
 Beta  Orbitals:
       Occupied  (SG) (SG) (SG) (PI) (PI)
       Virtual   (SG) (SG) (PI) (PI) (SG) (SG) (PI) (PI) (SG) (PI)
                 (PI) (DLTA) (DLTA) (SG)
 The electronic state is 3-SG.
 Alpha  occ. eigenvalues --  -40.47477  -2.79583  -1.51499  -1.51434  -1.51434
 Alpha  occ. eigenvalues --   -0.51797  -0.17017
 Alpha virt. eigenvalues --    0.02430   0.02430   0.05987   0.10429   0.14705
 Alpha virt. eigenvalues --    0.14705   0.15627   0.26342   0.26342   0.26797
 Alpha virt. eigenvalues --    0.26797   0.33328
  Beta  occ. eigenvalues --  -40.47228  -2.78908  -1.51192  -1.51190  -1.51190
  Beta virt. eigenvalues --   -0.00127   0.04388   0.04441   0.04441   0.13632
  Beta virt. eigenvalues --    0.16431   0.18114   0.18114   0.24115   0.29188
  Beta virt. eigenvalues --    0.29188   0.29209   0.29209   0.46136
          Condensed to atoms (all electrons):
               1          2
     1  H    0.817979   0.068878
     2  Na   0.068878  11.044265
          Atomic-Atomic Spin Densities.
               1          2
     1  H    0.817978   0.068891
     2  Na   0.068891   1.044239
 Mulliken charges and spin densities:
               1          2
     1  H    0.113143   0.886869
     2  Na  -0.113143   1.113131
 Sum of Mulliken charges =   0.00000   2.00000
 Mulliken charges and spin densities with hydrogens summed into heavy atoms:
               1          2
     2  Na   0.000000   2.000000
 N-N= 2.007223903490D+00 E-N=-3.948596595519D+02  KE= 1.624964623245D+02
 Symmetry A1   KE= 1.389358523480D+02
 Symmetry A2   KE= 2.014899483819D-52
 Symmetry B1   KE= 1.178030498826D+01
 Symmetry B2   KE= 1.178030498826D+01
 Symmetry A1   SP= 2.000000000000D+00
 Symmetry A2   SP= 5.914051823300D-52
 Symmetry B1   SP= 8.094131484976D-16
 Symmetry B2   SP=-5.045856744462D-16

 Atomic contributions to Alpha molecular orbitals:
 Alpha occ 1 OE=-40.475 is Na2-s=1.0000
 Alpha occ 2 OE=-2.796 is Na2-s=1.0000
 Alpha occ 3 OE=-1.515 is Na2-p=1.0000
 Alpha occ 4 OE=-1.514 is Na2-p=1.0000
 Alpha occ 5 OE=-1.514 is Na2-p=1.0000
 Alpha occ 6 OE=-0.518 is H1-s=0.8736
 Alpha occ 7 OE=-0.170 is Na2-s=0.9184
 Alpha vir 8 OE=0.024 is Na2-p=0.9998
 Alpha vir 9 OE=0.024 is Na2-p=0.9998
 Alpha vir 10 OE=0.060 is Na2-p=0.8953
 Alpha vir 11 OE=0.104 is Na2-s=0.9608
 Alpha vir 12 OE=0.147 is Na2-p=0.9985
 Alpha vir 13 OE=0.147 is Na2-p=0.9985
 Alpha vir 14 OE=0.156 is Na2-p=0.9127
 Alpha vir 15 OE=0.263 is Na2-d=0.9983
 Alpha vir 16 OE=0.263 is Na2-d=0.9983
 Alpha vir 17 OE=0.268 is Na2-d=1.0000
 Alpha vir 18 OE=0.268 is Na2-d=1.0000
 Alpha vir 19 OE=0.333 is Na2-d=0.8997

 Atomic contributions to Beta  molecular orbitals:
 Beta  occ 1 OE=-40.472 is Na2-s=1.0000
 Beta  occ 2 OE=-2.789 is Na2-s=1.0000
 Beta  occ 3 OE=-1.512 is Na2-p=1.0000
 Beta  occ 4 OE=-1.512 is Na2-p=1.0000
 Beta  occ 5 OE=-1.512 is Na2-p=1.0000
 Beta  vir 6 OE=-0.001 is Na2-s=0.6434 Na2-p=0.2609
 Beta  vir 7 OE=0.044 is Na2-p=0.6656 Na2-s=0.3153
 Beta  vir 8 OE=0.044 is Na2-p=0.9991
 Beta  vir 9 OE=0.044 is Na2-p=0.9991
 Beta  vir 10 OE=0.136 is Na2-s=0.7121 Na2-p=0.2254
 Beta  vir 11 OE=0.164 is Na2-p=0.4863 Na2-s=0.3131 H1-s=0.1183
 Beta  vir 12 OE=0.181 is Na2-p=0.9879
 Beta  vir 13 OE=0.181 is Na2-p=0.9879
 Beta  vir 14 OE=0.241 is Na2-d=0.4854 Na2-p=0.3157 H1-s=0.1929
 Beta  vir 15 OE=0.292 is Na2-d=0.9870
 Beta  vir 16 OE=0.292 is Na2-d=0.9870
 Beta  vir 17 OE=0.292 is Na2-d=1.0000
 Beta  vir 18 OE=0.292 is Na2-d=1.0000
 Beta  vir 19 OE=0.461 is H1-s=0.5427 Na2-d=0.4012
 
 Leave Link  601 at Mon Mar 28 14:26:35 2022, MaxMem=  9663676416 cpu:               1.0 elap:               0.1
 (Enter /nopt/nrel/apps/gaussian/g16C_1/g16/l9999.exe)

 Test job not archived.
 1\1\GINC-R102U34\SP\UCCSD-FC\Gen\H1Na1(3)\USER\28-Mar-2022\0\\#P C
 CSD(MaxCyc=200,SaveAmplitudes,ReadAmplitudes)/GEN sp pop=AllOrbitals i
 op(3/33=1,3/36=-1)\\test\\0,3\H,0,0.,0.,0.\Na,0,0.,0.,2.9\\Version=ES6
 4L-G16RevC.01\State=3-SG\HF=-162.3241153\MP2=-162.3242038\MP3=-162.324
 2362\MP4D=-162.3242483\MP4DQ=-162.3242482\MP4SDQ=-162.3242486\CCSD=-16
 2.3242568\S2=2.000043\S2-1=0.\S2A=2.\RMSD=9.457e-09\PG=C*V [C*(H1Na1)]
 \\@


 SIC AS THE CAWSE OF EWERY THING IS, SIC WILBE THE EFFECT.
 -- PROVERBS AND REASONS OF THE YEAR 1585
           AS REPRINTED IN PAISLEY MAGAZINE 1828.
 Job cpu time:       0 days  0 hours  0 minutes 39.9 seconds.
 Elapsed time:       0 days  0 hours  0 minutes  1.5 seconds.
 File lengths (MBytes):  RWF=     13 Int=      0 D2E=      0 Chk=      1 Scr=      1
 Normal termination of Gaussian 16 at Mon Mar 28 14:26:35 2022.
