 Entering Gaussian System, Link 0=g16
 Initial command:
 /nopt/nrel/apps/gaussian/g16C_1/g16/l1.exe "/lustre/eaglefs/scratch/user/qc/kh-dissc/kh-3-ccsd-1.1-631g/Gau-34600.inp" -scrdir="/lustre/eaglefs/scratch/user/qc/kh-dissc/kh-3-ccsd-1.1-631g/"
 Default is to use a total of  36 processors:
                               36 via shared-memory
                                1 via Linda
 Entering Link 1 = /nopt/nrel/apps/gaussian/g16C_1/g16/l1.exe PID=     34601.
  
 Copyright (c) 1988-2019, Gaussian, Inc.  All Rights Reserved.
  
 This is part of the Gaussian(R) 16 program.  It is based on
 the Gaussian(R) 09 system (copyright 2009, Gaussian, Inc.),
 the Gaussian(R) 03 system (copyright 2003, Gaussian, Inc.),
 the Gaussian(R) 98 system (copyright 1998, Gaussian, Inc.),
 the Gaussian(R) 94 system (copyright 1995, Gaussian, Inc.),
 the Gaussian 92(TM) system (copyright 1992, Gaussian, Inc.),
 the Gaussian 90(TM) system (copyright 1990, Gaussian, Inc.),
 the Gaussian 88(TM) system (copyright 1988, Gaussian, Inc.),
 the Gaussian 86(TM) system (copyright 1986, Carnegie Mellon
 University), and the Gaussian 82(TM) system (copyright 1983,
 Carnegie Mellon University). Gaussian is a federally registered
 trademark of Gaussian, Inc.
  
 This software contains proprietary and confidential information,
 including trade secrets, belonging to Gaussian, Inc.
  
 This software is provided under written license and may be
 used, copied, transmitted, or stored only in accord with that
 written license.
  
 The following legend is applicable only to US Government
 contracts under FAR:
  
                    RESTRICTED RIGHTS LEGEND
  
 Use, reproduction and disclosure by the US Government is
 subject to restrictions as set forth in subparagraphs (a)
 and (c) of the Commercial Computer Software - Restricted
 Rights clause in FAR 52.227-19.
  
 Gaussian, Inc.
 340 Quinnipiac St., Bldg. 40, Wallingford CT 06492
  
  
 ---------------------------------------------------------------
 Warning -- This program may not be used in any manner that
 competes with the business of Gaussian, Inc. or will provide
 assistance to any competitor of Gaussian, Inc.  The licensee
 of this program is prohibited from giving any competitor of
 Gaussian, Inc. access to this program.  By using this program,
 the user acknowledges that Gaussian, Inc. is engaged in the
 business of creating and licensing software in the field of
 computational chemistry and represents and warrants to the
 licensee that it is not a competitor of Gaussian, Inc. and that
 it will not use this program in any manner prohibited above.
 ---------------------------------------------------------------
  

 Cite this work as:
 Gaussian 16, Revision C.01,
 M. J. Frisch, G. W. Trucks, H. B. Schlegel, G. E. Scuseria, 
 M. A. Robb, J. R. Cheeseman, G. Scalmani, V. Barone, 
 G. A. Petersson, H. Nakatsuji, X. Li, M. Caricato, A. V. Marenich, 
 J. Bloino, B. G. Janesko, R. Gomperts, B. Mennucci, H. P. Hratchian, 
 J. V. Ortiz, A. F. Izmaylov, J. L. Sonnenberg, D. Williams-Young, 
 F. Ding, F. Lipparini, F. Egidi, J. Goings, B. Peng, A. Petrone, 
 T. Henderson, D. Ranasinghe, V. G. Zakrzewski, J. Gao, N. Rega, 
 G. Zheng, W. Liang, M. Hada, M. Ehara, K. Toyota, R. Fukuda, 
 J. Hasegawa, M. Ishida, T. Nakajima, Y. Honda, O. Kitao, H. Nakai, 
 T. Vreven, K. Throssell, J. A. Montgomery, Jr., J. E. Peralta, 
 F. Ogliaro, M. J. Bearpark, J. J. Heyd, E. N. Brothers, K. N. Kudin, 
 V. N. Staroverov, T. A. Keith, R. Kobayashi, J. Normand, 
 K. Raghavachari, A. P. Rendell, J. C. Burant, S. S. Iyengar, 
 J. Tomasi, M. Cossi, J. M. Millam, M. Klene, C. Adamo, R. Cammi, 
 J. W. Ochterski, R. L. Martin, K. Morokuma, O. Farkas, 
 J. B. Foresman, and D. J. Fox, Gaussian, Inc., Wallingford CT, 2019.
 
 ******************************************
 Gaussian 16:  ES64L-G16RevC.01  3-Jul-2019
                28-Mar-2022 
 ******************************************
 %chk=molecule
 Default route: CacheSize=180224 MaxDisk=256GB
 ----------------------------------------------------------------------
 #P CCSD(MaxCyc=200,SaveAmplitudes,ReadAmplitudes)/GEN sp pop=AllOrbita
 ls iop(3/33=1,3/36=-1)
 ----------------------------------------------------------------------
 1/4=180224,38=1,172=1/1;
 2/4=180224,12=2,17=6,18=5,40=1/2;
 3/4=180224,5=7,11=9,25=1,30=1,33=1,36=-1/1,2,3;
 4/4=180224/1;
 5/4=180224,5=2,38=5/2;
 8/4=180224,6=4,9=120000,10=1,24=1/1,4;
 9/4=180224,5=7,6=200,77=1/13;
 6/4=180224,7=2,8=2,9=2,10=2,96=-1/1;
 99/4=180224,5=1,9=1/99;
 Leave Link    1 at Mon Mar 28 14:39:25 2022, MaxMem=           0 cpu:               2.4 elap:               0.1
 (Enter /nopt/nrel/apps/gaussian/g16C_1/g16/l101.exe)
 ----
 test
 ----
 Symbolic Z-matrix:
 Charge =  0 Multiplicity = 3
 H                     0.        0.        0. 
 K                     0.        0.        1.1 
 
 ITRead=  0  0
 MicOpt= -1 -1
 NAtoms=      2 NQM=        2 NQMF=       0 NMMI=      0 NMMIF=      0
                NMic=       0 NMicF=      0.
                    Isotopes and Nuclear Properties:
 (Nuclear quadrupole moments (NQMom) in fm**2, nuclear magnetic moments (NMagM)
  in nuclear magnetons)

  Atom         1           2
 IAtWgt=           1          39
 AtmWgt=   1.0078250  38.9637079
 NucSpn=           1           3
 AtZEff=  -0.0000000  -0.0000000
 NQMom=    0.0000000   5.8500000
 NMagM=    2.7928460   0.3914660
 AtZNuc=   1.0000000  19.0000000
 Leave Link  101 at Mon Mar 28 14:39:25 2022, MaxMem=  9663676416 cpu:               2.7 elap:               0.1
 (Enter /nopt/nrel/apps/gaussian/g16C_1/g16/l202.exe)
                          Input orientation:                          
 ---------------------------------------------------------------------
 Center     Atomic      Atomic             Coordinates (Angstroms)
 Number     Number       Type             X           Y           Z
 ---------------------------------------------------------------------
      1          1           0        0.000000    0.000000    0.000000
      2         19           0        0.000000    0.000000    1.100000
 ---------------------------------------------------------------------
 Stoichiometry    HK(3)
 Framework group  C*V[C*(HK)]
 Deg. of freedom     1
 Full point group                 C*V     NOp   4
 Largest Abelian subgroup         C2V     NOp   4
 Largest concise Abelian subgroup C1      NOp   1
                         Standard orientation:                         
 ---------------------------------------------------------------------
 Center     Atomic      Atomic             Coordinates (Angstroms)
 Number     Number       Type             X           Y           Z
 ---------------------------------------------------------------------
      1          1           0        0.000000    0.000000   -1.045000
      2         19           0        0.000000    0.000000    0.055000
 ---------------------------------------------------------------------
 Rotational constants (GHZ):           0.0000000         425.1451327         425.1451327
 Leave Link  202 at Mon Mar 28 14:39:25 2022, MaxMem=  9663676416 cpu:               1.3 elap:               0.1
 (Enter /nopt/nrel/apps/gaussian/g16C_1/g16/l301.exe)
 General basis read from cards:  (5D, 7F)
                         Coordinates in L301:                         
 ---------------------------------------------------------------------
 Center     Atomic      Atomic             Coordinates (Angstroms)
 Number     Number       Type             X           Y           Z
 ---------------------------------------------------------------------
      1          1           0        0.000000    0.000000   -1.045000
      2         19           0        0.000000    0.000000    0.055000
 ---------------------------------------------------------------------
 Centers:       1
 STO-3G
 ****
 Centers:       2
 6-31G
 ****
 FixB: optimizing general contractions.
 Ernie: Thresh=  0.10000D-02 Tol=  0.10000D-05 Strict=F.
 IA=     1 ShT= 0 ShC= 0 NL=   1 NS=   0.
 IA=     1 L=0 SC=0 ISt=    0 NBk=    0 NP=    0 IndPr=    0.
 IA=     2 ShT= 0 ShC= 0 NL=   1 NS=   0.
 IA=     2 L=0 SC=0 ISt=    0 NBk=    0 NP=    0 IndPr=    0.
 IA=     2 ShT= 1 ShC= 0 NL=   4 NS=   1.
 IA=     2 L=1 SC=0 ISt=    1 NBk=    3 NP=   15 IndPr=    0.
 DoElim1:  L=1 select primitive    1 from    2 using    1 C=-2.50D-03
 DoElim1:  L=1 select primitive    1 from    3 using    1 C=-2.50D-03
 DoElim1:  L=1 select primitive    5 from    3 using    2 C= 1.28D-02
 DoElim2:  L=1 select primitive   15 from    2 using    3 C= 1.14D+00
 DoElim2:  L=1 select primitive   15 from    1 using    3 C= 1.14D+00
 DoElim2:  L=1 select primitive   10 from    1 using    2 C=-5.59D-01
 DoElim1:  L=1 select primitive    1 from    2 using    1 C= 4.09D-03
 DoElim1:  L=1 select primitive    1 from    3 using    1 C= 4.09D-03
 DoElim1:  L=1 select primitive    5 from    3 using    2 C=-1.22D-02
 DoElim2:  L=1 select primitive   15 from    2 using    3 C= 1.01D+00
 DoElim2:  L=1 select primitive   15 from    1 using    3 C= 1.01D+00
 DoElim2:  L=1 select primitive   10 from    1 using    2 C= 4.28D-01
 Delete L=1 primitive   14 from    3 C=  0.00D+00.
 Delete L=1 primitive   12 from    3 C=  0.00D+00.
 Delete L=1 primitive   10 from    3 C=  0.00D+00.
 Delete L=1 primitive    9 from    3 C=  0.00D+00.
 Delete L=1 primitive    8 from    3 C=  0.00D+00.
 Delete L=1 primitive    7 from    3 C=  0.00D+00.
 Delete L=1 primitive    6 from    3 C=  0.00D+00.
 Delete L=1 primitive    5 from    3 C=  0.00D+00.
 Delete L=1 primitive    4 from    3 C=  0.00D+00.
 Delete L=1 primitive    3 from    3 C=  0.00D+00.
 Delete L=1 primitive    2 from    3 C=  0.00D+00.
 Delete L=1 primitive    1 from    3 C=  0.00D+00.
 Delete L=1 primitive   15 from    2 C=  0.00D+00.
 Delete L=1 primitive   13 from    2 C=  0.00D+00.
 Delete L=1 primitive   11 from    2 C=  0.00D+00.
 Delete L=1 primitive    8 from    2 C=  0.00D+00.
 Delete L=1 primitive    6 from    2 C=  0.00D+00.
 Delete L=1 primitive    4 from    2 C=  0.00D+00.
 Delete L=1 primitive    3 from    2 C=  0.00D+00.
 Delete L=1 primitive    2 from    2 C=  0.00D+00.
 Delete L=1 primitive    1 from    2 C=  0.00D+00.
 Delete L=1 primitive   15 from    1 C=  0.00D+00.
 Delete L=1 primitive   14 from    1 C=  0.00D+00.
 Delete L=1 primitive   13 from    1 C=  0.00D+00.
 Delete L=1 primitive   12 from    1 C=  0.00D+00.
 Delete L=1 primitive   11 from    1 C=  0.00D+00.
 Delete L=1 primitive   10 from    1 C=  0.00D+00.
 Delete L=1 primitive    9 from    1 C=  0.00D+00.
 Delete L=1 primitive    7 from    1 C=  0.00D+00.
 Delete L=1 primitive    5 from    1 C=  0.00D+00.
 IA=     2 L=1 SC=0 ISt=    0 NBk=    0 NP=    0 IndPr=   15.
 LdAtmC:  AtmChg=     1.000000    19.000000
 AtZEff=     -1.0000000    -22.4200000
 NEqShl: 
              1            2            3            4
     1            1            1            1            1
     2            2            2            2            2
     3            3            3            3            3
     4            4            4            4            4
     5            5            5            5            5
     6            6            6            6            6
 NEqBas: 
              1            2            3            4
     1            1            1            1            1
     2            2            2            2            2
     3            3            3            3            3
     4            4           -4           -4            4
     5            5           -5            5           -5
     6            6            6            6            6
     7            7            7            7            7
     8            8           -8           -8            8
     9            9           -9            9           -9
    10           10           10           10           10
    11           11           11           11           11
    12           12          -12          -12           12
    13           13          -13           13          -13
    14           14           14           14           14
    15           15           15           15           15
    16           16          -16          -16           16
    17           17          -17           17          -17
    18           18           18           18           18
 There are    10 symmetry adapted cartesian basis functions of A1  symmetry.
   1         1   1   1   1
   2         2   2   2   2
   3         3   3   3   3
   4         6   6   6   6
   5         7   7   7   7
   6        10  10  10  10
   7        11  11  11  11
   8        14  14  14  14
   9        15  15  15  15
  10        18  18  18  18
 There are     0 symmetry adapted cartesian basis functions of A2  symmetry.
 There are     4 symmetry adapted cartesian basis functions of B1  symmetry.
  11         4   4   4   4
  12         8   8   8   8
  13        12  12  12  12
  14        16  16  16  16
 There are     4 symmetry adapted cartesian basis functions of B2  symmetry.
  15         5   5   5   5
  16         9   9   9   9
  17        13  13  13  13
  18        17  17  17  17
 Order= 1 2 4 3
 Reordered character table:
              1            2            3            4            5
     1            1            1            1            1            1
     2            2            1            1           -1           -1
     3            4            1           -1           -1            1
     4            3            1           -1            1           -1
 NEqShl: 
              1            2            3            4
     1            1            1            1            1
     2            2            2            2            2
     3            3            3            3            3
     4            4            4            4            4
     5            5            5            5            5
     6            6            6            6            6
 NEqBas: 
              1            2            3            4
     1            1            1            1            1
     2            2            2            2            2
     3            3            3            3            3
     4            4           -4           -4            4
     5            5           -5            5           -5
     6            6            6            6            6
     7            7            7            7            7
     8            8           -8           -8            8
     9            9           -9            9           -9
    10           10           10           10           10
    11           11           11           11           11
    12           12          -12          -12           12
    13           13          -13           13          -13
    14           14           14           14           14
    15           15           15           15           15
    16           16          -16          -16           16
    17           17          -17           17          -17
    18           18           18           18           18
 There are    10 symmetry adapted basis functions of A1  symmetry.
   1         1   1   1   1
   2         2   2   2   2
   3         3   3   3   3
   4         6   6   6   6
   5         7   7   7   7
   6        10  10  10  10
   7        11  11  11  11
   8        14  14  14  14
   9        15  15  15  15
  10        18  18  18  18
 There are     0 symmetry adapted basis functions of A2  symmetry.
 There are     4 symmetry adapted basis functions of B1  symmetry.
  11         4   4   4   4
  12         8   8   8   8
  13        12  12  12  12
  14        16  16  16  16
 There are     4 symmetry adapted basis functions of B2  symmetry.
  15         5   5   5   5
  16         9   9   9   9
  17        13  13  13  13
  18        17  17  17  17
 Order= 1 2 4 3
 Reordered character table:
              1            2            3            4            5
     1            1            1            1            1            1
     2            2            1            1           -1           -1
     3            4            1           -1           -1            1
     4            3            1           -1            1           -1
    18 basis functions,    73 primitive gaussians,    18 cartesian basis functions
    11 alpha electrons        9 beta electrons
       nuclear repulsion energy         9.1403336432 Hartrees.
 IS=     1 IAt=     1 ISR=     1 T=0 IP=      1 IndIP=      1 IndIPD=      0 C=  2.769344D-01  0.000000D+00                             NZ=T
 IS=     1 IAt=     1 ISR=     1 T=0 IP=      2 IndIP=      2 IndIPD=      1 C=  2.678389D-01  0.000000D+00                             NZ=T
 IS=     1 IAt=     1 ISR=     1 T=0 IP=      3 IndIP=      3 IndIPD=      2 C=  8.347367D-02  0.000000D+00                             NZ=T
 IS=     2 IAt=     2 ISR=     1 T=0 IP=      1 IndIP=      4 IndIPD=      0 C=  3.087425D+00  0.000000D+00                             NZ=T
 IS=     2 IAt=     2 ISR=     1 T=0 IP=      2 IndIP=      5 IndIPD=      1 C=  5.701433D+00  0.000000D+00                             NZ=T
 IS=     2 IAt=     2 ISR=     1 T=0 IP=      3 IndIP=      6 IndIPD=      2 C=  9.250015D+00  0.000000D+00                             NZ=T
 IS=     2 IAt=     2 ISR=     1 T=0 IP=      4 IndIP=      7 IndIPD=      3 C=  1.230326D+01  0.000000D+00                             NZ=T
 IS=     2 IAt=     2 ISR=     1 T=0 IP=      5 IndIP=      8 IndIPD=      4 C=  1.065796D+01  0.000000D+00                             NZ=T
 IS=     2 IAt=     2 ISR=     1 T=0 IP=      6 IndIP=      9 IndIPD=      5 C=  3.342971D+00  0.000000D+00                             NZ=T
 IS=     3 IAt=     2 ISR=     2 T=1 IP=      1 IndIP=     10 IndIPD=      0 C= -2.223866D-01  1.815760D+01                             NZ=T
 IS=     3 IAt=     2 ISR=     2 T=1 IP=      2 IndIP=     11 IndIPD=      1 C= -1.002089D+00  2.312008D+01                             NZ=T
 IS=     3 IAt=     2 ISR=     2 T=1 IP=      3 IndIP=     12 IndIPD=      2 C= -1.577145D+00  2.391470D+01                             NZ=T
 IS=     3 IAt=     2 ISR=     2 T=1 IP=      4 IndIP=     13 IndIPD=      3 C=  3.266752D-01  1.731669D+01                             NZ=T
 IS=     3 IAt=     2 ISR=     2 T=1 IP=      5 IndIP=     14 IndIPD=      4 C=  1.883992D+00  7.409963D+00                             NZ=T
 IS=     3 IAt=     2 ISR=     2 T=1 IP=      6 IndIP=     15 IndIPD=      5 C=  6.647292D-01  1.141461D+00                             NZ=T
 IS=     4 IAt=     2 ISR=     3 T=1 IP=      1 IndIP=     16 IndIPD=      0 C=  5.815266D-02 -3.826900D-01                             NZ=T
 IS=     4 IAt=     2 ISR=     3 T=1 IP=      2 IndIP=     17 IndIPD=      1 C=  4.293450D-01 -5.702211D-02                             NZ=T
 IS=     4 IAt=     2 ISR=     3 T=1 IP=      3 IndIP=     18 IndIPD=      2 C= -3.375882D-03  5.815028D-01                             NZ=T
 IS=     4 IAt=     2 ISR=     3 T=1 IP=      4 IndIP=     19 IndIPD=      3 C= -3.337346D-01  4.537484D-01                             NZ=T
 IS=     4 IAt=     2 ISR=     3 T=1 IP=      5 IndIP=     20 IndIPD=      4 C= -1.666638D-01  1.525572D-01                             NZ=T
 IS=     4 IAt=     2 ISR=     3 T=1 IP=      6 IndIP=     21 IndIPD=      5 C= -1.112643D-02  1.425313D-02                             NZ=T
 IS=     5 IAt=     2 ISR=     4 T=1 IP=      1 IndIP=     22 IndIPD=      0 C= -2.908072D-02  2.974856D-02                             NZ=T
 IS=     5 IAt=     2 ISR=     4 T=1 IP=      2 IndIP=     23 IndIPD=      1 C= -6.704811D-02 -9.373500D-03                             NZ=T
 IS=     5 IAt=     2 ISR=     4 T=1 IP=      3 IndIP=     24 IndIPD=      2 C=  7.095388D-02  2.474121D-02                             NZ=T
 IS=     6 IAt=     2 ISR=     5 T=1 IP=      1 IndIP=     25 IndIPD=      0 C=  3.284259D-02  8.442781D-03                             NZ=T
 IExCor=    0 DFT=F Ex=HF Corr=None ExCW=0 ScaHFX=  1.000000
 ScaDFX=  1.000000  1.000000  1.000000  1.000000 ScalE2=  1.000000  1.000000
 IRadAn=      5 IRanWt=     -1 IRanGd=            0 ICorTp=0 IEmpDi=  4
 NAtoms=    2 NActive=    2 NUniq=    2 SFac= 1.00D+00 NAtFMM=   60 NAOKFM=F Big=F
 Integral buffers will be    131072 words long.
 Raffenetti 2 integral format.
 Two-electron integral symmetry is turned on.
 Leave Link  301 at Mon Mar 28 14:39:25 2022, MaxMem=  9663676416 cpu:               1.9 elap:               0.1
 (Enter /nopt/nrel/apps/gaussian/g16C_1/g16/l302.exe)
 NPDir=0 NMtPBC=     1 NCelOv=     1 NCel=       1 NClECP=     1 NCelD=      1
         NCelK=      1 NCelE2=     1 NClLst=     1 CellRange=     0.0.
 One-electron integrals computed using PRISM.
 One-electron integral symmetry used in STVInt
 Entering OneElI...
 Calculate overlap and kinetic energy integrals
    NBasis =  18  MinDer = 0  MaxDer = 0
 Requested accuracy = 0.1000D-12
 Symmetry will be used
 PrmmSu-InSpLW:  IPartL=    0 NPrtUS=   36 NPrtUL=    1 DoSpLW=F IThBeg=    0 IThEnd=   35 NThAct=   36.
 PrSmSu:  IncTry=   512 NBBP=             21 NTPThr=   100 NPartT=   36 Incr=           1 LDynOK=F GPUOK=F.
 PrsmSu:  NPrtUS=  36 ThrOK=T IAlg=1 LenDen=           0 ISkipM=0 DoSpLW=F IThBeg=    0 IThEnd=   35.
 Prism:   IPart=     0 DynPar=F LinDyn=F Incr=           1.
 PRISM was handed   268430758 working-precision words and    21 shell-pairs
 PRISM was handed   268430758 working-precision words and    21 shell-pairs
 PRISM was handed   268430758 working-precision words and    21 shell-pairs
 PRISM was handed   268430758 working-precision words and    21 shell-pairs
 PRISM was handed   268430758 working-precision words and    21 shell-pairs
 PRISM was handed   268430758 working-precision words and    21 shell-pairs
 PRISM was handed   268430758 working-precision words and    21 shell-pairs
 PRISM was handed   268430758 working-precision words and    21 shell-pairs
 PRISM was handed   268430758 working-precision words and    21 shell-pairs
 PRISM was handed   268430758 working-precision words and    21 shell-pairs
 PRISM was handed   268430758 working-precision words and    21 shell-pairs
 IPart=  8 NShTot=           0 NBatch=           0 AvBLen=         0.0
 IPart= 15 NShTot=           0 NBatch=           0 AvBLen=         0.0
 IPart= 21 NShTot=           0 NBatch=           0 AvBLen=         0.0
 IPart= 33 NShTot=           0 NBatch=           0 AvBLen=         0.0
 IPart= 26 NShTot=           0 NBatch=           0 AvBLen=         0.0
 IPart= 20 NShTot=           0 NBatch=           0 AvBLen=         0.0
 IPart= 14 NShTot=           0 NBatch=           0 AvBLen=         0.0
 IPart= 27 NShTot=           0 NBatch=           0 AvBLen=         0.0
 IPart= 32 NShTot=           0 NBatch=           0 AvBLen=         0.0
 IPart= 34 NShTot=           0 NBatch=           0 AvBLen=         0.0
 PRISM was handed   268430758 working-precision words and    21 shell-pairs
 PRISM was handed   268430758 working-precision words and    21 shell-pairs
 PRISM was handed   268430758 working-precision words and    21 shell-pairs
 PRISM was handed   268430758 working-precision words and    21 shell-pairs
 PRISM was handed   268430758 working-precision words and    21 shell-pairs
 PRISM was handed   268430758 working-precision words and    21 shell-pairs
 PRISM was handed   268430758 working-precision words and    21 shell-pairs
 PRISM was handed   268430758 working-precision words and    21 shell-pairs
 IPart= 31 NShTot=           0 NBatch=           0 AvBLen=         0.0
 IPart= 10 NShTot=           0 NBatch=           0 AvBLen=         0.0
 PRISM was handed   268430758 working-precision words and    21 shell-pairs
 IPart= 22 NShTot=           0 NBatch=           0 AvBLen=         0.0
 IPart=  7 NShTot=           0 NBatch=           0 AvBLen=         0.0
 IPart= 25 NShTot=           0 NBatch=           0 AvBLen=         0.0
 IPart= 12 NShTot=           0 NBatch=           0 AvBLen=         0.0
 IPart=  4 NShTot=           0 NBatch=           0 AvBLen=         0.0
 PRISM was handed   268430758 working-precision words and    21 shell-pairs
 PRISM was handed   268430758 working-precision words and    21 shell-pairs
 PRISM was handed   268430758 working-precision words and    21 shell-pairs
 IPart=  2 NShTot=           2 NBatch=           2 AvBLen=         1.0
 IPart=  5 NShTot=           0 NBatch=           0 AvBLen=         0.0
 IPart=  3 NShTot=           0 NBatch=           0 AvBLen=         0.0
 PRISM was handed   268430758 working-precision words and    21 shell-pairs
 PRISM was handed   268430758 working-precision words and    21 shell-pairs
 IPart=  9 NShTot=           0 NBatch=           0 AvBLen=         0.0
 IPart=  1 NShTot=           5 NBatch=           5 AvBLen=         1.0
 PRISM was handed   268430758 working-precision words and    21 shell-pairs
 PRISM was handed   268430758 working-precision words and    21 shell-pairs
 PRISM was handed   268430758 working-precision words and    21 shell-pairs
 PRISM was handed   268430758 working-precision words and    21 shell-pairs
 IPart= 13 NShTot=           0 NBatch=           0 AvBLen=         0.0
 PRISM was handed   268430758 working-precision words and    21 shell-pairs
 PRISM was handed   268430758 working-precision words and    21 shell-pairs
 PRISM was handed   268430758 working-precision words and    21 shell-pairs
 IPart= 28 NShTot=           0 NBatch=           0 AvBLen=         0.0
 IPart= 23 NShTot=           0 NBatch=           0 AvBLen=         0.0
 PRISM was handed   268430758 working-precision words and    21 shell-pairs
 PRISM was handed   268430758 working-precision words and    21 shell-pairs
 IPart= 29 NShTot=           0 NBatch=           0 AvBLen=         0.0
 IPart= 19 NShTot=           0 NBatch=           0 AvBLen=         0.0
 IPart= 24 NShTot=           0 NBatch=           0 AvBLen=         0.0
 IPart= 17 NShTot=           0 NBatch=           0 AvBLen=         0.0
 IPart= 30 NShTot=           0 NBatch=           0 AvBLen=         0.0
 PRISM was handed   268430758 working-precision words and    21 shell-pairs
 PRISM was handed   268430758 working-precision words and    21 shell-pairs
 IPart= 18 NShTot=           0 NBatch=           0 AvBLen=         0.0
 IPart=  6 NShTot=           0 NBatch=           0 AvBLen=         0.0
 IPart=  0 NShTot=          14 NBatch=          14 AvBLen=         1.0
 IPart= 11 NShTot=           0 NBatch=           0 AvBLen=         0.0
 IPart= 16 NShTot=           0 NBatch=           0 AvBLen=         0.0
 IPart= 35 NShTot=           0 NBatch=           0 AvBLen=         0.0
 PrSmSu:  NxtVal=             37.
 *** Overlap *** 
                1             2             3             4             5 
      1  0.100000D+01
      2  0.102014D-01  0.100000D+01
      3  0.824039D-01  0.267715D+00  0.100000D+01
      4  0.000000D+00  0.000000D+00  0.000000D+00  0.100000D+01
      5  0.000000D+00  0.000000D+00  0.000000D+00  0.000000D+00  0.100000D+01
      6 -0.333721D-01  0.000000D+00  0.000000D+00  0.000000D+00  0.000000D+00
      7 -0.413236D+00 -0.141866D-01 -0.343708D+00  0.000000D+00  0.000000D+00
      8  0.000000D+00  0.000000D+00  0.000000D+00  0.295021D+00  0.000000D+00
      9  0.000000D+00  0.000000D+00  0.000000D+00  0.000000D+00  0.295021D+00
     10 -0.440880D+00  0.000000D+00  0.000000D+00  0.000000D+00  0.000000D+00
     11  0.324515D+00 -0.420963D-02 -0.188996D-01  0.000000D+00  0.000000D+00
     12  0.000000D+00  0.000000D+00  0.000000D+00  0.163990D-01  0.000000D+00
     13  0.000000D+00  0.000000D+00  0.000000D+00  0.000000D+00  0.163990D-01
     14 -0.291146D+00  0.000000D+00  0.000000D+00  0.000000D+00  0.000000D+00
     15  0.275759D+00  0.572576D-02  0.448310D-01  0.000000D+00  0.000000D+00
     16  0.000000D+00  0.000000D+00  0.000000D+00  0.380126D-02  0.000000D+00
     17  0.000000D+00  0.000000D+00  0.000000D+00  0.000000D+00  0.380126D-02
     18 -0.137573D+00  0.000000D+00  0.000000D+00  0.000000D+00  0.000000D+00
                6             7             8             9            10 
      6  0.100000D+01
      7  0.000000D+00  0.100000D+01
      8  0.000000D+00  0.000000D+00  0.100000D+01
      9  0.000000D+00  0.000000D+00  0.000000D+00  0.100000D+01
     10  0.295021D+00  0.000000D+00  0.000000D+00  0.000000D+00  0.100000D+01
     11  0.000000D+00 -0.172500D+00  0.000000D+00  0.000000D+00  0.000000D+00
     12  0.000000D+00  0.000000D+00  0.234662D+00  0.000000D+00  0.000000D+00
     13  0.000000D+00  0.000000D+00  0.000000D+00  0.234662D+00  0.000000D+00
     14  0.163990D-01  0.000000D+00  0.000000D+00  0.000000D+00  0.234662D+00
     15  0.000000D+00 -0.243058D+00  0.000000D+00  0.000000D+00  0.000000D+00
     16  0.000000D+00  0.000000D+00  0.967693D-01  0.000000D+00  0.000000D+00
     17  0.000000D+00  0.000000D+00  0.000000D+00  0.967693D-01  0.000000D+00
     18  0.380126D-02  0.000000D+00  0.000000D+00  0.000000D+00  0.967693D-01
               11            12            13            14            15 
     11  0.100000D+01
     12  0.000000D+00  0.100000D+01
     13  0.000000D+00  0.000000D+00  0.100000D+01
     14  0.000000D+00  0.000000D+00  0.000000D+00  0.100000D+01
     15  0.894230D+00  0.000000D+00  0.000000D+00  0.000000D+00  0.100000D+01
     16  0.000000D+00  0.807003D+00  0.000000D+00  0.000000D+00  0.000000D+00
     17  0.000000D+00  0.000000D+00  0.807003D+00  0.000000D+00  0.000000D+00
     18  0.000000D+00  0.000000D+00  0.000000D+00  0.807003D+00  0.000000D+00
               16            17            18 
     16  0.100000D+01
     17  0.000000D+00  0.100000D+01
     18  0.000000D+00  0.000000D+00  0.100000D+01
 *** Kinetic Energy *** 
                1             2             3             4             5 
      1  0.760032D+00
      2 -0.276140D-02  0.173384D+03
      3 -0.128269D-01 -0.928634D+01  0.818361D+01
      4  0.000000D+00  0.000000D+00  0.000000D+00  0.275843D+02
      5  0.000000D+00  0.000000D+00  0.000000D+00  0.000000D+00  0.275843D+02
      6 -0.781875D-02  0.000000D+00  0.000000D+00  0.000000D+00  0.000000D+00
      7 -0.799579D-01  0.803816D+00  0.546853D+00  0.000000D+00  0.000000D+00
      8  0.000000D+00  0.000000D+00  0.000000D+00  0.918943D+00  0.000000D+00
      9  0.000000D+00  0.000000D+00  0.000000D+00  0.000000D+00  0.918943D+00
     10 -0.242887D+00  0.000000D+00  0.000000D+00  0.000000D+00  0.000000D+00
     11  0.806175D-02 -0.171808D-01 -0.100476D+00  0.000000D+00  0.000000D+00
     12  0.000000D+00  0.000000D+00  0.000000D+00  0.261790D-01  0.000000D+00
     13  0.000000D+00  0.000000D+00  0.000000D+00  0.000000D+00  0.261790D-01
     14 -0.418606D-01  0.000000D+00  0.000000D+00  0.000000D+00  0.000000D+00
     15  0.121925D-01  0.283688D-03  0.221202D-02  0.000000D+00  0.000000D+00
     16  0.000000D+00  0.000000D+00  0.000000D+00  0.312691D-03  0.000000D+00
     17  0.000000D+00  0.000000D+00  0.000000D+00  0.000000D+00  0.312691D-03
     18 -0.103378D-01  0.000000D+00  0.000000D+00  0.000000D+00  0.000000D+00
                6             7             8             9            10 
      6  0.275843D+02
      7  0.000000D+00  0.837208D+00
      8  0.000000D+00  0.000000D+00  0.154401D+01
      9  0.000000D+00  0.000000D+00  0.000000D+00  0.154401D+01
     10  0.918943D+00  0.000000D+00  0.000000D+00  0.000000D+00  0.154401D+01
     11  0.000000D+00  0.104916D+00  0.000000D+00  0.000000D+00  0.000000D+00
     12  0.000000D+00  0.000000D+00  0.663770D-01  0.000000D+00  0.000000D+00
     13  0.000000D+00  0.000000D+00  0.000000D+00  0.663770D-01  0.000000D+00
     14  0.261790D-01  0.000000D+00  0.000000D+00  0.000000D+00  0.663770D-01
     15  0.000000D+00 -0.115010D-01  0.000000D+00  0.000000D+00  0.000000D+00
     16  0.000000D+00  0.000000D+00  0.753429D-02  0.000000D+00  0.000000D+00
     17  0.000000D+00  0.000000D+00  0.000000D+00  0.753429D-02  0.000000D+00
     18  0.312691D-03  0.000000D+00  0.000000D+00  0.000000D+00  0.753429D-02
               11            12            13            14            15 
     11  0.774479D-01
     12  0.000000D+00  0.962091D-01
     13  0.000000D+00  0.000000D+00  0.962091D-01
     14  0.000000D+00  0.000000D+00  0.000000D+00  0.962091D-01
     15  0.298062D-01  0.000000D+00  0.000000D+00  0.000000D+00  0.247815D-01
     16  0.000000D+00  0.466086D-01  0.000000D+00  0.000000D+00  0.000000D+00
     17  0.000000D+00  0.000000D+00  0.466086D-01  0.000000D+00  0.000000D+00
     18  0.000000D+00  0.000000D+00  0.000000D+00  0.466086D-01  0.000000D+00
               16            17            18 
     16  0.413025D-01
     17  0.000000D+00  0.413025D-01
     18  0.000000D+00  0.000000D+00  0.413025D-01
 Entering OneElI...
 Calculate potential energy integrals
    NBasis =  18  MinDer = 0  MaxDer = 0
 Requested accuracy = 0.1000D-12
 Symmetry will be used
 PrmmSu-InSpLW:  IPartL=    0 NPrtUS=   36 NPrtUL=    1 DoSpLW=F IThBeg=    0 IThEnd=   35 NThAct=   36.
 PrSmSu:  IncTry=   512 NBBP=             42 NTPThr=   100 NPartT=   36 Incr=           1 LDynOK=F GPUOK=F.
 PrsmSu:  NPrtUS=  36 ThrOK=T IAlg=1 LenDen=           0 ISkipM=0 DoSpLW=F IThBeg=    0 IThEnd=   35.
 Prism:   IPart=     0 DynPar=F LinDyn=F Incr=           1.
 PRISM was handed   268430912 working-precision words and    21 shell-pairs
 PRISM was handed   268430912 working-precision words and    21 shell-pairs
 PRISM was handed   268430912 working-precision words and    21 shell-pairs
 PRISM was handed   268430912 working-precision words and    21 shell-pairs
 PRISM was handed   268430912 working-precision words and    21 shell-pairs
 PRISM was handed   268430912 working-precision words and    21 shell-pairs
 PRISM was handed   268430912 working-precision words and    21 shell-pairs
 PRISM was handed   268430912 working-precision words and    21 shell-pairs
 PRISM was handed   268430912 working-precision words and    21 shell-pairs
 PRISM was handed   268430912 working-precision words and    21 shell-pairs
 PRISM was handed   268430912 working-precision words and    21 shell-pairs
 PRISM was handed   268430912 working-precision words and    21 shell-pairs
 PRISM was handed   268430912 working-precision words and    21 shell-pairs
 PRISM was handed   268430912 working-precision words and    21 shell-pairs
 PRISM was handed   268430912 working-precision words and    21 shell-pairs
 PRISM was handed   268430912 working-precision words and    21 shell-pairs
 PRISM was handed   268430912 working-precision words and    21 shell-pairs
 PRISM was handed   268430912 working-precision words and    21 shell-pairs
 PRISM was handed   268430912 working-precision words and    21 shell-pairs
 PRISM was handed   268430912 working-precision words and    21 shell-pairs
 PRISM was handed   268430912 working-precision words and    21 shell-pairs
 PRISM was handed   268430912 working-precision words and    21 shell-pairs
 PRISM was handed   268430912 working-precision words and    21 shell-pairs
 PRISM was handed   268430912 working-precision words and    21 shell-pairs
 PRISM was handed   268430912 working-precision words and    21 shell-pairs
 PRISM was handed   268430912 working-precision words and    21 shell-pairs
 PRISM was handed   268430912 working-precision words and    21 shell-pairs
 PRISM was handed   268430912 working-precision words and    21 shell-pairs
 PRISM was handed   268430912 working-precision words and    21 shell-pairs
 PRISM was handed   268430912 working-precision words and    21 shell-pairs
 PRISM was handed   268430912 working-precision words and    21 shell-pairs
 PRISM was handed   268430912 working-precision words and    21 shell-pairs
 PRISM was handed   268430912 working-precision words and    21 shell-pairs
 PRISM was handed   268430912 working-precision words and    21 shell-pairs
 PRISM was handed   268430912 working-precision words and    21 shell-pairs
 PRISM was handed   268430912 working-precision words and    21 shell-pairs
 IPart= 22 NShTot=           0 NBatch=           0 AvBLen=         0.0
 IPart=  9 NShTot=           0 NBatch=           0 AvBLen=         0.0
 IPart= 14 NShTot=           0 NBatch=           0 AvBLen=         0.0
 IPart= 23 NShTot=           0 NBatch=           0 AvBLen=         0.0
 IPart=  7 NShTot=           0 NBatch=           0 AvBLen=         0.0
 IPart=  5 NShTot=           0 NBatch=           0 AvBLen=         0.0
 IPart= 33 NShTot=           0 NBatch=           0 AvBLen=         0.0
 IPart= 10 NShTot=           0 NBatch=           0 AvBLen=         0.0
 IPart= 28 NShTot=           0 NBatch=           0 AvBLen=         0.0
 IPart= 25 NShTot=           0 NBatch=           0 AvBLen=         0.0
 IPart= 18 NShTot=           0 NBatch=           0 AvBLen=         0.0
 IPart=  3 NShTot=           0 NBatch=           0 AvBLen=         0.0
 IPart= 24 NShTot=           0 NBatch=           0 AvBLen=         0.0
 IPart= 27 NShTot=           0 NBatch=           0 AvBLen=         0.0
 IPart= 32 NShTot=           0 NBatch=           0 AvBLen=         0.0
 IPart= 15 NShTot=           0 NBatch=           0 AvBLen=         0.0
 IPart=  4 NShTot=           0 NBatch=           0 AvBLen=         0.0
 IPart= 12 NShTot=           0 NBatch=           0 AvBLen=         0.0
 IPart= 17 NShTot=           0 NBatch=           0 AvBLen=         0.0
 IPart= 20 NShTot=           0 NBatch=           0 AvBLen=         0.0
 IPart=  6 NShTot=           0 NBatch=           0 AvBLen=         0.0
 IPart= 30 NShTot=           0 NBatch=           0 AvBLen=         0.0
 IPart= 16 NShTot=           0 NBatch=           0 AvBLen=         0.0
 IPart= 26 NShTot=           0 NBatch=           0 AvBLen=         0.0
 IPart=  8 NShTot=           0 NBatch=           0 AvBLen=         0.0
 IPart= 19 NShTot=           0 NBatch=           0 AvBLen=         0.0
 IPart= 34 NShTot=           0 NBatch=           0 AvBLen=         0.0
 IPart= 11 NShTot=           0 NBatch=           0 AvBLen=         0.0
 IPart= 31 NShTot=           0 NBatch=           0 AvBLen=         0.0
 IPart= 29 NShTot=           0 NBatch=           0 AvBLen=         0.0
 IPart= 13 NShTot=           0 NBatch=           0 AvBLen=         0.0
 IPart= 35 NShTot=           0 NBatch=           0 AvBLen=         0.0
 IPart= 21 NShTot=           0 NBatch=           0 AvBLen=         0.0
 IPart=  2 NShTot=           4 NBatch=           2 AvBLen=         2.0
 IPart=  1 NShTot=          10 NBatch=           5 AvBLen=         2.0
 IPart=  0 NShTot=          28 NBatch=          14 AvBLen=         2.0
 PrSmSu:  NxtVal=             37.
 ***** Potential Energy ***** 
                1             2             3             4             5 
      1  0.101775D+02
      2  0.182562D+01  0.354262D+03
      3  0.352360D+01  0.380971D+02  0.614215D+02
      4  0.000000D+00  0.000000D+00  0.000000D+00  0.708784D+02
      5  0.000000D+00  0.000000D+00  0.000000D+00  0.000000D+00  0.708784D+02
      6 -0.112033D+01 -0.743022D-02 -0.481307D-01  0.000000D+00  0.000000D+00
      7 -0.621965D+01 -0.179871D+01 -0.127323D+02  0.000000D+00  0.000000D+00
      8  0.000000D+00  0.000000D+00  0.000000D+00  0.110825D+02  0.000000D+00
      9  0.000000D+00  0.000000D+00  0.000000D+00  0.000000D+00  0.110825D+02
     10 -0.553914D+01 -0.367545D-03 -0.252130D-01  0.000000D+00  0.000000D+00
     11  0.235051D+01 -0.769566D+00 -0.104189D+01  0.000000D+00  0.000000D+00
     12  0.000000D+00  0.000000D+00  0.000000D+00  0.578489D+00  0.000000D+00
     13  0.000000D+00  0.000000D+00  0.000000D+00  0.000000D+00  0.578489D+00
     14 -0.217492D+01 -0.185147D-04 -0.148723D-02  0.000000D+00  0.000000D+00
     15  0.241947D+01  0.102628D+01  0.193641D+01  0.000000D+00  0.000000D+00
     16  0.000000D+00  0.000000D+00  0.000000D+00  0.125810D+00  0.000000D+00
     17  0.000000D+00  0.000000D+00  0.000000D+00  0.000000D+00  0.125810D+00
     18 -0.959300D+00 -0.356212D-05 -0.361015D-03  0.000000D+00  0.000000D+00
                6             7             8             9            10 
      6  0.708883D+02
      7  0.276910D-01  0.186587D+02
      8  0.000000D+00  0.000000D+00  0.169021D+02
      9  0.000000D+00  0.000000D+00  0.000000D+00  0.169021D+02
     10  0.110915D+02  0.160850D+00  0.000000D+00  0.000000D+00  0.170222D+02
     11  0.899789D-03 -0.137296D+01  0.000000D+00  0.000000D+00 -0.462359D-01
     12  0.000000D+00  0.000000D+00  0.241439D+01  0.000000D+00  0.000000D+00
     13  0.000000D+00  0.000000D+00  0.000000D+00  0.241439D+01  0.000000D+00
     14  0.579099D+00  0.300561D-01  0.000000D+00  0.000000D+00  0.244468D+01
     15 -0.342208D-02 -0.335872D+01  0.000000D+00  0.000000D+00 -0.515851D-01
     16  0.000000D+00  0.000000D+00  0.888525D+00  0.000000D+00  0.000000D+00
     17  0.000000D+00  0.000000D+00  0.000000D+00  0.888525D+00  0.000000D+00
     18  0.125970D+00  0.115486D-01  0.000000D+00  0.000000D+00  0.900760D+00
               11            12            13            14            15 
     11  0.489920D+01
     12  0.000000D+00  0.412775D+01
     13  0.000000D+00  0.000000D+00  0.412775D+01
     14 -0.641500D-01  0.000000D+00  0.000000D+00  0.415903D+01
     15  0.403533D+01  0.000000D+00  0.000000D+00 -0.539741D-01  0.409286D+01
     16  0.000000D+00  0.283219D+01  0.000000D+00  0.000000D+00  0.000000D+00
     17  0.000000D+00  0.000000D+00  0.283219D+01  0.000000D+00  0.000000D+00
     18 -0.353574D-01  0.000000D+00  0.000000D+00  0.284898D+01 -0.335589D-01
               16            17            18 
     16  0.273102D+01
     17  0.000000D+00  0.273102D+01
     18  0.000000D+00  0.000000D+00  0.274160D+01
 ****** Core Hamiltonian ****** 
                1             2             3             4             5 
      1 -0.941743D+01
      2 -0.182838D+01 -0.180878D+03
      3 -0.353643D+01 -0.473834D+02 -0.532379D+02
      4  0.000000D+00  0.000000D+00  0.000000D+00 -0.432941D+02
      5  0.000000D+00  0.000000D+00  0.000000D+00  0.000000D+00 -0.432941D+02
      6  0.111251D+01  0.743022D-02  0.481307D-01  0.000000D+00  0.000000D+00
      7  0.613969D+01  0.260253D+01  0.132792D+02  0.000000D+00  0.000000D+00
      8  0.000000D+00  0.000000D+00  0.000000D+00 -0.101635D+02  0.000000D+00
      9  0.000000D+00  0.000000D+00  0.000000D+00  0.000000D+00 -0.101635D+02
     10  0.529625D+01  0.367545D-03  0.252130D-01  0.000000D+00  0.000000D+00
     11 -0.234245D+01  0.752385D+00  0.941411D+00  0.000000D+00  0.000000D+00
     12  0.000000D+00  0.000000D+00  0.000000D+00 -0.552310D+00  0.000000D+00
     13  0.000000D+00  0.000000D+00  0.000000D+00  0.000000D+00 -0.552310D+00
     14  0.213306D+01  0.185147D-04  0.148723D-02  0.000000D+00  0.000000D+00
     15 -0.240728D+01 -0.102600D+01 -0.193420D+01  0.000000D+00  0.000000D+00
     16  0.000000D+00  0.000000D+00  0.000000D+00 -0.125497D+00  0.000000D+00
     17  0.000000D+00  0.000000D+00  0.000000D+00  0.000000D+00 -0.125497D+00
     18  0.948962D+00  0.356212D-05  0.361015D-03  0.000000D+00  0.000000D+00
                6             7             8             9            10 
      6 -0.433041D+02
      7 -0.276910D-01 -0.178215D+02
      8  0.000000D+00  0.000000D+00 -0.153581D+02
      9  0.000000D+00  0.000000D+00  0.000000D+00 -0.153581D+02
     10 -0.101726D+02 -0.160850D+00  0.000000D+00  0.000000D+00 -0.154782D+02
     11 -0.899789D-03  0.147788D+01  0.000000D+00  0.000000D+00  0.462359D-01
     12  0.000000D+00  0.000000D+00 -0.234801D+01  0.000000D+00  0.000000D+00
     13  0.000000D+00  0.000000D+00  0.000000D+00 -0.234801D+01  0.000000D+00
     14 -0.552920D+00 -0.300561D-01  0.000000D+00  0.000000D+00 -0.237831D+01
     15  0.342208D-02  0.334722D+01  0.000000D+00  0.000000D+00  0.515851D-01
     16  0.000000D+00  0.000000D+00 -0.880990D+00  0.000000D+00  0.000000D+00
     17  0.000000D+00  0.000000D+00  0.000000D+00 -0.880990D+00  0.000000D+00
     18 -0.125658D+00 -0.115486D-01  0.000000D+00  0.000000D+00 -0.893225D+00
               11            12            13            14            15 
     11 -0.482175D+01
     12  0.000000D+00 -0.403155D+01
     13  0.000000D+00  0.000000D+00 -0.403155D+01
     14  0.641500D-01  0.000000D+00  0.000000D+00 -0.406282D+01
     15 -0.400552D+01  0.000000D+00  0.000000D+00  0.539741D-01 -0.406807D+01
     16  0.000000D+00 -0.278558D+01  0.000000D+00  0.000000D+00  0.000000D+00
     17  0.000000D+00  0.000000D+00 -0.278558D+01  0.000000D+00  0.000000D+00
     18  0.353574D-01  0.000000D+00  0.000000D+00 -0.280237D+01  0.335589D-01
               16            17            18 
     16 -0.268972D+01
     17  0.000000D+00 -0.268972D+01
     18  0.000000D+00  0.000000D+00 -0.270030D+01
 SVDSVc IOpt=   1 NormSV=T IR=1
 SVDSVc V= 2.35D+00 1.92D+00 1.41D+00 1.30D+00 1.01D+00 8.24D-01 5.81D-01 3.37D-01 1.71D-01 9.46D-02
 SVDSVc IOpt=   1 NormSV=T IR=3
 SVDSVc V= 1.88D+00 1.25D+00 6.91D-01 1.80D-01
 SVDSVc IOpt=   1 NormSV=T IR=4
 SVDSVc V= 1.88D+00 1.25D+00 6.91D-01 1.80D-01
 TstOVc:  Largest diagonal error= 2.89D-15 IB=1 I=   10.
 TstOVc:  Largest same sym error= 8.47D-16 IB=1 I=    4 J=    3.
 TstOVc:  Largest diff sym error= 0.00D+00 IB=0 JB=0 I=    0 J=    0.
 Orthogonalized basis functions: 
                 1             2             3             4             5 
      1   0.314907D+00 -0.567968D-01  0.119239D+00 -0.183129D+00 -0.288800D+00
      2   0.214724D-01  0.159249D-01  0.364297D+00  0.176208D+00  0.672428D+00
      3   0.833294D-01  0.493261D-01  0.537577D+00  0.199460D+00  0.582609D-01
      4   0.000000D+00  0.000000D+00  0.000000D+00  0.000000D+00  0.000000D+00
      5   0.000000D+00  0.000000D+00  0.000000D+00  0.000000D+00  0.000000D+00
      6  -0.447209D-01  0.737498D-01 -0.762848D-01  0.507707D+00 -0.370243D+00
      7  -0.211954D+00 -0.112709D+00 -0.345085D+00 -0.735972D-01  0.467624D+00
      8   0.000000D+00  0.000000D+00  0.000000D+00  0.000000D+00  0.000000D+00
      9   0.000000D+00  0.000000D+00  0.000000D+00  0.000000D+00  0.000000D+00
     10  -0.156603D+00  0.195994D+00 -0.997374D-01  0.510202D+00 -0.408737D-01
     11   0.304787D+00  0.260364D+00 -0.259251D+00  0.501689D-01  0.211043D+00
     12   0.000000D+00  0.000000D+00  0.000000D+00  0.000000D+00  0.000000D+00
     13   0.000000D+00  0.000000D+00  0.000000D+00  0.000000D+00  0.000000D+00
     14  -0.189056D+00  0.409524D+00  0.947934D-01 -0.206703D+00 -0.435754D-01
     15   0.307070D+00  0.268090D+00 -0.216044D+00  0.741124D-01  0.201614D+00
     16   0.000000D+00  0.000000D+00  0.000000D+00  0.000000D+00  0.000000D+00
     17   0.000000D+00  0.000000D+00  0.000000D+00  0.000000D+00  0.000000D+00
     18  -0.156374D+00  0.388296D+00  0.121899D+00 -0.301475D+00 -0.852874D-01
                 6             7             8             9            10 
      1   0.402023D+00 -0.231605D+00  0.109329D+01  0.390367D+00 -0.451217D+00
      2   0.434498D+00 -0.512640D+00 -0.133224D+00 -0.178803D-01  0.413689D-02
      3  -0.284128D+00  0.840248D+00  0.336171D+00  0.580924D-01  0.684788D-01
      4   0.000000D+00  0.000000D+00  0.000000D+00  0.000000D+00  0.000000D+00
      5   0.000000D+00  0.000000D+00  0.000000D+00  0.000000D+00  0.000000D+00
      6   0.703847D+00  0.311732D+00 -0.336309D+00  0.256073D-01  0.483463D-01
      7   0.278490D+00  0.583079D+00  0.763226D+00  0.176414D+00 -0.338693D+00
      8   0.000000D+00  0.000000D+00  0.000000D+00  0.000000D+00  0.000000D+00
      9   0.000000D+00  0.000000D+00  0.000000D+00  0.000000D+00  0.000000D+00
     10  -0.380171D+00 -0.468770D+00  0.882306D+00 -0.103158D+00 -0.187204D+00
     11  -0.186420D-01  0.117634D+00  0.763563D-01  0.167694D+00  0.228361D+01
     12   0.000000D+00  0.000000D+00  0.000000D+00  0.000000D+00  0.000000D+00
     13   0.000000D+00  0.000000D+00  0.000000D+00  0.000000D+00  0.000000D+00
     14   0.611583D-01 -0.120873D-01 -0.112587D+00  0.172740D+01 -0.262650D+00
     15  -0.924674D-01  0.156775D+00 -0.299632D+00 -0.261983D+00 -0.221230D+01
     16   0.000000D+00  0.000000D+00  0.000000D+00  0.000000D+00  0.000000D+00
     17   0.000000D+00  0.000000D+00  0.000000D+00  0.000000D+00  0.000000D+00
     18   0.227964D+00  0.526915D-01  0.237159D+00 -0.160453D+01  0.185346D+00
                11            12            13            14            15 
      1   0.000000D+00  0.000000D+00  0.000000D+00  0.000000D+00  0.000000D+00
      2   0.000000D+00  0.000000D+00  0.000000D+00  0.000000D+00  0.000000D+00
      3   0.000000D+00  0.000000D+00  0.000000D+00  0.000000D+00  0.000000D+00
      4   0.827827D-01  0.650522D+00 -0.813669D+00  0.900001D-01  0.000000D+00
      5   0.000000D+00  0.000000D+00  0.000000D+00  0.000000D+00  0.827827D-01
      6   0.000000D+00  0.000000D+00  0.000000D+00  0.000000D+00  0.000000D+00
      7   0.000000D+00  0.000000D+00  0.000000D+00  0.000000D+00  0.000000D+00
      8   0.213287D+00  0.558240D+00  0.856396D+00 -0.322873D+00  0.000000D+00
      9   0.000000D+00  0.000000D+00  0.000000D+00  0.000000D+00  0.213287D+00
     10   0.000000D+00  0.000000D+00  0.000000D+00  0.000000D+00  0.000000D+00
     11   0.000000D+00  0.000000D+00  0.000000D+00  0.000000D+00  0.000000D+00
     12   0.498483D+00 -0.137035D+00 -0.114594D-01  0.168244D+01  0.000000D+00
     13   0.000000D+00  0.000000D+00  0.000000D+00  0.000000D+00  0.498483D+00
     14   0.000000D+00  0.000000D+00  0.000000D+00  0.000000D+00  0.000000D+00
     15   0.000000D+00  0.000000D+00  0.000000D+00  0.000000D+00  0.000000D+00
     16   0.480441D+00 -0.217733D+00 -0.228099D+00 -0.161779D+01  0.000000D+00
     17   0.000000D+00  0.000000D+00  0.000000D+00  0.000000D+00  0.480441D+00
     18   0.000000D+00  0.000000D+00  0.000000D+00  0.000000D+00  0.000000D+00
                16            17            18 
      1   0.000000D+00  0.000000D+00  0.000000D+00
      2   0.000000D+00  0.000000D+00  0.000000D+00
      3   0.000000D+00  0.000000D+00  0.000000D+00
      4   0.000000D+00  0.000000D+00  0.000000D+00
      5   0.650522D+00 -0.813669D+00  0.900001D-01
      6   0.000000D+00  0.000000D+00  0.000000D+00
      7   0.000000D+00  0.000000D+00  0.000000D+00
      8   0.000000D+00  0.000000D+00  0.000000D+00
      9   0.558240D+00  0.856396D+00 -0.322873D+00
     10   0.000000D+00  0.000000D+00  0.000000D+00
     11   0.000000D+00  0.000000D+00  0.000000D+00
     12   0.000000D+00  0.000000D+00  0.000000D+00
     13  -0.137035D+00 -0.114594D-01  0.168244D+01
     14   0.000000D+00  0.000000D+00  0.000000D+00
     15   0.000000D+00  0.000000D+00  0.000000D+00
     16   0.000000D+00  0.000000D+00  0.000000D+00
     17  -0.217733D+00 -0.228099D+00 -0.161779D+01
     18   0.000000D+00  0.000000D+00  0.000000D+00
 NBasis=    18 RedAO= T EigKep=  9.46D-02  NBF=    10     0     4     4
 NBsUse=    18 1.00D-06 EigRej= -1.00D+00 NBFU=    10     0     4     4
 Leave Link  302 at Mon Mar 28 14:39:25 2022, MaxMem=  9663676416 cpu:               3.3 elap:               0.1
 (Enter /nopt/nrel/apps/gaussian/g16C_1/g16/l303.exe)
 DipDrv will not compute anything.
 Fermi contact integrals: 
                 1             2 
      1   0.628247D+00  0.583158D-01
      2   0.000000D+00  0.443431D+02
      3   0.424373D-05  0.737756D-01
      4   0.000000D+00  0.000000D+00
      5   0.000000D+00  0.000000D+00
      6  -0.151480D-04  0.000000D+00
      7  -0.536223D-01 -0.274029D-01
      8   0.000000D+00  0.000000D+00
      9   0.000000D+00  0.000000D+00
     10  -0.117307D+00  0.000000D+00
     11   0.343003D-01 -0.251750D-01
     12   0.000000D+00  0.000000D+00
     13   0.000000D+00  0.000000D+00
     14  -0.392113D-01  0.000000D+00
     15   0.305798D-01  0.328426D-01
     16   0.000000D+00  0.000000D+00
     17   0.000000D+00  0.000000D+00
     18  -0.163408D-01  0.000000D+00
 Leave Link  303 at Mon Mar 28 14:39:25 2022, MaxMem=  9663676416 cpu:               1.1 elap:               0.1
 (Enter /nopt/nrel/apps/gaussian/g16C_1/g16/l401.exe)
 ExpMin= 1.65D-02 ExpMax= 3.16D+04 ExpMxC= 4.74D+03 IAcc=3 IRadAn=         5 AccDes= 0.00D+00
 Harris functional with IExCor=  205 and IRadAn=       5 diagonalized for initial guess.
 HarFok:  IExCor=  205 AccDes= 0.00D+00 IRadAn=         5 IDoV= 1 UseB2=F ITyADJ=14
 ICtDFT=  3500011 ScaDFX=  1.000000  1.000000  1.000000  1.000000
 FoFCou: FMM=F IPFlag=           0 FMFlag=      100000 FMFlg1=           0
         NFxFlg=           0 DoJE=T BraDBF=F KetDBF=T FulRan=T
         wScrn=  0.000000 ICntrl=       500 IOpCl=  0 I1Cent=   200000004 NGrid=           0
         NMat0=    1 NMatS0=      1 NMatT0=    0 NMatD0=    1 NMtDS0=    0 NMtDT0=    0
 Petite list used in FoFCou.
 Harris En= -598.587279417722    
 JPrj=0 DoOrth=F DoCkMO=F.
 Initial guess orbital symmetries:
 Alpha Orbitals:
       Occupied  (SG) (SG) (SG) (PI) (PI) (SG) (SG) (PI) (PI) (SG)
                 (SG)
       Virtual   (PI) (PI) (SG) (SG) (PI) (PI) (SG)
 Beta  Orbitals:
       Occupied  (SG) (SG) (SG) (PI) (PI) (SG) (SG) (PI) (PI)
       Virtual   (SG) (SG) (PI) (PI) (SG) (SG) (PI) (PI) (SG)
 The electronic state of the initial guess is 3-SG.
 Initial guess <Sx>= 0.0000 <Sy>= 0.0000 <Sz>= 1.0000 <S**2>= 2.0000 S= 1.0000
 Leave Link  401 at Mon Mar 28 14:39:25 2022, MaxMem=  9663676416 cpu:               4.1 elap:               0.1
 (Enter /nopt/nrel/apps/gaussian/g16C_1/g16/l502.exe)
 Keep R1 and R2 ints in memory in symmetry-blocked form, NReq=7244180.
 FoFCou: FMM=F IPFlag=           0 FMFlag=           0 FMFlg1=           0
         NFxFlg=           0 DoJE=F BraDBF=F KetDBF=F FulRan=T
         wScrn=  0.000000 ICntrl=       600 IOpCl=  0 I1Cent=           0 NGrid=           0
         NMat0=    1 NMatS0=    171 NMatT0=    0 NMatD0=    1 NMtDS0=    0 NMtDT0=    0
 Petite list used in FoFCou.
 UHF open shell SCF:
 Using DIIS extrapolation, IDIIS=  1040.
 NGot=  9663676416 LenX=  9663664010 LenY=  9663663128
 Requested convergence on RMS density matrix=1.00D-08 within 128 cycles.
 Requested convergence on MAX density matrix=1.00D-06.
 Requested convergence on             energy=1.00D-06.
 No special actions if energy rises.

 Cycle   1  Pass 1  IDiag  1:
 E= -599.142343984804    
 DIIS: error= 3.96D-02 at cycle   1 NSaved=   1.
 NSaved= 1 IEnMin= 1 EnMin= -599.142343984804     IErMin= 1 ErrMin= 3.96D-02
 ErrMax= 3.96D-02  0.00D+00 EMaxC= 1.00D-01 BMatC= 6.65D-02 BMatP= 6.65D-02
 IDIUse=3 WtCom= 6.04D-01 WtEn= 3.96D-01
 Coeff-Com:  0.100D+01
 Coeff-En:   0.100D+01
 Coeff:      0.100D+01
 Gap=     0.154 Goal=   None    Shift=    0.000
 Gap=     1.124 Goal=   None    Shift=    0.000
 GapD=    0.154 DampG=1.000 DampE=0.500 DampFc=0.5000 IDamp=-1.
 Damping current iteration by 5.00D-01
 RMSDP=2.38D-02 MaxDP=2.43D-01              OVMax= 0.00D+00

 Cycle   2  Pass 1  IDiag  1:
 E= -599.155641685373     Delta-E=       -0.013297700569 Rises=F Damp=T
 DIIS: error= 2.28D-02 at cycle   2 NSaved=   2.
 NSaved= 2 IEnMin= 2 EnMin= -599.155641685373     IErMin= 2 ErrMin= 2.28D-02
 ErrMax= 2.28D-02  0.00D+00 EMaxC= 1.00D-01 BMatC= 2.15D-02 BMatP= 6.65D-02
 IDIUse=3 WtCom= 7.72D-01 WtEn= 2.28D-01
 Coeff-Com: -0.113D+01 0.213D+01
 Coeff-En:   0.000D+00 0.100D+01
 Coeff:     -0.874D+00 0.187D+01
 Gap=     0.144 Goal=   None    Shift=    0.000
 Gap=     1.088 Goal=   None    Shift=    0.000
 RMSDP=2.10D-02 MaxDP=2.54D-01 DE=-1.33D-02 OVMax= 0.00D+00

 Cycle   3  Pass 1  IDiag  1:
 E= -599.178024474848     Delta-E=       -0.022382789475 Rises=F Damp=F
 DIIS: error= 6.47D-03 at cycle   3 NSaved=   3.
 NSaved= 3 IEnMin= 3 EnMin= -599.178024474848     IErMin= 3 ErrMin= 6.47D-03
 ErrMax= 6.47D-03  0.00D+00 EMaxC= 1.00D-01 BMatC= 1.54D-03 BMatP= 2.15D-02
 IDIUse=3 WtCom= 9.35D-01 WtEn= 6.47D-02
 Coeff-Com:  0.155D+01-0.302D+01 0.247D+01
 Coeff-En:   0.000D+00 0.000D+00 0.100D+01
 Coeff:      0.145D+01-0.283D+01 0.237D+01
 Gap=     0.142 Goal=   None    Shift=    0.000
 Gap=     1.048 Goal=   None    Shift=    0.000
 RMSDP=1.41D-02 MaxDP=1.87D-01 DE=-2.24D-02 OVMax= 0.00D+00

 Cycle   4  Pass 1  IDiag  1:
 E= -599.181458130694     Delta-E=       -0.003433655846 Rises=F Damp=F
 DIIS: error= 8.69D-04 at cycle   4 NSaved=   4.
 NSaved= 4 IEnMin= 4 EnMin= -599.181458130694     IErMin= 4 ErrMin= 8.69D-04
 ErrMax= 8.69D-04  0.00D+00 EMaxC= 1.00D-01 BMatC= 5.32D-05 BMatP= 1.54D-03
 IDIUse=3 WtCom= 9.91D-01 WtEn= 8.69D-03
 Coeff-Com: -0.365D+00 0.719D+00-0.733D+00 0.138D+01
 Coeff-En:   0.000D+00 0.000D+00 0.000D+00 0.100D+01
 Coeff:     -0.362D+00 0.713D+00-0.727D+00 0.138D+01
 Gap=     0.140 Goal=   None    Shift=    0.000
 Gap=     1.045 Goal=   None    Shift=    0.000
 RMSDP=3.50D-03 MaxDP=4.46D-02 DE=-3.43D-03 OVMax= 0.00D+00

 Cycle   5  Pass 1  IDiag  1:
 E= -599.181666857236     Delta-E=       -0.000208726543 Rises=F Damp=F
 DIIS: error= 3.53D-04 at cycle   5 NSaved=   5.
 NSaved= 5 IEnMin= 5 EnMin= -599.181666857236     IErMin= 5 ErrMin= 3.53D-04
 ErrMax= 3.53D-04  0.00D+00 EMaxC= 1.00D-01 BMatC= 7.31D-06 BMatP= 5.32D-05
 IDIUse=3 WtCom= 9.96D-01 WtEn= 3.53D-03
 Coeff-Com:  0.142D+00-0.283D+00 0.307D+00-0.924D+00 0.176D+01
 Coeff-En:   0.000D+00 0.000D+00 0.000D+00 0.000D+00 0.100D+01
 Coeff:      0.142D+00-0.282D+00 0.306D+00-0.920D+00 0.175D+01
 Gap=     0.140 Goal=   None    Shift=    0.000
 Gap=     1.044 Goal=   None    Shift=    0.000
 RMSDP=2.08D-03 MaxDP=3.25D-02 DE=-2.09D-04 OVMax= 0.00D+00

 Cycle   6  Pass 1  IDiag  1:
 E= -599.181717834945     Delta-E=       -0.000050977708 Rises=F Damp=F
 DIIS: error= 1.20D-04 at cycle   6 NSaved=   6.
 NSaved= 6 IEnMin= 6 EnMin= -599.181717834945     IErMin= 6 ErrMin= 1.20D-04
 ErrMax= 1.20D-04  0.00D+00 EMaxC= 1.00D-01 BMatC= 6.86D-07 BMatP= 7.31D-06
 IDIUse=3 WtCom= 9.99D-01 WtEn= 1.20D-03
 Coeff-Com: -0.286D-01 0.570D-01-0.643D-01 0.222D+00-0.775D+00 0.159D+01
 Coeff-En:   0.000D+00 0.000D+00 0.000D+00 0.000D+00 0.000D+00 0.100D+01
 Coeff:     -0.286D-01 0.570D-01-0.642D-01 0.221D+00-0.774D+00 0.159D+01
 Gap=     0.139 Goal=   None    Shift=    0.000
 Gap=     1.045 Goal=   None    Shift=    0.000
 RMSDP=8.61D-04 MaxDP=1.40D-02 DE=-5.10D-05 OVMax= 0.00D+00

 Cycle   7  Pass 1  IDiag  1:
 E= -599.181723519639     Delta-E=       -0.000005684694 Rises=F Damp=F
 DIIS: error= 2.10D-05 at cycle   7 NSaved=   7.
 NSaved= 7 IEnMin= 7 EnMin= -599.181723519639     IErMin= 7 ErrMin= 2.10D-05
 ErrMax= 2.10D-05  0.00D+00 EMaxC= 1.00D-01 BMatC= 1.92D-08 BMatP= 6.86D-07
 IDIUse=1 WtCom= 1.00D+00 WtEn= 0.00D+00
 Coeff-Com:  0.541D-02-0.108D-01 0.116D-01-0.490D-01 0.236D+00-0.640D+00
 Coeff-Com:  0.145D+01
 Coeff:      0.541D-02-0.108D-01 0.116D-01-0.490D-01 0.236D+00-0.640D+00
 Coeff:      0.145D+01
 Gap=     0.139 Goal=   None    Shift=    0.000
 Gap=     1.045 Goal=   None    Shift=    0.000
 RMSDP=1.15D-04 MaxDP=1.43D-03 DE=-5.68D-06 OVMax= 0.00D+00

 Cycle   8  Pass 1  IDiag  1:
 E= -599.181723650146     Delta-E=       -0.000000130507 Rises=F Damp=F
 DIIS: error= 8.22D-06 at cycle   8 NSaved=   8.
 NSaved= 8 IEnMin= 8 EnMin= -599.181723650146     IErMin= 8 ErrMin= 8.22D-06
 ErrMax= 8.22D-06  0.00D+00 EMaxC= 1.00D-01 BMatC= 1.64D-09 BMatP= 1.92D-08
 IDIUse=1 WtCom= 1.00D+00 WtEn= 0.00D+00
 Coeff-Com:  0.117D-02-0.228D-02 0.249D-02 0.125D-02-0.571D-01 0.221D+00
 Coeff-Com: -0.802D+00 0.164D+01
 Coeff:      0.117D-02-0.228D-02 0.249D-02 0.125D-02-0.571D-01 0.221D+00
 Coeff:     -0.802D+00 0.164D+01
 Gap=     0.139 Goal=   None    Shift=    0.000
 Gap=     1.045 Goal=   None    Shift=    0.000
 RMSDP=2.93D-05 MaxDP=2.57D-04 DE=-1.31D-07 OVMax= 0.00D+00

 Cycle   9  Pass 1  IDiag  1:
 E= -599.181723660105     Delta-E=       -0.000000009960 Rises=F Damp=F
 DIIS: error= 2.00D-06 at cycle   9 NSaved=   9.
 NSaved= 9 IEnMin= 9 EnMin= -599.181723660105     IErMin= 9 ErrMin= 2.00D-06
 ErrMax= 2.00D-06  0.00D+00 EMaxC= 1.00D-01 BMatC= 8.38D-11 BMatP= 1.64D-09
 IDIUse=1 WtCom= 1.00D+00 WtEn= 0.00D+00
 Coeff-Com: -0.254D-03 0.498D-03-0.596D-03-0.934D-03 0.186D-01-0.699D-01
 Coeff-Com:  0.267D+00-0.683D+00 0.147D+01
 Coeff:     -0.254D-03 0.498D-03-0.596D-03-0.934D-03 0.186D-01-0.699D-01
 Coeff:      0.267D+00-0.683D+00 0.147D+01
 Gap=     0.139 Goal=   None    Shift=    0.000
 Gap=     1.045 Goal=   None    Shift=    0.000
 RMSDP=5.84D-06 MaxDP=4.96D-05 DE=-9.96D-09 OVMax= 0.00D+00

 Cycle  10  Pass 1  IDiag  1:
 E= -599.181723660454     Delta-E=       -0.000000000348 Rises=F Damp=F
 DIIS: error= 5.06D-07 at cycle  10 NSaved=  10.
 NSaved=10 IEnMin=10 EnMin= -599.181723660454     IErMin=10 ErrMin= 5.06D-07
 ErrMax= 5.06D-07  0.00D+00 EMaxC= 1.00D-01 BMatC= 4.56D-12 BMatP= 8.38D-11
 IDIUse=1 WtCom= 1.00D+00 WtEn= 0.00D+00
 Coeff-Com:  0.467D-04-0.918D-04 0.137D-03 0.723D-04-0.239D-02 0.102D-01
 Coeff-Com: -0.457D-01 0.150D+00-0.553D+00 0.144D+01
 Coeff:      0.467D-04-0.918D-04 0.137D-03 0.723D-04-0.239D-02 0.102D-01
 Coeff:     -0.457D-01 0.150D+00-0.553D+00 0.144D+01
 Gap=     0.139 Goal=   None    Shift=    0.000
 Gap=     1.045 Goal=   None    Shift=    0.000
 RMSDP=2.17D-06 MaxDP=3.24D-05 DE=-3.48D-10 OVMax= 0.00D+00

 Cycle  11  Pass 1  IDiag  1:
 E= -599.181723660472     Delta-E=       -0.000000000019 Rises=F Damp=F
 DIIS: error= 2.72D-08 at cycle  11 NSaved=  11.
 NSaved=11 IEnMin=11 EnMin= -599.181723660472     IErMin=11 ErrMin= 2.72D-08
 ErrMax= 2.72D-08  0.00D+00 EMaxC= 1.00D-01 BMatC= 3.41D-14 BMatP= 4.56D-12
 IDIUse=1 WtCom= 1.00D+00 WtEn= 0.00D+00
 Coeff-Com: -0.594D-05 0.118D-04-0.214D-04-0.358D-04 0.431D-03-0.169D-02
 Coeff-Com:  0.743D-02-0.247D-01 0.105D+00-0.334D+00 0.125D+01
 Coeff:     -0.594D-05 0.118D-04-0.214D-04-0.358D-04 0.431D-03-0.169D-02
 Coeff:      0.743D-02-0.247D-01 0.105D+00-0.334D+00 0.125D+01
 Gap=     0.139 Goal=   None    Shift=    0.000
 Gap=     1.045 Goal=   None    Shift=    0.000
 RMSDP=1.24D-07 MaxDP=1.49D-06 DE=-1.85D-11 OVMax= 0.00D+00

 Cycle  12  Pass 1  IDiag  1:
 E= -599.181723660472     Delta-E=        0.000000000000 Rises=F Damp=F
 DIIS: error= 3.63D-09 at cycle  12 NSaved=  12.
 NSaved=12 IEnMin=11 EnMin= -599.181723660472     IErMin=12 ErrMin= 3.63D-09
 ErrMax= 3.63D-09  0.00D+00 EMaxC= 1.00D-01 BMatC= 5.52D-16 BMatP= 3.41D-14
 IDIUse=1 WtCom= 1.00D+00 WtEn= 0.00D+00
 Coeff-Com:  0.889D-06-0.179D-05 0.315D-05 0.579D-05-0.477D-04 0.170D-03
 Coeff-Com: -0.688D-03 0.235D-02-0.128D-01 0.505D-01-0.290D+00 0.125D+01
 Coeff:      0.889D-06-0.179D-05 0.315D-05 0.579D-05-0.477D-04 0.170D-03
 Coeff:     -0.688D-03 0.235D-02-0.128D-01 0.505D-01-0.290D+00 0.125D+01
 Gap=     0.139 Goal=   None    Shift=    0.000
 Gap=     1.045 Goal=   None    Shift=    0.000
 RMSDP=9.02D-09 MaxDP=9.61D-08 DE= 1.14D-13 OVMax= 0.00D+00

 SCF Done:  E(UHF) =  -599.181723660     A.U. after   12 cycles
            NFock= 12  Conv=0.90D-08     -V/T= 1.9985
 <Sx>= 0.0000 <Sy>= 0.0000 <Sz>= 1.0000 <S**2>= 2.0009 S= 1.0003
 <L.S>= 0.000000000000E+00
 KE= 6.000826021686D+02 PE=-1.439347441593D+03 EE= 2.309427821203D+02
 Annihilation of the first spin contaminant:
 S**2 before annihilation     2.0009,   after     2.0000
 Leave Link  502 at Mon Mar 28 14:39:25 2022, MaxMem=  9663676416 cpu:               4.2 elap:               0.1
 (Enter /nopt/nrel/apps/gaussian/g16C_1/g16/l801.exe)
 Windowed orbitals will be sorted by symmetry type.
 ExpMin= 1.65D-02 ExpMax= 3.16D+04 ExpMxC= 4.74D+03 IAcc=3 IRadAn=         5 AccDes= 0.00D+00
 HarFok:  IExCor=  205 AccDes= 0.00D+00 IRadAn=         5 IDoV=-2 UseB2=F ITyADJ=14
 ICtDFT= 12500011 ScaDFX=  1.000000  1.000000  1.000000  1.000000
 Largest valence mixing into a core orbital is  4.99D-02
 Largest core mixing into a valence orbital is  3.81D-02
 Range of M.O.s used for correlation:    10    18
 NBasis=    18 NAE=    11 NBE=     9 NFC=     9 NFV=     0
 NROrb=      9 NOA=     2 NOB=     0 NVA=     7 NVB=     9
 Leave Link  801 at Mon Mar 28 14:39:25 2022, MaxMem=  9663676416 cpu:               2.4 elap:               0.1
 (Enter /nopt/nrel/apps/gaussian/g16C_1/g16/l804.exe)
 Open-shell transformation, MDV=  9663676416 ITran=4 ISComp=2.
 Unit  1 TFree=         22650 TCopy=          3972.
 Semi-Direct transformation.
 ModeAB=           2 MOrb=             2 LenV=    9663549345
 LASXX=          158 LTotXX=         158 LenRXX=         158
 LTotAB=         269 MaxLAS=        3078 LenRXY=        3078
 NonZer=        3510 LenScr=      785920 LnRSAI=           0
 LnScr1=           0 LExtra=      223108 Total=      1012264
 MaxDsk= 34359738368 SrtSym=           F ITran=            4
 DoSDTr:  NPSUse= 36
 JobTyp=1 Pass  1:  I=   1 to   2.
 (rs|ai) integrals will be sorted in core.
 Complete sort for first half transformation.
 First half transformation complete.
 Complete sort for second half transformation.
 Second half transformation complete.
 Spin components of T(2) and E(2):
     alpha-alpha T2 =       0.1313489563D-03 E2=     -0.8829979451D-04
     alpha-beta  T2 =       0.0000000000D+00 E2=      0.0000000000D+00
     beta-beta   T2 =       0.0000000000D+00 E2=      0.0000000000D+00
 ANorm=    0.1000065672D+01
 E2 =    -0.8829979451D-04 EUMP2 =    -0.59918181196027D+03
 Leave Link  804 at Mon Mar 28 14:39:26 2022, MaxMem=  9663676416 cpu:               6.3 elap:               0.2
 (Enter /nopt/nrel/apps/gaussian/g16C_1/g16/l913.exe)
 CIDS:  MDV=  9663676416.
 Frozen-core window:  NFC=   9 NFV=   0.
 IFCWin=0 IBDFC=1 NFBD=     0     0 NFCmp=     0     0 NFFFC=     0     0
 Using original routines for 1st iteration.
 Using DD4UQ or CC4UQ for 2nd and later iterations.
 Keep R2 and R3 ints in memory in symmetry-blocked form, NReq=7246598.
 FoFCou: FMM=F IPFlag=           0 FMFlag=           0 FMFlg1=           0
         NFxFlg=           0 DoJE=F BraDBF=F KetDBF=F FulRan=T
         wScrn=  0.000000 ICntrl=       600 IOpCl=  0 I1Cent=           0 NGrid=           0
         NMat0=    1 NMatS0=    171 NMatT0=    0 NMatD0=    1 NMtDS0=    0 NMtDT0=    0
 Petite list used in FoFCou.
 CIDS: In Core Option IDoMem=           1.
 Coupled Cluster theory with single and double substitutions
 ===========================================================
 Iterations= 200 Convergence= 0.100D-06
 Produce multiple copies of IABC intergrals
 Iteration Nr.   1
 **********************
 DD1Dir will call FoFMem   1 times, MxPair=         2
 NAB=     0 NAA=     1 NBB=     0.
 MP4(R+Q)=  0.11598086D-07
 Maximum subspace dimension=  5
 A-vector RMS=  1.3260092D-03 Max=  3.5645429D-03 conv= 1.00D-05.
 RLE energy=       -0.0001644708
 E3=       -0.40906575D-04        EUMP3=      -0.59918185287D+03
 E4(DQ)=   -0.19127805D-04        UMP4(DQ)=   -0.59918187199D+03
 E4(SDQ)=  -0.19246566D-04        UMP4(SDQ)=  -0.59918187211D+03
 VARIATIONAL ENERGIES WITH THE FIRST-ORDER WAVEFUNCTION:
 DE(Corr)= -0.12919389E-03 E(Corr)=     -599.18185285    
 NORM(A)=   0.10002274D+01
 Iteration Nr.   2
 **********************
 DD1Dir will call FoFMem   1 times, MxPair=         2
 NAB=     0 NAA=     1 NBB=     0.
 A-vector RMS=  2.4454331D-04 Max=  2.5921712D-04 conv= 1.00D-05.
 RLE energy=       -0.0001664047
 DE(Corr)= -0.16502446E-03 E(CORR)=     -599.18188868     Delta=-3.58D-05
 NORM(A)=   0.10002343D+01
 Iteration Nr.   3
 **********************
 DD1Dir will call FoFMem   1 times, MxPair=         2
 NAB=     0 NAA=     1 NBB=     0.
 A-vector RMS=  1.8014518D-05 Max=  4.2221445D-05 conv= 1.00D-05.
 RLE energy=       -0.0001664595
 DE(Corr)= -0.16642016E-03 E(CORR)=     -599.18189008     Delta=-1.40D-06
 NORM(A)=   0.10002344D+01
 Iteration Nr.   4
 **********************
 DD1Dir will call FoFMem   1 times, MxPair=         2
 NAB=     0 NAA=     1 NBB=     0.
 A-vector RMS=  4.7359762D-06 Max=  1.4441316D-05 conv= 1.00D-05.
 RLE energy=       -0.0001664296
 DE(Corr)= -0.16644998E-03 E(CORR)=     -599.18189011     Delta=-2.98D-08
 NORM(A)=   0.10002343D+01
 Iteration Nr.   5
 **********************
 DD1Dir will call FoFMem   1 times, MxPair=         2
 NAB=     0 NAA=     1 NBB=     0.
 A-vector RMS=  1.5461190D-06 Max=  3.9109290D-06 conv= 1.00D-05.
 RLE energy=       -0.0001664552
 DE(Corr)= -0.16643632E-03 E(CORR)=     -599.18189010     Delta= 1.37D-08
 NORM(A)=   0.10002344D+01
 CI/CC converged in    5 iterations to DelEn= 1.37D-08 Conv= 1.00D-07 ErrA1= 1.55D-06 Conv= 1.00D-05
 Wavefunction amplitudes converged. E(Corr)=     -599.18189010    
 Largest amplitude= 1.44D-02
 Discarding MO integrals.
 Leave Link  913 at Mon Mar 28 14:39:26 2022, MaxMem=  9663676416 cpu:               3.9 elap:               0.1
 (Enter /nopt/nrel/apps/gaussian/g16C_1/g16/l601.exe)
 Copying SCF densities to generalized density rwf, IOpCl= 1 IROHF=0.

 **********************************************************************

            Population analysis using the SCF Density.

 **********************************************************************

 Orbital symmetries:
 Alpha Orbitals:
       Occupied  (SG) (SG) (SG) (PI) (PI) (SG) (SG) (PI) (PI) (SG)
                 (SG)
       Virtual   (PI) (PI) (SG) (SG) (PI) (PI) (SG)
 Beta  Orbitals:
       Occupied  (SG) (SG) (PI) (PI) (SG) (SG) (SG) (PI) (PI)
       Virtual   (SG) (PI) (PI) (SG) (SG) (PI) (PI) (SG) (SG)
 The electronic state is 3-SG.
 Alpha  occ. eigenvalues -- -133.65204 -14.62861 -11.66506 -11.65246 -11.65246
 Alpha  occ. eigenvalues --   -1.92665  -1.20738  -1.07170  -1.07170  -0.37232
 Alpha  occ. eigenvalues --   -0.13057
 Alpha virt. eigenvalues --    0.00888   0.00888   0.01880   0.08506   0.08754
 Alpha virt. eigenvalues --    0.08754   0.16621
  Beta  occ. eigenvalues -- -133.64501 -14.61961 -11.64853 -11.64853 -11.64777
  Beta  occ. eigenvalues --   -1.88661  -1.13395  -1.05916  -1.05916
  Beta virt. eigenvalues --   -0.01457   0.02863   0.02863   0.04119   0.06722
  Beta virt. eigenvalues --    0.10883   0.10883   0.12866   0.37355
          Condensed to atoms (all electrons):
               1          2
     1  H    1.044672  -0.108223
     2  K   -0.108223  19.171774
          Atomic-Atomic Spin Densities.
               1          2
     1  H    0.950043  -0.292618
     2  K   -0.292618   1.635192
 Mulliken charges and spin densities:
               1          2
     1  H    0.063551   0.657426
     2  K   -0.063551   1.342574
 Sum of Mulliken charges =  -0.00000   2.00000
 Mulliken charges and spin densities with hydrogens summed into heavy atoms:
               1          2
     2  K   -0.000000   2.000000
 N-N= 9.140333643164D+00 E-N=-1.439347441663D+03  KE= 6.000826021686D+02
 Symmetry A1   KE= 4.747760373678D+02
 Symmetry A2   KE= 0.000000000000D+00
 Symmetry B1   KE= 6.265328240042D+01
 Symmetry B2   KE= 6.265328240042D+01
 Symmetry A1   SP= 2.000000000000D+00
 Symmetry A2   SP= 0.000000000000D+00
 Symmetry B1   SP= 3.350251727692D-15
 Symmetry B2   SP= 2.165550835030D-16

 Atomic contributions to Alpha molecular orbitals:
 Alpha occ 1 OE=-133.652 is K2-s=1.0000
 Alpha occ 2 OE=-14.629 is K2-s=1.0000
 Alpha occ 3 OE=-11.665 is K2-p=1.0000
 Alpha occ 4 OE=-11.652 is K2-p=1.0000
 Alpha occ 5 OE=-11.652 is K2-p=1.0000
 Alpha occ 6 OE=-1.927 is K2-s=0.9344
 Alpha occ 7 OE=-1.207 is K2-p=0.7914 H1-s=0.1627
 Alpha occ 8 OE=-1.072 is K2-p=1.0000
 Alpha occ 9 OE=-1.072 is K2-p=1.0000
 Alpha occ 10 OE=-0.372 is H1-s=0.5605 K2-s=0.2394 K2-p=0.2001
 Alpha occ 11 OE=-0.131 is K2-s=0.5835 K2-p=0.3911
 Alpha vir 12 OE=0.009 is K2-p=1.0000
 Alpha vir 13 OE=0.009 is K2-p=1.0000
 Alpha vir 14 OE=0.019 is K2-p=0.6241 K2-s=0.3511
 Alpha vir 15 OE=0.085 is K2-p=0.5177 K2-s=0.4818
 Alpha vir 16 OE=0.088 is K2-p=1.0000
 Alpha vir 17 OE=0.088 is K2-p=1.0000
 Alpha vir 18 OE=0.166 is K2-p=0.4584 K2-s=0.3639 H1-s=0.1777

 Atomic contributions to Beta  molecular orbitals:
 Beta  occ 1 OE=-133.645 is K2-s=1.0000
 Beta  occ 2 OE=-14.620 is K2-s=1.0000
 Beta  occ 3 OE=-11.649 is K2-p=1.0000
 Beta  occ 4 OE=-11.649 is K2-p=1.0000
 Beta  occ 5 OE=-11.648 is K2-p=1.0000
 Beta  occ 6 OE=-1.887 is K2-s=0.9524
 Beta  occ 7 OE=-1.134 is K2-p=0.8728 H1-s=0.1020
 Beta  occ 8 OE=-1.059 is K2-p=1.0000
 Beta  occ 9 OE=-1.059 is K2-p=1.0000
 Beta  vir 10 OE=-0.015 is K2-s=0.7966 K2-p=0.1668
 Beta  vir 11 OE=0.029 is K2-p=1.0000
 Beta  vir 12 OE=0.029 is K2-p=1.0000
 Beta  vir 13 OE=0.041 is K2-p=0.8470 K2-s=0.1475
 Beta  vir 14 OE=0.067 is K2-s=0.7716 K2-p=0.1685
 Beta  vir 15 OE=0.109 is K2-p=1.0000
 Beta  vir 16 OE=0.109 is K2-p=1.0000
 Beta  vir 17 OE=0.129 is K2-p=0.7914 K2-s=0.2078
 Beta  vir 18 OE=0.374 is H1-s=0.7577 K2-p=0.1435
 
 Leave Link  601 at Mon Mar 28 14:39:26 2022, MaxMem=  9663676416 cpu:               2.6 elap:               0.1
 (Enter /nopt/nrel/apps/gaussian/g16C_1/g16/l9999.exe)

 Test job not archived.
 1\1\GINC-R102U34\SP\UCCSD-FC\Gen\H1K1(3)\USER\28-Mar-2022\0\\#P CC
 SD(MaxCyc=200,SaveAmplitudes,ReadAmplitudes)/GEN sp pop=AllOrbitals io
 p(3/33=1,3/36=-1)\\test\\0,3\H,0,0.,0.,0.\K,0,0.,0.,1.1\\Version=ES64L
 -G16RevC.01\State=3-SG\HF=-599.1817237\MP2=-599.181812\MP3=-599.181852
 9\MP4D=-599.181872\MP4DQ=-599.181872\MP4SDQ=-599.1818721\CCSD=-599.181
 8901\S2=2.000911\S2-1=0.\S2A=2.\RMSD=9.023e-09\PG=C*V [C*(H1K1)]\\@


 THERE'S NOTHING SO GREAT AS THE GREAT OUTDOORS.

                                       -- ZIGGY
 Job cpu time:       0 days  0 hours  0 minutes 37.6 seconds.
 Elapsed time:       0 days  0 hours  0 minutes  1.4 seconds.
 File lengths (MBytes):  RWF=     13 Int=      0 D2E=      0 Chk=      1 Scr=      1
 Normal termination of Gaussian 16 at Mon Mar 28 14:39:26 2022.
