 Entering Gaussian System, Link 0=g16
 Initial command:
 /nopt/nrel/apps/gaussian/g16C_1/g16/l1.exe "/lustre/eaglefs/scratch/user/qc/kh-dissc/kh-3-ccsd-2.6-321g/Gau-26871.inp" -scrdir="/lustre/eaglefs/scratch/user/qc/kh-dissc/kh-3-ccsd-2.6-321g/"
 Default is to use a total of  36 processors:
                               36 via shared-memory
                                1 via Linda
 Entering Link 1 = /nopt/nrel/apps/gaussian/g16C_1/g16/l1.exe PID=     26872.
  
 Copyright (c) 1988-2019, Gaussian, Inc.  All Rights Reserved.
  
 This is part of the Gaussian(R) 16 program.  It is based on
 the Gaussian(R) 09 system (copyright 2009, Gaussian, Inc.),
 the Gaussian(R) 03 system (copyright 2003, Gaussian, Inc.),
 the Gaussian(R) 98 system (copyright 1998, Gaussian, Inc.),
 the Gaussian(R) 94 system (copyright 1995, Gaussian, Inc.),
 the Gaussian 92(TM) system (copyright 1992, Gaussian, Inc.),
 the Gaussian 90(TM) system (copyright 1990, Gaussian, Inc.),
 the Gaussian 88(TM) system (copyright 1988, Gaussian, Inc.),
 the Gaussian 86(TM) system (copyright 1986, Carnegie Mellon
 University), and the Gaussian 82(TM) system (copyright 1983,
 Carnegie Mellon University). Gaussian is a federally registered
 trademark of Gaussian, Inc.
  
 This software contains proprietary and confidential information,
 including trade secrets, belonging to Gaussian, Inc.
  
 This software is provided under written license and may be
 used, copied, transmitted, or stored only in accord with that
 written license.
  
 The following legend is applicable only to US Government
 contracts under FAR:
  
                    RESTRICTED RIGHTS LEGEND
  
 Use, reproduction and disclosure by the US Government is
 subject to restrictions as set forth in subparagraphs (a)
 and (c) of the Commercial Computer Software - Restricted
 Rights clause in FAR 52.227-19.
  
 Gaussian, Inc.
 340 Quinnipiac St., Bldg. 40, Wallingford CT 06492
  
  
 ---------------------------------------------------------------
 Warning -- This program may not be used in any manner that
 competes with the business of Gaussian, Inc. or will provide
 assistance to any competitor of Gaussian, Inc.  The licensee
 of this program is prohibited from giving any competitor of
 Gaussian, Inc. access to this program.  By using this program,
 the user acknowledges that Gaussian, Inc. is engaged in the
 business of creating and licensing software in the field of
 computational chemistry and represents and warrants to the
 licensee that it is not a competitor of Gaussian, Inc. and that
 it will not use this program in any manner prohibited above.
 ---------------------------------------------------------------
  

 Cite this work as:
 Gaussian 16, Revision C.01,
 M. J. Frisch, G. W. Trucks, H. B. Schlegel, G. E. Scuseria, 
 M. A. Robb, J. R. Cheeseman, G. Scalmani, V. Barone, 
 G. A. Petersson, H. Nakatsuji, X. Li, M. Caricato, A. V. Marenich, 
 J. Bloino, B. G. Janesko, R. Gomperts, B. Mennucci, H. P. Hratchian, 
 J. V. Ortiz, A. F. Izmaylov, J. L. Sonnenberg, D. Williams-Young, 
 F. Ding, F. Lipparini, F. Egidi, J. Goings, B. Peng, A. Petrone, 
 T. Henderson, D. Ranasinghe, V. G. Zakrzewski, J. Gao, N. Rega, 
 G. Zheng, W. Liang, M. Hada, M. Ehara, K. Toyota, R. Fukuda, 
 J. Hasegawa, M. Ishida, T. Nakajima, Y. Honda, O. Kitao, H. Nakai, 
 T. Vreven, K. Throssell, J. A. Montgomery, Jr., J. E. Peralta, 
 F. Ogliaro, M. J. Bearpark, J. J. Heyd, E. N. Brothers, K. N. Kudin, 
 V. N. Staroverov, T. A. Keith, R. Kobayashi, J. Normand, 
 K. Raghavachari, A. P. Rendell, J. C. Burant, S. S. Iyengar, 
 J. Tomasi, M. Cossi, J. M. Millam, M. Klene, C. Adamo, R. Cammi, 
 J. W. Ochterski, R. L. Martin, K. Morokuma, O. Farkas, 
 J. B. Foresman, and D. J. Fox, Gaussian, Inc., Wallingford CT, 2019.
 
 ******************************************
 Gaussian 16:  ES64L-G16RevC.01  3-Jul-2019
                28-Mar-2022 
 ******************************************
 %chk=molecule
 Default route: CacheSize=180224 MaxDisk=256GB
 ----------------------------------------------------------------------
 #P CCSD(MaxCyc=200,SaveAmplitudes,ReadAmplitudes)/GEN sp pop=AllOrbita
 ls iop(3/33=1,3/36=-1)
 ----------------------------------------------------------------------
 1/4=180224,38=1,172=1/1;
 2/4=180224,12=2,17=6,18=5,40=1/2;
 3/4=180224,5=7,11=9,25=1,30=1,33=1,36=-1/1,2,3;
 4/4=180224/1;
 5/4=180224,5=2,38=5/2;
 8/4=180224,6=4,9=120000,10=1,24=1/1,4;
 9/4=180224,5=7,6=200,77=1/13;
 6/4=180224,7=2,8=2,9=2,10=2,96=-1/1;
 99/4=180224,5=1,9=1/99;
 Leave Link    1 at Mon Mar 28 14:38:57 2022, MaxMem=           0 cpu:               2.0 elap:               0.1
 (Enter /nopt/nrel/apps/gaussian/g16C_1/g16/l101.exe)
 ----
 test
 ----
 Symbolic Z-matrix:
 Charge =  0 Multiplicity = 3
 H                     0.        0.        0. 
 K                     0.        0.        2.6 
 
 ITRead=  0  0
 MicOpt= -1 -1
 NAtoms=      2 NQM=        2 NQMF=       0 NMMI=      0 NMMIF=      0
                NMic=       0 NMicF=      0.
                    Isotopes and Nuclear Properties:
 (Nuclear quadrupole moments (NQMom) in fm**2, nuclear magnetic moments (NMagM)
  in nuclear magnetons)

  Atom         1           2
 IAtWgt=           1          39
 AtmWgt=   1.0078250  38.9637079
 NucSpn=           1           3
 AtZEff=  -0.0000000  -0.0000000
 NQMom=    0.0000000   5.8500000
 NMagM=    2.7928460   0.3914660
 AtZNuc=   1.0000000  19.0000000
 Leave Link  101 at Mon Mar 28 14:38:57 2022, MaxMem=  9663676416 cpu:               3.3 elap:               0.1
 (Enter /nopt/nrel/apps/gaussian/g16C_1/g16/l202.exe)
                          Input orientation:                          
 ---------------------------------------------------------------------
 Center     Atomic      Atomic             Coordinates (Angstroms)
 Number     Number       Type             X           Y           Z
 ---------------------------------------------------------------------
      1          1           0        0.000000    0.000000    0.000000
      2         19           0        0.000000    0.000000    2.600000
 ---------------------------------------------------------------------
 Stoichiometry    HK(3)
 Framework group  C*V[C*(HK)]
 Deg. of freedom     1
 Full point group                 C*V     NOp   4
 Largest Abelian subgroup         C2V     NOp   4
 Largest concise Abelian subgroup C1      NOp   1
                         Standard orientation:                         
 ---------------------------------------------------------------------
 Center     Atomic      Atomic             Coordinates (Angstroms)
 Number     Number       Type             X           Y           Z
 ---------------------------------------------------------------------
      1          1           0        0.000000    0.000000   -2.470000
      2         19           0        0.000000    0.000000    0.130000
 ---------------------------------------------------------------------
 Rotational constants (GHZ):           0.0000000          76.0984631          76.0984631
 Leave Link  202 at Mon Mar 28 14:38:57 2022, MaxMem=  9663676416 cpu:               0.7 elap:               0.0
 (Enter /nopt/nrel/apps/gaussian/g16C_1/g16/l301.exe)
 General basis read from cards:  (5D, 7F)
                         Coordinates in L301:                         
 ---------------------------------------------------------------------
 Center     Atomic      Atomic             Coordinates (Angstroms)
 Number     Number       Type             X           Y           Z
 ---------------------------------------------------------------------
      1          1           0        0.000000    0.000000   -2.470000
      2         19           0        0.000000    0.000000    0.130000
 ---------------------------------------------------------------------
 Centers:       1
 STO-3G
 ****
 Centers:       2
 3-21G
 ****
 FixB: optimizing general contractions.
 Ernie: Thresh=  0.10000D-02 Tol=  0.10000D-05 Strict=F.
 IA=     1 ShT= 0 ShC= 0 NL=   1 NS=   0.
 IA=     1 L=0 SC=0 ISt=    0 NBk=    0 NP=    0 IndPr=    0.
 IA=     2 ShT= 0 ShC= 0 NL=   1 NS=   0.
 IA=     2 L=0 SC=0 ISt=    0 NBk=    0 NP=    0 IndPr=    0.
 IA=     2 ShT= 1 ShC= 0 NL=   4 NS=   1.
 IA=     2 L=1 SC=0 ISt=    1 NBk=    3 NP=    8 IndPr=    0.
 DoElim1:  L=1 select primitive    1 from    2 using    1 C=-1.09D-01
 DoElim1:  L=1 select primitive    1 from    3 using    1 C=-1.09D-01
 DoElim1:  L=1 select primitive    4 from    3 using    2 C=-2.70D-01
 DoElim2:  L=1 select primitive    8 from    2 using    3 C= 1.13D+00
 DoElim2:  L=1 select primitive    8 from    1 using    3 C= 1.13D+00
 DoElim2:  L=1 select primitive    6 from    1 using    2 C= 8.11D-01
 DoElim1:  L=1 select primitive    1 from    2 using    1 C= 1.34D-01
 DoElim1:  L=1 select primitive    1 from    3 using    1 C= 1.34D-01
 DoElim1:  L=1 select primitive    4 from    3 using    2 C= 1.99D-02
 DoElim2:  L=1 select primitive    8 from    2 using    3 C= 1.00D+00
 DoElim2:  L=1 select primitive    8 from    1 using    3 C= 1.00D+00
 DoElim2:  L=1 select primitive    6 from    1 using    2 C= 6.45D-01
 Delete L=1 primitive    6 from    3 C=  0.00D+00.
 Delete L=1 primitive    5 from    3 C=  0.00D+00.
 Delete L=1 primitive    4 from    3 C=  0.00D+00.
 Delete L=1 primitive    3 from    3 C=  0.00D+00.
 Delete L=1 primitive    2 from    3 C=  0.00D+00.
 Delete L=1 primitive    1 from    3 C=  0.00D+00.
 Delete L=1 primitive    8 from    2 C=  0.00D+00.
 Delete L=1 primitive    7 from    2 C=  0.00D+00.
 Delete L=1 primitive    3 from    2 C=  0.00D+00.
 Delete L=1 primitive    2 from    2 C=  0.00D+00.
 Delete L=1 primitive    1 from    2 C=  0.00D+00.
 Delete L=1 primitive    8 from    1 C=  0.00D+00.
 Delete L=1 primitive    7 from    1 C=  0.00D+00.
 Delete L=1 primitive    6 from    1 C=  0.00D+00.
 Delete L=1 primitive    5 from    1 C=  0.00D+00.
 Delete L=1 primitive    4 from    1 C=  0.00D+00.
 IA=     2 L=1 SC=0 ISt=    0 NBk=    0 NP=    0 IndPr=    8.
 LdAtmC:  AtmChg=     1.000000    19.000000
 AtZEff=     -1.0000000    -22.4200000
 NEqShl: 
              1            2            3            4
     1            1            1            1            1
     2            2            2            2            2
     3            3            3            3            3
     4            4            4            4            4
     5            5            5            5            5
     6            6            6            6            6
 NEqBas: 
              1            2            3            4
     1            1            1            1            1
     2            2            2            2            2
     3            3            3            3            3
     4            4           -4           -4            4
     5            5           -5            5           -5
     6            6            6            6            6
     7            7            7            7            7
     8            8           -8           -8            8
     9            9           -9            9           -9
    10           10           10           10           10
    11           11           11           11           11
    12           12          -12          -12           12
    13           13          -13           13          -13
    14           14           14           14           14
    15           15           15           15           15
    16           16          -16          -16           16
    17           17          -17           17          -17
    18           18           18           18           18
 There are    10 symmetry adapted cartesian basis functions of A1  symmetry.
   1         1   1   1   1
   2         2   2   2   2
   3         3   3   3   3
   4         6   6   6   6
   5         7   7   7   7
   6        10  10  10  10
   7        11  11  11  11
   8        14  14  14  14
   9        15  15  15  15
  10        18  18  18  18
 There are     0 symmetry adapted cartesian basis functions of A2  symmetry.
 There are     4 symmetry adapted cartesian basis functions of B1  symmetry.
  11         4   4   4   4
  12         8   8   8   8
  13        12  12  12  12
  14        16  16  16  16
 There are     4 symmetry adapted cartesian basis functions of B2  symmetry.
  15         5   5   5   5
  16         9   9   9   9
  17        13  13  13  13
  18        17  17  17  17
 Order= 1 2 4 3
 Reordered character table:
              1            2            3            4            5
     1            1            1            1            1            1
     2            2            1            1           -1           -1
     3            4            1           -1           -1            1
     4            3            1           -1            1           -1
 NEqShl: 
              1            2            3            4
     1            1            1            1            1
     2            2            2            2            2
     3            3            3            3            3
     4            4            4            4            4
     5            5            5            5            5
     6            6            6            6            6
 NEqBas: 
              1            2            3            4
     1            1            1            1            1
     2            2            2            2            2
     3            3            3            3            3
     4            4           -4           -4            4
     5            5           -5            5           -5
     6            6            6            6            6
     7            7            7            7            7
     8            8           -8           -8            8
     9            9           -9            9           -9
    10           10           10           10           10
    11           11           11           11           11
    12           12          -12          -12           12
    13           13          -13           13          -13
    14           14           14           14           14
    15           15           15           15           15
    16           16          -16          -16           16
    17           17          -17           17          -17
    18           18           18           18           18
 There are    10 symmetry adapted basis functions of A1  symmetry.
   1         1   1   1   1
   2         2   2   2   2
   3         3   3   3   3
   4         6   6   6   6
   5         7   7   7   7
   6        10  10  10  10
   7        11  11  11  11
   8        14  14  14  14
   9        15  15  15  15
  10        18  18  18  18
 There are     0 symmetry adapted basis functions of A2  symmetry.
 There are     4 symmetry adapted basis functions of B1  symmetry.
  11         4   4   4   4
  12         8   8   8   8
  13        12  12  12  12
  14        16  16  16  16
 There are     4 symmetry adapted basis functions of B2  symmetry.
  15         5   5   5   5
  16         9   9   9   9
  17        13  13  13  13
  18        17  17  17  17
 Order= 1 2 4 3
 Reordered character table:
              1            2            3            4            5
     1            1            1            1            1            1
     2            2            1            1           -1           -1
     3            4            1           -1           -1            1
     4            3            1           -1            1           -1
    18 basis functions,    42 primitive gaussians,    18 cartesian basis functions
    11 alpha electrons        9 beta electrons
       nuclear repulsion energy         3.8670642336 Hartrees.
 IS=     1 IAt=     1 ISR=     1 T=0 IP=      1 IndIP=      1 IndIPD=      0 C=  2.769344D-01  0.000000D+00                             NZ=T
 IS=     1 IAt=     1 ISR=     1 T=0 IP=      2 IndIP=      2 IndIPD=      1 C=  2.678389D-01  0.000000D+00                             NZ=T
 IS=     1 IAt=     1 ISR=     1 T=0 IP=      3 IndIP=      3 IndIPD=      2 C=  8.347367D-02  0.000000D+00                             NZ=T
 IS=     2 IAt=     2 ISR=     1 T=0 IP=      1 IndIP=      4 IndIPD=      0 C=  1.235533D+01  0.000000D+00                             NZ=T
 IS=     2 IAt=     2 ISR=     1 T=0 IP=      2 IndIP=      5 IndIPD=      1 C=  1.757620D+01  0.000000D+00                             NZ=T
 IS=     2 IAt=     2 ISR=     1 T=0 IP=      3 IndIP=      6 IndIPD=      2 C=  9.965255D+00  0.000000D+00                             NZ=T
 IS=     3 IAt=     2 ISR=     2 T=1 IP=      1 IndIP=      7 IndIPD=      0 C= -1.917303D+00  3.974198D+01                             NZ=T
 IS=     3 IAt=     2 ISR=     2 T=1 IP=      2 IndIP=      8 IndIPD=      1 C=  6.276214D-01  2.313166D+01                             NZ=T
 IS=     3 IAt=     2 ISR=     2 T=1 IP=      3 IndIP=      9 IndIPD=      2 C=  2.074825D+00  4.747626D+00                             NZ=T
 IS=     4 IAt=     2 ISR=     3 T=1 IP=      1 IndIP=     10 IndIPD=      0 C= -5.565498D-01  1.669766D-01                             NZ=T
 IS=     4 IAt=     2 ISR=     3 T=1 IP=      2 IndIP=     11 IndIPD=      1 C=  2.958337D-01  7.678126D-01                             NZ=T
 IS=     4 IAt=     2 ISR=     3 T=1 IP=      3 IndIP=     12 IndIPD=      2 C=  2.772726D-01  2.705395D-01                             NZ=T
 IS=     5 IAt=     2 ISR=     4 T=1 IP=      1 IndIP=     13 IndIPD=      0 C= -6.663323D-02  7.553623D-05                             NZ=T
 IS=     5 IAt=     2 ISR=     4 T=1 IP=      2 IndIP=     14 IndIPD=      1 C=  7.057644D-02  2.467884D-02                             NZ=T
 IS=     6 IAt=     2 ISR=     5 T=1 IP=      1 IndIP=     15 IndIPD=      0 C=  3.215666D-02  8.150947D-03                             NZ=T
 IExCor=    0 DFT=F Ex=HF Corr=None ExCW=0 ScaHFX=  1.000000
 ScaDFX=  1.000000  1.000000  1.000000  1.000000 ScalE2=  1.000000  1.000000
 IRadAn=      5 IRanWt=     -1 IRanGd=            0 ICorTp=0 IEmpDi=  4
 NAtoms=    2 NActive=    2 NUniq=    2 SFac= 1.00D+00 NAtFMM=   60 NAOKFM=F Big=F
 Integral buffers will be    131072 words long.
 Raffenetti 2 integral format.
 Two-electron integral symmetry is turned on.
 Leave Link  301 at Mon Mar 28 14:38:58 2022, MaxMem=  9663676416 cpu:               2.3 elap:               0.1
 (Enter /nopt/nrel/apps/gaussian/g16C_1/g16/l302.exe)
 NPDir=0 NMtPBC=     1 NCelOv=     1 NCel=       1 NClECP=     1 NCelD=      1
         NCelK=      1 NCelE2=     1 NClLst=     1 CellRange=     0.0.
 One-electron integrals computed using PRISM.
 One-electron integral symmetry used in STVInt
 Entering OneElI...
 Calculate overlap and kinetic energy integrals
    NBasis =  18  MinDer = 0  MaxDer = 0
 Requested accuracy = 0.1000D-12
 Symmetry will be used
 PrmmSu-InSpLW:  IPartL=    0 NPrtUS=   36 NPrtUL=    1 DoSpLW=F IThBeg=    0 IThEnd=   35 NThAct=   36.
 PrSmSu:  IncTry=   512 NBBP=             21 NTPThr=   100 NPartT=   36 Incr=           1 LDynOK=F GPUOK=F.
 PrsmSu:  NPrtUS=  36 ThrOK=T IAlg=1 LenDen=           0 ISkipM=0 DoSpLW=F IThBeg=    0 IThEnd=   35.
 Prism:   IPart=     0 DynPar=F LinDyn=F Incr=           1.
 PRISM was handed   268433259 working-precision words and    21 shell-pairs
 PRISM was handed   268433259 working-precision words and    21 shell-pairs
 PRISM was handed   268433259 working-precision words and    21 shell-pairs
 PRISM was handed   268433259 working-precision words and    21 shell-pairs
 PRISM was handed   268433259 working-precision words and    21 shell-pairs
 PRISM was handed   268433259 working-precision words and    21 shell-pairs
 PRISM was handed   268433259 working-precision words and    21 shell-pairs
 PRISM was handed   268433259 working-precision words and    21 shell-pairs
 PRISM was handed   268433259 working-precision words and    21 shell-pairs
 PRISM was handed   268433259 working-precision words and    21 shell-pairs
 PRISM was handed   268433259 working-precision words and    21 shell-pairs
 PRISM was handed   268433259 working-precision words and    21 shell-pairs
 IPart= 30 NShTot=           0 NBatch=           0 AvBLen=         0.0
 IPart= 27 NShTot=           0 NBatch=           0 AvBLen=         0.0
 IPart=  5 NShTot=           0 NBatch=           0 AvBLen=         0.0
 IPart= 17 NShTot=           0 NBatch=           0 AvBLen=         0.0
 IPart= 32 NShTot=           0 NBatch=           0 AvBLen=         0.0
 IPart= 15 NShTot=           0 NBatch=           0 AvBLen=         0.0
 IPart=  7 NShTot=           0 NBatch=           0 AvBLen=         0.0
 IPart=  4 NShTot=           0 NBatch=           0 AvBLen=         0.0
 IPart= 13 NShTot=           0 NBatch=           0 AvBLen=         0.0
 IPart= 14 NShTot=           0 NBatch=           0 AvBLen=         0.0
 PRISM was handed   268433259 working-precision words and    21 shell-pairs
 PRISM was handed   268433259 working-precision words and    21 shell-pairs
 IPart=  2 NShTot=           2 NBatch=           2 AvBLen=         1.0
 PRISM was handed   268433259 working-precision words and    21 shell-pairs
 PRISM was handed   268433259 working-precision words and    21 shell-pairs
 IPart=  0 NShTot=          12 NBatch=          12 AvBLen=         1.0
 PRISM was handed   268433259 working-precision words and    21 shell-pairs
 PRISM was handed   268433259 working-precision words and    21 shell-pairs
 IPart= 21 NShTot=           0 NBatch=           0 AvBLen=         0.0
 PRISM was handed   268433259 working-precision words and    21 shell-pairs
 IPart=  8 NShTot=           0 NBatch=           0 AvBLen=         0.0
 IPart= 18 NShTot=           0 NBatch=           0 AvBLen=         0.0
 IPart= 35 NShTot=           0 NBatch=           0 AvBLen=         0.0
 PRISM was handed   268433259 working-precision words and    21 shell-pairs
 IPart= 10 NShTot=           0 NBatch=           0 AvBLen=         0.0
 IPart= 29 NShTot=           0 NBatch=           0 AvBLen=         0.0
 IPart= 26 NShTot=           0 NBatch=           0 AvBLen=         0.0
 PRISM was handed   268433259 working-precision words and    21 shell-pairs
 PRISM was handed   268433259 working-precision words and    21 shell-pairs
 IPart=  9 NShTot=           0 NBatch=           0 AvBLen=         0.0
 PRISM was handed   268433259 working-precision words and    21 shell-pairs
 IPart= 12 NShTot=           0 NBatch=           0 AvBLen=         0.0
 PRISM was handed   268433259 working-precision words and    21 shell-pairs
 PRISM was handed   268433259 working-precision words and    21 shell-pairs
 IPart=  3 NShTot=           0 NBatch=           0 AvBLen=         0.0
 PRISM was handed   268433259 working-precision words and    21 shell-pairs
 PRISM was handed   268433259 working-precision words and    21 shell-pairs
 IPart= 23 NShTot=           0 NBatch=           0 AvBLen=         0.0
 IPart=  1 NShTot=           7 NBatch=           7 AvBLen=         1.0
 PRISM was handed   268433259 working-precision words and    21 shell-pairs
 PRISM was handed   268433259 working-precision words and    21 shell-pairs
 PRISM was handed   268433259 working-precision words and    21 shell-pairs
 IPart= 11 NShTot=           0 NBatch=           0 AvBLen=         0.0
 IPart= 34 NShTot=           0 NBatch=           0 AvBLen=         0.0
 IPart= 31 NShTot=           0 NBatch=           0 AvBLen=         0.0
 PRISM was handed   268433259 working-precision words and    21 shell-pairs
 PRISM was handed   268433259 working-precision words and    21 shell-pairs
 PRISM was handed   268433259 working-precision words and    21 shell-pairs
 PRISM was handed   268433259 working-precision words and    21 shell-pairs
 IPart= 20 NShTot=           0 NBatch=           0 AvBLen=         0.0
 IPart= 19 NShTot=           0 NBatch=           0 AvBLen=         0.0
 IPart= 28 NShTot=           0 NBatch=           0 AvBLen=         0.0
 PRISM was handed   268433259 working-precision words and    21 shell-pairs
 PRISM was handed   268433259 working-precision words and    21 shell-pairs
 IPart= 33 NShTot=           0 NBatch=           0 AvBLen=         0.0
 IPart= 22 NShTot=           0 NBatch=           0 AvBLen=         0.0
 IPart= 16 NShTot=           0 NBatch=           0 AvBLen=         0.0
 IPart=  6 NShTot=           0 NBatch=           0 AvBLen=         0.0
 IPart= 25 NShTot=           0 NBatch=           0 AvBLen=         0.0
 IPart= 24 NShTot=           0 NBatch=           0 AvBLen=         0.0
 PrSmSu:  NxtVal=             37.
 *** Overlap *** 
                1             2             3             4             5 
      1  0.100000D+01
      2  0.220408D-03  0.100000D+01
      3  0.195636D-02  0.255104D+00  0.100000D+01
      4  0.000000D+00  0.000000D+00  0.000000D+00  0.100000D+01
      5  0.000000D+00  0.000000D+00  0.000000D+00  0.000000D+00  0.100000D+01
      6 -0.946739D-03  0.000000D+00  0.000000D+00  0.000000D+00  0.000000D+00
      7  0.226026D-01  0.851285D-02  0.305620D+00  0.000000D+00  0.000000D+00
      8  0.000000D+00  0.000000D+00  0.000000D+00  0.282859D+00  0.000000D+00
      9  0.000000D+00  0.000000D+00  0.000000D+00  0.000000D+00  0.282859D+00
     10 -0.369826D-01  0.000000D+00  0.000000D+00  0.000000D+00  0.000000D+00
     11  0.236055D+00  0.657633D-03  0.101668D-01  0.000000D+00  0.000000D+00
     12  0.000000D+00  0.000000D+00  0.000000D+00  0.931227D-02  0.000000D+00
     13  0.000000D+00  0.000000D+00  0.000000D+00  0.000000D+00  0.931227D-02
     14 -0.366481D+00  0.000000D+00  0.000000D+00  0.000000D+00  0.000000D+00
     15  0.201386D+00  0.496746D-02  0.403235D-01  0.000000D+00  0.000000D+00
     16  0.000000D+00  0.000000D+00  0.000000D+00  0.310109D-02  0.000000D+00
     17  0.000000D+00  0.000000D+00  0.000000D+00  0.000000D+00  0.310109D-02
     18 -0.234498D+00  0.000000D+00  0.000000D+00  0.000000D+00  0.000000D+00
                6             7             8             9            10 
      6  0.100000D+01
      7  0.000000D+00  0.100000D+01
      8  0.000000D+00  0.000000D+00  0.100000D+01
      9  0.000000D+00  0.000000D+00  0.000000D+00  0.100000D+01
     10  0.282859D+00  0.000000D+00  0.000000D+00  0.000000D+00  0.100000D+01
     11  0.000000D+00  0.215867D+00  0.000000D+00  0.000000D+00  0.000000D+00
     12  0.000000D+00  0.000000D+00  0.200079D+00  0.000000D+00  0.000000D+00
     13  0.000000D+00  0.000000D+00  0.000000D+00  0.200079D+00  0.000000D+00
     14  0.931227D-02  0.000000D+00  0.000000D+00  0.000000D+00  0.200079D+00
     15  0.000000D+00  0.230714D+00  0.000000D+00  0.000000D+00  0.000000D+00
     16  0.000000D+00  0.000000D+00  0.749696D-01  0.000000D+00  0.000000D+00
     17  0.000000D+00  0.000000D+00  0.000000D+00  0.749696D-01  0.000000D+00
     18  0.310109D-02  0.000000D+00  0.000000D+00  0.000000D+00  0.749696D-01
               11            12            13            14            15 
     11  0.100000D+01
     12  0.000000D+00  0.100000D+01
     13  0.000000D+00  0.000000D+00  0.100000D+01
     14  0.000000D+00  0.000000D+00  0.000000D+00  0.100000D+01
     15  0.889160D+00  0.000000D+00  0.000000D+00  0.000000D+00  0.100000D+01
     16  0.000000D+00  0.788263D+00  0.000000D+00  0.000000D+00  0.000000D+00
     17  0.000000D+00  0.000000D+00  0.788263D+00  0.000000D+00  0.000000D+00
     18  0.000000D+00  0.000000D+00  0.000000D+00  0.788263D+00  0.000000D+00
               16            17            18 
     16  0.100000D+01
     17  0.000000D+00  0.100000D+01
     18  0.000000D+00  0.000000D+00  0.100000D+01
 *** Kinetic Energy *** 
                1             2             3             4             5 
      1  0.760032D+00
      2 -0.190685D-03  0.176298D+03
      3 -0.155458D-02 -0.620687D+01  0.781415D+01
      4  0.000000D+00  0.000000D+00  0.000000D+00  0.280311D+02
      5  0.000000D+00  0.000000D+00  0.000000D+00  0.000000D+00  0.280311D+02
      6  0.456417D-03  0.000000D+00  0.000000D+00  0.000000D+00  0.000000D+00
      7 -0.988021D-02 -0.709406D+00 -0.685499D+00  0.000000D+00  0.000000D+00
      8  0.000000D+00  0.000000D+00  0.000000D+00  0.125035D+01  0.000000D+00
      9  0.000000D+00  0.000000D+00  0.000000D+00  0.000000D+00  0.125035D+01
     10  0.102318D-01  0.000000D+00  0.000000D+00  0.000000D+00  0.000000D+00
     11  0.151423D-01 -0.621117D-02 -0.439131D-01  0.000000D+00  0.000000D+00
     12  0.000000D+00  0.000000D+00  0.000000D+00  0.182620D-02  0.000000D+00
     13  0.000000D+00  0.000000D+00  0.000000D+00  0.000000D+00  0.182620D-02
     14 -0.415081D-01  0.000000D+00  0.000000D+00  0.000000D+00  0.000000D+00
     15  0.687804D-02  0.239311D-03  0.193628D-02  0.000000D+00  0.000000D+00
     16  0.000000D+00  0.000000D+00  0.000000D+00  0.248286D-03  0.000000D+00
     17  0.000000D+00  0.000000D+00  0.000000D+00  0.000000D+00  0.248286D-03
     18 -0.150654D-01  0.000000D+00  0.000000D+00  0.000000D+00  0.000000D+00
                6             7             8             9            10 
      6  0.280311D+02
      7  0.000000D+00  0.856984D+00
      8  0.000000D+00  0.000000D+00  0.155517D+01
      9  0.000000D+00  0.000000D+00  0.000000D+00  0.155517D+01
     10  0.125035D+01  0.000000D+00  0.000000D+00  0.000000D+00  0.155517D+01
     11  0.000000D+00 -0.669248D-01  0.000000D+00  0.000000D+00  0.000000D+00
     12  0.000000D+00  0.000000D+00  0.358731D-01  0.000000D+00  0.000000D+00
     13  0.000000D+00  0.000000D+00  0.000000D+00  0.358731D-01  0.000000D+00
     14  0.182620D-02  0.000000D+00  0.000000D+00  0.000000D+00  0.358731D-01
     15  0.000000D+00  0.106939D-01  0.000000D+00  0.000000D+00  0.000000D+00
     16  0.000000D+00  0.000000D+00  0.579876D-02  0.000000D+00  0.000000D+00
     17  0.000000D+00  0.000000D+00  0.000000D+00  0.579876D-02  0.000000D+00
     18  0.248286D-03  0.000000D+00  0.000000D+00  0.000000D+00  0.579876D-02
               11            12            13            14            15 
     11  0.660420D-01
     12  0.000000D+00  0.974466D-01
     13  0.000000D+00  0.000000D+00  0.974466D-01
     14  0.000000D+00  0.000000D+00  0.000000D+00  0.974466D-01
     15  0.293463D-01  0.000000D+00  0.000000D+00  0.000000D+00  0.240938D-01
     16  0.000000D+00  0.448313D-01  0.000000D+00  0.000000D+00  0.000000D+00
     17  0.000000D+00  0.000000D+00  0.448313D-01  0.000000D+00  0.000000D+00
     18  0.000000D+00  0.000000D+00  0.000000D+00  0.448313D-01  0.000000D+00
               16            17            18 
     16  0.401564D-01
     17  0.000000D+00  0.401564D-01
     18  0.000000D+00  0.000000D+00  0.401564D-01
 Entering OneElI...
 Calculate potential energy integrals
    NBasis =  18  MinDer = 0  MaxDer = 0
 Requested accuracy = 0.1000D-12
 Symmetry will be used
 PrmmSu-InSpLW:  IPartL=    0 NPrtUS=   36 NPrtUL=    1 DoSpLW=F IThBeg=    0 IThEnd=   35 NThAct=   36.
 PrSmSu:  IncTry=   512 NBBP=             42 NTPThr=   100 NPartT=   36 Incr=           1 LDynOK=F GPUOK=F.
 PrsmSu:  NPrtUS=  36 ThrOK=T IAlg=1 LenDen=           0 ISkipM=0 DoSpLW=F IThBeg=    0 IThEnd=   35.
 Prism:   IPart=     0 DynPar=F LinDyn=F Incr=           1.
 PRISM was handed   268433431 working-precision words and    21 shell-pairs
 PRISM was handed   268433431 working-precision words and    21 shell-pairs
 PRISM was handed   268433431 working-precision words and    21 shell-pairs
 PRISM was handed   268433431 working-precision words and    21 shell-pairs
 PRISM was handed   268433431 working-precision words and    21 shell-pairs
 PRISM was handed   268433431 working-precision words and    21 shell-pairs
 PRISM was handed   268433431 working-precision words and    21 shell-pairs
 PRISM was handed   268433431 working-precision words and    21 shell-pairs
 PRISM was handed   268433431 working-precision words and    21 shell-pairs
 PRISM was handed   268433431 working-precision words and    21 shell-pairs
 PRISM was handed   268433431 working-precision words and    21 shell-pairs
 PRISM was handed   268433431 working-precision words and    21 shell-pairs
 PRISM was handed   268433431 working-precision words and    21 shell-pairs
 PRISM was handed   268433431 working-precision words and    21 shell-pairs
 PRISM was handed   268433431 working-precision words and    21 shell-pairs
 PRISM was handed   268433431 working-precision words and    21 shell-pairs
 PRISM was handed   268433431 working-precision words and    21 shell-pairs
 PRISM was handed   268433431 working-precision words and    21 shell-pairs
 PRISM was handed   268433431 working-precision words and    21 shell-pairs
 PRISM was handed   268433431 working-precision words and    21 shell-pairs
 PRISM was handed   268433431 working-precision words and    21 shell-pairs
 PRISM was handed   268433431 working-precision words and    21 shell-pairs
 PRISM was handed   268433431 working-precision words and    21 shell-pairs
 PRISM was handed   268433431 working-precision words and    21 shell-pairs
 PRISM was handed   268433431 working-precision words and    21 shell-pairs
 PRISM was handed   268433431 working-precision words and    21 shell-pairs
 PRISM was handed   268433431 working-precision words and    21 shell-pairs
 PRISM was handed   268433431 working-precision words and    21 shell-pairs
 PRISM was handed   268433431 working-precision words and    21 shell-pairs
 PRISM was handed   268433431 working-precision words and    21 shell-pairs
 PRISM was handed   268433431 working-precision words and    21 shell-pairs
 PRISM was handed   268433431 working-precision words and    21 shell-pairs
 PRISM was handed   268433431 working-precision words and    21 shell-pairs
 PRISM was handed   268433431 working-precision words and    21 shell-pairs
 PRISM was handed   268433431 working-precision words and    21 shell-pairs
 PRISM was handed   268433431 working-precision words and    21 shell-pairs
 IPart= 34 NShTot=           0 NBatch=           0 AvBLen=         0.0
 IPart= 25 NShTot=           0 NBatch=           0 AvBLen=         0.0
 IPart= 28 NShTot=           0 NBatch=           0 AvBLen=         0.0
 IPart= 29 NShTot=           0 NBatch=           0 AvBLen=         0.0
 IPart= 33 NShTot=           0 NBatch=           0 AvBLen=         0.0
 IPart= 23 NShTot=           0 NBatch=           0 AvBLen=         0.0
 IPart= 19 NShTot=           0 NBatch=           0 AvBLen=         0.0
 IPart=  8 NShTot=           0 NBatch=           0 AvBLen=         0.0
 IPart= 18 NShTot=           0 NBatch=           0 AvBLen=         0.0
 IPart= 17 NShTot=           0 NBatch=           0 AvBLen=         0.0
 IPart=  6 NShTot=           0 NBatch=           0 AvBLen=         0.0
 IPart= 24 NShTot=           0 NBatch=           0 AvBLen=         0.0
 IPart= 22 NShTot=           0 NBatch=           0 AvBLen=         0.0
 IPart= 21 NShTot=           0 NBatch=           0 AvBLen=         0.0
 IPart= 16 NShTot=           0 NBatch=           0 AvBLen=         0.0
 IPart= 30 NShTot=           0 NBatch=           0 AvBLen=         0.0
 IPart= 10 NShTot=           0 NBatch=           0 AvBLen=         0.0
 IPart= 15 NShTot=           0 NBatch=           0 AvBLen=         0.0
 IPart=  4 NShTot=           0 NBatch=           0 AvBLen=         0.0
 IPart= 32 NShTot=           0 NBatch=           0 AvBLen=         0.0
 IPart=  1 NShTot=          14 NBatch=           7 AvBLen=         2.0
 IPart= 35 NShTot=           0 NBatch=           0 AvBLen=         0.0
 IPart= 13 NShTot=           0 NBatch=           0 AvBLen=         0.0
 IPart=  5 NShTot=           0 NBatch=           0 AvBLen=         0.0
 IPart=  7 NShTot=           0 NBatch=           0 AvBLen=         0.0
 IPart= 14 NShTot=           0 NBatch=           0 AvBLen=         0.0
 IPart= 20 NShTot=           0 NBatch=           0 AvBLen=         0.0
 IPart= 27 NShTot=           0 NBatch=           0 AvBLen=         0.0
 IPart=  3 NShTot=           0 NBatch=           0 AvBLen=         0.0
 IPart= 11 NShTot=           0 NBatch=           0 AvBLen=         0.0
 IPart= 26 NShTot=           0 NBatch=           0 AvBLen=         0.0
 IPart=  2 NShTot=           4 NBatch=           2 AvBLen=         2.0
 IPart=  0 NShTot=          24 NBatch=          12 AvBLen=         2.0
 IPart= 31 NShTot=           0 NBatch=           0 AvBLen=         0.0
 IPart= 12 NShTot=           0 NBatch=           0 AvBLen=         0.0
 IPart=  9 NShTot=           0 NBatch=           0 AvBLen=         0.0
 PrSmSu:  NxtVal=             37.
 ***** Potential Energy ***** 
                1             2             3             4             5 
      1  0.509364D+01
      2  0.426220D-01  0.355876D+03
      3  0.863806D-01  0.428541D+02  0.620385D+02
      4  0.000000D+00  0.000000D+00  0.000000D+00  0.711095D+02
      5  0.000000D+00  0.000000D+00  0.000000D+00  0.000000D+00  0.711095D+02
      6 -0.333739D-01 -0.112226D-02 -0.848051D-02  0.000000D+00  0.000000D+00
      7  0.257234D+00  0.118139D+01  0.115089D+02  0.000000D+00  0.000000D+00
      8  0.000000D+00  0.000000D+00  0.000000D+00  0.114920D+02  0.000000D+00
      9  0.000000D+00  0.000000D+00  0.000000D+00  0.000000D+00  0.114920D+02
     10 -0.341767D+00 -0.562975D-04 -0.391161D-02  0.000000D+00  0.000000D+00
     11  0.117418D+01  0.123606D+00  0.387883D+00  0.000000D+00  0.000000D+00
     12  0.000000D+00  0.000000D+00  0.000000D+00  0.334139D+00  0.000000D+00
     13  0.000000D+00  0.000000D+00  0.000000D+00  0.000000D+00  0.334139D+00
     14 -0.173304D+01 -0.122342D-05 -0.138597D-03  0.000000D+00  0.000000D+00
     15  0.962329D+00  0.963453D+00  0.183497D+01  0.000000D+00  0.000000D+00
     16  0.000000D+00  0.000000D+00  0.000000D+00  0.110920D+00  0.000000D+00
     17  0.000000D+00  0.000000D+00  0.000000D+00  0.000000D+00  0.110920D+00
     18 -0.103354D+01  0.000000D+00 -0.462299D-04  0.000000D+00  0.000000D+00
                6             7             8             9            10 
      6  0.711103D+02
      7 -0.422020D-02  0.182233D+02
      8  0.000000D+00  0.000000D+00  0.168224D+02
      9  0.000000D+00  0.000000D+00  0.000000D+00  0.168224D+02
     10  0.114925D+02 -0.307191D-01  0.000000D+00  0.000000D+00  0.168335D+02
     11 -0.156479D-03  0.239736D+01  0.000000D+00  0.000000D+00 -0.143750D-01
     12  0.000000D+00  0.000000D+00  0.209731D+01  0.000000D+00  0.000000D+00
     13  0.000000D+00  0.000000D+00  0.000000D+00  0.209731D+01  0.000000D+00
     14  0.334162D+00 -0.759548D-02  0.000000D+00  0.000000D+00  0.210275D+01
     15 -0.506795D-03  0.319044D+01  0.000000D+00  0.000000D+00 -0.122489D-01
     16  0.000000D+00  0.000000D+00  0.761126D+00  0.000000D+00  0.000000D+00
     17  0.000000D+00  0.000000D+00  0.000000D+00  0.761126D+00  0.000000D+00
     18  0.110927D+00 -0.287261D-02  0.000000D+00  0.000000D+00  0.763301D+00
               11            12            13            14            15 
     11  0.494273D+01
     12  0.000000D+00  0.414557D+01
     13  0.000000D+00  0.000000D+00  0.414557D+01
     14 -0.798990D-01  0.000000D+00  0.000000D+00  0.421307D+01
     15  0.410203D+01  0.000000D+00  0.000000D+00 -0.711690D-01  0.400283D+01
     16  0.000000D+00  0.275379D+01  0.000000D+00  0.000000D+00  0.000000D+00
     17  0.000000D+00  0.000000D+00  0.275379D+01  0.000000D+00  0.000000D+00
     18 -0.497879D-01  0.000000D+00  0.000000D+00  0.279859D+01 -0.538412D-01
               16            17            18 
     16  0.267872D+01
     17  0.000000D+00  0.267872D+01
     18  0.000000D+00  0.000000D+00  0.271528D+01
 ****** Core Hamiltonian ****** 
                1             2             3             4             5 
      1 -0.433360D+01
      2 -0.428127D-01 -0.179578D+03
      3 -0.879351D-01 -0.490610D+02 -0.542244D+02
      4  0.000000D+00  0.000000D+00  0.000000D+00 -0.430785D+02
      5  0.000000D+00  0.000000D+00  0.000000D+00  0.000000D+00 -0.430785D+02
      6  0.338304D-01  0.112226D-02  0.848051D-02  0.000000D+00  0.000000D+00
      7 -0.267114D+00 -0.189079D+01 -0.121944D+02  0.000000D+00  0.000000D+00
      8  0.000000D+00  0.000000D+00  0.000000D+00 -0.102416D+02  0.000000D+00
      9  0.000000D+00  0.000000D+00  0.000000D+00  0.000000D+00 -0.102416D+02
     10  0.351998D+00  0.562975D-04  0.391161D-02  0.000000D+00  0.000000D+00
     11 -0.115904D+01 -0.129817D+00 -0.431796D+00  0.000000D+00  0.000000D+00
     12  0.000000D+00  0.000000D+00  0.000000D+00 -0.332313D+00  0.000000D+00
     13  0.000000D+00  0.000000D+00  0.000000D+00  0.000000D+00 -0.332313D+00
     14  0.169154D+01  0.122342D-05  0.138597D-03  0.000000D+00  0.000000D+00
     15 -0.955451D+00 -0.963213D+00 -0.183303D+01  0.000000D+00  0.000000D+00
     16  0.000000D+00  0.000000D+00  0.000000D+00 -0.110672D+00  0.000000D+00
     17  0.000000D+00  0.000000D+00  0.000000D+00  0.000000D+00 -0.110672D+00
     18  0.101847D+01  0.000000D+00  0.462299D-04  0.000000D+00  0.000000D+00
                6             7             8             9            10 
      6 -0.430792D+02
      7  0.422020D-02 -0.173663D+02
      8  0.000000D+00  0.000000D+00 -0.152672D+02
      9  0.000000D+00  0.000000D+00  0.000000D+00 -0.152672D+02
     10 -0.102422D+02  0.307191D-01  0.000000D+00  0.000000D+00 -0.152783D+02
     11  0.156479D-03 -0.246428D+01  0.000000D+00  0.000000D+00  0.143750D-01
     12  0.000000D+00  0.000000D+00 -0.206143D+01  0.000000D+00  0.000000D+00
     13  0.000000D+00  0.000000D+00  0.000000D+00 -0.206143D+01  0.000000D+00
     14 -0.332335D+00  0.759548D-02  0.000000D+00  0.000000D+00 -0.206688D+01
     15  0.506795D-03 -0.317975D+01  0.000000D+00  0.000000D+00  0.122489D-01
     16  0.000000D+00  0.000000D+00 -0.755327D+00  0.000000D+00  0.000000D+00
     17  0.000000D+00  0.000000D+00  0.000000D+00 -0.755327D+00  0.000000D+00
     18 -0.110679D+00  0.287261D-02  0.000000D+00  0.000000D+00 -0.757502D+00
               11            12            13            14            15 
     11 -0.487668D+01
     12  0.000000D+00 -0.404813D+01
     13  0.000000D+00  0.000000D+00 -0.404813D+01
     14  0.798990D-01  0.000000D+00  0.000000D+00 -0.411562D+01
     15 -0.407268D+01  0.000000D+00  0.000000D+00  0.711690D-01 -0.397874D+01
     16  0.000000D+00 -0.270896D+01  0.000000D+00  0.000000D+00  0.000000D+00
     17  0.000000D+00  0.000000D+00 -0.270896D+01  0.000000D+00  0.000000D+00
     18  0.497879D-01  0.000000D+00  0.000000D+00 -0.275376D+01  0.538412D-01
               16            17            18 
     16 -0.263856D+01
     17  0.000000D+00 -0.263856D+01
     18  0.000000D+00  0.000000D+00 -0.267513D+01
 SVDSVc IOpt=   1 NormSV=T IR=1
 SVDSVc V= 2.16D+00 1.93D+00 1.35D+00 1.26D+00 9.58D-01 7.59D-01 7.05D-01 5.84D-01 1.87D-01 1.09D-01
 SVDSVc IOpt=   1 NormSV=T IR=3
 SVDSVc V= 1.84D+00 1.25D+00 7.08D-01 2.01D-01
 SVDSVc IOpt=   1 NormSV=T IR=4
 SVDSVc V= 1.84D+00 1.25D+00 7.08D-01 2.01D-01
 TstOVc:  Largest diagonal error= 2.11D-15 IB=1 I=   10.
 TstOVc:  Largest same sym error= 1.04D-15 IB=1 I=    9 J=    5.
 TstOVc:  Largest diff sym error= 0.00D+00 IB=0 JB=0 I=    0 J=    0.
 Orthogonalized basis functions: 
                 1             2             3             4             5 
      1   0.263611D+00 -0.117730D+00 -0.822691D-01  0.904441D-01  0.196318D+00
      2   0.161550D-01  0.232694D-01  0.443417D+00  0.491812D-01  0.750261D+00
      3   0.602612D-01  0.733311D-01  0.603897D+00  0.502330D-01 -0.103521D+00
      4   0.000000D+00  0.000000D+00  0.000000D+00  0.000000D+00  0.000000D+00
      5   0.000000D+00  0.000000D+00  0.000000D+00  0.000000D+00  0.000000D+00
      6  -0.203996D-01  0.459270D-01 -0.483585D-01  0.639240D+00 -0.360546D-01
      7   0.155701D+00  0.157344D+00  0.349138D+00  0.676831D-02 -0.629932D+00
      8   0.000000D+00  0.000000D+00  0.000000D+00  0.000000D+00  0.000000D+00
      9   0.000000D+00  0.000000D+00  0.000000D+00  0.000000D+00  0.000000D+00
     10  -0.718388D-01  0.133435D+00 -0.589095D-01  0.587379D+00  0.322369D-02
     11   0.350248D+00  0.280216D+00 -0.153782D+00 -0.353933D-01  0.115001D+00
     12   0.000000D+00  0.000000D+00  0.000000D+00  0.000000D+00  0.000000D+00
     13   0.000000D+00  0.000000D+00  0.000000D+00  0.000000D+00  0.000000D+00
     14  -0.252293D+00  0.392859D+00 -0.360438D-01 -0.772488D-01  0.535955D-01
     15   0.347835D+00  0.285017D+00 -0.131102D+00 -0.365338D-01  0.960683D-01
     16   0.000000D+00  0.000000D+00  0.000000D+00  0.000000D+00  0.000000D+00
     17   0.000000D+00  0.000000D+00  0.000000D+00  0.000000D+00  0.000000D+00
     18  -0.229739D+00  0.373925D+00 -0.388384D-01 -0.139873D+00  0.880548D-01
                 6             7             8             9            10 
      1   0.949778D+00 -0.254394D+00 -0.160642D+00  0.331152D+00 -0.116129D+00
      2  -0.196403D+00  0.501161D-01 -0.521602D+00  0.112852D-02 -0.104695D-01
      3   0.188329D+00 -0.591911D-01  0.873075D+00 -0.222839D-02  0.721784D-01
      4   0.000000D+00  0.000000D+00  0.000000D+00  0.000000D+00  0.000000D+00
      5   0.000000D+00  0.000000D+00  0.000000D+00  0.000000D+00  0.000000D+00
      6  -0.268783D+00 -0.772245D+00 -0.406729D-02  0.881009D-01 -0.400643D-02
      7   0.435278D-01  0.867456D-02 -0.777569D+00  0.175938D-01  0.768947D-02
      8   0.000000D+00  0.000000D+00  0.000000D+00  0.000000D+00  0.000000D+00
      9   0.000000D+00  0.000000D+00  0.000000D+00  0.000000D+00  0.000000D+00
     10   0.223717D+00  0.809578D+00  0.658588D-02 -0.291094D+00  0.150347D-01
     11  -0.174854D+00  0.402756D-01  0.125060D+00  0.293729D-01  0.214640D+01
     12   0.000000D+00  0.000000D+00  0.000000D+00  0.000000D+00  0.000000D+00
     13   0.000000D+00  0.000000D+00  0.000000D+00  0.000000D+00  0.000000D+00
     14   0.158332D+00 -0.369993D-01 -0.112699D-01  0.168662D+01 -0.105931D+00
     15  -0.217234D+00  0.526995D-01  0.163321D+00 -0.119023D+00 -0.212180D+01
     16   0.000000D+00  0.000000D+00  0.000000D+00  0.000000D+00  0.000000D+00
     17   0.000000D+00  0.000000D+00  0.000000D+00  0.000000D+00  0.000000D+00
     18   0.339458D+00 -0.300784D+00 -0.703627D-01 -0.151303D+01  0.619283D-01
                11            12            13            14            15 
      1   0.000000D+00  0.000000D+00  0.000000D+00  0.000000D+00  0.000000D+00
      2   0.000000D+00  0.000000D+00  0.000000D+00  0.000000D+00  0.000000D+00
      3   0.000000D+00  0.000000D+00  0.000000D+00  0.000000D+00  0.000000D+00
      4   0.709850D-01  0.645112D+00 -0.813656D+00  0.880868D-01  0.000000D+00
      5   0.000000D+00  0.000000D+00  0.000000D+00  0.000000D+00  0.709850D-01
      6   0.000000D+00  0.000000D+00  0.000000D+00  0.000000D+00  0.000000D+00
      7   0.000000D+00  0.000000D+00  0.000000D+00  0.000000D+00  0.000000D+00
      8   0.188890D+00  0.576969D+00  0.841851D+00 -0.284389D+00  0.000000D+00
      9   0.000000D+00  0.000000D+00  0.000000D+00  0.000000D+00  0.188890D+00
     10   0.000000D+00  0.000000D+00  0.000000D+00  0.000000D+00  0.000000D+00
     11   0.000000D+00  0.000000D+00  0.000000D+00  0.000000D+00  0.000000D+00
     12   0.508568D+00 -0.118274D+00 -0.151283D-02  0.158900D+01  0.000000D+00
     13   0.000000D+00  0.000000D+00  0.000000D+00  0.000000D+00  0.508568D+00
     14   0.000000D+00  0.000000D+00  0.000000D+00  0.000000D+00  0.000000D+00
     15   0.000000D+00  0.000000D+00  0.000000D+00  0.000000D+00  0.000000D+00
     16   0.493792D+00 -0.191632D+00 -0.203508D+00 -0.154043D+01  0.000000D+00
     17   0.000000D+00  0.000000D+00  0.000000D+00  0.000000D+00  0.493792D+00
     18   0.000000D+00  0.000000D+00  0.000000D+00  0.000000D+00  0.000000D+00
                16            17            18 
      1   0.000000D+00  0.000000D+00  0.000000D+00
      2   0.000000D+00  0.000000D+00  0.000000D+00
      3   0.000000D+00  0.000000D+00  0.000000D+00
      4   0.000000D+00  0.000000D+00  0.000000D+00
      5   0.645112D+00 -0.813656D+00  0.880868D-01
      6   0.000000D+00  0.000000D+00  0.000000D+00
      7   0.000000D+00  0.000000D+00  0.000000D+00
      8   0.000000D+00  0.000000D+00  0.000000D+00
      9   0.576969D+00  0.841851D+00 -0.284389D+00
     10   0.000000D+00  0.000000D+00  0.000000D+00
     11   0.000000D+00  0.000000D+00  0.000000D+00
     12   0.000000D+00  0.000000D+00  0.000000D+00
     13  -0.118274D+00 -0.151283D-02  0.158900D+01
     14   0.000000D+00  0.000000D+00  0.000000D+00
     15   0.000000D+00  0.000000D+00  0.000000D+00
     16   0.000000D+00  0.000000D+00  0.000000D+00
     17  -0.191632D+00 -0.203508D+00 -0.154043D+01
     18   0.000000D+00  0.000000D+00  0.000000D+00
 NBasis=    18 RedAO= T EigKep=  1.09D-01  NBF=    10     0     4     4
 NBsUse=    18 1.00D-06 EigRej= -1.00D+00 NBFU=    10     0     4     4
 Leave Link  302 at Mon Mar 28 14:38:58 2022, MaxMem=  9663676416 cpu:               3.7 elap:               0.1
 (Enter /nopt/nrel/apps/gaussian/g16C_1/g16/l303.exe)
 DipDrv will not compute anything.
 Fermi contact integrals: 
                 1             2 
      1   0.628247D+00  0.141673D-02
      2   0.000000D+00  0.398968D+02
      3   0.000000D+00  0.785144D+00
      4   0.000000D+00  0.000000D+00
      5   0.000000D+00  0.000000D+00
      6   0.000000D+00  0.000000D+00
      7   0.319394D-04  0.165565D-01
      8   0.000000D+00  0.000000D+00
      9   0.000000D+00  0.000000D+00
     10  -0.153117D-03  0.000000D+00
     11   0.273655D-01  0.394321D-02
     12   0.000000D+00  0.000000D+00
     13   0.000000D+00  0.000000D+00
     14  -0.473287D-01  0.000000D+00
     15   0.218208D-01  0.321567D-01
     16   0.000000D+00  0.000000D+00
     17   0.000000D+00  0.000000D+00
     18  -0.271756D-01  0.000000D+00
 Leave Link  303 at Mon Mar 28 14:38:58 2022, MaxMem=  9663676416 cpu:               1.1 elap:               0.1
 (Enter /nopt/nrel/apps/gaussian/g16C_1/g16/l401.exe)
 ExpMin= 1.61D-02 ExpMax= 1.72D+03 ExpMxC= 1.72D+03 IAcc=3 IRadAn=         5 AccDes= 0.00D+00
 Harris functional with IExCor=  205 and IRadAn=       5 diagonalized for initial guess.
 HarFok:  IExCor=  205 AccDes= 0.00D+00 IRadAn=         5 IDoV= 1 UseB2=F ITyADJ=14
 ICtDFT=  3500011 ScaDFX=  1.000000  1.000000  1.000000  1.000000
 FoFCou: FMM=F IPFlag=           0 FMFlag=      100000 FMFlg1=           0
         NFxFlg=           0 DoJE=T BraDBF=F KetDBF=T FulRan=T
         wScrn=  0.000000 ICntrl=       500 IOpCl=  0 I1Cent=   200000004 NGrid=           0
         NMat0=    1 NMatS0=      1 NMatT0=    0 NMatD0=    1 NMtDS0=    0 NMtDT0=    0
 Petite list used in FoFCou.
 Harris En= -595.912403309014    
 JPrj=0 DoOrth=F DoCkMO=F.
 Initial guess orbital symmetries:
 Alpha Orbitals:
       Occupied  (SG) (SG) (SG) (PI) (PI) (SG) (SG) (PI) (PI) (SG)
                 (SG)
       Virtual   (PI) (PI) (SG) (SG) (PI) (PI) (SG)
 Beta  Orbitals:
       Occupied  (SG) (SG) (SG) (PI) (PI) (SG) (SG) (PI) (PI)
       Virtual   (SG) (SG) (PI) (PI) (SG) (SG) (PI) (PI) (SG)
 The electronic state of the initial guess is 3-SG.
 Initial guess <Sx>= 0.0000 <Sy>= 0.0000 <Sz>= 1.0000 <S**2>= 2.0000 S= 1.0000
 Leave Link  401 at Mon Mar 28 14:38:58 2022, MaxMem=  9663676416 cpu:               3.9 elap:               0.1
 (Enter /nopt/nrel/apps/gaussian/g16C_1/g16/l502.exe)
 Keep R1 and R2 ints in memory in symmetry-blocked form, NReq=7225781.
 FoFCou: FMM=F IPFlag=           0 FMFlag=           0 FMFlg1=           0
         NFxFlg=           0 DoJE=F BraDBF=F KetDBF=F FulRan=T
         wScrn=  0.000000 ICntrl=       600 IOpCl=  0 I1Cent=           0 NGrid=           0
         NMat0=    1 NMatS0=    171 NMatT0=    0 NMatD0=    1 NMtDS0=    0 NMtDT0=    0
 Petite list used in FoFCou.
 UHF open shell SCF:
 Using DIIS extrapolation, IDIIS=  1040.
 NGot=  9663676416 LenX=  9663664010 LenY=  9663663128
 Requested convergence on RMS density matrix=1.00D-08 within 128 cycles.
 Requested convergence on MAX density matrix=1.00D-06.
 Requested convergence on             energy=1.00D-06.
 No special actions if energy rises.

 Cycle   1  Pass 1  IDiag  1:
 E= -596.593644351712    
 DIIS: error= 2.60D-02 at cycle   1 NSaved=   1.
 NSaved= 1 IEnMin= 1 EnMin= -596.593644351712     IErMin= 1 ErrMin= 2.60D-02
 ErrMax= 2.60D-02  0.00D+00 EMaxC= 1.00D-01 BMatC= 3.85D-02 BMatP= 3.85D-02
 IDIUse=3 WtCom= 7.40D-01 WtEn= 2.60D-01
 Coeff-Com:  0.100D+01
 Coeff-En:   0.100D+01
 Coeff:      0.100D+01
 Gap=     0.165 Goal=   None    Shift=    0.000
 Gap=     0.981 Goal=   None    Shift=    0.000
 GapD=    0.165 DampG=1.000 DampE=0.500 DampFc=0.5000 IDamp=-1.
 Damping current iteration by 5.00D-01
 RMSDP=1.28D-02 MaxDP=1.53D-01              OVMax= 0.00D+00

 Cycle   2  Pass 1  IDiag  1:
 E= -596.602483650226     Delta-E=       -0.008839298514 Rises=F Damp=T
 DIIS: error= 1.74D-02 at cycle   2 NSaved=   2.
 NSaved= 2 IEnMin= 2 EnMin= -596.602483650226     IErMin= 2 ErrMin= 1.74D-02
 ErrMax= 1.74D-02  0.00D+00 EMaxC= 1.00D-01 BMatC= 1.31D-02 BMatP= 3.85D-02
 IDIUse=3 WtCom= 8.26D-01 WtEn= 1.74D-01
 Coeff-Com: -0.130D+01 0.230D+01
 Coeff-En:   0.000D+00 0.100D+01
 Coeff:     -0.107D+01 0.207D+01
 Gap=     0.150 Goal=   None    Shift=    0.000
 Gap=     0.930 Goal=   None    Shift=    0.000
 RMSDP=1.15D-02 MaxDP=1.64D-01 DE=-8.84D-03 OVMax= 0.00D+00

 Cycle   3  Pass 1  IDiag  1:
 E= -596.615518257353     Delta-E=       -0.013034607128 Rises=F Damp=F
 DIIS: error= 2.72D-03 at cycle   3 NSaved=   3.
 NSaved= 3 IEnMin= 3 EnMin= -596.615518257353     IErMin= 3 ErrMin= 2.72D-03
 ErrMax= 2.72D-03  0.00D+00 EMaxC= 1.00D-01 BMatC= 1.78D-04 BMatP= 1.31D-02
 IDIUse=3 WtCom= 9.73D-01 WtEn= 2.72D-02
 Coeff-Com:  0.474D+00-0.929D+00 0.146D+01
 Coeff-En:   0.000D+00 0.000D+00 0.100D+01
 Coeff:      0.461D+00-0.903D+00 0.144D+01
 Gap=     0.149 Goal=   None    Shift=    0.000
 Gap=     0.934 Goal=   None    Shift=    0.000
 RMSDP=3.68D-03 MaxDP=5.99D-02 DE=-1.30D-02 OVMax= 0.00D+00

 Cycle   4  Pass 1  IDiag  1:
 E= -596.615802173650     Delta-E=       -0.000283916297 Rises=F Damp=F
 DIIS: error= 4.57D-04 at cycle   4 NSaved=   4.
 NSaved= 4 IEnMin= 4 EnMin= -596.615802173650     IErMin= 4 ErrMin= 4.57D-04
 ErrMax= 4.57D-04  0.00D+00 EMaxC= 1.00D-01 BMatC= 3.24D-06 BMatP= 1.78D-04
 IDIUse=3 WtCom= 9.95D-01 WtEn= 4.57D-03
 Coeff-Com: -0.211D+00 0.415D+00-0.696D+00 0.149D+01
 Coeff-En:   0.000D+00 0.000D+00 0.000D+00 0.100D+01
 Coeff:     -0.210D+00 0.413D+00-0.693D+00 0.149D+01
 Gap=     0.148 Goal=   None    Shift=    0.000
 Gap=     0.936 Goal=   None    Shift=    0.000
 RMSDP=1.24D-03 MaxDP=1.98D-02 DE=-2.84D-04 OVMax= 0.00D+00

 Cycle   5  Pass 1  IDiag  1:
 E= -596.615817048859     Delta-E=       -0.000014875209 Rises=F Damp=F
 DIIS: error= 1.43D-04 at cycle   5 NSaved=   5.
 NSaved= 5 IEnMin= 5 EnMin= -596.615817048859     IErMin= 5 ErrMin= 1.43D-04
 ErrMax= 1.43D-04  0.00D+00 EMaxC= 1.00D-01 BMatC= 3.44D-07 BMatP= 3.24D-06
 IDIUse=3 WtCom= 9.99D-01 WtEn= 1.43D-03
 Coeff-Com:  0.767D-01-0.151D+00 0.268D+00-0.896D+00 0.170D+01
 Coeff-En:   0.000D+00 0.000D+00 0.000D+00 0.000D+00 0.100D+01
 Coeff:      0.766D-01-0.151D+00 0.268D+00-0.894D+00 0.170D+01
 Gap=     0.148 Goal=   None    Shift=    0.000
 Gap=     0.936 Goal=   None    Shift=    0.000
 RMSDP=5.44D-04 MaxDP=8.35D-03 DE=-1.49D-05 OVMax= 0.00D+00

 Cycle   6  Pass 1  IDiag  1:
 E= -596.615818636378     Delta-E=       -0.000001587519 Rises=F Damp=F
 DIIS: error= 2.74D-06 at cycle   6 NSaved=   6.
 NSaved= 6 IEnMin= 6 EnMin= -596.615818636378     IErMin= 6 ErrMin= 2.74D-06
 ErrMax= 2.74D-06  0.00D+00 EMaxC= 1.00D-01 BMatC= 4.48D-10 BMatP= 3.44D-07
 IDIUse=1 WtCom= 1.00D+00 WtEn= 0.00D+00
 Coeff-Com: -0.553D-02 0.109D-01-0.197D-01 0.749D-01-0.165D+00 0.110D+01
 Coeff:     -0.553D-02 0.109D-01-0.197D-01 0.749D-01-0.165D+00 0.110D+01
 Gap=     0.148 Goal=   None    Shift=    0.000
 Gap=     0.936 Goal=   None    Shift=    0.000
 RMSDP=7.74D-06 MaxDP=9.96D-05 DE=-1.59D-06 OVMax= 0.00D+00

 Cycle   7  Pass 1  IDiag  1:
 E= -596.615818637155     Delta-E=       -0.000000000778 Rises=F Damp=F
 DIIS: error= 9.25D-07 at cycle   7 NSaved=   7.
 NSaved= 7 IEnMin= 7 EnMin= -596.615818637155     IErMin= 7 ErrMin= 9.25D-07
 ErrMax= 9.25D-07  0.00D+00 EMaxC= 1.00D-01 BMatC= 1.89D-11 BMatP= 4.48D-10
 IDIUse=1 WtCom= 1.00D+00 WtEn= 0.00D+00
 Coeff-Com:  0.108D-02-0.213D-02 0.380D-02-0.145D-01 0.313D-01-0.295D+00
 Coeff-Com:  0.128D+01
 Coeff:      0.108D-02-0.213D-02 0.380D-02-0.145D-01 0.313D-01-0.295D+00
 Coeff:      0.128D+01
 Gap=     0.148 Goal=   None    Shift=    0.000
 Gap=     0.936 Goal=   None    Shift=    0.000
 RMSDP=1.70D-06 MaxDP=1.47D-05 DE=-7.78D-10 OVMax= 0.00D+00

 Cycle   8  Pass 1  IDiag  1:
 E= -596.615818637207     Delta-E=       -0.000000000052 Rises=F Damp=F
 DIIS: error= 2.73D-07 at cycle   8 NSaved=   8.
 NSaved= 8 IEnMin= 8 EnMin= -596.615818637207     IErMin= 8 ErrMin= 2.73D-07
 ErrMax= 2.73D-07  0.00D+00 EMaxC= 1.00D-01 BMatC= 1.14D-12 BMatP= 1.89D-11
 IDIUse=1 WtCom= 1.00D+00 WtEn= 0.00D+00
 Coeff-Com: -0.123D-03 0.243D-03-0.436D-03 0.204D-02-0.473D-02 0.910D-01
 Coeff-Com: -0.596D+00 0.151D+01
 Coeff:     -0.123D-03 0.243D-03-0.436D-03 0.204D-02-0.473D-02 0.910D-01
 Coeff:     -0.596D+00 0.151D+01
 Gap=     0.148 Goal=   None    Shift=    0.000
 Gap=     0.936 Goal=   None    Shift=    0.000
 RMSDP=6.02D-07 MaxDP=5.01D-06 DE=-5.20D-11 OVMax= 0.00D+00

 Cycle   9  Pass 1  IDiag  1:
 E= -596.615818637213     Delta-E=       -0.000000000005 Rises=F Damp=F
 DIIS: error= 2.64D-08 at cycle   9 NSaved=   9.
 NSaved= 9 IEnMin= 9 EnMin= -596.615818637213     IErMin= 9 ErrMin= 2.64D-08
 ErrMax= 2.64D-08  0.00D+00 EMaxC= 1.00D-01 BMatC= 3.25D-14 BMatP= 1.14D-12
 IDIUse=1 WtCom= 1.00D+00 WtEn= 0.00D+00
 Coeff-Com: -0.412D-04 0.812D-04-0.143D-03 0.373D-03-0.612D-03-0.142D-01
 Coeff-Com:  0.138D+00-0.479D+00 0.136D+01
 Coeff:     -0.412D-04 0.812D-04-0.143D-03 0.373D-03-0.612D-03-0.142D-01
 Coeff:      0.138D+00-0.479D+00 0.136D+01
 Gap=     0.148 Goal=   None    Shift=    0.000
 Gap=     0.936 Goal=   None    Shift=    0.000
 RMSDP=9.15D-08 MaxDP=8.24D-07 DE=-5.23D-12 OVMax= 0.00D+00

 Cycle  10  Pass 1  IDiag  1:
 E= -596.615818637213     Delta-E=       -0.000000000000 Rises=F Damp=F
 DIIS: error= 1.19D-08 at cycle  10 NSaved=  10.
 NSaved=10 IEnMin=10 EnMin= -596.615818637213     IErMin=10 ErrMin= 1.19D-08
 ErrMax= 1.19D-08  0.00D+00 EMaxC= 1.00D-01 BMatC= 3.66D-15 BMatP= 3.25D-14
 IDIUse=1 WtCom= 1.00D+00 WtEn= 0.00D+00
 Coeff-Com: -0.178D-04 0.353D-04-0.629D-04 0.317D-03-0.751D-03 0.175D-01
 Coeff-Com: -0.130D+00 0.415D+00-0.123D+01 0.193D+01
 Coeff:     -0.178D-04 0.353D-04-0.629D-04 0.317D-03-0.751D-03 0.175D-01
 Coeff:     -0.130D+00 0.415D+00-0.123D+01 0.193D+01
 Gap=     0.148 Goal=   None    Shift=    0.000
 Gap=     0.936 Goal=   None    Shift=    0.000
 RMSDP=2.38D-08 MaxDP=2.26D-07 DE=-1.14D-13 OVMax= 0.00D+00

 Cycle  11  Pass 1  IDiag  1:
 E= -596.615818637213     Delta-E=       -0.000000000000 Rises=F Damp=F
 DIIS: error= 1.68D-09 at cycle  11 NSaved=  11.
 NSaved=11 IEnMin=11 EnMin= -596.615818637213     IErMin=11 ErrMin= 1.68D-09
 ErrMax= 1.68D-09  0.00D+00 EMaxC= 1.00D-01 BMatC= 8.55D-17 BMatP= 3.66D-15
 IDIUse=1 WtCom= 1.00D+00 WtEn= 0.00D+00
 Coeff-Com:  0.326D-06-0.663D-06 0.120D-05-0.173D-04 0.483D-04-0.204D-02
 Coeff-Com:  0.167D-01-0.543D-01 0.180D+00-0.441D+00 0.130D+01
 Coeff:      0.326D-06-0.663D-06 0.120D-05-0.173D-04 0.483D-04-0.204D-02
 Coeff:      0.167D-01-0.543D-01 0.180D+00-0.441D+00 0.130D+01
 Gap=     0.148 Goal=   None    Shift=    0.000
 Gap=     0.936 Goal=   None    Shift=    0.000
 RMSDP=3.15D-09 MaxDP=2.44D-08 DE=-1.14D-13 OVMax= 0.00D+00

 SCF Done:  E(UHF) =  -596.615818637     A.U. after   11 cycles
            NFock= 11  Conv=0.31D-08     -V/T= 2.0002
 <Sx>= 0.0000 <Sy>= 0.0000 <Sz>= 1.0000 <S**2>= 2.0001 S= 1.0000
 <L.S>= 0.000000000000E+00
 KE= 5.965043349335D+02 PE=-1.424882192575D+03 EE= 2.278949747710D+02
 Annihilation of the first spin contaminant:
 S**2 before annihilation     2.0001,   after     2.0000
 Leave Link  502 at Mon Mar 28 14:38:58 2022, MaxMem=  9663676416 cpu:               5.1 elap:               0.2
 (Enter /nopt/nrel/apps/gaussian/g16C_1/g16/l801.exe)
 Windowed orbitals will be sorted by symmetry type.
 ExpMin= 1.61D-02 ExpMax= 1.72D+03 ExpMxC= 1.72D+03 IAcc=3 IRadAn=         5 AccDes= 0.00D+00
 HarFok:  IExCor=  205 AccDes= 0.00D+00 IRadAn=         5 IDoV=-2 UseB2=F ITyADJ=14
 ICtDFT= 12500011 ScaDFX=  1.000000  1.000000  1.000000  1.000000
 Largest valence mixing into a core orbital is  1.94D-03
 Largest core mixing into a valence orbital is  1.85D-03
 Range of M.O.s used for correlation:    10    18
 NBasis=    18 NAE=    11 NBE=     9 NFC=     9 NFV=     0
 NROrb=      9 NOA=     2 NOB=     0 NVA=     7 NVB=     9
 Leave Link  801 at Mon Mar 28 14:38:58 2022, MaxMem=  9663676416 cpu:               1.8 elap:               0.1
 (Enter /nopt/nrel/apps/gaussian/g16C_1/g16/l804.exe)
 Open-shell transformation, MDV=  9663676416 ITran=4 ISComp=2.
 Unit  1 TFree=         22650 TCopy=          3942.
 Semi-Direct transformation.
 ModeAB=           2 MOrb=             2 LenV=    9663554215
 LASXX=          158 LTotXX=         158 LenRXX=         158
 LTotAB=         269 MaxLAS=        3078 LenRXY=        3078
 NonZer=        3510 LenScr=      785920 LnRSAI=           0
 LnScr1=           0 LExtra=      223048 Total=      1012204
 MaxDsk= 34359738368 SrtSym=           F ITran=            4
 DoSDTr:  NPSUse= 36
 JobTyp=1 Pass  1:  I=   1 to   2.
 (rs|ai) integrals will be sorted in core.
 Complete sort for first half transformation.
 First half transformation complete.
 Complete sort for second half transformation.
 Second half transformation complete.
 Spin components of T(2) and E(2):
     alpha-alpha T2 =       0.7695877075D-05 E2=     -0.6689222768D-05
     alpha-beta  T2 =       0.0000000000D+00 E2=      0.0000000000D+00
     beta-beta   T2 =       0.0000000000D+00 E2=      0.0000000000D+00
 ANorm=    0.1000003848D+01
 E2 =    -0.6689222768D-05 EUMP2 =    -0.59661582532644D+03
 Leave Link  804 at Mon Mar 28 14:38:58 2022, MaxMem=  9663676416 cpu:               2.0 elap:               0.1
 (Enter /nopt/nrel/apps/gaussian/g16C_1/g16/l913.exe)
 CIDS:  MDV=  9663676416.
 Frozen-core window:  NFC=   9 NFV=   0.
 IFCWin=0 IBDFC=1 NFBD=     0     0 NFCmp=     0     0 NFFFC=     0     0
 Using original routines for 1st iteration.
 Using DD4UQ or CC4UQ for 2nd and later iterations.
 Keep R2 and R3 ints in memory in symmetry-blocked form, NReq=7228199.
 FoFCou: FMM=F IPFlag=           0 FMFlag=           0 FMFlg1=           0
         NFxFlg=           0 DoJE=F BraDBF=F KetDBF=F FulRan=T
         wScrn=  0.000000 ICntrl=       600 IOpCl=  0 I1Cent=           0 NGrid=           0
         NMat0=    1 NMatS0=    171 NMatT0=    0 NMatD0=    1 NMtDS0=    0 NMtDT0=    0
 Petite list used in FoFCou.
 CIDS: In Core Option IDoMem=           1.
 Coupled Cluster theory with single and double substitutions
 ===========================================================
 Iterations= 200 Convergence= 0.100D-06
 Produce multiple copies of IABC intergrals
 Iteration Nr.   1
 **********************
 DD1Dir will call FoFMem   1 times, MxPair=         2
 NAB=     0 NAA=     1 NBB=     0.
 MP4(R+Q)=  0.51479436D-10
 Maximum subspace dimension=  5
 A-vector RMS=  2.5798586D-04 Max=  6.7894103D-04 conv= 1.00D-05.
 RLE energy=       -0.0000100422
 E3=       -0.22334870D-05        EUMP3=      -0.59661582756D+03
 E4(DQ)=   -0.75275477D-06        UMP4(DQ)=   -0.59661582831D+03
 E4(SDQ)=  -0.77747575D-06        UMP4(SDQ)=  -0.59661582834D+03
 VARIATIONAL ENERGIES WITH THE FIRST-ORDER WAVEFUNCTION:
 DE(Corr)= -0.89226703E-05 E(Corr)=     -596.61582756    
 NORM(A)=   0.10000087D+01
 Iteration Nr.   2
 **********************
 DD1Dir will call FoFMem   1 times, MxPair=         2
 NAB=     0 NAA=     1 NBB=     0.
 A-vector RMS=  3.3560649D-05 Max=  5.5644109D-05 conv= 1.00D-05.
 RLE energy=       -0.0000101357
 DE(Corr)= -0.10089849E-04 E(CORR)=     -596.61582873     Delta=-1.17D-06
 NORM(A)=   0.10000089D+01
 Iteration Nr.   3
 **********************
 DD1Dir will call FoFMem   1 times, MxPair=         2
 NAB=     0 NAA=     1 NBB=     0.
 A-vector RMS=  9.5265577D-06 Max=  2.6190953D-05 conv= 1.00D-05.
 RLE energy=       -0.0000101382
 DE(Corr)= -0.10135732E-04 E(CORR)=     -596.61582877     Delta=-4.59D-08
 NORM(A)=   0.10000089D+01
 Iteration Nr.   4
 **********************
 DD1Dir will call FoFMem   1 times, MxPair=         2
 NAB=     0 NAA=     1 NBB=     0.
 A-vector RMS=  2.6870486D-06 Max=  8.5426294D-06 conv= 1.00D-05.
 RLE energy=       -0.0000101383
 DE(Corr)= -0.10138196E-04 E(CORR)=     -596.61582878     Delta=-2.46D-09
 NORM(A)=   0.10000089D+01
 CI/CC converged in    4 iterations to DelEn=-2.46D-09 Conv= 1.00D-07 ErrA1= 2.69D-06 Conv= 1.00D-05
 Wavefunction amplitudes converged. E(Corr)=     -596.61582878    
 Largest amplitude= 3.06D-03
 Discarding MO integrals.
 Leave Link  913 at Mon Mar 28 14:38:59 2022, MaxMem=  9663676416 cpu:              10.6 elap:               0.4
 (Enter /nopt/nrel/apps/gaussian/g16C_1/g16/l601.exe)
 Copying SCF densities to generalized density rwf, IOpCl= 1 IROHF=0.

 **********************************************************************

            Population analysis using the SCF Density.

 **********************************************************************

 Orbital symmetries:
 Alpha Orbitals:
       Occupied  (SG) (SG) (SG) (PI) (PI) (SG) (SG) (PI) (PI) (SG)
                 (SG)
       Virtual   (PI) (PI) (SG) (SG) (PI) (PI) (SG)
 Beta  Orbitals:
       Occupied  (SG) (SG) (PI) (PI) (SG) (SG) (PI) (PI) (SG)
       Virtual   (SG) (PI) (PI) (SG) (SG) (PI) (PI) (SG) (SG)
 The electronic state is 3-SG.
 Alpha  occ. eigenvalues -- -132.62161 -14.42039 -11.43557 -11.43523 -11.43523
 Alpha  occ. eigenvalues --   -1.75191  -0.95606  -0.95331  -0.95331  -0.54794
 Alpha  occ. eigenvalues --   -0.13412
 Alpha virt. eigenvalues --    0.01356   0.01356   0.02988   0.08073   0.10269
 Alpha virt. eigenvalues --    0.10269   0.15631
  Beta  occ. eigenvalues -- -132.62064 -14.41878 -11.43471 -11.43471 -11.43431
  Beta  occ. eigenvalues --   -1.74666  -0.95137  -0.95137  -0.95066
  Beta virt. eigenvalues --   -0.01447   0.03162   0.03162   0.04029   0.07347
  Beta virt. eigenvalues --    0.12585   0.12585   0.12866   0.34949
          Condensed to atoms (all electrons):
               1          2
     1  H    0.863459   0.049713
     2  K    0.049713  19.037115
          Atomic-Atomic Spin Densities.
               1          2
     1  H    0.863413   0.049214
     2  K    0.049214   1.038160
 Mulliken charges and spin densities:
               1          2
     1  H    0.086828   0.912627
     2  K   -0.086828   1.087373
 Sum of Mulliken charges =  -0.00000   2.00000
 Mulliken charges and spin densities with hydrogens summed into heavy atoms:
               1          2
     2  K   -0.000000   2.000000
 N-N= 3.867064233646D+00 E-N=-1.424882192534D+03  KE= 5.965043349335D+02
 Symmetry A1   KE= 4.713311253846D+02
 Symmetry A2   KE= 0.000000000000D+00
 Symmetry B1   KE= 6.258660477445D+01
 Symmetry B2   KE= 6.258660477445D+01
 Symmetry A1   SP= 2.000000000000D+00
 Symmetry A2   SP= 0.000000000000D+00
 Symmetry B1   SP= 6.905700841386D-15
 Symmetry B2   SP=-1.557716842308D-15

 Atomic contributions to Alpha molecular orbitals:
 Alpha occ 1 OE=-132.622 is K2-s=1.0000
 Alpha occ 2 OE=-14.420 is K2-s=1.0000
 Alpha occ 3 OE=-11.436 is K2-p=1.0000
 Alpha occ 4 OE=-11.435 is K2-p=1.0000
 Alpha occ 5 OE=-11.435 is K2-p=1.0000
 Alpha occ 6 OE=-1.752 is K2-s=0.9997
 Alpha occ 7 OE=-0.956 is K2-p=0.9966
 Alpha occ 8 OE=-0.953 is K2-p=1.0000
 Alpha occ 9 OE=-0.953 is K2-p=1.0000
 Alpha occ 10 OE=-0.548 is H1-s=0.9006
 Alpha occ 11 OE=-0.134 is K2-s=0.8551 K2-p=0.1358
 Alpha vir 12 OE=0.014 is K2-p=1.0000
 Alpha vir 13 OE=0.014 is K2-p=1.0000
 Alpha vir 14 OE=0.030 is K2-p=0.7963 K2-s=0.1909
 Alpha vir 15 OE=0.081 is K2-s=0.8443 K2-p=0.1518
 Alpha vir 16 OE=0.103 is K2-p=1.0000
 Alpha vir 17 OE=0.103 is K2-p=1.0000
 Alpha vir 18 OE=0.156 is K2-p=0.8582

 Atomic contributions to Beta  molecular orbitals:
 Beta  occ 1 OE=-132.621 is K2-s=1.0000
 Beta  occ 2 OE=-14.419 is K2-s=1.0000
 Beta  occ 3 OE=-11.435 is K2-p=1.0000
 Beta  occ 4 OE=-11.435 is K2-p=1.0000
 Beta  occ 5 OE=-11.434 is K2-p=1.0000
 Beta  occ 6 OE=-1.747 is K2-s=0.9997
 Beta  occ 7 OE=-0.951 is K2-p=1.0000
 Beta  occ 8 OE=-0.951 is K2-p=1.0000
 Beta  occ 9 OE=-0.951 is K2-p=0.9994
 Beta  vir 10 OE=-0.014 is K2-s=0.6361 K2-p=0.2687
 Beta  vir 11 OE=0.032 is K2-p=1.0000
 Beta  vir 12 OE=0.032 is K2-p=1.0000
 Beta  vir 13 OE=0.040 is K2-p=0.7288 K2-s=0.2679
 Beta  vir 14 OE=0.073 is K2-s=0.6032 K2-p=0.3068
 Beta  vir 15 OE=0.126 is K2-p=1.0000
 Beta  vir 16 OE=0.126 is K2-p=1.0000
 Beta  vir 17 OE=0.129 is K2-p=0.5041 K2-s=0.4599
 Beta  vir 18 OE=0.349 is H1-s=0.7753 K2-p=0.1919
 
 Leave Link  601 at Mon Mar 28 14:38:59 2022, MaxMem=  9663676416 cpu:               2.4 elap:               0.1
 (Enter /nopt/nrel/apps/gaussian/g16C_1/g16/l9999.exe)

 Test job not archived.
 1\1\GINC-R102U34\SP\UCCSD-FC\Gen\H1K1(3)\USER\28-Mar-2022\0\\#P CC
 SD(MaxCyc=200,SaveAmplitudes,ReadAmplitudes)/GEN sp pop=AllOrbitals io
 p(3/33=1,3/36=-1)\\test\\0,3\H,0,0.,0.,0.\K,0,0.,0.,2.6\\Version=ES64L
 -G16RevC.01\State=3-SG\HF=-596.6158186\MP2=-596.6158253\MP3=-596.61582
 76\MP4D=-596.6158283\MP4DQ=-596.6158283\MP4SDQ=-596.6158283\CCSD=-596.
 6158288\S2=2.000079\S2-1=0.\S2A=2.\RMSD=3.147e-09\PG=C*V [C*(H1K1)]\\@


 Everywhere is walking distance if you have the time.
                                    -- Steven Wright
 Job cpu time:       0 days  0 hours  0 minutes 40.3 seconds.
 Elapsed time:       0 days  0 hours  0 minutes  1.5 seconds.
 File lengths (MBytes):  RWF=     13 Int=      0 D2E=      0 Chk=      1 Scr=      1
 Normal termination of Gaussian 16 at Mon Mar 28 14:38:59 2022.
