 Entering Gaussian System, Link 0=g16
 Initial command:
 /nopt/nrel/apps/gaussian/g16C_1/g16/l1.exe "/lustre/eaglefs/scratch/user/qc/nah-dissc/nah-3-ccsd-1.4-sto3g/Gau-21293.inp" -scrdir="/lustre/eaglefs/scratch/user/qc/nah-dissc/nah-3-ccsd-1.4-sto3g/"
 Default is to use a total of  36 processors:
                               36 via shared-memory
                                1 via Linda
 Entering Link 1 = /nopt/nrel/apps/gaussian/g16C_1/g16/l1.exe PID=     21294.
  
 Copyright (c) 1988-2019, Gaussian, Inc.  All Rights Reserved.
  
 This is part of the Gaussian(R) 16 program.  It is based on
 the Gaussian(R) 09 system (copyright 2009, Gaussian, Inc.),
 the Gaussian(R) 03 system (copyright 2003, Gaussian, Inc.),
 the Gaussian(R) 98 system (copyright 1998, Gaussian, Inc.),
 the Gaussian(R) 94 system (copyright 1995, Gaussian, Inc.),
 the Gaussian 92(TM) system (copyright 1992, Gaussian, Inc.),
 the Gaussian 90(TM) system (copyright 1990, Gaussian, Inc.),
 the Gaussian 88(TM) system (copyright 1988, Gaussian, Inc.),
 the Gaussian 86(TM) system (copyright 1986, Carnegie Mellon
 University), and the Gaussian 82(TM) system (copyright 1983,
 Carnegie Mellon University). Gaussian is a federally registered
 trademark of Gaussian, Inc.
  
 This software contains proprietary and confidential information,
 including trade secrets, belonging to Gaussian, Inc.
  
 This software is provided under written license and may be
 used, copied, transmitted, or stored only in accord with that
 written license.
  
 The following legend is applicable only to US Government
 contracts under FAR:
  
                    RESTRICTED RIGHTS LEGEND
  
 Use, reproduction and disclosure by the US Government is
 subject to restrictions as set forth in subparagraphs (a)
 and (c) of the Commercial Computer Software - Restricted
 Rights clause in FAR 52.227-19.
  
 Gaussian, Inc.
 340 Quinnipiac St., Bldg. 40, Wallingford CT 06492
  
  
 ---------------------------------------------------------------
 Warning -- This program may not be used in any manner that
 competes with the business of Gaussian, Inc. or will provide
 assistance to any competitor of Gaussian, Inc.  The licensee
 of this program is prohibited from giving any competitor of
 Gaussian, Inc. access to this program.  By using this program,
 the user acknowledges that Gaussian, Inc. is engaged in the
 business of creating and licensing software in the field of
 computational chemistry and represents and warrants to the
 licensee that it is not a competitor of Gaussian, Inc. and that
 it will not use this program in any manner prohibited above.
 ---------------------------------------------------------------
  

 Cite this work as:
 Gaussian 16, Revision C.01,
 M. J. Frisch, G. W. Trucks, H. B. Schlegel, G. E. Scuseria, 
 M. A. Robb, J. R. Cheeseman, G. Scalmani, V. Barone, 
 G. A. Petersson, H. Nakatsuji, X. Li, M. Caricato, A. V. Marenich, 
 J. Bloino, B. G. Janesko, R. Gomperts, B. Mennucci, H. P. Hratchian, 
 J. V. Ortiz, A. F. Izmaylov, J. L. Sonnenberg, D. Williams-Young, 
 F. Ding, F. Lipparini, F. Egidi, J. Goings, B. Peng, A. Petrone, 
 T. Henderson, D. Ranasinghe, V. G. Zakrzewski, J. Gao, N. Rega, 
 G. Zheng, W. Liang, M. Hada, M. Ehara, K. Toyota, R. Fukuda, 
 J. Hasegawa, M. Ishida, T. Nakajima, Y. Honda, O. Kitao, H. Nakai, 
 T. Vreven, K. Throssell, J. A. Montgomery, Jr., J. E. Peralta, 
 F. Ogliaro, M. J. Bearpark, J. J. Heyd, E. N. Brothers, K. N. Kudin, 
 V. N. Staroverov, T. A. Keith, R. Kobayashi, J. Normand, 
 K. Raghavachari, A. P. Rendell, J. C. Burant, S. S. Iyengar, 
 J. Tomasi, M. Cossi, J. M. Millam, M. Klene, C. Adamo, R. Cammi, 
 J. W. Ochterski, R. L. Martin, K. Morokuma, O. Farkas, 
 J. B. Foresman, and D. J. Fox, Gaussian, Inc., Wallingford CT, 2019.
 
 ******************************************
 Gaussian 16:  ES64L-G16RevC.01  3-Jul-2019
                28-Mar-2022 
 ******************************************
 %chk=molecule
 Default route: CacheSize=180224 MaxDisk=256GB
 ----------------------------------------------------------------------
 #P CCSD(MaxCyc=200,SaveAmplitudes,ReadAmplitudes)/GEN sp pop=AllOrbita
 ls iop(3/33=1,3/36=-1)
 ----------------------------------------------------------------------
 1/4=180224,38=1,172=1/1;
 2/4=180224,12=2,17=6,18=5,40=1/2;
 3/4=180224,5=7,11=9,25=1,30=1,33=1,36=-1/1,2,3;
 4/4=180224/1;
 5/4=180224,5=2,38=5/2;
 8/4=180224,6=4,9=120000,10=1,24=1/1,4;
 9/4=180224,5=7,6=200,77=1/13;
 6/4=180224,7=2,8=2,9=2,10=2,96=-1/1;
 99/4=180224,5=1,9=1/99;
 Leave Link    1 at Mon Mar 28 14:23:46 2022, MaxMem=           0 cpu:               2.3 elap:               0.1
 (Enter /nopt/nrel/apps/gaussian/g16C_1/g16/l101.exe)
 ----
 test
 ----
 Symbolic Z-matrix:
 Charge =  0 Multiplicity = 3
 H                     0.        0.        0. 
 Na                    0.        0.        1.4 
 
 ITRead=  0  0
 MicOpt= -1 -1
 NAtoms=      2 NQM=        2 NQMF=       0 NMMI=      0 NMMIF=      0
                NMic=       0 NMicF=      0.
                    Isotopes and Nuclear Properties:
 (Nuclear quadrupole moments (NQMom) in fm**2, nuclear magnetic moments (NMagM)
  in nuclear magnetons)

  Atom         1           2
 IAtWgt=           1          23
 AtmWgt=   1.0078250  22.9897697
 NucSpn=           1           3
 AtZEff=  -0.0000000  -0.0000000
 NQMom=    0.0000000  10.4000000
 NMagM=    2.7928460   2.2175200
 AtZNuc=   1.0000000  11.0000000
 Leave Link  101 at Mon Mar 28 14:23:46 2022, MaxMem=  9663676416 cpu:               2.7 elap:               0.1
 (Enter /nopt/nrel/apps/gaussian/g16C_1/g16/l202.exe)
                          Input orientation:                          
 ---------------------------------------------------------------------
 Center     Atomic      Atomic             Coordinates (Angstroms)
 Number     Number       Type             X           Y           Z
 ---------------------------------------------------------------------
      1          1           0        0.000000    0.000000    0.000000
      2         11           0        0.000000    0.000000    1.400000
 ---------------------------------------------------------------------
 Stoichiometry    HNa(3)
 Framework group  C*V[C*(HNa)]
 Deg. of freedom     1
 Full point group                 C*V     NOp   4
 Largest Abelian subgroup         C2V     NOp   4
 Largest concise Abelian subgroup C1      NOp   1
                         Standard orientation:                         
 ---------------------------------------------------------------------
 Center     Atomic      Atomic             Coordinates (Angstroms)
 Number     Number       Type             X           Y           Z
 ---------------------------------------------------------------------
      1          1           0        0.000000    0.000000   -1.283333
      2         11           0        0.000000    0.000000    0.116667
 ---------------------------------------------------------------------
 Rotational constants (GHZ):           0.0000000         267.0601442         267.0601442
 Leave Link  202 at Mon Mar 28 14:23:46 2022, MaxMem=  9663676416 cpu:               0.6 elap:               0.0
 (Enter /nopt/nrel/apps/gaussian/g16C_1/g16/l301.exe)
 General basis read from cards:  (5D, 7F)
                         Coordinates in L301:                         
 ---------------------------------------------------------------------
 Center     Atomic      Atomic             Coordinates (Angstroms)
 Number     Number       Type             X           Y           Z
 ---------------------------------------------------------------------
      1          1           0        0.000000    0.000000   -1.283333
      2         11           0        0.000000    0.000000    0.116667
 ---------------------------------------------------------------------
 Centers:       1
 STO-3G
 ****
 Centers:       2
 STO-3G
 ****
 FixB: optimizing general contractions.
 Ernie: Thresh=  0.10000D-02 Tol=  0.10000D-05 Strict=F.
 IA=     1 ShT= 0 ShC= 0 NL=   1 NS=   0.
 IA=     1 L=0 SC=0 ISt=    0 NBk=    0 NP=    0 IndPr=    0.
 IA=     2 ShT= 0 ShC= 0 NL=   1 NS=   0.
 IA=     2 L=0 SC=0 ISt=    0 NBk=    0 NP=    0 IndPr=    0.
 IA=     2 ShT= 1 ShC= 0 NL=   2 NS=   0.
 IA=     2 L=1 SC=0 ISt=    1 NBk=    2 NP=    6 IndPr=    0.
 DoElim1:  L=1 select primitive    1 from    2 using    1 C=-1.00D-01
 DoElim2:  L=1 select primitive    6 from    1 using    2 C= 9.00D-01
 DoElim1:  L=1 select primitive    1 from    2 using    1 C= 1.56D-01
 DoElim2:  L=1 select primitive    5 from    1 using    2 C= 5.95D-01
 Delete L=1 primitive    4 from    2 C=  0.00D+00.
 Delete L=1 primitive    2 from    2 C=  0.00D+00.
 Delete L=1 primitive    1 from    2 C=  0.00D+00.
 Delete L=1 primitive    6 from    1 C=  0.00D+00.
 Delete L=1 primitive    5 from    1 C=  0.00D+00.
 Delete L=1 primitive    3 from    1 C=  0.00D+00.
 IA=     2 L=1 SC=0 ISt=    0 NBk=    0 NP=    0 IndPr=    6.
 LdAtmC:  AtmChg=     1.000000    11.000000
 AtZEff=     -1.0000000    -10.0400000
 NEqShl: 
              1            2            3            4
     1            1            1            1            1
     2            2            2            2            2
     3            3            3            3            3
     4            4            4            4            4
 NEqBas: 
              1            2            3            4
     1            1            1            1            1
     2            2            2            2            2
     3            3            3            3            3
     4            4           -4           -4            4
     5            5           -5            5           -5
     6            6            6            6            6
     7            7            7            7            7
     8            8           -8           -8            8
     9            9           -9            9           -9
    10           10           10           10           10
 There are     6 symmetry adapted cartesian basis functions of A1  symmetry.
   1         1   1   1   1
   2         2   2   2   2
   3         3   3   3   3
   4         6   6   6   6
   5         7   7   7   7
   6        10  10  10  10
 There are     0 symmetry adapted cartesian basis functions of A2  symmetry.
 There are     2 symmetry adapted cartesian basis functions of B1  symmetry.
   7         4   4   4   4
   8         8   8   8   8
 There are     2 symmetry adapted cartesian basis functions of B2  symmetry.
   9         5   5   5   5
  10         9   9   9   9
 Order= 1 2 4 3
 Reordered character table:
              1            2            3            4            5
     1            1            1            1            1            1
     2            2            1            1           -1           -1
     3            4            1           -1           -1            1
     4            3            1           -1            1           -1
 NEqShl: 
              1            2            3            4
     1            1            1            1            1
     2            2            2            2            2
     3            3            3            3            3
     4            4            4            4            4
 NEqBas: 
              1            2            3            4
     1            1            1            1            1
     2            2            2            2            2
     3            3            3            3            3
     4            4           -4           -4            4
     5            5           -5            5           -5
     6            6            6            6            6
     7            7            7            7            7
     8            8           -8           -8            8
     9            9           -9            9           -9
    10           10           10           10           10
 There are     6 symmetry adapted basis functions of A1  symmetry.
   1         1   1   1   1
   2         2   2   2   2
   3         3   3   3   3
   4         6   6   6   6
   5         7   7   7   7
   6        10  10  10  10
 There are     0 symmetry adapted basis functions of A2  symmetry.
 There are     2 symmetry adapted basis functions of B1  symmetry.
   7         4   4   4   4
   8         8   8   8   8
 There are     2 symmetry adapted basis functions of B2  symmetry.
   9         5   5   5   5
  10         9   9   9   9
 Order= 1 2 4 3
 Reordered character table:
              1            2            3            4            5
     1            1            1            1            1            1
     2            2            1            1           -1           -1
     3            4            1           -1           -1            1
     4            3            1           -1            1           -1
    10 basis functions,    30 primitive gaussians,    10 cartesian basis functions
     7 alpha electrons        5 beta electrons
       nuclear repulsion energy         4.1578209429 Hartrees.
 IS=     1 IAt=     1 ISR=     1 T=0 IP=      1 IndIP=      1 IndIPD=      0 C=  2.769344D-01  0.000000D+00                             NZ=T
 IS=     1 IAt=     1 ISR=     1 T=0 IP=      2 IndIP=      2 IndIPD=      1 C=  2.678389D-01  0.000000D+00                             NZ=T
 IS=     1 IAt=     1 ISR=     1 T=0 IP=      3 IndIP=      3 IndIPD=      2 C=  8.347367D-02  0.000000D+00                             NZ=T
 IS=     2 IAt=     2 ISR=     1 T=0 IP=      1 IndIP=      4 IndIPD=      0 C=  6.931343D+00  0.000000D+00                             NZ=T
 IS=     2 IAt=     2 ISR=     1 T=0 IP=      2 IndIP=      5 IndIPD=      1 C=  6.703693D+00  0.000000D+00                             NZ=T
 IS=     2 IAt=     2 ISR=     1 T=0 IP=      3 IndIP=      6 IndIPD=      2 C=  2.089248D+00  0.000000D+00                             NZ=T
 IS=     3 IAt=     2 ISR=     2 T=1 IP=      1 IndIP=      7 IndIPD=      0 C= -4.605140D-01  4.984520D+00                             NZ=T
 IS=     3 IAt=     2 ISR=     2 T=1 IP=      2 IndIP=      8 IndIPD=      1 C=  6.159747D-01  3.134400D+00                             NZ=T
 IS=     3 IAt=     2 ISR=     2 T=1 IP=      3 IndIP=      9 IndIPD=      2 C=  4.648853D-01  4.965416D-01                             NZ=T
 IS=     4 IAt=     2 ISR=     3 T=1 IP=      1 IndIP=     10 IndIPD=      0 C= -2.098948D-01  2.460950D-02                             NZ=T
 IS=     4 IAt=     2 ISR=     3 T=1 IP=      2 IndIP=     11 IndIPD=      1 C=  8.276745D-02  2.805074D-01                             NZ=T
 IS=     4 IAt=     2 ISR=     3 T=1 IP=      3 IndIP=     12 IndIPD=      2 C=  1.634647D-01  6.740855D-02                             NZ=T
 IExCor=    0 DFT=F Ex=HF Corr=None ExCW=0 ScaHFX=  1.000000
 ScaDFX=  1.000000  1.000000  1.000000  1.000000 ScalE2=  1.000000  1.000000
 IRadAn=      5 IRanWt=     -1 IRanGd=            0 ICorTp=0 IEmpDi=  4
 NAtoms=    2 NActive=    2 NUniq=    2 SFac= 1.00D+00 NAtFMM=   60 NAOKFM=F Big=F
 Integral buffers will be    131072 words long.
 Raffenetti 2 integral format.
 Two-electron integral symmetry is turned on.
 Leave Link  301 at Mon Mar 28 14:23:46 2022, MaxMem=  9663676416 cpu:               2.1 elap:               0.1
 (Enter /nopt/nrel/apps/gaussian/g16C_1/g16/l302.exe)
 NPDir=0 NMtPBC=     1 NCelOv=     1 NCel=       1 NClECP=     1 NCelD=      1
         NCelK=      1 NCelE2=     1 NClLst=     1 CellRange=     0.0.
 One-electron integrals computed using PRISM.
 One-electron integral symmetry used in STVInt
 Entering OneElI...
 Calculate overlap and kinetic energy integrals
    NBasis =  10  MinDer = 0  MaxDer = 0
 Requested accuracy = 0.1000D-12
 Symmetry will be used
 PrmmSu-InSpLW:  IPartL=    0 NPrtUS=   36 NPrtUL=    1 DoSpLW=F IThBeg=    0 IThEnd=   35 NThAct=   36.
 PrSmSu:  IncTry=   512 NBBP=             10 NTPThr=   100 NPartT=   36 Incr=           1 LDynOK=F GPUOK=F.
 PrsmSu:  NPrtUS=  36 ThrOK=T IAlg=1 LenDen=           0 ISkipM=0 DoSpLW=F IThBeg=    0 IThEnd=   35.
 Prism:   IPart=     0 DynPar=F LinDyn=F Incr=           1.
 PRISM was handed   268433911 working-precision words and    10 shell-pairs
 PRISM was handed   268433911 working-precision words and    10 shell-pairs
 PRISM was handed   268433911 working-precision words and    10 shell-pairs
 PRISM was handed   268433911 working-precision words and    10 shell-pairs
 PRISM was handed   268433911 working-precision words and    10 shell-pairs
 PRISM was handed   268433911 working-precision words and    10 shell-pairs
 PRISM was handed   268433911 working-precision words and    10 shell-pairs
 PRISM was handed   268433911 working-precision words and    10 shell-pairs
 PRISM was handed   268433911 working-precision words and    10 shell-pairs
 PRISM was handed   268433911 working-precision words and    10 shell-pairs
 PRISM was handed   268433911 working-precision words and    10 shell-pairs
 PRISM was handed   268433911 working-precision words and    10 shell-pairs
 PRISM was handed   268433911 working-precision words and    10 shell-pairs
 IPart=  5 NShTot=           0 NBatch=           0 AvBLen=         0.0
 IPart= 31 NShTot=           0 NBatch=           0 AvBLen=         0.0
 IPart=  8 NShTot=           0 NBatch=           0 AvBLen=         0.0
 IPart= 26 NShTot=           0 NBatch=           0 AvBLen=         0.0
 IPart= 13 NShTot=           0 NBatch=           0 AvBLen=         0.0
 IPart= 21 NShTot=           0 NBatch=           0 AvBLen=         0.0
 IPart=  4 NShTot=           0 NBatch=           0 AvBLen=         0.0
 IPart= 18 NShTot=           0 NBatch=           0 AvBLen=         0.0
 PRISM was handed   268433911 working-precision words and    10 shell-pairs
 IPart= 28 NShTot=           0 NBatch=           0 AvBLen=         0.0
 IPart=  6 NShTot=           0 NBatch=           0 AvBLen=         0.0
 IPart= 14 NShTot=           0 NBatch=           0 AvBLen=         0.0
 PRISM was handed   268433911 working-precision words and    10 shell-pairs
 PRISM was handed   268433911 working-precision words and    10 shell-pairs
 IPart= 27 NShTot=           0 NBatch=           0 AvBLen=         0.0
 PRISM was handed   268433911 working-precision words and    10 shell-pairs
 PRISM was handed   268433911 working-precision words and    10 shell-pairs
 PRISM was handed   268433911 working-precision words and    10 shell-pairs
 IPart= 20 NShTot=           0 NBatch=           0 AvBLen=         0.0
 PRISM was handed   268433911 working-precision words and    10 shell-pairs
 IPart=  3 NShTot=           1 NBatch=           1 AvBLen=         1.0
 IPart=  9 NShTot=           0 NBatch=           0 AvBLen=         0.0
 IPart=  2 NShTot=           3 NBatch=           3 AvBLen=         1.0
 IPart= 23 NShTot=           0 NBatch=           0 AvBLen=         0.0
 IPart= 12 NShTot=           0 NBatch=           0 AvBLen=         0.0
 PRISM was handed   268433911 working-precision words and    10 shell-pairs
 PRISM was handed   268433911 working-precision words and    10 shell-pairs
 PRISM was handed   268433911 working-precision words and    10 shell-pairs
 PRISM was handed   268433911 working-precision words and    10 shell-pairs
 IPart= 24 NShTot=           0 NBatch=           0 AvBLen=         0.0
 IPart=  0 NShTot=           3 NBatch=           3 AvBLen=         1.0
 PRISM was handed   268433911 working-precision words and    10 shell-pairs
 PRISM was handed   268433911 working-precision words and    10 shell-pairs
 IPart= 29 NShTot=           0 NBatch=           0 AvBLen=         0.0
 PRISM was handed   268433911 working-precision words and    10 shell-pairs
 IPart= 19 NShTot=           0 NBatch=           0 AvBLen=         0.0
 IPart= 10 NShTot=           0 NBatch=           0 AvBLen=         0.0
 PRISM was handed   268433911 working-precision words and    10 shell-pairs
 PRISM was handed   268433911 working-precision words and    10 shell-pairs
 PRISM was handed   268433911 working-precision words and    10 shell-pairs
 PRISM was handed   268433911 working-precision words and    10 shell-pairs
 IPart=  1 NShTot=           3 NBatch=           3 AvBLen=         1.0
 PRISM was handed   268433911 working-precision words and    10 shell-pairs
 PRISM was handed   268433911 working-precision words and    10 shell-pairs
 PRISM was handed   268433911 working-precision words and    10 shell-pairs
 PRISM was handed   268433911 working-precision words and    10 shell-pairs
 PRISM was handed   268433911 working-precision words and    10 shell-pairs
 IPart= 30 NShTot=           0 NBatch=           0 AvBLen=         0.0
 IPart= 25 NShTot=           0 NBatch=           0 AvBLen=         0.0
 IPart= 15 NShTot=           0 NBatch=           0 AvBLen=         0.0
 IPart= 11 NShTot=           0 NBatch=           0 AvBLen=         0.0
 IPart=  7 NShTot=           0 NBatch=           0 AvBLen=         0.0
 IPart= 34 NShTot=           0 NBatch=           0 AvBLen=         0.0
 IPart= 32 NShTot=           0 NBatch=           0 AvBLen=         0.0
 IPart= 17 NShTot=           0 NBatch=           0 AvBLen=         0.0
 IPart= 16 NShTot=           0 NBatch=           0 AvBLen=         0.0
 IPart= 35 NShTot=           0 NBatch=           0 AvBLen=         0.0
 IPart= 33 NShTot=           0 NBatch=           0 AvBLen=         0.0
 IPart= 22 NShTot=           0 NBatch=           0 AvBLen=         0.0
 PrSmSu:  NxtVal=             37.
 *** Overlap *** 
                1             2             3             4             5 
      1  0.100000D+01
      2  0.116652D-01  0.100000D+01
      3  0.119705D+00  0.278512D+00  0.100000D+01
      4  0.000000D+00  0.000000D+00  0.000000D+00  0.100000D+01
      5  0.000000D+00  0.000000D+00  0.000000D+00  0.000000D+00  0.100000D+01
      6 -0.891566D-01  0.000000D+00  0.000000D+00  0.000000D+00  0.000000D+00
      7  0.418523D+00  0.222827D-01  0.449490D+00  0.000000D+00  0.000000D+00
      8  0.000000D+00  0.000000D+00  0.000000D+00  0.461768D+00  0.000000D+00
      9  0.000000D+00  0.000000D+00  0.000000D+00  0.000000D+00  0.461768D+00
     10 -0.482041D+00  0.000000D+00  0.000000D+00  0.000000D+00  0.000000D+00
                6             7             8             9            10 
      6  0.100000D+01
      7  0.000000D+00  0.100000D+01
      8  0.000000D+00  0.000000D+00  0.100000D+01
      9  0.000000D+00  0.000000D+00  0.000000D+00  0.100000D+01
     10  0.461768D+00  0.000000D+00  0.000000D+00  0.000000D+00  0.100000D+01
 *** Kinetic Energy *** 
                1             2             3             4             5 
      1  0.760032D+00
      2 -0.376260D-02  0.556441D+02
      3 -0.203524D-01 -0.216342D+00  0.193319D+01
      4  0.000000D+00  0.000000D+00  0.000000D+00  0.604917D+01
      5  0.000000D+00  0.000000D+00  0.000000D+00  0.000000D+00  0.604917D+01
      6 -0.178852D-02  0.000000D+00  0.000000D+00  0.000000D+00  0.000000D+00
      7  0.650571D-01 -0.231638D+00 -0.720563D-01  0.000000D+00  0.000000D+00
      8  0.000000D+00  0.000000D+00  0.000000D+00  0.652802D+00  0.000000D+00
      9  0.000000D+00  0.000000D+00  0.000000D+00  0.000000D+00  0.652802D+00
     10 -0.176603D+00  0.000000D+00  0.000000D+00  0.000000D+00  0.000000D+00
                6             7             8             9            10 
      6  0.604917D+01
      7  0.000000D+00  0.304040D+00
      8  0.000000D+00  0.000000D+00  0.711196D+00
      9  0.000000D+00  0.000000D+00  0.000000D+00  0.711196D+00
     10  0.652802D+00  0.000000D+00  0.000000D+00  0.000000D+00  0.711196D+00
 Entering OneElI...
 Calculate potential energy integrals
    NBasis =  10  MinDer = 0  MaxDer = 0
 Requested accuracy = 0.1000D-12
 Symmetry will be used
 PrmmSu-InSpLW:  IPartL=    0 NPrtUS=   36 NPrtUL=    1 DoSpLW=F IThBeg=    0 IThEnd=   35 NThAct=   36.
 PrSmSu:  IncTry=   512 NBBP=             20 NTPThr=   100 NPartT=   36 Incr=           1 LDynOK=F GPUOK=F.
 PrsmSu:  NPrtUS=  36 ThrOK=T IAlg=1 LenDen=           0 ISkipM=0 DoSpLW=F IThBeg=    0 IThEnd=   35.
 Prism:   IPart=     0 DynPar=F LinDyn=F Incr=           1.
 PRISM was handed   268433953 working-precision words and    10 shell-pairs
 PRISM was handed   268433953 working-precision words and    10 shell-pairs
 PRISM was handed   268433953 working-precision words and    10 shell-pairs
 PRISM was handed   268433953 working-precision words and    10 shell-pairs
 PRISM was handed   268433953 working-precision words and    10 shell-pairs
 PRISM was handed   268433953 working-precision words and    10 shell-pairs
 PRISM was handed   268433953 working-precision words and    10 shell-pairs
 PRISM was handed   268433953 working-precision words and    10 shell-pairs
 PRISM was handed   268433953 working-precision words and    10 shell-pairs
 PRISM was handed   268433953 working-precision words and    10 shell-pairs
 PRISM was handed   268433953 working-precision words and    10 shell-pairs
 PRISM was handed   268433953 working-precision words and    10 shell-pairs
 PRISM was handed   268433953 working-precision words and    10 shell-pairs
 PRISM was handed   268433953 working-precision words and    10 shell-pairs
 PRISM was handed   268433953 working-precision words and    10 shell-pairs
 PRISM was handed   268433953 working-precision words and    10 shell-pairs
 PRISM was handed   268433953 working-precision words and    10 shell-pairs
 PRISM was handed   268433953 working-precision words and    10 shell-pairs
 PRISM was handed   268433953 working-precision words and    10 shell-pairs
 PRISM was handed   268433953 working-precision words and    10 shell-pairs
 PRISM was handed   268433953 working-precision words and    10 shell-pairs
 PRISM was handed   268433953 working-precision words and    10 shell-pairs
 PRISM was handed   268433953 working-precision words and    10 shell-pairs
 PRISM was handed   268433953 working-precision words and    10 shell-pairs
 PRISM was handed   268433953 working-precision words and    10 shell-pairs
 PRISM was handed   268433953 working-precision words and    10 shell-pairs
 PRISM was handed   268433953 working-precision words and    10 shell-pairs
 PRISM was handed   268433953 working-precision words and    10 shell-pairs
 PRISM was handed   268433953 working-precision words and    10 shell-pairs
 PRISM was handed   268433953 working-precision words and    10 shell-pairs
 PRISM was handed   268433953 working-precision words and    10 shell-pairs
 PRISM was handed   268433953 working-precision words and    10 shell-pairs
 PRISM was handed   268433953 working-precision words and    10 shell-pairs
 PRISM was handed   268433953 working-precision words and    10 shell-pairs
 PRISM was handed   268433953 working-precision words and    10 shell-pairs
 PRISM was handed   268433953 working-precision words and    10 shell-pairs
 IPart= 15 NShTot=           0 NBatch=           0 AvBLen=         0.0
 IPart= 13 NShTot=           0 NBatch=           0 AvBLen=         0.0
 IPart= 12 NShTot=           0 NBatch=           0 AvBLen=         0.0
 IPart=  9 NShTot=           0 NBatch=           0 AvBLen=         0.0
 IPart= 11 NShTot=           0 NBatch=           0 AvBLen=         0.0
 IPart= 34 NShTot=           0 NBatch=           0 AvBLen=         0.0
 IPart= 20 NShTot=           0 NBatch=           0 AvBLen=         0.0
 IPart=  8 NShTot=           0 NBatch=           0 AvBLen=         0.0
 IPart= 21 NShTot=           0 NBatch=           0 AvBLen=         0.0
 IPart=  6 NShTot=           0 NBatch=           0 AvBLen=         0.0
 IPart= 28 NShTot=           0 NBatch=           0 AvBLen=         0.0
 IPart=  2 NShTot=           6 NBatch=           3 AvBLen=         2.0
 IPart= 18 NShTot=           0 NBatch=           0 AvBLen=         0.0
 IPart= 17 NShTot=           0 NBatch=           0 AvBLen=         0.0
 IPart= 29 NShTot=           0 NBatch=           0 AvBLen=         0.0
 IPart= 25 NShTot=           0 NBatch=           0 AvBLen=         0.0
 IPart=  5 NShTot=           0 NBatch=           0 AvBLen=         0.0
 IPart= 10 NShTot=           0 NBatch=           0 AvBLen=         0.0
 IPart= 14 NShTot=           0 NBatch=           0 AvBLen=         0.0
 IPart= 30 NShTot=           0 NBatch=           0 AvBLen=         0.0
 IPart=  1 NShTot=           6 NBatch=           3 AvBLen=         2.0
 IPart= 31 NShTot=           0 NBatch=           0 AvBLen=         0.0
 IPart= 23 NShTot=           0 NBatch=           0 AvBLen=         0.0
 IPart= 26 NShTot=           0 NBatch=           0 AvBLen=         0.0
 IPart=  7 NShTot=           0 NBatch=           0 AvBLen=         0.0
 IPart= 19 NShTot=           0 NBatch=           0 AvBLen=         0.0
 IPart= 33 NShTot=           0 NBatch=           0 AvBLen=         0.0
 IPart= 27 NShTot=           0 NBatch=           0 AvBLen=         0.0
 IPart=  4 NShTot=           0 NBatch=           0 AvBLen=         0.0
 IPart=  0 NShTot=           6 NBatch=           3 AvBLen=         2.0
 IPart= 32 NShTot=           0 NBatch=           0 AvBLen=         0.0
 IPart= 24 NShTot=           0 NBatch=           0 AvBLen=         0.0
 IPart= 22 NShTot=           0 NBatch=           0 AvBLen=         0.0
 IPart= 16 NShTot=           0 NBatch=           0 AvBLen=         0.0
 IPart= 35 NShTot=           0 NBatch=           0 AvBLen=         0.0
 IPart=  3 NShTot=           2 NBatch=           1 AvBLen=         2.0
 PrSmSu:  NxtVal=             37.
 ***** Potential Energy ***** 
                1             2             3             4             5 
      1  0.535873D+01
      2  0.696467D+00  0.115828D+03
      3  0.156908D+01  0.163282D+02  0.196284D+02
      4  0.000000D+00  0.000000D+00  0.000000D+00  0.194676D+02
      5  0.000000D+00  0.000000D+00  0.000000D+00  0.000000D+00  0.194676D+02
      6 -0.925855D+00 -0.610949D-02 -0.592274D-01  0.000000D+00  0.000000D+00
      7  0.259608D+01  0.113224D+01  0.547535D+01  0.000000D+00  0.000000D+00
      8  0.000000D+00  0.000000D+00  0.000000D+00  0.561615D+01  0.000000D+00
      9  0.000000D+00  0.000000D+00  0.000000D+00  0.000000D+00  0.561615D+01
     10 -0.284445D+01 -0.599089D-03 -0.416197D-01  0.000000D+00  0.000000D+00
                6             7             8             9            10 
      6  0.194877D+02
      7 -0.430456D-01  0.678574D+01
      8  0.000000D+00  0.000000D+00  0.675893D+01
      9  0.000000D+00  0.000000D+00  0.000000D+00  0.675893D+01
     10  0.563851D+01 -0.145518D+00  0.000000D+00  0.000000D+00  0.687106D+01
 ****** Core Hamiltonian ****** 
                1             2             3             4             5 
      1 -0.459870D+01
      2 -0.700230D+00 -0.601839D+02
      3 -0.158943D+01 -0.165446D+02 -0.176952D+02
      4  0.000000D+00  0.000000D+00  0.000000D+00 -0.134184D+02
      5  0.000000D+00  0.000000D+00  0.000000D+00  0.000000D+00 -0.134184D+02
      6  0.924067D+00  0.610949D-02  0.592274D-01  0.000000D+00  0.000000D+00
      7 -0.253102D+01 -0.136387D+01 -0.554740D+01  0.000000D+00  0.000000D+00
      8  0.000000D+00  0.000000D+00  0.000000D+00 -0.496334D+01  0.000000D+00
      9  0.000000D+00  0.000000D+00  0.000000D+00  0.000000D+00 -0.496334D+01
     10  0.266785D+01  0.599089D-03  0.416197D-01  0.000000D+00  0.000000D+00
                6             7             8             9            10 
      6 -0.134385D+02
      7  0.430456D-01 -0.648170D+01
      8  0.000000D+00  0.000000D+00 -0.604774D+01
      9  0.000000D+00  0.000000D+00  0.000000D+00 -0.604774D+01
     10 -0.498571D+01  0.145518D+00  0.000000D+00  0.000000D+00 -0.615986D+01
 SVDSVc IOpt=   1 NormSV=T IR=1
 SVDSVc V= 1.87D+00 1.51D+00 1.07D+00 7.85D-01 4.98D-01 2.74D-01
 SVDSVc IOpt=   1 NormSV=T IR=3
 SVDSVc V= 1.46D+00 5.38D-01
 SVDSVc IOpt=   1 NormSV=T IR=4
 SVDSVc V= 1.46D+00 5.38D-01
 TstOVc:  Largest diagonal error= 1.33D-15 IB=1 I=    6.
 TstOVc:  Largest same sym error= 8.67D-16 IB=1 I=    6 J=    3.
 TstOVc:  Largest diff sym error= 0.00D+00 IB=0 JB=0 I=    0 J=    0.
 Orthogonalized basis functions: 
                 1             2             3             4             5 
      1   0.413786D+00 -0.592378D-01 -0.322203D+00  0.542582D+00 -0.113880D+00
      2   0.972893D-01  0.248393D+00  0.733395D+00  0.516372D+00 -0.448685D+00
      3   0.260583D+00  0.425927D+00  0.214167D+00 -0.400131D+00  0.867111D+00
      4   0.000000D+00  0.000000D+00  0.000000D+00  0.000000D+00  0.000000D+00
      5   0.000000D+00  0.000000D+00  0.000000D+00  0.000000D+00  0.000000D+00
      6  -0.226882D+00  0.376094D+00 -0.352427D+00  0.661366D+00  0.516078D+00
      7   0.335264D+00  0.340733D+00 -0.337189D+00 -0.272767D+00 -0.660948D+00
      8   0.000000D+00  0.000000D+00  0.000000D+00  0.000000D+00  0.000000D+00
      9   0.000000D+00  0.000000D+00  0.000000D+00  0.000000D+00  0.000000D+00
     10  -0.348736D+00  0.400159D+00 -0.112553D+00 -0.203645D+00 -0.583539D+00
                 6             7             8             9            10 
      1   0.109061D+01  0.000000D+00  0.000000D+00  0.000000D+00  0.000000D+00
      2  -0.155906D+00  0.000000D+00  0.000000D+00  0.000000D+00  0.000000D+00
      3   0.431997D+00  0.000000D+00  0.000000D+00  0.000000D+00  0.000000D+00
      4   0.000000D+00  0.584852D+00  0.963829D+00  0.000000D+00  0.000000D+00
      5   0.000000D+00  0.000000D+00  0.000000D+00  0.584852D+00  0.963829D+00
      6  -0.548831D+00  0.000000D+00  0.000000D+00  0.000000D+00  0.000000D+00
      7  -0.891504D+00  0.000000D+00  0.000000D+00  0.000000D+00  0.000000D+00
      8   0.000000D+00  0.584852D+00 -0.963829D+00  0.000000D+00  0.000000D+00
      9   0.000000D+00  0.000000D+00  0.000000D+00  0.584852D+00 -0.963829D+00
     10   0.107335D+01  0.000000D+00  0.000000D+00  0.000000D+00  0.000000D+00
 NBasis=    10 RedAO= T EigKep=  2.74D-01  NBF=     6     0     2     2
 NBsUse=    10 1.00D-06 EigRej= -1.00D+00 NBFU=     6     0     2     2
 Leave Link  302 at Mon Mar 28 14:23:46 2022, MaxMem=  9663676416 cpu:               3.5 elap:               0.1
 (Enter /nopt/nrel/apps/gaussian/g16C_1/g16/l303.exe)
 DipDrv will not compute anything.
 Fermi contact integrals: 
                 1             2 
      1   0.628247D+00  0.290007D-01
      2   0.000000D+00  0.157243D+02
      3   0.796710D-03  0.620346D+00
      4   0.000000D+00  0.000000D+00
      5   0.000000D+00  0.000000D+00
      6  -0.225134D-02  0.000000D+00
      7   0.573974D-01  0.363373D-01
      8   0.000000D+00  0.000000D+00
      9   0.000000D+00  0.000000D+00
     10  -0.989393D-01  0.000000D+00
 Leave Link  303 at Mon Mar 28 14:23:46 2022, MaxMem=  9663676416 cpu:               1.3 elap:               0.1
 (Enter /nopt/nrel/apps/gaussian/g16C_1/g16/l401.exe)
 ExpMin= 1.61D-01 ExpMax= 2.51D+02 ExpMxC= 2.51D+02 IAcc=3 IRadAn=         5 AccDes= 0.00D+00
 Harris functional with IExCor=  205 and IRadAn=       5 diagonalized for initial guess.
 HarFok:  IExCor=  205 AccDes= 0.00D+00 IRadAn=         5 IDoV= 1 UseB2=F ITyADJ=14
 ICtDFT=  3500011 ScaDFX=  1.000000  1.000000  1.000000  1.000000
 FoFCou: FMM=F IPFlag=           0 FMFlag=      100000 FMFlg1=           0
         NFxFlg=           0 DoJE=T BraDBF=F KetDBF=T FulRan=T
         wScrn=  0.000000 ICntrl=       500 IOpCl=  0 I1Cent=   200000004 NGrid=           0
         NMat0=    1 NMatS0=      1 NMatT0=    0 NMatD0=    1 NMtDS0=    0 NMtDT0=    0
 Petite list used in FoFCou.
 Harris En= -159.759082356723    
 JPrj=0 DoOrth=F DoCkMO=F.
 Initial guess orbital symmetries:
 Alpha Orbitals:
       Occupied  (SG) (SG) (SG) (PI) (PI) (SG) (SG)
       Virtual   (PI) (PI) (SG)
 Beta  Orbitals:
       Occupied  (SG) (SG) (SG) (PI) (PI)
       Virtual   (SG) (SG) (PI) (PI) (SG)
 The electronic state of the initial guess is 3-SG.
 Initial guess <Sx>= 0.0000 <Sy>= 0.0000 <Sz>= 1.0000 <S**2>= 2.0000 S= 1.0000
 Leave Link  401 at Mon Mar 28 14:23:46 2022, MaxMem=  9663676416 cpu:               3.7 elap:               0.1
 (Enter /nopt/nrel/apps/gaussian/g16C_1/g16/l502.exe)
 Keep R1 and R2 ints in memory in symmetry-blocked form, NReq=7209078.
 FoFCou: FMM=F IPFlag=           0 FMFlag=           0 FMFlg1=           0
         NFxFlg=           0 DoJE=F BraDBF=F KetDBF=F FulRan=T
         wScrn=  0.000000 ICntrl=       600 IOpCl=  0 I1Cent=           0 NGrid=           0
         NMat0=    1 NMatS0=     55 NMatT0=    0 NMatD0=    1 NMtDS0=    0 NMtDT0=    0
 Petite list used in FoFCou.
 UHF open shell SCF:
 Using DIIS extrapolation, IDIIS=  1040.
 NGot=  9663676416 LenX=  9663672766 LenY=  9663671884
 Requested convergence on RMS density matrix=1.00D-08 within 128 cycles.
 Requested convergence on MAX density matrix=1.00D-06.
 Requested convergence on             energy=1.00D-06.
 No special actions if energy rises.

 Cycle   1  Pass 1  IDiag  1:
 E= -159.987378138526    
 DIIS: error= 5.49D-02 at cycle   1 NSaved=   1.
 NSaved= 1 IEnMin= 1 EnMin= -159.987378138526     IErMin= 1 ErrMin= 5.49D-02
 ErrMax= 5.49D-02  0.00D+00 EMaxC= 1.00D-01 BMatC= 1.80D-01 BMatP= 1.80D-01
 IDIUse=3 WtCom= 4.51D-01 WtEn= 5.49D-01
 Coeff-Com:  0.100D+01
 Coeff-En:   0.100D+01
 Coeff:      0.100D+01
 Gap=     0.581 Goal=   None    Shift=    0.000
 Gap=     1.539 Goal=   None    Shift=    0.000
 GapD=    0.581 DampG=2.000 DampE=0.500 DampFc=1.0000 IDamp=-1.
 RMSDP=1.62D-02 MaxDP=6.43D-02              OVMax= 0.00D+00

 Cycle   2  Pass 1  IDiag  1:
 E= -160.015961616614     Delta-E=       -0.028583478088 Rises=F Damp=F
 DIIS: error= 1.27D-02 at cycle   2 NSaved=   2.
 NSaved= 2 IEnMin= 2 EnMin= -160.015961616614     IErMin= 2 ErrMin= 1.27D-02
 ErrMax= 1.27D-02  0.00D+00 EMaxC= 1.00D-01 BMatC= 7.00D-03 BMatP= 1.80D-01
 IDIUse=3 WtCom= 8.73D-01 WtEn= 1.27D-01
 Coeff-Com:  0.127D+00 0.873D+00
 Coeff-En:   0.000D+00 0.100D+01
 Coeff:      0.111D+00 0.889D+00
 Gap=     0.579 Goal=   None    Shift=    0.000
 Gap=     1.471 Goal=   None    Shift=    0.000
 RMSDP=4.46D-03 MaxDP=2.65D-02 DE=-2.86D-02 OVMax= 0.00D+00

 Cycle   3  Pass 1  IDiag  1:
 E= -160.017590164422     Delta-E=       -0.001628547808 Rises=F Damp=F
 DIIS: error= 2.65D-03 at cycle   3 NSaved=   3.
 NSaved= 3 IEnMin= 3 EnMin= -160.017590164422     IErMin= 3 ErrMin= 2.65D-03
 ErrMax= 2.65D-03  0.00D+00 EMaxC= 1.00D-01 BMatC= 2.56D-04 BMatP= 7.00D-03
 IDIUse=3 WtCom= 9.73D-01 WtEn= 2.65D-02
 Coeff-Com: -0.456D-01-0.147D+00 0.119D+01
 Coeff-En:   0.000D+00 0.000D+00 0.100D+01
 Coeff:     -0.444D-01-0.143D+00 0.119D+01
 Gap=     0.580 Goal=   None    Shift=    0.000
 Gap=     1.487 Goal=   None    Shift=    0.000
 RMSDP=1.35D-03 MaxDP=1.00D-02 DE=-1.63D-03 OVMax= 0.00D+00

 Cycle   4  Pass 1  IDiag  1:
 E= -160.017689535872     Delta-E=       -0.000099371451 Rises=F Damp=F
 DIIS: error= 5.03D-04 at cycle   4 NSaved=   4.
 NSaved= 4 IEnMin= 4 EnMin= -160.017689535872     IErMin= 4 ErrMin= 5.03D-04
 ErrMax= 5.03D-04  0.00D+00 EMaxC= 1.00D-01 BMatC= 9.82D-06 BMatP= 2.56D-04
 IDIUse=3 WtCom= 9.95D-01 WtEn= 5.03D-03
 Coeff-Com:  0.825D-02 0.133D-01-0.302D+00 0.128D+01
 Coeff-En:   0.000D+00 0.000D+00 0.000D+00 0.100D+01
 Coeff:      0.821D-02 0.132D-01-0.300D+00 0.128D+01
 Gap=     0.580 Goal=   None    Shift=    0.000
 Gap=     1.488 Goal=   None    Shift=    0.000
 RMSDP=2.96D-04 MaxDP=1.50D-03 DE=-9.94D-05 OVMax= 0.00D+00

 Cycle   5  Pass 1  IDiag  1:
 E= -160.017693667959     Delta-E=       -0.000004132087 Rises=F Damp=F
 DIIS: error= 9.40D-05 at cycle   5 NSaved=   5.
 NSaved= 5 IEnMin= 5 EnMin= -160.017693667959     IErMin= 5 ErrMin= 9.40D-05
 ErrMax= 9.40D-05  0.00D+00 EMaxC= 1.00D-01 BMatC= 3.99D-07 BMatP= 9.82D-06
 IDIUse=1 WtCom= 1.00D+00 WtEn= 0.00D+00
 Coeff-Com: -0.102D-02 0.148D-02 0.585D-01-0.449D+00 0.139D+01
 Coeff:     -0.102D-02 0.148D-02 0.585D-01-0.449D+00 0.139D+01
 Gap=     0.580 Goal=   None    Shift=    0.000
 Gap=     1.488 Goal=   None    Shift=    0.000
 RMSDP=6.89D-05 MaxDP=3.07D-04 DE=-4.13D-06 OVMax= 0.00D+00

 Cycle   6  Pass 1  IDiag  1:
 E= -160.017693838707     Delta-E=       -0.000000170747 Rises=F Damp=F
 DIIS: error= 9.60D-06 at cycle   6 NSaved=   6.
 NSaved= 6 IEnMin= 6 EnMin= -160.017693838707     IErMin= 6 ErrMin= 9.60D-06
 ErrMax= 9.60D-06  0.00D+00 EMaxC= 1.00D-01 BMatC= 2.86D-09 BMatP= 3.99D-07
 IDIUse=1 WtCom= 1.00D+00 WtEn= 0.00D+00
 Coeff-Com:  0.312D-03-0.606D-03-0.201D-01 0.161D+00-0.528D+00 0.139D+01
 Coeff:      0.312D-03-0.606D-03-0.201D-01 0.161D+00-0.528D+00 0.139D+01
 Gap=     0.580 Goal=   None    Shift=    0.000
 Gap=     1.488 Goal=   None    Shift=    0.000
 RMSDP=8.38D-06 MaxDP=4.30D-05 DE=-1.71D-07 OVMax= 0.00D+00

 Cycle   7  Pass 1  IDiag  1:
 E= -160.017693840109     Delta-E=       -0.000000001402 Rises=F Damp=F
 DIIS: error= 9.92D-07 at cycle   7 NSaved=   7.
 NSaved= 7 IEnMin= 7 EnMin= -160.017693840109     IErMin= 7 ErrMin= 9.92D-07
 ErrMax= 9.92D-07  0.00D+00 EMaxC= 1.00D-01 BMatC= 3.81D-11 BMatP= 2.86D-09
 IDIUse=1 WtCom= 1.00D+00 WtEn= 0.00D+00
 Coeff-Com: -0.952D-04 0.175D-03 0.625D-02-0.502D-01 0.165D+00-0.493D+00
 Coeff-Com:  0.137D+01
 Coeff:     -0.952D-04 0.175D-03 0.625D-02-0.502D-01 0.165D+00-0.493D+00
 Coeff:      0.137D+01
 Gap=     0.580 Goal=   None    Shift=    0.000
 Gap=     1.488 Goal=   None    Shift=    0.000
 RMSDP=1.34D-06 MaxDP=7.06D-06 DE=-1.40D-09 OVMax= 0.00D+00

 Cycle   8  Pass 1  IDiag  1:
 E= -160.017693840132     Delta-E=       -0.000000000023 Rises=F Damp=F
 DIIS: error= 1.23D-07 at cycle   8 NSaved=   8.
 NSaved= 8 IEnMin= 8 EnMin= -160.017693840132     IErMin= 8 ErrMin= 1.23D-07
 ErrMax= 1.23D-07  0.00D+00 EMaxC= 1.00D-01 BMatC= 2.86D-13 BMatP= 3.81D-11
 IDIUse=1 WtCom= 1.00D+00 WtEn= 0.00D+00
 Coeff-Com:  0.168D-04-0.258D-04-0.109D-02 0.869D-02-0.284D-01 0.836D-01
 Coeff-Com: -0.249D+00 0.119D+01
 Coeff:      0.168D-04-0.258D-04-0.109D-02 0.869D-02-0.284D-01 0.836D-01
 Coeff:     -0.249D+00 0.119D+01
 Gap=     0.580 Goal=   None    Shift=    0.000
 Gap=     1.488 Goal=   None    Shift=    0.000
 RMSDP=9.74D-08 MaxDP=4.95D-07 DE=-2.34D-11 OVMax= 0.00D+00

 Cycle   9  Pass 1  IDiag  1:
 E= -160.017693840133     Delta-E=       -0.000000000000 Rises=F Damp=F
 DIIS: error= 2.84D-08 at cycle   9 NSaved=   9.
 NSaved= 9 IEnMin= 9 EnMin= -160.017693840133     IErMin= 9 ErrMin= 2.84D-08
 ErrMax= 2.84D-08  0.00D+00 EMaxC= 1.00D-01 BMatC= 1.57D-14 BMatP= 2.86D-13
 IDIUse=1 WtCom= 1.00D+00 WtEn= 0.00D+00
 Coeff-Com: -0.150D-05-0.842D-08 0.938D-04-0.691D-03 0.218D-02-0.596D-02
 Coeff-Com:  0.222D-01-0.383D+00 0.137D+01
 Coeff:     -0.150D-05-0.842D-08 0.938D-04-0.691D-03 0.218D-02-0.596D-02
 Coeff:      0.222D-01-0.383D+00 0.137D+01
 Gap=     0.580 Goal=   None    Shift=    0.000
 Gap=     1.488 Goal=   None    Shift=    0.000
 RMSDP=2.92D-08 MaxDP=1.46D-07 DE=-2.27D-13 OVMax= 0.00D+00

 Cycle  10  Pass 1  IDiag  1:
 E= -160.017693840133     Delta-E=        0.000000000000 Rises=F Damp=F
 DIIS: error= 1.66D-09 at cycle  10 NSaved=  10.
 NSaved=10 IEnMin= 9 EnMin= -160.017693840133     IErMin=10 ErrMin= 1.66D-09
 ErrMax= 1.66D-09  0.00D+00 EMaxC= 1.00D-01 BMatC= 1.46D-16 BMatP= 1.57D-14
 IDIUse=1 WtCom= 1.00D+00 WtEn= 0.00D+00
 Coeff-Com:  0.105D-06 0.686D-06-0.555D-05 0.250D-04-0.545D-04-0.259D-04
 Coeff-Com: -0.149D-02 0.104D+00-0.444D+00 0.134D+01
 Coeff:      0.105D-06 0.686D-06-0.555D-05 0.250D-04-0.545D-04-0.259D-04
 Coeff:     -0.149D-02 0.104D+00-0.444D+00 0.134D+01
 Gap=     0.580 Goal=   None    Shift=    0.000
 Gap=     1.488 Goal=   None    Shift=    0.000
 RMSDP=2.27D-09 MaxDP=1.25D-08 DE= 0.00D+00 OVMax= 0.00D+00

 SCF Done:  E(UHF) =  -160.017693840     A.U. after   10 cycles
            NFock= 10  Conv=0.23D-08     -V/T= 2.0129
 <Sx>= 0.0000 <Sy>= 0.0000 <Sz>= 1.0000 <S**2>= 2.0003 S= 1.0001
 <L.S>= 0.000000000000E+00
 KE= 1.579758915188D+02 PE=-3.930492357737D+02 EE= 7.089782947190D+01
 Annihilation of the first spin contaminant:
 S**2 before annihilation     2.0003,   after     2.0000
 Leave Link  502 at Mon Mar 28 14:23:46 2022, MaxMem=  9663676416 cpu:               3.6 elap:               0.1
 (Enter /nopt/nrel/apps/gaussian/g16C_1/g16/l801.exe)
 Windowed orbitals will be sorted by symmetry type.
 ExpMin= 1.61D-01 ExpMax= 2.51D+02 ExpMxC= 2.51D+02 IAcc=3 IRadAn=         5 AccDes= 0.00D+00
 HarFok:  IExCor=  205 AccDes= 0.00D+00 IRadAn=         5 IDoV=-2 UseB2=F ITyADJ=14
 ICtDFT= 12500011 ScaDFX=  1.000000  1.000000  1.000000  1.000000
 Largest valence mixing into a core orbital is  3.53D-03
 Largest core mixing into a valence orbital is  3.13D-03
 Range of M.O.s used for correlation:     6    10
 NBasis=    10 NAE=     7 NBE=     5 NFC=     5 NFV=     0
 NROrb=      5 NOA=     2 NOB=     0 NVA=     3 NVB=     5
 Leave Link  801 at Mon Mar 28 14:23:47 2022, MaxMem=  9663676416 cpu:               1.8 elap:               0.1
 (Enter /nopt/nrel/apps/gaussian/g16C_1/g16/l804.exe)
 Open-shell transformation, MDV=  9663676416 ITran=4 ISComp=2.
 Unit  1 TFree=          8142 TCopy=        115691.
 Semi-Direct transformation.
 ModeAB=           2 MOrb=             2 LenV=    9663556481
 LASXX=           19 LTotXX=          19 LenRXX=          19
 LTotAB=          52 MaxLAS=         550 LenRXY=         550
 NonZer=         670 LenScr=      785920 LnRSAI=           0
 LnScr1=           0 LExtra=      219050 Total=      1005539
 MaxDsk= 34359738368 SrtSym=           F ITran=            4
 DoSDTr:  NPSUse= 36
 JobTyp=1 Pass  1:  I=   1 to   2.
 (rs|ai) integrals will be sorted in core.
 Complete sort for first half transformation.
 First half transformation complete.
 Complete sort for second half transformation.
 Second half transformation complete.
 Spin components of T(2) and E(2):
     alpha-alpha T2 =       0.0000000000D+00 E2=      0.0000000000D+00
     alpha-beta  T2 =       0.0000000000D+00 E2=      0.0000000000D+00
     beta-beta   T2 =       0.0000000000D+00 E2=      0.0000000000D+00
 ANorm=    0.1000000000D+01
 E2 =     0.0000000000D+00 EUMP2 =    -0.16001769384013D+03
 Leave Link  804 at Mon Mar 28 14:23:47 2022, MaxMem=  9663676416 cpu:               1.9 elap:               0.1
 (Enter /nopt/nrel/apps/gaussian/g16C_1/g16/l913.exe)
 CIDS:  MDV=  9663676416.
 Frozen-core window:  NFC=   5 NFV=   0.
 IFCWin=0 IBDFC=1 NFBD=     0     0 NFCmp=     0     0 NFFFC=     0     0
 Using original routines for 1st iteration.
 Using DD4UQ or CC4UQ for 2nd and later iterations.
 Keep R2 and R3 ints in memory in symmetry-blocked form, NReq=7211456.
 FoFCou: FMM=F IPFlag=           0 FMFlag=           0 FMFlg1=           0
         NFxFlg=           0 DoJE=F BraDBF=F KetDBF=F FulRan=T
         wScrn=  0.000000 ICntrl=       600 IOpCl=  0 I1Cent=           0 NGrid=           0
         NMat0=    1 NMatS0=     55 NMatT0=    0 NMatD0=    1 NMtDS0=    0 NMtDT0=    0
 Petite list used in FoFCou.
 CIDS: In Core Option IDoMem=           1.
 Coupled Cluster theory with single and double substitutions
 ===========================================================
 Iterations= 200 Convergence= 0.100D-06
 Produce multiple copies of IABC intergrals
 Iteration Nr.   1
 **********************
 DD1Dir will call FoFMem   1 times, MxPair=         2
 NAB=     0 NAA=     1 NBB=     0.
 MP4(R+Q)=  0.00000000D+00
 Maximum subspace dimension=  5
 A-vector RMS=  0.0000000D+00 Max=  0.0000000D+00 conv= 1.00D-05.
 RLE energy=        0.0000000000
 E3=        0.00000000D+00        EUMP3=      -0.16001769384D+03
 E4(DQ)=    0.00000000D+00        UMP4(DQ)=   -0.16001769384D+03
 E4(SDQ)=   0.00000000D+00        UMP4(SDQ)=  -0.16001769384D+03
 VARIATIONAL ENERGIES WITH THE FIRST-ORDER WAVEFUNCTION:
 DE(Corr)=  0.00000000E+00 E(Corr)=     -160.01769384    
 NORM(A)=   0.10000000D+01
 Iteration Nr.   2
 **********************
 DD1Dir will call FoFMem   1 times, MxPair=         2
 NAB=     0 NAA=     1 NBB=     0.
 A-vector RMS=  0.0000000D+00 Max=  0.0000000D+00 conv= 1.00D-05.
 RLE energy=        0.0000000000
 DE(Corr)=  0.00000000E+00 E(CORR)=     -160.01769384     Delta= 0.00D+00
 NORM(A)=   0.10000000D+01
 CI/CC converged in    2 iterations to DelEn= 0.00D+00 Conv= 1.00D-07 ErrA1= 0.00D+00 Conv= 1.00D-05
 Wavefunction amplitudes converged. E(Corr)=     -160.01769384    
 Largest amplitude= 0.00D+00
 Discarding MO integrals.
 Leave Link  913 at Mon Mar 28 14:23:47 2022, MaxMem=  9663676416 cpu:               2.9 elap:               0.1
 (Enter /nopt/nrel/apps/gaussian/g16C_1/g16/l601.exe)
 Copying SCF densities to generalized density rwf, IOpCl= 1 IROHF=0.

 **********************************************************************

            Population analysis using the SCF Density.

 **********************************************************************

 Orbital symmetries:
 Alpha Orbitals:
       Occupied  (SG) (SG) (SG) (PI) (PI) (SG) (SG)
       Virtual   (PI) (PI) (SG)
 Beta  Orbitals:
       Occupied  (SG) (SG) (PI) (PI) (SG)
       Virtual   (SG) (SG) (PI) (PI) (SG)
 The electronic state is 3-SG.
 Alpha  occ. eigenvalues --  -40.04347  -2.66094  -1.31592  -1.27647  -1.27647
 Alpha  occ. eigenvalues --   -0.51335   0.17168
 Alpha virt. eigenvalues --    0.75183   0.75183   1.02923
  Beta  occ. eigenvalues --  -40.01141  -2.59674  -1.25370  -1.25370  -1.24719
  Beta virt. eigenvalues --    0.24111   0.65867   0.84192   0.84192   1.17267
          Condensed to atoms (all electrons):
               1          2
     1  H    1.090901  -0.112828
     2  Na  -0.112828  11.134756
          Atomic-Atomic Spin Densities.
               1          2
     1  H    1.090659  -0.115070
     2  Na  -0.115070   1.139481
 Mulliken charges and spin densities:
               1          2
     1  H    0.021928   0.975589
     2  Na  -0.021928   1.024411
 Sum of Mulliken charges =  -0.00000   2.00000
 Mulliken charges and spin densities with hydrogens summed into heavy atoms:
               1          2
     2  Na  -0.000000   2.000000
 N-N= 4.157820942943D+00 E-N=-3.930492357907D+02  KE= 1.579758915188D+02
 Symmetry A1   KE= 1.376895893834D+02
 Symmetry A2   KE= 0.000000000000D+00
 Symmetry B1   KE= 1.014315106767D+01
 Symmetry B2   KE= 1.014315106767D+01
 Symmetry A1   SP= 2.000000000000D+00
 Symmetry A2   SP= 0.000000000000D+00
 Symmetry B1   SP= 9.689840928541D-16
 Symmetry B2   SP= 8.466860877977D-16

 Atomic contributions to Alpha molecular orbitals:
 Alpha occ 1 OE=-40.043 is Na2-s=1.0000
 Alpha occ 2 OE=-2.661 is Na2-s=0.9990
 Alpha occ 3 OE=-1.316 is Na2-p=0.9849
 Alpha occ 4 OE=-1.276 is Na2-p=1.0000
 Alpha occ 5 OE=-1.276 is Na2-p=1.0000
 Alpha occ 6 OE=-0.513 is H1-s=0.9497
 Alpha occ 7 OE=0.172 is Na2-s=0.8719 Na2-p=0.1151
 Alpha vir 8 OE=0.752 is Na2-p=1.0000
 Alpha vir 9 OE=0.752 is Na2-p=1.0000
 Alpha vir 10 OE=1.029 is Na2-p=0.8737 Na2-s=0.1031

 Atomic contributions to Beta  molecular orbitals:
 Beta  occ 1 OE=-40.011 is Na2-s=1.0000
 Beta  occ 2 OE=-2.597 is Na2-s=0.9989
 Beta  occ 3 OE=-1.254 is Na2-p=1.0000
 Beta  occ 4 OE=-1.254 is Na2-p=1.0000
 Beta  occ 5 OE=-1.247 is Na2-p=0.9962
 Beta  vir 6 OE=0.241 is H1-s=0.7821 Na2-s=0.1568
 Beta  vir 7 OE=0.659 is Na2-s=0.7802 Na2-p=0.1317
 Beta  vir 8 OE=0.842 is Na2-p=1.0000
 Beta  vir 9 OE=0.842 is Na2-p=1.0000
 Beta  vir 10 OE=1.173 is Na2-p=0.8092 H1-s=0.1286
 
 Leave Link  601 at Mon Mar 28 14:23:47 2022, MaxMem=  9663676416 cpu:               1.1 elap:               0.1
 (Enter /nopt/nrel/apps/gaussian/g16C_1/g16/l9999.exe)

 Test job not archived.
 1\1\GINC-R102U34\SP\UCCSD-FC\Gen\H1Na1(3)\USER\28-Mar-2022\0\\#P C
 CSD(MaxCyc=200,SaveAmplitudes,ReadAmplitudes)/GEN sp pop=AllOrbitals i
 op(3/33=1,3/36=-1)\\test\\0,3\H,0,0.,0.,0.\Na,0,0.,0.,1.4\\Version=ES6
 4L-G16RevC.01\State=3-SG\HF=-160.0176938\MP2=-160.0176938\MP3=-160.017
 6938\MP4D=-160.0176938\MP4DQ=-160.0176938\MP4SDQ=-160.0176938\CCSD=-16
 0.0176938\S2=2.00026\S2-1=0.\S2A=2.\RMSD=2.267e-09\PG=C*V [C*(H1Na1)]\
 \@


 MICRO CREDO - NEVER TRUST A COMPUTER BIGGER
               BIGGER THAN YOU CAN LIFT.
 Job cpu time:       0 days  0 hours  0 minutes 29.1 seconds.
 Elapsed time:       0 days  0 hours  0 minutes  1.1 seconds.
 File lengths (MBytes):  RWF=     13 Int=      0 D2E=      0 Chk=      1 Scr=      1
 Normal termination of Gaussian 16 at Mon Mar 28 14:23:47 2022.
