 Entering Gaussian System, Link 0=g16
 Initial command:
 /nopt/nrel/apps/gaussian/g16C_1/g16/l1.exe "/lustre/eaglefs/scratch/user/qc/tih-dissc-sto3g/tih-4-ccsd-0.5-sto3g/Gau-265971.inp" -scrdir="/lustre/eaglefs/scratch/user/qc/tih-dissc-sto3g/tih-4-ccsd-0.5-sto3g/"
 Default is to use a total of  36 processors:
                               36 via shared-memory
                                1 via Linda
 Entering Link 1 = /nopt/nrel/apps/gaussian/g16C_1/g16/l1.exe PID=    265972.
  
 Copyright (c) 1988-2019, Gaussian, Inc.  All Rights Reserved.
  
 This is part of the Gaussian(R) 16 program.  It is based on
 the Gaussian(R) 09 system (copyright 2009, Gaussian, Inc.),
 the Gaussian(R) 03 system (copyright 2003, Gaussian, Inc.),
 the Gaussian(R) 98 system (copyright 1998, Gaussian, Inc.),
 the Gaussian(R) 94 system (copyright 1995, Gaussian, Inc.),
 the Gaussian 92(TM) system (copyright 1992, Gaussian, Inc.),
 the Gaussian 90(TM) system (copyright 1990, Gaussian, Inc.),
 the Gaussian 88(TM) system (copyright 1988, Gaussian, Inc.),
 the Gaussian 86(TM) system (copyright 1986, Carnegie Mellon
 University), and the Gaussian 82(TM) system (copyright 1983,
 Carnegie Mellon University). Gaussian is a federally registered
 trademark of Gaussian, Inc.
  
 This software contains proprietary and confidential information,
 including trade secrets, belonging to Gaussian, Inc.
  
 This software is provided under written license and may be
 used, copied, transmitted, or stored only in accord with that
 written license.
  
 The following legend is applicable only to US Government
 contracts under FAR:
  
                    RESTRICTED RIGHTS LEGEND
  
 Use, reproduction and disclosure by the US Government is
 subject to restrictions as set forth in subparagraphs (a)
 and (c) of the Commercial Computer Software - Restricted
 Rights clause in FAR 52.227-19.
  
 Gaussian, Inc.
 340 Quinnipiac St., Bldg. 40, Wallingford CT 06492
  
  
 ---------------------------------------------------------------
 Warning -- This program may not be used in any manner that
 competes with the business of Gaussian, Inc. or will provide
 assistance to any competitor of Gaussian, Inc.  The licensee
 of this program is prohibited from giving any competitor of
 Gaussian, Inc. access to this program.  By using this program,
 the user acknowledges that Gaussian, Inc. is engaged in the
 business of creating and licensing software in the field of
 computational chemistry and represents and warrants to the
 licensee that it is not a competitor of Gaussian, Inc. and that
 it will not use this program in any manner prohibited above.
 ---------------------------------------------------------------
  

 Cite this work as:
 Gaussian 16, Revision C.01,
 M. J. Frisch, G. W. Trucks, H. B. Schlegel, G. E. Scuseria, 
 M. A. Robb, J. R. Cheeseman, G. Scalmani, V. Barone, 
 G. A. Petersson, H. Nakatsuji, X. Li, M. Caricato, A. V. Marenich, 
 J. Bloino, B. G. Janesko, R. Gomperts, B. Mennucci, H. P. Hratchian, 
 J. V. Ortiz, A. F. Izmaylov, J. L. Sonnenberg, D. Williams-Young, 
 F. Ding, F. Lipparini, F. Egidi, J. Goings, B. Peng, A. Petrone, 
 T. Henderson, D. Ranasinghe, V. G. Zakrzewski, J. Gao, N. Rega, 
 G. Zheng, W. Liang, M. Hada, M. Ehara, K. Toyota, R. Fukuda, 
 J. Hasegawa, M. Ishida, T. Nakajima, Y. Honda, O. Kitao, H. Nakai, 
 T. Vreven, K. Throssell, J. A. Montgomery, Jr., J. E. Peralta, 
 F. Ogliaro, M. J. Bearpark, J. J. Heyd, E. N. Brothers, K. N. Kudin, 
 V. N. Staroverov, T. A. Keith, R. Kobayashi, J. Normand, 
 K. Raghavachari, A. P. Rendell, J. C. Burant, S. S. Iyengar, 
 J. Tomasi, M. Cossi, J. M. Millam, M. Klene, C. Adamo, R. Cammi, 
 J. W. Ochterski, R. L. Martin, K. Morokuma, O. Farkas, 
 J. B. Foresman, and D. J. Fox, Gaussian, Inc., Wallingford CT, 2019.
 
 ******************************************
 Gaussian 16:  ES64L-G16RevC.01  3-Jul-2019
                25-Mar-2022 
 ******************************************
 %chk=molecule
 Default route: CacheSize=180224 MaxDisk=256GB
 --------------------------------------------------
 #P CCSD/GEN sp pop=AllOrbitals iop(3/33=1,3/36=-1)
 --------------------------------------------------
 1/4=180224,38=1,172=1/1;
 2/4=180224,12=2,17=6,18=5,40=1/2;
 3/4=180224,5=7,11=9,25=1,30=1,33=1,36=-1/1,2,3;
 4/4=180224/1;
 5/4=180224,5=2,38=5/2;
 8/4=180224,6=4,9=120000,10=1/1,4;
 9/4=180224,5=7/13;
 6/4=180224,7=2,8=2,9=2,10=2,96=-1/1;
 99/4=180224,5=1,9=1/99;
 Leave Link    1 at Fri Mar 25 14:38:26 2022, MaxMem=           0 cpu:               2.2 elap:               0.1
 (Enter /nopt/nrel/apps/gaussian/g16C_1/g16/l101.exe)
 ----
 test
 ----
 Symbolic Z-matrix:
 Charge =  0 Multiplicity = 4
 H                     0.        0.        0. 
 Ti                    0.        0.        0.5 
 
 ITRead=  0  0
 MicOpt= -1 -1
 NAtoms=      2 NQM=        2 NQMF=       0 NMMI=      0 NMMIF=      0
                NMic=       0 NMicF=      0.
                    Isotopes and Nuclear Properties:
 (Nuclear quadrupole moments (NQMom) in fm**2, nuclear magnetic moments (NMagM)
  in nuclear magnetons)

  Atom         1           2
 IAtWgt=           1          48
 AtmWgt=   1.0078250  47.9479467
 NucSpn=           1           0
 AtZEff=  -0.0000000  -0.0000000
 NQMom=    0.0000000   0.0000000
 NMagM=    2.7928460   0.0000000
 AtZNuc=   1.0000000  22.0000000
 Leave Link  101 at Fri Mar 25 14:38:26 2022, MaxMem=  9663676416 cpu:               2.9 elap:               0.1
 (Enter /nopt/nrel/apps/gaussian/g16C_1/g16/l202.exe)
                          Input orientation:                          
 ---------------------------------------------------------------------
 Center     Atomic      Atomic             Coordinates (Angstroms)
 Number     Number       Type             X           Y           Z
 ---------------------------------------------------------------------
      1          1           0        0.000000    0.000000    0.000000
      2         22           0        0.000000    0.000000    0.500000
 ---------------------------------------------------------------------
 Stoichiometry    HTi(4)
 Framework group  C*V[C*(HTi)]
 Deg. of freedom     1
 Full point group                 C*V     NOp   4
 Largest Abelian subgroup         C2V     NOp   4
 Largest concise Abelian subgroup C1      NOp   1
                         Standard orientation:                         
 ---------------------------------------------------------------------
 Center     Atomic      Atomic             Coordinates (Angstroms)
 Number     Number       Type             X           Y           Z
 ---------------------------------------------------------------------
      1          1           0        0.000000    0.000000   -0.478261
      2         22           0        0.000000    0.000000    0.021739
 ---------------------------------------------------------------------
 Rotational constants (GHZ):           0.0000000        2047.9810562        2047.9810562
 Leave Link  202 at Fri Mar 25 14:38:27 2022, MaxMem=  9663676416 cpu:               1.0 elap:               0.1
 (Enter /nopt/nrel/apps/gaussian/g16C_1/g16/l301.exe)
 General basis read from cards:  (5D, 7F)
                         Coordinates in L301:                         
 ---------------------------------------------------------------------
 Center     Atomic      Atomic             Coordinates (Angstroms)
 Number     Number       Type             X           Y           Z
 ---------------------------------------------------------------------
      1          1           0        0.000000    0.000000   -0.478261
      2         22           0        0.000000    0.000000    0.021739
 ---------------------------------------------------------------------
 Centers:       1
 STO-3G
 ****
 Centers:       2
 STO-3G
 ****
 FixB: optimizing general contractions.
 Ernie: Thresh=  0.10000D-02 Tol=  0.10000D-05 Strict=F.
 IA=     1 ShT= 0 ShC= 0 NL=   1 NS=   0.
 IA=     1 L=0 SC=0 ISt=    0 NBk=    0 NP=    0 IndPr=    0.
 IA=     2 ShT= 0 ShC= 0 NL=   1 NS=   0.
 IA=     2 L=0 SC=0 ISt=    0 NBk=    0 NP=    0 IndPr=    0.
 IA=     2 ShT= 1 ShC= 0 NL=   3 NS=   0.
 IA=     2 L=1 SC=0 ISt=    1 NBk=    3 NP=    9 IndPr=    0.
 DoElim1:  L=1 select primitive    1 from    2 using    1 C=-1.00D-01
 DoElim1:  L=1 select primitive    1 from    3 using    1 C=-1.00D-01
 DoElim1:  L=1 select primitive    4 from    3 using    2 C=-2.28D-01
 DoElim2:  L=1 select primitive    9 from    2 using    3 C= 1.13D+00
 DoElim2:  L=1 select primitive    9 from    1 using    3 C= 1.13D+00
 DoElim2:  L=1 select primitive    7 from    1 using    2 C= 9.17D-01
 DoElim1:  L=1 select primitive    1 from    2 using    1 C= 1.56D-01
 DoElim1:  L=1 select primitive    1 from    3 using    1 C= 1.56D-01
 DoElim1:  L=1 select primitive    4 from    3 using    2 C= 4.95D-03
 DoElim2:  L=1 select primitive    8 from    2 using    3 C= 5.72D-01
 DoElim2:  L=1 select primitive    8 from    1 using    3 C= 5.72D-01
 DoElim2:  L=1 select primitive    5 from    1 using    2 C= 5.78D-01
 Delete L=1 primitive    7 from    3 C=  0.00D+00.
 Delete L=1 primitive    5 from    3 C=  0.00D+00.
 Delete L=1 primitive    4 from    3 C=  0.00D+00.
 Delete L=1 primitive    3 from    3 C=  0.00D+00.
 Delete L=1 primitive    2 from    3 C=  0.00D+00.
 Delete L=1 primitive    1 from    3 C=  0.00D+00.
 Delete L=1 primitive    9 from    2 C=  0.00D+00.
 Delete L=1 primitive    8 from    2 C=  0.00D+00.
 Delete L=1 primitive    6 from    2 C=  0.00D+00.
 Delete L=1 primitive    3 from    2 C=  0.00D+00.
 Delete L=1 primitive    2 from    2 C=  0.00D+00.
 Delete L=1 primitive    1 from    2 C=  0.00D+00.
 Delete L=1 primitive    9 from    1 C=  0.00D+00.
 Delete L=1 primitive    8 from    1 C=  0.00D+00.
 Delete L=1 primitive    7 from    1 C=  0.00D+00.
 Delete L=1 primitive    6 from    1 C=  0.00D+00.
 Delete L=1 primitive    5 from    1 C=  0.00D+00.
 Delete L=1 primitive    4 from    1 C=  0.00D+00.
 IA=     2 L=1 SC=0 ISt=    0 NBk=    0 NP=    0 IndPr=    9.
 IA=     2 ShT= 2 ShC= 2 NL=   1 NS=   0.
 IA=     2 L=2 SC=2 ISt=    0 NBk=    0 NP=    0 IndPr=    0.
 LdAtmC:  AtmChg=     1.000000    22.000000
 AtZEff=     -1.0000000    -23.9800000
 NEqShl: 
              1            2            3            4
     1            1            1            1            1
     2            2            2            2            2
     3            3            3            3            3
     4            4            4            4            4
     5            5            5            5            5
     6            6            6            6            6
 NEqBas: 
              1            2            3            4
     1            1            1            1            1
     2            2            2            2            2
     3            3            3            3            3
     4            4           -4           -4            4
     5            5           -5            5           -5
     6            6            6            6            6
     7            7            7            7            7
     8            8           -8           -8            8
     9            9           -9            9           -9
    10           10           10           10           10
    11           11           11           11           11
    12           12          -12          -12           12
    13           13          -13           13          -13
    14           14           14           14           14
    15           15           15           15           15
    16           16           16           16           16
    17           17           17           17           17
    18           18           18          -18          -18
    19           19          -19          -19           19
    20           20          -20           20          -20
 There are    11 symmetry adapted cartesian basis functions of A1  symmetry.
   1         1   1   1   1
   2         2   2   2   2
   3         3   3   3   3
   4         6   6   6   6
   5         7   7   7   7
   6        10  10  10  10
   7        11  11  11  11
   8        14  14  14  14
   9        15  15  15  15
  10        16  16  16  16
  11        17  17  17  17
 There are     1 symmetry adapted cartesian basis functions of A2  symmetry.
  12        18  18  18  18
 There are     4 symmetry adapted cartesian basis functions of B1  symmetry.
  13         4   4   4   4
  14         8   8   8   8
  15        12  12  12  12
  16        19  19  19  19
 There are     4 symmetry adapted cartesian basis functions of B2  symmetry.
  17         5   5   5   5
  18         9   9   9   9
  19        13  13  13  13
  20        20  20  20  20
 Order= 1 2 4 3
 Reordered character table:
              1            2            3            4            5
     1            1            1            1            1            1
     2            2            1            1           -1           -1
     3            4            1           -1           -1            1
     4            3            1           -1            1           -1
 NEqShl: 
              1            2            3            4
     1            1            1            1            1
     2            2            2            2            2
     3            3            3            3            3
     4            4            4            4            4
     5            5            5            5            5
     6            6            6            6            6
 NEqBas: 
              1            2            3            4
     1            1            1            1            1
     2            2            2            2            2
     3            3            3            3            3
     4            4           -4           -4            4
     5            5           -5            5           -5
     6            6            6            6            6
     7            7            7            7            7
     8            8           -8           -8            8
     9            9           -9            9           -9
    10           10           10           10           10
    11           11           11           11           11
    12           12          -12          -12           12
    13           13          -13           13          -13
    14           14           14           14           14
    15           15           15           15           15
    16           16          -16          -16           16
    17           17          -17           17          -17
    18           18           18           18           18
    19           19           19          -19          -19
 There are    10 symmetry adapted basis functions of A1  symmetry.
   1         1   1   1   1
   2         2   2   2   2
   3         3   3   3   3
   4         6   6   6   6
   5         7   7   7   7
   6        10  10  10  10
   7        11  11  11  11
   8        14  14  14  14
   9        15  15  15  15
  10        18  18  18  18
 There are     1 symmetry adapted basis functions of A2  symmetry.
  11        19  19  19  19
 There are     4 symmetry adapted basis functions of B1  symmetry.
  12         4   4   4   4
  13         8   8   8   8
  14        12  12  12  12
  15        16  16  16  16
 There are     4 symmetry adapted basis functions of B2  symmetry.
  16         5   5   5   5
  17         9   9   9   9
  18        13  13  13  13
  19        17  17  17  17
 Order= 1 2 4 3
 Reordered character table:
              1            2            3            4            5
     1            1            1            1            1            1
     2            2            1            1           -1           -1
     3            4            1           -1           -1            1
     4            3            1           -1            1           -1
    19 basis functions,    60 primitive gaussians,    20 cartesian basis functions
    13 alpha electrons       10 beta electrons
       nuclear repulsion energy        23.2837972805 Hartrees.
 IS=     1 IAt=     1 ISR=     1 T=0 IP=      1 IndIP=      1 IndIPD=      0 C=  2.769344D-01  0.000000D+00                             NZ=T
 IS=     1 IAt=     1 ISR=     1 T=0 IP=      2 IndIP=      2 IndIPD=      1 C=  2.678389D-01  0.000000D+00                             NZ=T
 IS=     1 IAt=     1 ISR=     1 T=0 IP=      3 IndIP=      3 IndIPD=      2 C=  8.347367D-02  0.000000D+00                             NZ=T
 IS=     2 IAt=     2 ISR=     1 T=0 IP=      1 IndIP=      4 IndIPD=      0 C=  2.004993D+01  0.000000D+00                             NZ=T
 IS=     2 IAt=     2 ISR=     1 T=0 IP=      2 IndIP=      5 IndIPD=      1 C=  1.939142D+01  0.000000D+00                             NZ=T
 IS=     2 IAt=     2 ISR=     1 T=0 IP=      3 IndIP=      6 IndIPD=      2 C=  6.043458D+00  0.000000D+00                             NZ=T
 IS=     3 IAt=     2 ISR=     2 T=1 IP=      1 IndIP=      7 IndIPD=      0 C= -1.820341D+00  4.925761D+01                             NZ=T
 IS=     3 IAt=     2 ISR=     2 T=1 IP=      2 IndIP=      8 IndIPD=      1 C=  2.434854D+00  3.097451D+01                             NZ=T
 IS=     3 IAt=     2 ISR=     2 T=1 IP=      3 IndIP=      9 IndIPD=      2 C=  1.837620D+00  4.906883D+00                             NZ=T
 IS=     4 IAt=     2 ISR=     3 T=1 IP=      1 IndIP=     10 IndIPD=      0 C= -5.746721D-01  5.803915D-02                             NZ=T
 IS=     4 IAt=     2 ISR=     3 T=1 IP=      2 IndIP=     11 IndIPD=      1 C=  2.252897D-01  1.535208D+00                             NZ=T
 IS=     4 IAt=     2 ISR=     3 T=1 IP=      3 IndIP=     12 IndIPD=      2 C=  4.647390D-01  3.915940D-01                             NZ=T
 IS=     5 IAt=     2 ISR=     4 T=1 IP=      1 IndIP=     13 IndIPD=      0 C= -1.706594D-01 -1.133666D-01                             NZ=T
 IS=     5 IAt=     2 ISR=     4 T=1 IP=      2 IndIP=     14 IndIPD=      1 C=  5.129963D-03  1.533382D-01                             NZ=T
 IS=     5 IAt=     2 ISR=     4 T=1 IP=      3 IndIP=     15 IndIPD=      2 C=  1.603140D-01  5.311239D-02                             NZ=T
 IS=     6 IAt=     2 ISR=     5 T=2 IP=      1 IndIP=     16 IndIPD=      1 C=  0.000000D+00  0.000000D+00  8.652016D-01  0.000000D+00 NZ=T
 IS=     6 IAt=     2 ISR=     5 T=2 IP=      2 IndIP=     17 IndIPD=      2 C=  0.000000D+00  0.000000D+00  3.231180D-01  0.000000D+00 NZ=T
 IS=     6 IAt=     2 ISR=     5 T=2 IP=      3 IndIP=     18 IndIPD=      3 C=  0.000000D+00  0.000000D+00  2.668013D-02  0.000000D+00 NZ=T
 IExCor=    0 DFT=F Ex=HF Corr=None ExCW=0 ScaHFX=  1.000000
 ScaDFX=  1.000000  1.000000  1.000000  1.000000 ScalE2=  1.000000  1.000000
 IRadAn=      5 IRanWt=     -1 IRanGd=            0 ICorTp=0 IEmpDi=  4
 NAtoms=    2 NActive=    2 NUniq=    2 SFac= 1.00D+00 NAtFMM=   60 NAOKFM=F Big=F
 Integral buffers will be    131072 words long.
 Raffenetti 2 integral format.
 Two-electron integral symmetry is turned on.
 Leave Link  301 at Fri Mar 25 14:38:27 2022, MaxMem=  9663676416 cpu:               2.2 elap:               0.1
 (Enter /nopt/nrel/apps/gaussian/g16C_1/g16/l302.exe)
 NPDir=0 NMtPBC=     1 NCelOv=     1 NCel=       1 NClECP=     1 NCelD=      1
         NCelK=      1 NCelE2=     1 NClLst=     1 CellRange=     0.0.
 One-electron integrals computed using PRISM.
 One-electron integral symmetry used in STVInt
 Entering OneElI...
 Calculate overlap and kinetic energy integrals
    NBasis =  19  MinDer = 0  MaxDer = 0
 Requested accuracy = 0.1000D-12
 Symmetry will be used
 PrmmSu-InSpLW:  IPartL=    0 NPrtUS=   36 NPrtUL=    1 DoSpLW=F IThBeg=    0 IThEnd=   35 NThAct=   36.
 PrSmSu:  IncTry=   512 NBBP=             21 NTPThr=   100 NPartT=   36 Incr=           1 LDynOK=F GPUOK=F.
 PrsmSu:  NPrtUS=  36 ThrOK=T IAlg=1 LenDen=           0 ISkipM=0 DoSpLW=F IThBeg=    0 IThEnd=   35.
 Prism:   IPart=     0 DynPar=F LinDyn=F Incr=           1.
 PRISM was handed   268432635 working-precision words and    21 shell-pairs
 PRISM was handed   268432635 working-precision words and    21 shell-pairs
 PRISM was handed   268432635 working-precision words and    21 shell-pairs
 PRISM was handed   268432635 working-precision words and    21 shell-pairs
 PRISM was handed   268432635 working-precision words and    21 shell-pairs
 PRISM was handed   268432635 working-precision words and    21 shell-pairs
 PRISM was handed   268432635 working-precision words and    21 shell-pairs
 PRISM was handed   268432635 working-precision words and    21 shell-pairs
 PRISM was handed   268432635 working-precision words and    21 shell-pairs
 PRISM was handed   268432635 working-precision words and    21 shell-pairs
 PRISM was handed   268432635 working-precision words and    21 shell-pairs
 PRISM was handed   268432635 working-precision words and    21 shell-pairs
 PRISM was handed   268432635 working-precision words and    21 shell-pairs
 PRISM was handed   268432635 working-precision words and    21 shell-pairs
 PRISM was handed   268432635 working-precision words and    21 shell-pairs
 IPart= 32 NShTot=           0 NBatch=           0 AvBLen=         0.0
 IPart= 33 NShTot=           0 NBatch=           0 AvBLen=         0.0
 IPart= 34 NShTot=           0 NBatch=           0 AvBLen=         0.0
 IPart= 29 NShTot=           0 NBatch=           0 AvBLen=         0.0
 IPart= 11 NShTot=           0 NBatch=           0 AvBLen=         0.0
 IPart= 20 NShTot=           0 NBatch=           0 AvBLen=         0.0
 IPart= 27 NShTot=           0 NBatch=           0 AvBLen=         0.0
 IPart=  8 NShTot=           0 NBatch=           0 AvBLen=         0.0
 IPart= 25 NShTot=           0 NBatch=           0 AvBLen=         0.0
 PRISM was handed   268432635 working-precision words and    21 shell-pairs
 IPart= 16 NShTot=           0 NBatch=           0 AvBLen=         0.0
 IPart= 14 NShTot=           0 NBatch=           0 AvBLen=         0.0
 IPart=  9 NShTot=           0 NBatch=           0 AvBLen=         0.0
 PRISM was handed   268432635 working-precision words and    21 shell-pairs
 PRISM was handed   268432635 working-precision words and    21 shell-pairs
 IPart= 22 NShTot=           0 NBatch=           0 AvBLen=         0.0
 IPart=  7 NShTot=           0 NBatch=           0 AvBLen=         0.0
 PRISM was handed   268432635 working-precision words and    21 shell-pairs
 PRISM was handed   268432635 working-precision words and    21 shell-pairs
 PRISM was handed   268432635 working-precision words and    21 shell-pairs
 PRISM was handed   268432635 working-precision words and    21 shell-pairs
 IPart= 13 NShTot=           0 NBatch=           0 AvBLen=         0.0
 PRISM was handed   268432635 working-precision words and    21 shell-pairs
 IPart=  3 NShTot=           2 NBatch=           2 AvBLen=         1.0
 PRISM was handed   268432635 working-precision words and    21 shell-pairs
 PRISM was handed   268432635 working-precision words and    21 shell-pairs
 PRISM was handed   268432635 working-precision words and    21 shell-pairs
 PRISM was handed   268432635 working-precision words and    21 shell-pairs
 PRISM was handed   268432635 working-precision words and    21 shell-pairs
 IPart=  1 NShTot=           5 NBatch=           5 AvBLen=         1.0
 IPart= 31 NShTot=           0 NBatch=           0 AvBLen=         0.0
 IPart= 15 NShTot=           0 NBatch=           0 AvBLen=         0.0
 PRISM was handed   268432635 working-precision words and    21 shell-pairs
 PRISM was handed   268432635 working-precision words and    21 shell-pairs
 PRISM was handed   268432635 working-precision words and    21 shell-pairs
 PRISM was handed   268432635 working-precision words and    21 shell-pairs
 PRISM was handed   268432635 working-precision words and    21 shell-pairs
 PRISM was handed   268432635 working-precision words and    21 shell-pairs
 PRISM was handed   268432635 working-precision words and    21 shell-pairs
 PRISM was handed   268432635 working-precision words and    21 shell-pairs
 IPart= 19 NShTot=           0 NBatch=           0 AvBLen=         0.0
 IPart= 18 NShTot=           0 NBatch=           0 AvBLen=         0.0
 IPart= 10 NShTot=           0 NBatch=           0 AvBLen=         0.0
 IPart= 24 NShTot=           0 NBatch=           0 AvBLen=         0.0
 IPart= 12 NShTot=           0 NBatch=           0 AvBLen=         0.0
 IPart= 30 NShTot=           0 NBatch=           0 AvBLen=         0.0
 IPart=  0 NShTot=           6 NBatch=           6 AvBLen=         1.0
 IPart=  4 NShTot=           2 NBatch=           2 AvBLen=         1.0
 IPart=  5 NShTot=           2 NBatch=           2 AvBLen=         1.0
 IPart= 23 NShTot=           0 NBatch=           0 AvBLen=         0.0
 IPart= 21 NShTot=           0 NBatch=           0 AvBLen=         0.0
 IPart= 28 NShTot=           0 NBatch=           0 AvBLen=         0.0
 IPart= 35 NShTot=           0 NBatch=           0 AvBLen=         0.0
 IPart= 26 NShTot=           0 NBatch=           0 AvBLen=         0.0
 IPart= 17 NShTot=           0 NBatch=           0 AvBLen=         0.0
 IPart=  6 NShTot=           0 NBatch=           0 AvBLen=         0.0
 IPart=  2 NShTot=           4 NBatch=           4 AvBLen=         1.0
 PrSmSu:  NxtVal=             37.
 *** Overlap *** 
                1             2             3             4             5 
      1  0.100000D+01
      2  0.327237D-01  0.100000D+01
      3  0.211991D+00  0.371775D+00  0.100000D+01
      4  0.000000D+00  0.000000D+00  0.000000D+00  0.100000D+01
      5  0.000000D+00  0.000000D+00  0.000000D+00  0.000000D+00  0.100000D+01
      6 -0.640745D-01  0.000000D+00  0.000000D+00  0.000000D+00  0.000000D+00
      7  0.747102D+00  0.223608D-01  0.300384D+00  0.000000D+00  0.000000D+00
      8  0.000000D+00  0.000000D+00  0.000000D+00  0.313309D+00  0.000000D+00
      9  0.000000D+00  0.000000D+00  0.000000D+00  0.000000D+00  0.313309D+00
     10 -0.415296D+00  0.000000D+00  0.000000D+00  0.000000D+00  0.000000D+00
     11  0.628953D+00 -0.412730D-03  0.136941D-01  0.000000D+00  0.000000D+00
     12  0.000000D+00  0.000000D+00  0.000000D+00  0.250808D-01  0.000000D+00
     13  0.000000D+00  0.000000D+00  0.000000D+00  0.000000D+00  0.250808D-01
     14 -0.393373D+00  0.000000D+00  0.000000D+00  0.000000D+00  0.000000D+00
     15  0.203915D+00  0.000000D+00  0.000000D+00  0.000000D+00  0.000000D+00
     16  0.000000D+00  0.000000D+00  0.000000D+00  0.000000D+00  0.000000D+00
     17  0.000000D+00  0.000000D+00  0.000000D+00  0.000000D+00  0.000000D+00
     18  0.000000D+00  0.000000D+00  0.000000D+00  0.000000D+00  0.000000D+00
     19  0.000000D+00  0.000000D+00  0.000000D+00  0.000000D+00  0.000000D+00
                6             7             8             9            10 
      6  0.100000D+01
      7  0.000000D+00  0.100000D+01
      8  0.000000D+00  0.000000D+00  0.100000D+01
      9  0.000000D+00  0.000000D+00  0.000000D+00  0.100000D+01
     10  0.313309D+00  0.000000D+00  0.000000D+00  0.000000D+00  0.100000D+01
     11  0.000000D+00  0.395149D+00  0.000000D+00  0.000000D+00  0.000000D+00
     12  0.000000D+00  0.000000D+00  0.407435D+00  0.000000D+00  0.000000D+00
     13  0.000000D+00  0.000000D+00  0.000000D+00  0.407435D+00  0.000000D+00
     14  0.250808D-01  0.000000D+00  0.000000D+00  0.000000D+00  0.407435D+00
     15  0.000000D+00  0.000000D+00  0.000000D+00  0.000000D+00  0.000000D+00
     16  0.000000D+00  0.000000D+00  0.000000D+00  0.000000D+00  0.000000D+00
     17  0.000000D+00  0.000000D+00  0.000000D+00  0.000000D+00  0.000000D+00
     18  0.000000D+00  0.000000D+00  0.000000D+00  0.000000D+00  0.000000D+00
     19  0.000000D+00  0.000000D+00  0.000000D+00  0.000000D+00  0.000000D+00
               11            12            13            14            15 
     11  0.100000D+01
     12  0.000000D+00  0.100000D+01
     13  0.000000D+00  0.000000D+00  0.100000D+01
     14  0.000000D+00  0.000000D+00  0.000000D+00  0.100000D+01
     15  0.000000D+00  0.000000D+00  0.000000D+00  0.000000D+00  0.100000D+01
     16  0.000000D+00  0.000000D+00  0.000000D+00  0.000000D+00  0.000000D+00
     17  0.000000D+00  0.000000D+00  0.000000D+00  0.000000D+00  0.000000D+00
     18  0.000000D+00  0.000000D+00  0.000000D+00  0.000000D+00  0.000000D+00
     19  0.000000D+00  0.000000D+00  0.000000D+00  0.000000D+00  0.000000D+00
               16            17            18            19 
     16  0.100000D+01
     17  0.000000D+00  0.100000D+01
     18  0.000000D+00  0.000000D+00  0.100000D+01
     19  0.000000D+00  0.000000D+00  0.000000D+00  0.100000D+01
 *** Kinetic Energy *** 
                1             2             3             4             5 
      1  0.760032D+00
      2  0.113091D-01  0.229340D+03
      3  0.132007D+00  0.137973D+01  0.120824D+02
      4  0.000000D+00  0.000000D+00  0.000000D+00  0.378073D+02
      5  0.000000D+00  0.000000D+00  0.000000D+00  0.000000D+00  0.378073D+02
      6 -0.124948D+00  0.000000D+00  0.000000D+00  0.000000D+00  0.000000D+00
      7  0.496000D+00 -0.798994D+00 -0.840664D+00  0.000000D+00  0.000000D+00
      8  0.000000D+00  0.000000D+00  0.000000D+00  0.187471D+01  0.000000D+00
      9  0.000000D+00  0.000000D+00  0.000000D+00  0.000000D+00  0.187471D+01
     10 -0.713581D+00  0.000000D+00  0.000000D+00  0.000000D+00  0.000000D+00
     11  0.523797D-01 -0.407071D-01 -0.207745D+00  0.000000D+00  0.000000D+00
     12  0.000000D+00  0.000000D+00  0.000000D+00 -0.209473D-01  0.000000D+00
     13  0.000000D+00  0.000000D+00  0.000000D+00  0.000000D+00 -0.209473D-01
     14 -0.196985D+00  0.000000D+00  0.000000D+00  0.000000D+00  0.000000D+00
     15  0.430631D+00  0.000000D+00  0.000000D+00  0.000000D+00  0.000000D+00
     16  0.000000D+00  0.000000D+00  0.000000D+00  0.000000D+00  0.000000D+00
     17  0.000000D+00  0.000000D+00  0.000000D+00  0.000000D+00  0.000000D+00
     18  0.000000D+00  0.000000D+00  0.000000D+00  0.000000D+00  0.000000D+00
     19  0.000000D+00  0.000000D+00  0.000000D+00  0.000000D+00  0.000000D+00
                6             7             8             9            10 
      6  0.378073D+02
      7  0.000000D+00  0.116813D+01
      8  0.000000D+00  0.000000D+00  0.275070D+01
      9  0.000000D+00  0.000000D+00  0.000000D+00  0.275070D+01
     10  0.187471D+01  0.000000D+00  0.000000D+00  0.000000D+00  0.275070D+01
     11  0.000000D+00 -0.927537D-01  0.000000D+00  0.000000D+00  0.000000D+00
     12  0.000000D+00  0.000000D+00  0.199329D+00  0.000000D+00  0.000000D+00
     13  0.000000D+00  0.000000D+00  0.000000D+00  0.199329D+00  0.000000D+00
     14 -0.209473D-01  0.000000D+00  0.000000D+00  0.000000D+00  0.199329D+00
     15  0.000000D+00  0.000000D+00  0.000000D+00  0.000000D+00  0.000000D+00
     16  0.000000D+00  0.000000D+00  0.000000D+00  0.000000D+00  0.000000D+00
     17  0.000000D+00  0.000000D+00  0.000000D+00  0.000000D+00  0.000000D+00
     18  0.000000D+00  0.000000D+00  0.000000D+00  0.000000D+00  0.000000D+00
     19  0.000000D+00  0.000000D+00  0.000000D+00  0.000000D+00  0.000000D+00
               11            12            13            14            15 
     11  0.207443D+00
     12  0.000000D+00  0.409500D+00
     13  0.000000D+00  0.000000D+00  0.409500D+00
     14  0.000000D+00  0.000000D+00  0.000000D+00  0.409500D+00
     15  0.000000D+00  0.000000D+00  0.000000D+00  0.000000D+00  0.180044D+01
     16  0.000000D+00  0.000000D+00  0.000000D+00  0.000000D+00  0.000000D+00
     17  0.000000D+00  0.000000D+00  0.000000D+00  0.000000D+00  0.000000D+00
     18  0.000000D+00  0.000000D+00  0.000000D+00  0.000000D+00  0.000000D+00
     19  0.000000D+00  0.000000D+00  0.000000D+00  0.000000D+00  0.000000D+00
               16            17            18            19 
     16  0.180044D+01
     17  0.000000D+00  0.180044D+01
     18  0.000000D+00  0.000000D+00  0.180044D+01
     19  0.000000D+00  0.000000D+00  0.000000D+00  0.180044D+01
 Entering OneElI...
 Calculate potential energy integrals
    NBasis =  19  MinDer = 0  MaxDer = 0
 Requested accuracy = 0.1000D-12
 Symmetry will be used
 PrmmSu-InSpLW:  IPartL=    0 NPrtUS=   36 NPrtUL=    1 DoSpLW=F IThBeg=    0 IThEnd=   35 NThAct=   36.
 PrSmSu:  IncTry=   512 NBBP=             42 NTPThr=   100 NPartT=   36 Incr=           1 LDynOK=F GPUOK=F.
 PrsmSu:  NPrtUS=  36 ThrOK=T IAlg=1 LenDen=           0 ISkipM=0 DoSpLW=F IThBeg=    0 IThEnd=   35.
 Prism:   IPart=     0 DynPar=F LinDyn=F Incr=           1.
 PRISM was handed   268432827 working-precision words and    21 shell-pairs
 PRISM was handed   268432827 working-precision words and    21 shell-pairs
 PRISM was handed   268432827 working-precision words and    21 shell-pairs
 PRISM was handed   268432827 working-precision words and    21 shell-pairs
 PRISM was handed   268432827 working-precision words and    21 shell-pairs
 PRISM was handed   268432827 working-precision words and    21 shell-pairs
 PRISM was handed   268432827 working-precision words and    21 shell-pairs
 PRISM was handed   268432827 working-precision words and    21 shell-pairs
 PRISM was handed   268432827 working-precision words and    21 shell-pairs
 PRISM was handed   268432827 working-precision words and    21 shell-pairs
 PRISM was handed   268432827 working-precision words and    21 shell-pairs
 PRISM was handed   268432827 working-precision words and    21 shell-pairs
 PRISM was handed   268432827 working-precision words and    21 shell-pairs
 PRISM was handed   268432827 working-precision words and    21 shell-pairs
 PRISM was handed   268432827 working-precision words and    21 shell-pairs
 PRISM was handed   268432827 working-precision words and    21 shell-pairs
 PRISM was handed   268432827 working-precision words and    21 shell-pairs
 PRISM was handed   268432827 working-precision words and    21 shell-pairs
 PRISM was handed   268432827 working-precision words and    21 shell-pairs
 PRISM was handed   268432827 working-precision words and    21 shell-pairs
 PRISM was handed   268432827 working-precision words and    21 shell-pairs
 PRISM was handed   268432827 working-precision words and    21 shell-pairs
 PRISM was handed   268432827 working-precision words and    21 shell-pairs
 PRISM was handed   268432827 working-precision words and    21 shell-pairs
 PRISM was handed   268432827 working-precision words and    21 shell-pairs
 PRISM was handed   268432827 working-precision words and    21 shell-pairs
 PRISM was handed   268432827 working-precision words and    21 shell-pairs
 PRISM was handed   268432827 working-precision words and    21 shell-pairs
 PRISM was handed   268432827 working-precision words and    21 shell-pairs
 PRISM was handed   268432827 working-precision words and    21 shell-pairs
 PRISM was handed   268432827 working-precision words and    21 shell-pairs
 PRISM was handed   268432827 working-precision words and    21 shell-pairs
 PRISM was handed   268432827 working-precision words and    21 shell-pairs
 PRISM was handed   268432827 working-precision words and    21 shell-pairs
 PRISM was handed   268432827 working-precision words and    21 shell-pairs
 PRISM was handed   268432827 working-precision words and    21 shell-pairs
 IPart=  5 NShTot=           4 NBatch=           2 AvBLen=         2.0
 IPart=  4 NShTot=           4 NBatch=           2 AvBLen=         2.0
 IPart=  1 NShTot=          10 NBatch=           5 AvBLen=         2.0
 IPart=  3 NShTot=           4 NBatch=           2 AvBLen=         2.0
 IPart=  2 NShTot=           8 NBatch=           4 AvBLen=         2.0
 IPart=  0 NShTot=          12 NBatch=           6 AvBLen=         2.0
 IPart= 33 NShTot=           0 NBatch=           0 AvBLen=         0.0
 IPart= 24 NShTot=           0 NBatch=           0 AvBLen=         0.0
 IPart= 23 NShTot=           0 NBatch=           0 AvBLen=         0.0
 IPart=  9 NShTot=           0 NBatch=           0 AvBLen=         0.0
 IPart= 19 NShTot=           0 NBatch=           0 AvBLen=         0.0
 IPart= 28 NShTot=           0 NBatch=           0 AvBLen=         0.0
 IPart= 20 NShTot=           0 NBatch=           0 AvBLen=         0.0
 IPart= 15 NShTot=           0 NBatch=           0 AvBLen=         0.0
 IPart= 14 NShTot=           0 NBatch=           0 AvBLen=         0.0
 IPart= 13 NShTot=           0 NBatch=           0 AvBLen=         0.0
 IPart=  7 NShTot=           0 NBatch=           0 AvBLen=         0.0
 IPart= 11 NShTot=           0 NBatch=           0 AvBLen=         0.0
 IPart= 31 NShTot=           0 NBatch=           0 AvBLen=         0.0
 IPart= 10 NShTot=           0 NBatch=           0 AvBLen=         0.0
 IPart=  8 NShTot=           0 NBatch=           0 AvBLen=         0.0
 IPart= 32 NShTot=           0 NBatch=           0 AvBLen=         0.0
 IPart= 22 NShTot=           0 NBatch=           0 AvBLen=         0.0
 IPart= 12 NShTot=           0 NBatch=           0 AvBLen=         0.0
 IPart= 34 NShTot=           0 NBatch=           0 AvBLen=         0.0
 IPart= 21 NShTot=           0 NBatch=           0 AvBLen=         0.0
 IPart= 27 NShTot=           0 NBatch=           0 AvBLen=         0.0
 IPart= 30 NShTot=           0 NBatch=           0 AvBLen=         0.0
 IPart= 16 NShTot=           0 NBatch=           0 AvBLen=         0.0
 IPart= 25 NShTot=           0 NBatch=           0 AvBLen=         0.0
 IPart= 18 NShTot=           0 NBatch=           0 AvBLen=         0.0
 IPart= 17 NShTot=           0 NBatch=           0 AvBLen=         0.0
 IPart=  6 NShTot=           0 NBatch=           0 AvBLen=         0.0
 IPart= 35 NShTot=           0 NBatch=           0 AvBLen=         0.0
 IPart= 26 NShTot=           0 NBatch=           0 AvBLen=         0.0
 IPart= 29 NShTot=           0 NBatch=           0 AvBLen=         0.0
 PrSmSu:  NxtVal=             37.
 ***** Potential Energy ***** 
                1             2             3             4             5 
      1  0.196423D+02
      2  0.796196D+01  0.469823D+03
      3  0.143623D+02  0.905394D+02  0.973104D+02
      4  0.000000D+00  0.000000D+00  0.000000D+00  0.965163D+02
      5  0.000000D+00  0.000000D+00  0.000000D+00  0.000000D+00  0.965163D+02
      6 -0.339814D+01 -0.305163D-01 -0.185729D+00  0.000000D+00  0.000000D+00
      7  0.181692D+02  0.474376D+01  0.172792D+02  0.000000D+00  0.000000D+00
      8  0.000000D+00  0.000000D+00  0.000000D+00  0.176976D+02  0.000000D+00
      9  0.000000D+00  0.000000D+00  0.000000D+00  0.000000D+00  0.176976D+02
     10 -0.952139D+01 -0.211949D-02 -0.924288D-01  0.000000D+00  0.000000D+00
     11  0.810724D+01 -0.134105D+00  0.495820D+00  0.000000D+00  0.000000D+00
     12  0.000000D+00  0.000000D+00  0.000000D+00  0.122273D+01  0.000000D+00
     13  0.000000D+00  0.000000D+00  0.000000D+00  0.000000D+00  0.122273D+01
     14 -0.513318D+01 -0.108103D-03 -0.808287D-02  0.000000D+00  0.000000D+00
     15  0.354283D+01  0.365040D-04  0.129083D-01  0.000000D+00  0.000000D+00
     16  0.000000D+00  0.000000D+00  0.000000D+00 -0.173786D-01  0.000000D+00
     17  0.000000D+00  0.000000D+00  0.000000D+00  0.000000D+00 -0.173786D-01
     18  0.000000D+00  0.000000D+00  0.000000D+00  0.000000D+00  0.000000D+00
     19  0.000000D+00  0.000000D+00  0.000000D+00  0.000000D+00  0.000000D+00
                6             7             8             9            10 
      6  0.965870D+02
      7 -0.962223D-01  0.261587D+02
      8  0.000000D+00  0.000000D+00  0.260893D+02
      9  0.000000D+00  0.000000D+00  0.000000D+00  0.260893D+02
     10  0.177567D+02 -0.408572D+00  0.000000D+00  0.000000D+00  0.264289D+02
     11 -0.630522D-02  0.672166D+01  0.000000D+00  0.000000D+00 -0.112957D+00
     12  0.000000D+00  0.000000D+00  0.701749D+01  0.000000D+00  0.000000D+00
     13  0.000000D+00  0.000000D+00  0.000000D+00  0.701749D+01  0.000000D+00
     14  0.122882D+01 -0.114130D+00  0.000000D+00  0.000000D+00  0.710513D+01
     15 -0.330039D-01  0.152238D+00  0.000000D+00  0.000000D+00 -0.317712D+00
     16  0.000000D+00  0.000000D+00 -0.142966D+00  0.000000D+00  0.000000D+00
     17  0.000000D+00  0.000000D+00  0.000000D+00 -0.142966D+00  0.000000D+00
     18  0.000000D+00  0.000000D+00  0.000000D+00  0.000000D+00  0.000000D+00
     19  0.000000D+00  0.000000D+00  0.000000D+00  0.000000D+00  0.000000D+00
               11            12            13            14            15 
     11  0.977948D+01
     12  0.000000D+00  0.975946D+01
     13  0.000000D+00  0.000000D+00  0.975946D+01
     14 -0.110444D+00  0.000000D+00  0.000000D+00  0.981789D+01
     15  0.648513D-01  0.000000D+00  0.000000D+00 -0.155909D+00  0.146299D+02
     16  0.000000D+00 -0.888533D-01  0.000000D+00  0.000000D+00  0.000000D+00
     17  0.000000D+00  0.000000D+00 -0.888533D-01  0.000000D+00  0.000000D+00
     18  0.000000D+00  0.000000D+00  0.000000D+00  0.000000D+00  0.000000D+00
     19  0.000000D+00  0.000000D+00  0.000000D+00  0.000000D+00  0.000000D+00
               16            17            18            19 
     16  0.145187D+02
     17  0.000000D+00  0.145187D+02
     18  0.000000D+00  0.000000D+00  0.144413D+02
     19  0.000000D+00  0.000000D+00  0.000000D+00  0.144413D+02
 ****** Core Hamiltonian ****** 
                1             2             3             4             5 
      1 -0.188823D+02
      2 -0.795065D+01 -0.240483D+03
      3 -0.142303D+02 -0.891596D+02 -0.852280D+02
      4  0.000000D+00  0.000000D+00  0.000000D+00 -0.587090D+02
      5  0.000000D+00  0.000000D+00  0.000000D+00  0.000000D+00 -0.587090D+02
      6  0.327319D+01  0.305163D-01  0.185729D+00  0.000000D+00  0.000000D+00
      7 -0.176732D+02 -0.554275D+01 -0.181199D+02  0.000000D+00  0.000000D+00
      8  0.000000D+00  0.000000D+00  0.000000D+00 -0.158229D+02  0.000000D+00
      9  0.000000D+00  0.000000D+00  0.000000D+00  0.000000D+00 -0.158229D+02
     10  0.880781D+01  0.211949D-02  0.924288D-01  0.000000D+00  0.000000D+00
     11 -0.805486D+01  0.933977D-01 -0.703566D+00  0.000000D+00  0.000000D+00
     12  0.000000D+00  0.000000D+00  0.000000D+00 -0.124368D+01  0.000000D+00
     13  0.000000D+00  0.000000D+00  0.000000D+00  0.000000D+00 -0.124368D+01
     14  0.493620D+01  0.108103D-03  0.808287D-02  0.000000D+00  0.000000D+00
     15 -0.311220D+01 -0.365040D-04 -0.129083D-01  0.000000D+00  0.000000D+00
     16  0.000000D+00  0.000000D+00  0.000000D+00  0.173786D-01  0.000000D+00
     17  0.000000D+00  0.000000D+00  0.000000D+00  0.000000D+00  0.173786D-01
     18  0.000000D+00  0.000000D+00  0.000000D+00  0.000000D+00  0.000000D+00
     19  0.000000D+00  0.000000D+00  0.000000D+00  0.000000D+00  0.000000D+00
                6             7             8             9            10 
      6 -0.587796D+02
      7  0.962223D-01 -0.249905D+02
      8  0.000000D+00  0.000000D+00 -0.233386D+02
      9  0.000000D+00  0.000000D+00  0.000000D+00 -0.233386D+02
     10 -0.158820D+02  0.408572D+00  0.000000D+00  0.000000D+00 -0.236782D+02
     11  0.630522D-02 -0.681441D+01  0.000000D+00  0.000000D+00  0.112957D+00
     12  0.000000D+00  0.000000D+00 -0.681816D+01  0.000000D+00  0.000000D+00
     13  0.000000D+00  0.000000D+00  0.000000D+00 -0.681816D+01  0.000000D+00
     14 -0.124977D+01  0.114130D+00  0.000000D+00  0.000000D+00 -0.690581D+01
     15  0.330039D-01 -0.152238D+00  0.000000D+00  0.000000D+00  0.317712D+00
     16  0.000000D+00  0.000000D+00  0.142966D+00  0.000000D+00  0.000000D+00
     17  0.000000D+00  0.000000D+00  0.000000D+00  0.142966D+00  0.000000D+00
     18  0.000000D+00  0.000000D+00  0.000000D+00  0.000000D+00  0.000000D+00
     19  0.000000D+00  0.000000D+00  0.000000D+00  0.000000D+00  0.000000D+00
               11            12            13            14            15 
     11 -0.957204D+01
     12  0.000000D+00 -0.934996D+01
     13  0.000000D+00  0.000000D+00 -0.934996D+01
     14  0.110444D+00  0.000000D+00  0.000000D+00 -0.940839D+01
     15 -0.648513D-01  0.000000D+00  0.000000D+00  0.155909D+00 -0.128295D+02
     16  0.000000D+00  0.888533D-01  0.000000D+00  0.000000D+00  0.000000D+00
     17  0.000000D+00  0.000000D+00  0.888533D-01  0.000000D+00  0.000000D+00
     18  0.000000D+00  0.000000D+00  0.000000D+00  0.000000D+00  0.000000D+00
     19  0.000000D+00  0.000000D+00  0.000000D+00  0.000000D+00  0.000000D+00
               16            17            18            19 
     16 -0.127183D+02
     17  0.000000D+00 -0.127183D+02
     18  0.000000D+00  0.000000D+00 -0.126409D+02
     19  0.000000D+00  0.000000D+00  0.000000D+00 -0.126409D+02
 SVDSVc IOpt=   1 NormSV=T IR=1
 SVDSVc V= 2.44D+00 1.54D+00 1.31D+00 1.02D+00 1.00D+00 9.83D-01 7.22D-01 5.01D-01 4.60D-01 1.91D-02
 SVDSVc IOpt=   1 NormSV=T IR=2
 SVDSVc V= 1.00D+00
 SVDSVc IOpt=   1 NormSV=T IR=3
 SVDSVc V= 1.53D+00 1.00D+00 9.76D-01 4.98D-01
 SVDSVc IOpt=   1 NormSV=T IR=4
 SVDSVc V= 1.53D+00 1.00D+00 9.76D-01 4.98D-01
 TstOVc:  Largest diagonal error= 1.98D-14 IB=1 I=   10.
 TstOVc:  Largest same sym error= 1.15D-15 IB=1 I=   10 J=    2.
 TstOVc:  Largest diff sym error= 0.00D+00 IB=0 JB=0 I=    0 J=    0.
 Orthogonalized basis functions: 
                 1             2             3             4             5 
      1   0.401347D+00 -0.195511D-01 -0.991921D-01  0.809082D-01  0.000000D+00
      2   0.497991D-01  0.192038D+00  0.572113D+00  0.707137D-01  0.000000D+00
      3   0.139139D+00  0.266836D+00  0.498771D+00  0.446562D-02  0.000000D+00
      4   0.000000D+00  0.000000D+00  0.000000D+00  0.000000D+00  0.000000D+00
      5   0.000000D+00  0.000000D+00  0.000000D+00  0.000000D+00  0.000000D+00
      6  -0.584720D-01  0.291229D+00 -0.159571D+00  0.331558D+00  0.000000D+00
      7   0.309965D+00  0.250011D+00 -0.101658D+00 -0.136737D+00  0.000000D+00
      8   0.000000D+00  0.000000D+00  0.000000D+00  0.000000D+00  0.000000D+00
      9   0.000000D+00  0.000000D+00  0.000000D+00  0.000000D+00  0.000000D+00
     10  -0.173769D+00  0.469348D+00 -0.171673D+00  0.499128D-01  0.000000D+00
     11   0.261757D+00  0.166180D+00 -0.304947D+00 -0.166823D+00  0.000000D+00
     12   0.000000D+00  0.000000D+00  0.000000D+00  0.000000D+00  0.000000D+00
     13   0.000000D+00  0.000000D+00  0.000000D+00  0.000000D+00  0.000000D+00
     14  -0.159880D+00  0.380486D+00 -0.110994D+00 -0.170207D+00  0.000000D+00
     15   0.568543D-01 -0.735564D-02 -0.642758D-01  0.884421D+00  0.000000D+00
     16   0.000000D+00  0.000000D+00  0.000000D+00  0.000000D+00  0.000000D+00
     17   0.000000D+00  0.000000D+00  0.000000D+00  0.000000D+00  0.000000D+00
     18   0.000000D+00  0.000000D+00  0.000000D+00  0.000000D+00  0.100000D+01
     19   0.000000D+00  0.000000D+00  0.000000D+00  0.000000D+00  0.000000D+00
                 6             7             8             9            10 
      1   0.340606D-01 -0.147546D-02 -0.813682D-01 -0.117729D+00  0.549816D+01
      2   0.245063D-01  0.710588D+00 -0.593245D-01 -0.541015D+00 -0.572075D-01
      3  -0.109612D-02 -0.504154D+00  0.882023D-01  0.844254D+00 -0.139885D+00
      4   0.000000D+00  0.000000D+00  0.000000D+00  0.000000D+00  0.000000D+00
      5   0.000000D+00  0.000000D+00  0.000000D+00  0.000000D+00  0.000000D+00
      6   0.743932D+00  0.317735D-03 -0.578515D+00  0.744665D-01 -0.253471D+00
      7  -0.514461D-01 -0.441584D+00 -0.210314D-01 -0.795767D+00 -0.325170D+01
      8   0.000000D+00  0.000000D+00  0.000000D+00  0.000000D+00  0.000000D+00
      9   0.000000D+00  0.000000D+00  0.000000D+00  0.000000D+00  0.000000D+00
     10   0.957059D-02 -0.469494D-03  0.971250D+00 -0.154523D+00  0.180088D+01
     11  -0.627339D-01  0.656623D+00  0.116714D+00  0.698110D+00 -0.221346D+01
     12   0.000000D+00  0.000000D+00  0.000000D+00  0.000000D+00  0.000000D+00
     13   0.000000D+00  0.000000D+00  0.000000D+00  0.000000D+00  0.000000D+00
     14  -0.537750D+00 -0.142778D-02 -0.827891D+00  0.273881D-01  0.146333D+01
     15  -0.407777D+00  0.108182D-02  0.332427D-01  0.444889D-01 -0.114294D+01
     16   0.000000D+00  0.000000D+00  0.000000D+00  0.000000D+00  0.000000D+00
     17   0.000000D+00  0.000000D+00  0.000000D+00  0.000000D+00  0.000000D+00
     18   0.000000D+00  0.000000D+00  0.000000D+00  0.000000D+00  0.000000D+00
     19   0.000000D+00  0.000000D+00  0.000000D+00  0.000000D+00  0.000000D+00
                11            12            13            14            15 
      1   0.000000D+00  0.000000D+00  0.000000D+00  0.000000D+00  0.000000D+00
      2   0.000000D+00  0.000000D+00  0.000000D+00  0.000000D+00  0.000000D+00
      3   0.000000D+00  0.000000D+00  0.000000D+00  0.000000D+00  0.000000D+00
      4   0.000000D+00  0.358362D+00  0.000000D+00  0.802807D+00 -0.593005D+00
      5   0.000000D+00  0.000000D+00  0.000000D+00  0.000000D+00  0.000000D+00
      6   0.000000D+00  0.000000D+00  0.000000D+00  0.000000D+00  0.000000D+00
      7   0.000000D+00  0.000000D+00  0.000000D+00  0.000000D+00  0.000000D+00
      8   0.000000D+00  0.565532D+00  0.000000D+00 -0.127423D-01  0.101370D+01
      9   0.000000D+00  0.000000D+00  0.000000D+00  0.000000D+00  0.000000D+00
     10   0.000000D+00  0.000000D+00  0.000000D+00  0.000000D+00  0.000000D+00
     11   0.000000D+00  0.000000D+00  0.000000D+00  0.000000D+00  0.000000D+00
     12   0.000000D+00  0.454909D+00  0.000000D+00 -0.616584D+00 -0.793056D+00
     13   0.000000D+00  0.000000D+00  0.000000D+00  0.000000D+00  0.000000D+00
     14   0.000000D+00  0.000000D+00  0.000000D+00  0.000000D+00  0.000000D+00
     15   0.000000D+00  0.000000D+00  0.000000D+00  0.000000D+00  0.000000D+00
     16   0.000000D+00  0.000000D+00  0.100000D+01  0.000000D+00  0.000000D+00
     17   0.000000D+00  0.000000D+00  0.000000D+00  0.000000D+00  0.000000D+00
     18   0.000000D+00  0.000000D+00  0.000000D+00  0.000000D+00  0.000000D+00
     19   0.100000D+01  0.000000D+00  0.000000D+00  0.000000D+00  0.000000D+00
                16            17            18            19 
      1   0.000000D+00  0.000000D+00  0.000000D+00  0.000000D+00
      2   0.000000D+00  0.000000D+00  0.000000D+00  0.000000D+00
      3   0.000000D+00  0.000000D+00  0.000000D+00  0.000000D+00
      4   0.000000D+00  0.000000D+00  0.000000D+00  0.000000D+00
      5   0.358362D+00  0.000000D+00  0.802807D+00 -0.593005D+00
      6   0.000000D+00  0.000000D+00  0.000000D+00  0.000000D+00
      7   0.000000D+00  0.000000D+00  0.000000D+00  0.000000D+00
      8   0.000000D+00  0.000000D+00  0.000000D+00  0.000000D+00
      9   0.565532D+00  0.000000D+00 -0.127423D-01  0.101370D+01
     10   0.000000D+00  0.000000D+00  0.000000D+00  0.000000D+00
     11   0.000000D+00  0.000000D+00  0.000000D+00  0.000000D+00
     12   0.000000D+00  0.000000D+00  0.000000D+00  0.000000D+00
     13   0.454909D+00  0.000000D+00 -0.616584D+00 -0.793056D+00
     14   0.000000D+00  0.000000D+00  0.000000D+00  0.000000D+00
     15   0.000000D+00  0.000000D+00  0.000000D+00  0.000000D+00
     16   0.000000D+00  0.000000D+00  0.000000D+00  0.000000D+00
     17   0.000000D+00  0.100000D+01  0.000000D+00  0.000000D+00
     18   0.000000D+00  0.000000D+00  0.000000D+00  0.000000D+00
     19   0.000000D+00  0.000000D+00  0.000000D+00  0.000000D+00
 NBasis=    19 RedAO= T EigKep=  1.91D-02  NBF=    10     1     4     4
 NBsUse=    19 1.00D-06 EigRej= -1.00D+00 NBFU=    10     1     4     4
 Leave Link  302 at Fri Mar 25 14:38:27 2022, MaxMem=  9663676416 cpu:               3.9 elap:               0.1
 (Enter /nopt/nrel/apps/gaussian/g16C_1/g16/l303.exe)
 DipDrv will not compute anything.
 Fermi contact integrals: 
                 1             2 
      1   0.628247D+00  0.238254D+00
      2   0.000000D+00  0.454848D+02
      3   0.114603D-01  0.245213D+01
      4   0.000000D+00  0.000000D+00
      5   0.000000D+00  0.000000D+00
      6  -0.289183D-01  0.000000D+00
      7   0.310820D+00  0.115357D+00
      8   0.000000D+00  0.000000D+00
      9   0.000000D+00  0.000000D+00
     10  -0.544084D+00  0.000000D+00
     11   0.582298D-01 -0.521539D-02
     12   0.000000D+00  0.000000D+00
     13   0.000000D+00  0.000000D+00
     14  -0.103106D+00  0.000000D+00
     15   0.381989D+00  0.000000D+00
     16   0.000000D+00  0.000000D+00
     17   0.000000D+00  0.000000D+00
     18   0.000000D+00  0.000000D+00
     19   0.000000D+00  0.000000D+00
 Leave Link  303 at Fri Mar 25 14:38:27 2022, MaxMem=  9663676416 cpu:               1.3 elap:               0.1
 (Enter /nopt/nrel/apps/gaussian/g16C_1/g16/l401.exe)
 ExpMin= 1.16D-01 ExpMax= 1.03D+03 ExpMxC= 1.03D+03 IAcc=3 IRadAn=         5 AccDes= 0.00D+00
 Harris functional with IExCor=  205 and IRadAn=       5 diagonalized for initial guess.
 HarFok:  IExCor=  205 AccDes= 0.00D+00 IRadAn=         5 IDoV= 1 UseB2=F ITyADJ=14
 ICtDFT=  3500011 ScaDFX=  1.000000  1.000000  1.000000  1.000000
 FoFCou: FMM=F IPFlag=           0 FMFlag=      100000 FMFlg1=           0
         NFxFlg=           0 DoJE=T BraDBF=F KetDBF=T FulRan=T
         wScrn=  0.000000 ICntrl=       500 IOpCl=  0 I1Cent=   200000004 NGrid=           0
         NMat0=    1 NMatS0=      1 NMatT0=    0 NMatD0=    1 NMtDS0=    0 NMtDT0=    0
 Petite list used in FoFCou.
 Harris En= -836.003137778548    
 JPrj=0 DoOrth=F DoCkMO=F.
 Initial guess orbital symmetries:
 Alpha Orbitals:
       Occupied  (SG) (SG) (SG) (PI) (PI) (SG) (SG) (PI) (PI) (SG)
                 (SG) (PI) (PI)
       Virtual   (DLTA) (DLTA) (SG) (PI) (PI) (SG)
 Beta  Orbitals:
       Occupied  (SG) (SG) (SG) (PI) (PI) (SG) (SG) (PI) (PI) (SG)
       Virtual   (SG) (PI) (PI) (DLTA) (DLTA) (SG) (PI) (PI) (SG)
 The electronic state of the initial guess is 4-SG.
 Initial guess <Sx>= 0.0000 <Sy>= 0.0000 <Sz>= 1.5000 <S**2>= 3.7500 S= 1.5000
 Leave Link  401 at Fri Mar 25 14:38:27 2022, MaxMem=  9663676416 cpu:               5.1 elap:               0.2
 (Enter /nopt/nrel/apps/gaussian/g16C_1/g16/l502.exe)
 Keep R1 and R2 ints in memory in symmetry-blocked form, NReq=7413390.
 FoFCou: FMM=F IPFlag=           0 FMFlag=           0 FMFlg1=           0
         NFxFlg=           0 DoJE=F BraDBF=F KetDBF=F FulRan=T
         wScrn=  0.000000 ICntrl=       600 IOpCl=  0 I1Cent=           0 NGrid=           0
         NMat0=    1 NMatS0=    190 NMatT0=    0 NMatD0=    1 NMtDS0=    0 NMtDT0=    0
 Petite list used in FoFCou.
 UHF open shell SCF:
 Using DIIS extrapolation, IDIIS=  1040.
 NGot=  9663676416 LenX=  9663662661 LenY=  9663661779
 Requested convergence on RMS density matrix=1.00D-08 within 128 cycles.
 Requested convergence on MAX density matrix=1.00D-06.
 Requested convergence on             energy=1.00D-06.
 No special actions if energy rises.

 Cycle   1  Pass 1  IDiag  1:
 E= -836.627601259521    
 DIIS: error= 6.36D-02 at cycle   1 NSaved=   1.
 NSaved= 1 IEnMin= 1 EnMin= -836.627601259521     IErMin= 1 ErrMin= 6.36D-02
 ErrMax= 6.36D-02  0.00D+00 EMaxC= 1.00D-01 BMatC= 4.05D-01 BMatP= 4.05D-01
 IDIUse=3 WtCom= 3.64D-01 WtEn= 6.36D-01
 Coeff-Com:  0.100D+01
 Coeff-En:   0.100D+01
 Coeff:      0.100D+01
 Gap=     0.494 Goal=   None    Shift=    0.000
 Gap=     0.414 Goal=   None    Shift=    0.000
 GapD=    0.414 DampG=2.000 DampE=0.250 DampFc=0.5000 IDamp=-1.
 Damping current iteration by 5.00D-01
 RMSDP=2.10D-02 MaxDP=1.41D-01              OVMax= 0.00D+00

 Cycle   2  Pass 1  IDiag  1:
 E= -836.646444671696     Delta-E=       -0.018843412175 Rises=F Damp=T
 DIIS: error= 3.13D-02 at cycle   2 NSaved=   2.
 NSaved= 2 IEnMin= 2 EnMin= -836.646444671696     IErMin= 2 ErrMin= 3.13D-02
 ErrMax= 3.13D-02  0.00D+00 EMaxC= 1.00D-01 BMatC= 1.04D-01 BMatP= 4.05D-01
 IDIUse=3 WtCom= 6.87D-01 WtEn= 3.13D-01
 Coeff-Com: -0.101D+01 0.201D+01
 Coeff-En:   0.000D+00 0.100D+01
 Coeff:     -0.693D+00 0.169D+01
 Gap=     0.429 Goal=   None    Shift=    0.000
 Gap=     0.436 Goal=   None    Shift=    0.000
 RMSDP=1.18D-02 MaxDP=7.88D-02 DE=-1.88D-02 OVMax= 0.00D+00

 Cycle   3  Pass 1  IDiag  1:
 E= -836.666782473294     Delta-E=       -0.020337801598 Rises=F Damp=F
 DIIS: error= 3.33D-03 at cycle   3 NSaved=   3.
 NSaved= 3 IEnMin= 3 EnMin= -836.666782473294     IErMin= 3 ErrMin= 3.33D-03
 ErrMax= 3.33D-03  0.00D+00 EMaxC= 1.00D-01 BMatC= 4.03D-04 BMatP= 1.04D-01
 IDIUse=3 WtCom= 9.67D-01 WtEn= 3.33D-02
 Coeff-Com:  0.380D+00-0.766D+00 0.139D+01
 Coeff-En:   0.000D+00 0.000D+00 0.100D+01
 Coeff:      0.367D+00-0.741D+00 0.137D+01
 Gap=     0.430 Goal=   None    Shift=    0.000
 Gap=     0.438 Goal=   None    Shift=    0.000
 RMSDP=2.89D-03 MaxDP=2.25D-02 DE=-2.03D-02 OVMax= 0.00D+00

 Cycle   4  Pass 1  IDiag  1:
 E= -836.667457905449     Delta-E=       -0.000675432154 Rises=F Damp=F
 DIIS: error= 1.87D-03 at cycle   4 NSaved=   4.
 NSaved= 4 IEnMin= 4 EnMin= -836.667457905449     IErMin= 4 ErrMin= 1.87D-03
 ErrMax= 1.87D-03  0.00D+00 EMaxC= 1.00D-01 BMatC= 1.76D-04 BMatP= 4.03D-04
 IDIUse=3 WtCom= 9.81D-01 WtEn= 1.87D-02
 Coeff-Com: -0.332D+00 0.677D+00-0.140D+01 0.205D+01
 Coeff-En:   0.000D+00 0.000D+00 0.000D+00 0.100D+01
 Coeff:     -0.326D+00 0.664D+00-0.137D+01 0.203D+01
 Gap=     0.432 Goal=   None    Shift=    0.000
 Gap=     0.439 Goal=   None    Shift=    0.000
 RMSDP=3.18D-03 MaxDP=2.92D-02 DE=-6.75D-04 OVMax= 0.00D+00

 Cycle   5  Pass 1  IDiag  1:
 E= -836.668110675794     Delta-E=       -0.000652770345 Rises=F Damp=F
 DIIS: error= 1.34D-03 at cycle   5 NSaved=   5.
 NSaved= 5 IEnMin= 5 EnMin= -836.668110675794     IErMin= 5 ErrMin= 1.34D-03
 ErrMax= 1.34D-03  0.00D+00 EMaxC= 1.00D-01 BMatC= 9.13D-05 BMatP= 1.76D-04
 IDIUse=3 WtCom= 9.87D-01 WtEn= 1.34D-02
 Coeff-Com: -0.103D+00 0.203D+00 0.643D-02-0.244D+01 0.334D+01
 Coeff-En:   0.000D+00 0.000D+00 0.000D+00 0.000D+00 0.100D+01
 Coeff:     -0.102D+00 0.201D+00 0.634D-02-0.241D+01 0.330D+01
 Gap=     0.431 Goal=   None    Shift=    0.000
 Gap=     0.439 Goal=   None    Shift=    0.000
 RMSDP=6.81D-03 MaxDP=5.95D-02 DE=-6.53D-04 OVMax= 0.00D+00

 Cycle   6  Pass 1  IDiag  1:
 E= -836.668740633461     Delta-E=       -0.000629957667 Rises=F Damp=F
 DIIS: error= 3.11D-04 at cycle   6 NSaved=   6.
 NSaved= 6 IEnMin= 6 EnMin= -836.668740633461     IErMin= 6 ErrMin= 3.11D-04
 ErrMax= 3.11D-04  0.00D+00 EMaxC= 1.00D-01 BMatC= 5.89D-06 BMatP= 9.13D-05
 IDIUse=3 WtCom= 9.97D-01 WtEn= 3.11D-03
 Coeff-Com: -0.366D-01 0.751D-01-0.161D+00 0.727D+00-0.810D+00 0.121D+01
 Coeff-En:   0.000D+00 0.000D+00 0.000D+00 0.000D+00 0.000D+00 0.100D+01
 Coeff:     -0.365D-01 0.749D-01-0.160D+00 0.724D+00-0.808D+00 0.121D+01
 Gap=     0.431 Goal=   None    Shift=    0.000
 Gap=     0.437 Goal=   None    Shift=    0.000
 RMSDP=3.53D-04 MaxDP=3.13D-03 DE=-6.30D-04 OVMax= 0.00D+00

 Cycle   7  Pass 1  IDiag  1:
 E= -836.668746505994     Delta-E=       -0.000005872533 Rises=F Damp=F
 DIIS: error= 2.07D-04 at cycle   7 NSaved=   7.
 NSaved= 7 IEnMin= 7 EnMin= -836.668746505994     IErMin= 7 ErrMin= 2.07D-04
 ErrMax= 2.07D-04  0.00D+00 EMaxC= 1.00D-01 BMatC= 2.12D-06 BMatP= 5.89D-06
 IDIUse=3 WtCom= 9.98D-01 WtEn= 2.07D-03
 Coeff-Com:  0.307D-01-0.622D-01 0.800D-01-0.107D+00 0.841D-03-0.423D+00
 Coeff-Com:  0.148D+01
 Coeff-En:   0.000D+00 0.000D+00 0.000D+00 0.000D+00 0.000D+00 0.000D+00
 Coeff-En:   0.100D+01
 Coeff:      0.307D-01-0.621D-01 0.798D-01-0.106D+00 0.839D-03-0.422D+00
 Coeff:      0.148D+01
 Gap=     0.431 Goal=   None    Shift=    0.000
 Gap=     0.438 Goal=   None    Shift=    0.000
 RMSDP=4.92D-04 MaxDP=3.42D-03 DE=-5.87D-06 OVMax= 0.00D+00

 Cycle   8  Pass 1  IDiag  1:
 E= -836.668754254271     Delta-E=       -0.000007748277 Rises=F Damp=F
 DIIS: error= 1.16D-04 at cycle   8 NSaved=   8.
 NSaved= 8 IEnMin= 8 EnMin= -836.668754254271     IErMin= 8 ErrMin= 1.16D-04
 ErrMax= 1.16D-04  0.00D+00 EMaxC= 1.00D-01 BMatC= 7.78D-07 BMatP= 2.12D-06
 IDIUse=3 WtCom= 9.99D-01 WtEn= 1.16D-03
 Coeff-Com: -0.271D-01 0.546D-01-0.654D-01-0.112D-01 0.162D+00-0.885D-01
 Coeff-Com: -0.164D+01 0.261D+01
 Coeff-En:   0.000D+00 0.000D+00 0.000D+00 0.000D+00 0.000D+00 0.000D+00
 Coeff-En:   0.000D+00 0.100D+01
 Coeff:     -0.270D-01 0.546D-01-0.653D-01-0.112D-01 0.162D+00-0.884D-01
 Coeff:     -0.164D+01 0.261D+01
 Gap=     0.431 Goal=   None    Shift=    0.000
 Gap=     0.438 Goal=   None    Shift=    0.000
 RMSDP=3.80D-04 MaxDP=3.12D-03 DE=-7.75D-06 OVMax= 0.00D+00

 Cycle   9  Pass 1  IDiag  1:
 E= -836.668757545206     Delta-E=       -0.000003290934 Rises=F Damp=F
 DIIS: error= 1.68D-05 at cycle   9 NSaved=   9.
 NSaved= 9 IEnMin= 9 EnMin= -836.668757545206     IErMin= 9 ErrMin= 1.68D-05
 ErrMax= 1.68D-05  0.00D+00 EMaxC= 1.00D-01 BMatC= 1.86D-08 BMatP= 7.78D-07
 IDIUse=1 WtCom= 1.00D+00 WtEn= 0.00D+00
 Coeff-Com:  0.419D-02-0.843D-02 0.375D-02 0.524D-01-0.912D-01 0.916D-01
 Coeff-Com:  0.295D+00-0.656D+00 0.131D+01
 Coeff:      0.419D-02-0.843D-02 0.375D-02 0.524D-01-0.912D-01 0.916D-01
 Coeff:      0.295D+00-0.656D+00 0.131D+01
 Gap=     0.431 Goal=   None    Shift=    0.000
 Gap=     0.438 Goal=   None    Shift=    0.000
 RMSDP=3.69D-05 MaxDP=3.07D-04 DE=-3.29D-06 OVMax= 0.00D+00

 Cycle  10  Pass 1  IDiag  1:
 E= -836.668757591012     Delta-E=       -0.000000045806 Rises=F Damp=F
 DIIS: error= 7.54D-06 at cycle  10 NSaved=  10.
 NSaved=10 IEnMin=10 EnMin= -836.668757591012     IErMin=10 ErrMin= 7.54D-06
 ErrMax= 7.54D-06  0.00D+00 EMaxC= 1.00D-01 BMatC= 5.31D-09 BMatP= 1.86D-08
 IDIUse=1 WtCom= 1.00D+00 WtEn= 0.00D+00
 Coeff-Com: -0.613D-02 0.124D-01-0.150D-01 0.300D-02 0.301D-01-0.614D-01
 Coeff-Com: -0.350D+00 0.742D+00-0.180D+01 0.245D+01
 Coeff:     -0.613D-02 0.124D-01-0.150D-01 0.300D-02 0.301D-01-0.614D-01
 Coeff:     -0.350D+00 0.742D+00-0.180D+01 0.245D+01
 Gap=     0.431 Goal=   None    Shift=    0.000
 Gap=     0.438 Goal=   None    Shift=    0.000
 RMSDP=2.63D-05 MaxDP=1.76D-04 DE=-4.58D-08 OVMax= 0.00D+00

 Cycle  11  Pass 1  IDiag  1:
 E= -836.668757608798     Delta-E=       -0.000000017786 Rises=F Damp=F
 DIIS: error= 2.56D-06 at cycle  11 NSaved=  11.
 NSaved=11 IEnMin=11 EnMin= -836.668757608798     IErMin=11 ErrMin= 2.56D-06
 ErrMax= 2.56D-06  0.00D+00 EMaxC= 1.00D-01 BMatC= 7.20D-10 BMatP= 5.31D-09
 IDIUse=1 WtCom= 1.00D+00 WtEn= 0.00D+00
 Coeff-Com:  0.172D-03-0.337D-03-0.101D-02 0.105D-01-0.157D-01 0.246D-01
 Coeff-Com:  0.188D-01-0.889D-01 0.383D+00-0.884D+00 0.155D+01
 Coeff:      0.172D-03-0.337D-03-0.101D-02 0.105D-01-0.157D-01 0.246D-01
 Coeff:      0.188D-01-0.889D-01 0.383D+00-0.884D+00 0.155D+01
 Gap=     0.431 Goal=   None    Shift=    0.000
 Gap=     0.438 Goal=   None    Shift=    0.000
 RMSDP=1.05D-05 MaxDP=9.22D-05 DE=-1.78D-08 OVMax= 0.00D+00

 Cycle  12  Pass 1  IDiag  1:
 E= -836.668757611067     Delta-E=       -0.000000002270 Rises=F Damp=F
 DIIS: error= 7.61D-07 at cycle  12 NSaved=  12.
 NSaved=12 IEnMin=12 EnMin= -836.668757611067     IErMin=12 ErrMin= 7.61D-07
 ErrMax= 7.61D-07  0.00D+00 EMaxC= 1.00D-01 BMatC= 5.63D-11 BMatP= 7.20D-10
 IDIUse=1 WtCom= 1.00D+00 WtEn= 0.00D+00
 Coeff-Com: -0.368D-03 0.740D-03-0.273D-03-0.400D-02 0.792D-02-0.170D-01
 Coeff-Com: -0.200D-01 0.770D-01-0.330D+00 0.804D+00-0.158D+01 0.207D+01
 Coeff:     -0.368D-03 0.740D-03-0.273D-03-0.400D-02 0.792D-02-0.170D-01
 Coeff:     -0.200D-01 0.770D-01-0.330D+00 0.804D+00-0.158D+01 0.207D+01
 Gap=     0.431 Goal=   None    Shift=    0.000
 Gap=     0.438 Goal=   None    Shift=    0.000
 RMSDP=2.02D-06 MaxDP=1.72D-05 DE=-2.27D-09 OVMax= 0.00D+00

 Cycle  13  Pass 1  IDiag  1:
 E= -836.668757611212     Delta-E=       -0.000000000144 Rises=F Damp=F
 DIIS: error= 2.65D-07 at cycle  13 NSaved=  13.
 NSaved=13 IEnMin=13 EnMin= -836.668757611212     IErMin=13 ErrMin= 2.65D-07
 ErrMax= 2.65D-07  0.00D+00 EMaxC= 1.00D-01 BMatC= 5.37D-12 BMatP= 5.63D-11
 IDIUse=1 WtCom= 1.00D+00 WtEn= 0.00D+00
 Coeff-Com:  0.379D-04-0.752D-04-0.683D-05 0.557D-03-0.105D-02 0.364D-02
 Coeff-Com: -0.703D-03-0.928D-02 0.718D-01-0.214D+00 0.493D+00-0.101D+01
 Coeff-Com:  0.166D+01
 Coeff:      0.379D-04-0.752D-04-0.683D-05 0.557D-03-0.105D-02 0.364D-02
 Coeff:     -0.703D-03-0.928D-02 0.718D-01-0.214D+00 0.493D+00-0.101D+01
 Coeff:      0.166D+01
 Gap=     0.431 Goal=   None    Shift=    0.000
 Gap=     0.438 Goal=   None    Shift=    0.000
 RMSDP=7.69D-07 MaxDP=6.42D-06 DE=-1.44D-10 OVMax= 0.00D+00

 Cycle  14  Pass 1  IDiag  1:
 E= -836.668757611227     Delta-E=       -0.000000000015 Rises=F Damp=F
 DIIS: error= 6.51D-08 at cycle  14 NSaved=  14.
 NSaved=14 IEnMin=14 EnMin= -836.668757611227     IErMin=14 ErrMin= 6.51D-08
 ErrMax= 6.51D-08  0.00D+00 EMaxC= 1.00D-01 BMatC= 3.52D-13 BMatP= 5.37D-12
 IDIUse=1 WtCom= 1.00D+00 WtEn= 0.00D+00
 Coeff-Com: -0.100D-04 0.200D-04 0.296D-04-0.294D-03 0.510D-03-0.128D-02
 Coeff-Com: -0.527D-03 0.441D-02-0.254D-01 0.737D-01-0.166D+00 0.388D+00
 Coeff-Com: -0.889D+00 0.162D+01
 Coeff:     -0.100D-04 0.200D-04 0.296D-04-0.294D-03 0.510D-03-0.128D-02
 Coeff:     -0.527D-03 0.441D-02-0.254D-01 0.737D-01-0.166D+00 0.388D+00
 Coeff:     -0.889D+00 0.162D+01
 Gap=     0.431 Goal=   None    Shift=    0.000
 Gap=     0.438 Goal=   None    Shift=    0.000
 RMSDP=1.81D-07 MaxDP=1.79D-06 DE=-1.52D-11 OVMax= 0.00D+00

 Cycle  15  Pass 1  IDiag  1:
 E= -836.668757611228     Delta-E=       -0.000000000001 Rises=F Damp=F
 DIIS: error= 9.82D-09 at cycle  15 NSaved=  15.
 NSaved=15 IEnMin=15 EnMin= -836.668757611228     IErMin=15 ErrMin= 9.82D-09
 ErrMax= 9.82D-09  0.00D+00 EMaxC= 1.00D-01 BMatC= 4.64D-15 BMatP= 3.52D-13
 IDIUse=1 WtCom= 1.00D+00 WtEn= 0.00D+00
 Coeff-Com:  0.914D-06-0.179D-05-0.292D-05 0.269D-04-0.466D-04 0.146D-03
 Coeff-Com: -0.495D-04-0.332D-03 0.262D-02-0.850D-02 0.196D-01-0.546D-01
 Coeff-Com:  0.142D+00-0.338D+00 0.124D+01
 Coeff:      0.914D-06-0.179D-05-0.292D-05 0.269D-04-0.466D-04 0.146D-03
 Coeff:     -0.495D-04-0.332D-03 0.262D-02-0.850D-02 0.196D-01-0.546D-01
 Coeff:      0.142D+00-0.338D+00 0.124D+01
 Gap=     0.431 Goal=   None    Shift=    0.000
 Gap=     0.438 Goal=   None    Shift=    0.000
 RMSDP=1.88D-08 MaxDP=2.17D-07 DE=-9.09D-13 OVMax= 0.00D+00

 Cycle  16  Pass 1  IDiag  1:
 E= -836.668757611228     Delta-E=       -0.000000000001 Rises=F Damp=F
 DIIS: error= 5.38D-10 at cycle  16 NSaved=  16.
 NSaved=16 IEnMin=16 EnMin= -836.668757611228     IErMin=16 ErrMin= 5.38D-10
 ErrMax= 5.38D-10  0.00D+00 EMaxC= 1.00D-01 BMatC= 2.76D-17 BMatP= 4.64D-15
 IDIUse=1 WtCom= 1.00D+00 WtEn= 0.00D+00
 Large coefficients: NSaved= 16 BigCof=    0.00 CofMax=   10.00 Det=-1.03D-16
 Inversion failed.  Reducing to 15 matrices.
 Coeff-Com: -0.708D-08 0.387D-06-0.181D-05 0.306D-05-0.132D-04 0.173D-04
 Coeff-Com:  0.817D-05-0.193D-03 0.744D-03-0.172D-02 0.596D-02-0.166D-01
 Coeff-Com:  0.447D-01-0.219D+00 0.119D+01
 Coeff:     -0.708D-08 0.387D-06-0.181D-05 0.306D-05-0.132D-04 0.173D-04
 Coeff:      0.817D-05-0.193D-03 0.744D-03-0.172D-02 0.596D-02-0.166D-01
 Coeff:      0.447D-01-0.219D+00 0.119D+01
 Gap=     0.431 Goal=   None    Shift=    0.000
 Gap=     0.438 Goal=   None    Shift=    0.000
 RMSDP=2.48D-09 MaxDP=2.08D-08 DE=-5.68D-13 OVMax= 0.00D+00

 SCF Done:  E(UHF) =  -836.668757611     A.U. after   16 cycles
            NFock= 16  Conv=0.25D-08     -V/T= 1.9990
 <Sx>= 0.0000 <Sy>= 0.0000 <Sz>= 1.5000 <S**2>= 3.7863 S= 1.5091
 <L.S>= 0.000000000000E+00
 KE= 8.374832377365D+02 PE=-2.020338006893D+03 EE= 3.229022142647D+02
 Annihilation of the first spin contaminant:
 S**2 before annihilation     3.7863,   after     3.7500
 Leave Link  502 at Fri Mar 25 14:38:27 2022, MaxMem=  9663676416 cpu:               6.2 elap:               0.2
 (Enter /nopt/nrel/apps/gaussian/g16C_1/g16/l801.exe)
 Windowed orbitals will be sorted by symmetry type.
 ExpMin= 1.16D-01 ExpMax= 1.03D+03 ExpMxC= 1.03D+03 IAcc=3 IRadAn=         5 AccDes= 0.00D+00
 HarFok:  IExCor=  205 AccDes= 0.00D+00 IRadAn=         5 IDoV=-2 UseB2=F ITyADJ=14
 ICtDFT= 12500011 ScaDFX=  1.000000  1.000000  1.000000  1.000000
 Largest valence mixing into a core orbital is  1.48D-02
 Largest core mixing into a valence orbital is  1.52D-02
 Largest valence mixing into a core orbital is  2.22D-02
 Largest core mixing into a valence orbital is  1.16D-02
 Range of M.O.s used for correlation:    10    19
 NBasis=    19 NAE=    13 NBE=    10 NFC=     9 NFV=     0
 NROrb=     10 NOA=     4 NOB=     1 NVA=     6 NVB=     9
 Leave Link  801 at Fri Mar 25 14:38:27 2022, MaxMem=  9663676416 cpu:               2.6 elap:               0.1
 (Enter /nopt/nrel/apps/gaussian/g16C_1/g16/l804.exe)
 Open-shell transformation, MDV=  9663676416 ITran=4 ISComp=2.
 Unit  1 TFree=         25012 TCopy=        222819.
 Semi-Direct transformation.
 ModeAB=           2 MOrb=             4 LenV=    9663501460
 LASXX=          307 LTotXX=         307 LenRXX=         307
 LTotAB=         523 MaxLAS=        8400 LenRXY=        8400
 NonZer=        9720 LenScr=      785920 LnRSAI=           0
 LnScr1=           0 LExtra=      224069 Total=      1018696
 MaxDsk= 34359738368 SrtSym=           F ITran=            4
 DoSDTr:  NPSUse= 36
 JobTyp=1 Pass  1:  I=   1 to   4.
 (rs|ai) integrals will be sorted in core.
 Complete sort for first half transformation.
 First half transformation complete.
 Complete sort for second half transformation.
 Second half transformation complete.
 ModeAB=           2 MOrb=             1 LenV=    9663501460
 LASXX=          105 LTotXX=         105 LenRXX=        2100
 LTotAB=          65 MaxLAS=        2100 LenRXY=          65
 NonZer=        2430 LenScr=      785920 LnRSAI=           0
 LnScr1=           0 LExtra=      232776 Total=      1020861
 MaxDsk= 34359738368 SrtSym=           F ITran=            4
 DoSDTr:  NPSUse= 36
 JobTyp=2 Pass  1:  I=   1 to   1.
 (rs|ai) integrals will be sorted in core.
 Complete sort for first half transformation.
 First half transformation complete.
 Complete sort for second half transformation.
 Second half transformation complete.
 Spin components of T(2) and E(2):
     alpha-alpha T2 =       0.2035687228D-02 E2=     -0.2436809544D-02
     alpha-beta  T2 =       0.2170336526D-01 E2=     -0.2164523108D-01
     beta-beta   T2 =       0.0000000000D+00 E2=      0.0000000000D+00
 ANorm=    0.1011799907D+01
 E2 =    -0.2408204062D-01 EUMP2 =    -0.83669283965185D+03
 (S**2,0)=  0.37863D+01           (S**2,1)=  0.37815D+01
 E(PUHF)=      -0.83666922827D+03        E(PMP2)=      -0.83669327935D+03
 Leave Link  804 at Fri Mar 25 14:38:27 2022, MaxMem=  9663676416 cpu:               3.0 elap:               0.1
 (Enter /nopt/nrel/apps/gaussian/g16C_1/g16/l913.exe)
 CIDS:  MDV=  9663676416.
 Frozen-core window:  NFC=   9 NFV=   0.
 IFCWin=0 IBDFC=1 NFBD=     0     0 NFCmp=     0     0 NFFFC=     0     0
 Using original routines for 1st iteration.
 Using DD4UQ or CC4UQ for 2nd and later iterations.
 Keep R2 and R3 ints in memory in symmetry-blocked form, NReq=7415848.
 FoFCou: FMM=F IPFlag=           0 FMFlag=           0 FMFlg1=           0
         NFxFlg=           0 DoJE=F BraDBF=F KetDBF=F FulRan=T
         wScrn=  0.000000 ICntrl=       600 IOpCl=  0 I1Cent=           0 NGrid=           0
         NMat0=    1 NMatS0=    190 NMatT0=    0 NMatD0=    1 NMtDS0=    0 NMtDT0=    0
 Petite list used in FoFCou.
 CIDS: In Core Option IDoMem=           1.
 Coupled Cluster theory with single and double substitutions
 ===========================================================
 Iterations=  50 Convergence= 0.100D-06
 Produce multiple copies of IABC intergrals
 Iteration Nr.   1
 **********************
 DD1Dir will call FoFMem   1 times, MxPair=        14
 NAB=     4 NAA=     6 NBB=     0.
 E(PMP3)=      -0.83670461504D+03
 MP4(R+Q)=  0.52811629D-03
 Maximum subspace dimension=  5
 A-vector RMS=  1.7350702D-02 Max=  3.0943536D-02 conv= 1.00D-05.
 RLE energy=       -0.0438907391
 E3=       -0.11394211D-01        EUMP3=      -0.83670423386D+03
 E4(DQ)=   -0.53356645D-02        UMP4(DQ)=   -0.83670956953D+03
 E4(SDQ)=  -0.56582694D-02        UMP4(SDQ)=  -0.83670989213D+03
 VARIATIONAL ENERGIES WITH THE FIRST-ORDER WAVEFUNCTION:
 DE(Corr)= -0.34950709E-01 E(Corr)=     -836.70370832    
 NORM(A)=   0.10413001D+01
 Iteration Nr.   2
 **********************
 DD1Dir will call FoFMem   1 times, MxPair=        14
 NAB=     4 NAA=     6 NBB=     0.
 A-vector RMS=  1.4290932D-02 Max=  2.2997542D-02 conv= 1.00D-05.
 RLE energy=       -0.0464516361
 DE(Corr)= -0.44539877E-01 E(CORR)=     -836.71329749     Delta=-9.59D-03
 NORM(A)=   0.10540880D+01
 Iteration Nr.   3
 **********************
 DD1Dir will call FoFMem   1 times, MxPair=        14
 NAB=     4 NAA=     6 NBB=     0.
 A-vector RMS=  6.9032114D-03 Max=  1.2072803D-02 conv= 1.00D-05.
 RLE energy=       -0.0510518724
 DE(Corr)= -0.47258481E-01 E(CORR)=     -836.71601609     Delta=-2.72D-03
 NORM(A)=   0.10740964D+01
 Iteration Nr.   4
 **********************
 DD1Dir will call FoFMem   1 times, MxPair=        14
 NAB=     4 NAA=     6 NBB=     0.
 A-vector RMS=  2.1405865D-03 Max=  2.6374488D-03 conv= 1.00D-05.
 RLE energy=       -0.0480873936
 DE(Corr)= -0.50187869E-01 E(CORR)=     -836.71894548     Delta=-2.93D-03
 NORM(A)=   0.10672969D+01
 Iteration Nr.   5
 **********************
 DD1Dir will call FoFMem   1 times, MxPair=        14
 NAB=     4 NAA=     6 NBB=     0.
 A-vector RMS=  1.2472396D-03 Max=  2.3921398D-03 conv= 1.00D-05.
 RLE energy=       -0.0510845748
 DE(Corr)= -0.48824828E-01 E(CORR)=     -836.71758244     Delta= 1.36D-03
 NORM(A)=   0.10787716D+01
 Iteration Nr.   6
 **********************
 DD1Dir will call FoFMem   1 times, MxPair=        14
 NAB=     4 NAA=     6 NBB=     0.
 A-vector RMS=  1.4299699D-03 Max=  2.3927605D-03 conv= 1.00D-05.
 RLE energy=       -0.0489500884
 DE(Corr)= -0.50468113E-01 E(CORR)=     -836.71922572     Delta=-1.64D-03
 NORM(A)=   0.10700329D+01
 Iteration Nr.   7
 **********************
 DD1Dir will call FoFMem   1 times, MxPair=        14
 NAB=     4 NAA=     6 NBB=     0.
 A-vector RMS=  8.1809617D-04 Max=  1.0618249D-03 conv= 1.00D-05.
 RLE energy=       -0.0495956557
 DE(Corr)= -0.49240805E-01 E(CORR)=     -836.71799842     Delta= 1.23D-03
 NORM(A)=   0.10729258D+01
 Iteration Nr.   8
 **********************
 DD1Dir will call FoFMem   1 times, MxPair=        14
 NAB=     4 NAA=     6 NBB=     0.
 A-vector RMS=  1.4243972D-04 Max=  2.7764244D-04 conv= 1.00D-05.
 RLE energy=       -0.0497788164
 DE(Corr)= -0.49641436E-01 E(CORR)=     -836.71839905     Delta=-4.01D-04
 NORM(A)=   0.10737469D+01
 Iteration Nr.   9
 **********************
 DD1Dir will call FoFMem   1 times, MxPair=        14
 NAB=     4 NAA=     6 NBB=     0.
 A-vector RMS=  1.0359222D-04 Max=  1.7951981D-04 conv= 1.00D-05.
 RLE energy=       -0.0497090343
 DE(Corr)= -0.49755292E-01 E(CORR)=     -836.71851290     Delta=-1.14D-04
 NORM(A)=   0.10734117D+01
 Iteration Nr.  10
 **********************
 DD1Dir will call FoFMem   1 times, MxPair=        14
 NAB=     4 NAA=     6 NBB=     0.
 A-vector RMS=  3.6154897D-05 Max=  4.6189098D-05 conv= 1.00D-05.
 RLE energy=       -0.0497125591
 DE(Corr)= -0.49711424E-01 E(CORR)=     -836.71846904     Delta= 4.39D-05
 NORM(A)=   0.10734192D+01
 Iteration Nr.  11
 **********************
 DD1Dir will call FoFMem   1 times, MxPair=        14
 NAB=     4 NAA=     6 NBB=     0.
 A-vector RMS=  2.1555846D-05 Max=  3.5933975D-05 conv= 1.00D-05.
 RLE energy=       -0.0497142133
 DE(Corr)= -0.49713321E-01 E(CORR)=     -836.71847093     Delta=-1.90D-06
 NORM(A)=   0.10734200D+01
 Iteration Nr.  12
 **********************
 DD1Dir will call FoFMem   1 times, MxPair=        14
 NAB=     4 NAA=     6 NBB=     0.
 A-vector RMS=  9.4451785D-06 Max=  1.8474592D-05 conv= 1.00D-05.
 RLE energy=       -0.0497145857
 DE(Corr)= -0.49714442E-01 E(CORR)=     -836.71847205     Delta=-1.12D-06
 NORM(A)=   0.10734177D+01
 Iteration Nr.  13
 **********************
 DD1Dir will call FoFMem   1 times, MxPair=        14
 NAB=     4 NAA=     6 NBB=     0.
 A-vector RMS=  5.0449790D-06 Max=  9.1018303D-06 conv= 1.00D-05.
 RLE energy=       -0.0497142734
 DE(Corr)= -0.49714586E-01 E(CORR)=     -836.71847220     Delta=-1.44D-07
 NORM(A)=   0.10734144D+01
 Iteration Nr.  14
 **********************
 DD1Dir will call FoFMem   1 times, MxPair=        14
 NAB=     4 NAA=     6 NBB=     0.
 A-vector RMS=  1.0470594D-06 Max=  3.0725533D-06 conv= 1.00D-05.
 RLE energy=       -0.0497146648
 DE(Corr)= -0.49714395E-01 E(CORR)=     -836.71847201     Delta= 1.91D-07
 NORM(A)=   0.10734161D+01
 Iteration Nr.  15
 **********************
 DD1Dir will call FoFMem   1 times, MxPair=        14
 NAB=     4 NAA=     6 NBB=     0.
 A-vector RMS=  8.5225716D-07 Max=  1.7634340D-06 conv= 1.00D-05.
 RLE energy=       -0.0497144945
 DE(Corr)= -0.49714623E-01 E(CORR)=     -836.71847223     Delta=-2.28D-07
 NORM(A)=   0.10734155D+01
 Iteration Nr.  16
 **********************
 DD1Dir will call FoFMem   1 times, MxPair=        14
 NAB=     4 NAA=     6 NBB=     0.
 A-vector RMS=  6.5079169D-07 Max=  8.6116513D-07 conv= 1.00D-05.
 RLE energy=       -0.0497145603
 DE(Corr)= -0.49714537E-01 E(CORR)=     -836.71847215     Delta= 8.56D-08
 NORM(A)=   0.10734149D+01
 CI/CC converged in   16 iterations to DelEn= 8.56D-08 Conv= 1.00D-07 ErrA1= 6.51D-07 Conv= 1.00D-05
 Wavefunction amplitudes converged. E(Corr)=     -836.71847215    
 Dominant configurations:
 ***********************
 Spin Case        I    J    A    B          Value
    BB           10        11            0.144576D+00
   AAAA          13   12   18   17      -0.120036D+00
   ABAB          11   10   16   13      -0.132043D+00
   ABAB          11   10   15   12      -0.132043D+00
   ABAB          13   10   14   13      -0.105414D+00
   ABAB          12   10   14   12      -0.105414D+00
 Largest amplitude= 1.45D-01

 S**2, projected HF & approx projected MPn energies after annihilation of
 unwanted spin states (see manual for definitions):

 spins       (S**2,0) (S**2,1)    PUHF        PMP2        PMP3        PMP4
 annihilated
 s+1         3.74999  3.74999 -836.669228 -836.693279 -836.704615

 Discarding MO integrals.
 Leave Link  913 at Fri Mar 25 14:38:28 2022, MaxMem=  9663676416 cpu:               7.9 elap:               0.3
 (Enter /nopt/nrel/apps/gaussian/g16C_1/g16/l601.exe)
 Copying SCF densities to generalized density rwf, IOpCl= 1 IROHF=0.

 **********************************************************************

            Population analysis using the SCF Density.

 **********************************************************************

 Orbital symmetries:
 Alpha Orbitals:
       Occupied  (SG) (SG) (SG) (PI) (PI) (SG) (SG) (PI) (PI) (SG)
                 (SG) (PI) (PI)
       Virtual   (SG) (PI) (PI) (DLTA) (DLTA) (SG)
 Beta  Orbitals:
       Occupied  (SG) (SG) (SG) (PI) (PI) (SG) (SG) (PI) (PI) (SG)
       Virtual   (SG) (PI) (PI) (DLTA) (DLTA) (SG) (PI) (PI) (SG)
 The electronic state is 4-SG.
 Alpha  occ. eigenvalues -- -181.91998 -21.68432 -18.28916 -18.23962 -18.23962
 Alpha  occ. eigenvalues --   -3.35974  -2.34942  -2.07188  -2.07188  -0.32835
 Alpha  occ. eigenvalues --   -0.22519  -0.21976  -0.21976
 Alpha virt. eigenvalues --    0.21158   0.26076   0.26076   0.28649   0.28649
 Alpha virt. eigenvalues --    2.02998
  Beta  occ. eigenvalues -- -181.91903 -21.67773 -18.28368 -18.23625 -18.23625
  Beta  occ. eigenvalues --   -3.23566  -2.14331  -1.96219  -1.96219  -0.17537
  Beta virt. eigenvalues --    0.26256   0.30164   0.30164   0.34335   0.34335
  Beta virt. eigenvalues --    0.34986   0.36036   0.36036   2.14776
          Condensed to atoms (all electrons):
               1          2
     1  H    0.947901  -0.925557
     2  Ti  -0.925557  23.903213
          Atomic-Atomic Spin Densities.
               1          2
     1  H    0.491580  -0.264083
     2  Ti  -0.264083   3.036586
 Mulliken charges and spin densities:
               1          2
     1  H    0.977656   0.227497
     2  Ti  -0.977656   2.772503
 Sum of Mulliken charges =  -0.00000   3.00000
 Mulliken charges and spin densities with hydrogens summed into heavy atoms:
               1          2
     2  Ti  -0.000000   3.000000
 N-N= 2.328379728048D+01 E-N=-2.020338006829D+03  KE= 8.374832377365D+02
 Symmetry A1   KE= 6.601680602656D+02
 Symmetry A2   KE= 5.619535776879D-50
 Symmetry B1   KE= 8.865758873549D+01
 Symmetry B2   KE= 8.865758873549D+01
 Symmetry A1   SP= 1.000000000000D+00
 Symmetry A2   SP= 9.358333454852D-50
 Symmetry B1   SP= 1.000000000000D+00
 Symmetry B2   SP= 1.000000000000D+00

 Atomic contributions to Alpha molecular orbitals:
 Alpha occ 1 OE=-181.920 is Ti2-s=0.9998
 Alpha occ 2 OE=-21.684 is Ti2-s=1.0166
 Alpha occ 3 OE=-18.289 is Ti2-p=1.0002
 Alpha occ 4 OE=-18.240 is Ti2-p=1.0000
 Alpha occ 5 OE=-18.240 is Ti2-p=1.0000
 Alpha occ 6 OE=-3.360 is Ti2-s=0.8682 Ti2-p=0.1034
 Alpha occ 7 OE=-2.349 is Ti2-p=0.7505 Ti2-s=0.1863
 Alpha occ 8 OE=-2.072 is Ti2-p=0.9979
 Alpha occ 9 OE=-2.072 is Ti2-p=0.9979
 Alpha occ 10 OE=-0.328 is Ti2-d=0.7523 H1-s=0.1660
 Alpha occ 11 OE=-0.225 is Ti2-s=0.9278 Ti2-p=0.1450 H1-s=-0.1035
 Alpha occ 12 OE=-0.220 is Ti2-d=0.9979
 Alpha occ 13 OE=-0.220 is Ti2-d=0.9979
 Alpha vir 14 OE=0.212 is Ti2-p=0.8838
 Alpha vir 15 OE=0.261 is Ti2-p=1.0000
 Alpha vir 16 OE=0.261 is Ti2-p=1.0000
 Alpha vir 17 OE=0.286 is Ti2-d=1.0000
 Alpha vir 18 OE=0.286 is Ti2-d=1.0000
 Alpha vir 19 OE=2.030 is H1-s=0.8811 Ti2-d=0.1792 Ti2-s=-0.1042

 Atomic contributions to Beta  molecular orbitals:
 Beta  occ 1 OE=-181.919 is Ti2-s=0.9998
 Beta  occ 2 OE=-21.678 is Ti2-s=1.0167
 Beta  occ 3 OE=-18.284 is Ti2-p=1.0003
 Beta  occ 4 OE=-18.236 is Ti2-p=1.0000
 Beta  occ 5 OE=-18.236 is Ti2-p=1.0000
 Beta  occ 6 OE=-3.236 is Ti2-s=0.9033
 Beta  occ 7 OE=-2.143 is Ti2-p=0.7826 Ti2-s=0.1594
 Beta  occ 8 OE=-1.962 is Ti2-p=0.9975
 Beta  occ 9 OE=-1.962 is Ti2-p=0.9975
 Beta  occ 10 OE=-0.175 is Ti2-s=0.9023 Ti2-d=0.1571 H1-s=-0.1278
 Beta  vir 11 OE=0.263 is Ti2-d=0.6260 H1-s=0.1450 Ti2-s=0.1381
 Beta  vir 12 OE=0.302 is Ti2-p=0.9925
 Beta  vir 13 OE=0.302 is Ti2-p=0.9925
 Beta  vir 14 OE=0.343 is Ti2-d=1.0000
 Beta  vir 15 OE=0.343 is Ti2-d=1.0000
 Beta  vir 16 OE=0.350 is Ti2-p=0.9739
 Beta  vir 17 OE=0.360 is Ti2-d=0.9900
 Beta  vir 18 OE=0.360 is Ti2-d=0.9900
 Beta  vir 19 OE=2.148 is H1-s=1.0050 Ti2-d=0.1331 Ti2-s=-0.1219
 
 Leave Link  601 at Fri Mar 25 14:38:28 2022, MaxMem=  9663676416 cpu:               0.8 elap:               0.0
 (Enter /nopt/nrel/apps/gaussian/g16C_1/g16/l9999.exe)

 Test job not archived.
 1\1\GINC-R3I7N35\SP\UCCSD-FC\Gen\H1Ti1(4)\USER\25-Mar-2022\0\\#P C
 CSD/GEN sp pop=AllOrbitals iop(3/33=1,3/36=-1)\\test\\0,4\H,0,0.,0.,0.
 \Ti,0,0.,0.,0.5\\Version=ES64L-G16RevC.01\State=4-SG\HF=-836.6687576\M
 P2=-836.6928397\MP3=-836.7042339\MP4D=-836.7100976\MP4DQ=-836.7095695\
 PUHF=-836.6692283\PMP2-0=-836.6932793\PMP3-0=-836.704615\MP4SDQ=-836.7
 098921\CCSD=-836.7184721\S2=3.786306\S2-1=3.781527\S2A=3.750015\RMSD=2
 .482e-09\PG=C*V [C*(H1Ti1)]\\@


 You never know when you're making a memory.
                        -- Rickie Lee Jones
 Job cpu time:       0 days  0 hours  0 minutes 40.4 seconds.
 Elapsed time:       0 days  0 hours  0 minutes  1.5 seconds.
 File lengths (MBytes):  RWF=     13 Int=      0 D2E=      0 Chk=      1 Scr=      1
 Normal termination of Gaussian 16 at Fri Mar 25 14:38:28 2022.
