 Entering Gaussian System, Link 0=g16
 Initial command:
 /nopt/nrel/apps/gaussian/g16C_1/g16/l1.exe "/lustre/eaglefs/scratch/user/qc/lih-dissc/lih-3-ccsd-1.5-ccd/Gau-25615.inp" -scrdir="/lustre/eaglefs/scratch/user/qc/lih-dissc/lih-3-ccsd-1.5-ccd/"
 Default is to use a total of  36 processors:
                               36 via shared-memory
                                1 via Linda
 Entering Link 1 = /nopt/nrel/apps/gaussian/g16C_1/g16/l1.exe PID=     25616.
  
 Copyright (c) 1988-2019, Gaussian, Inc.  All Rights Reserved.
  
 This is part of the Gaussian(R) 16 program.  It is based on
 the Gaussian(R) 09 system (copyright 2009, Gaussian, Inc.),
 the Gaussian(R) 03 system (copyright 2003, Gaussian, Inc.),
 the Gaussian(R) 98 system (copyright 1998, Gaussian, Inc.),
 the Gaussian(R) 94 system (copyright 1995, Gaussian, Inc.),
 the Gaussian 92(TM) system (copyright 1992, Gaussian, Inc.),
 the Gaussian 90(TM) system (copyright 1990, Gaussian, Inc.),
 the Gaussian 88(TM) system (copyright 1988, Gaussian, Inc.),
 the Gaussian 86(TM) system (copyright 1986, Carnegie Mellon
 University), and the Gaussian 82(TM) system (copyright 1983,
 Carnegie Mellon University). Gaussian is a federally registered
 trademark of Gaussian, Inc.
  
 This software contains proprietary and confidential information,
 including trade secrets, belonging to Gaussian, Inc.
  
 This software is provided under written license and may be
 used, copied, transmitted, or stored only in accord with that
 written license.
  
 The following legend is applicable only to US Government
 contracts under FAR:
  
                    RESTRICTED RIGHTS LEGEND
  
 Use, reproduction and disclosure by the US Government is
 subject to restrictions as set forth in subparagraphs (a)
 and (c) of the Commercial Computer Software - Restricted
 Rights clause in FAR 52.227-19.
  
 Gaussian, Inc.
 340 Quinnipiac St., Bldg. 40, Wallingford CT 06492
  
  
 ---------------------------------------------------------------
 Warning -- This program may not be used in any manner that
 competes with the business of Gaussian, Inc. or will provide
 assistance to any competitor of Gaussian, Inc.  The licensee
 of this program is prohibited from giving any competitor of
 Gaussian, Inc. access to this program.  By using this program,
 the user acknowledges that Gaussian, Inc. is engaged in the
 business of creating and licensing software in the field of
 computational chemistry and represents and warrants to the
 licensee that it is not a competitor of Gaussian, Inc. and that
 it will not use this program in any manner prohibited above.
 ---------------------------------------------------------------
  

 Cite this work as:
 Gaussian 16, Revision C.01,
 M. J. Frisch, G. W. Trucks, H. B. Schlegel, G. E. Scuseria, 
 M. A. Robb, J. R. Cheeseman, G. Scalmani, V. Barone, 
 G. A. Petersson, H. Nakatsuji, X. Li, M. Caricato, A. V. Marenich, 
 J. Bloino, B. G. Janesko, R. Gomperts, B. Mennucci, H. P. Hratchian, 
 J. V. Ortiz, A. F. Izmaylov, J. L. Sonnenberg, D. Williams-Young, 
 F. Ding, F. Lipparini, F. Egidi, J. Goings, B. Peng, A. Petrone, 
 T. Henderson, D. Ranasinghe, V. G. Zakrzewski, J. Gao, N. Rega, 
 G. Zheng, W. Liang, M. Hada, M. Ehara, K. Toyota, R. Fukuda, 
 J. Hasegawa, M. Ishida, T. Nakajima, Y. Honda, O. Kitao, H. Nakai, 
 T. Vreven, K. Throssell, J. A. Montgomery, Jr., J. E. Peralta, 
 F. Ogliaro, M. J. Bearpark, J. J. Heyd, E. N. Brothers, K. N. Kudin, 
 V. N. Staroverov, T. A. Keith, R. Kobayashi, J. Normand, 
 K. Raghavachari, A. P. Rendell, J. C. Burant, S. S. Iyengar, 
 J. Tomasi, M. Cossi, J. M. Millam, M. Klene, C. Adamo, R. Cammi, 
 J. W. Ochterski, R. L. Martin, K. Morokuma, O. Farkas, 
 J. B. Foresman, and D. J. Fox, Gaussian, Inc., Wallingford CT, 2019.
 
 ******************************************
 Gaussian 16:  ES64L-G16RevC.01  3-Jul-2019
                28-Mar-2022 
 ******************************************
 %chk=molecule
 Default route: CacheSize=180224 MaxDisk=256GB
 ----------------------------------------------------------------------
 #P CCSD(MaxCyc=200,SaveAmplitudes,ReadAmplitudes)/GEN sp pop=AllOrbita
 ls iop(3/33=1,3/36=-1)
 ----------------------------------------------------------------------
 1/4=180224,38=1,172=1/1;
 2/4=180224,12=2,17=6,18=5,40=1/2;
 3/4=180224,5=7,11=9,25=1,30=1,33=1,36=-1/1,2,3;
 4/4=180224/1;
 5/4=180224,5=2,38=5/2;
 8/4=180224,6=4,9=120000,10=1,24=1/1,4;
 9/4=180224,5=7,6=200,77=1/13;
 6/4=180224,7=2,8=2,9=2,10=2,96=-1/1;
 99/4=180224,5=1,9=1/99;
 Leave Link    1 at Mon Mar 28 14:06:27 2022, MaxMem=           0 cpu:               2.4 elap:               0.1
 (Enter /nopt/nrel/apps/gaussian/g16C_1/g16/l101.exe)
 ----
 test
 ----
 Symbolic Z-matrix:
 Charge =  0 Multiplicity = 3
 H                     0.        0.        0. 
 Li                    0.        0.        1.5 
 
 ITRead=  0  0
 MicOpt= -1 -1
 NAtoms=      2 NQM=        2 NQMF=       0 NMMI=      0 NMMIF=      0
                NMic=       0 NMicF=      0.
                    Isotopes and Nuclear Properties:
 (Nuclear quadrupole moments (NQMom) in fm**2, nuclear magnetic moments (NMagM)
  in nuclear magnetons)

  Atom         1           2
 IAtWgt=           1           7
 AtmWgt=   1.0078250   7.0160045
 NucSpn=           1           3
 AtZEff=  -0.0000000  -0.0000000
 NQMom=    0.0000000  -4.0100000
 NMagM=    2.7928460   3.2564240
 AtZNuc=   1.0000000   3.0000000
 Leave Link  101 at Mon Mar 28 14:06:28 2022, MaxMem=  9663676416 cpu:               3.0 elap:               0.1
 (Enter /nopt/nrel/apps/gaussian/g16C_1/g16/l202.exe)
                          Input orientation:                          
 ---------------------------------------------------------------------
 Center     Atomic      Atomic             Coordinates (Angstroms)
 Number     Number       Type             X           Y           Z
 ---------------------------------------------------------------------
      1          1           0        0.000000    0.000000    0.000000
      2          3           0        0.000000    0.000000    1.500000
 ---------------------------------------------------------------------
 Stoichiometry    HLi(3)
 Framework group  C*V[C*(HLi)]
 Deg. of freedom     1
 Full point group                 C*V     NOp   4
 Largest Abelian subgroup         C2V     NOp   4
 Largest concise Abelian subgroup C1      NOp   1
                         Standard orientation:                         
 ---------------------------------------------------------------------
 Center     Atomic      Atomic             Coordinates (Angstroms)
 Number     Number       Type             X           Y           Z
 ---------------------------------------------------------------------
      1          1           0        0.000000    0.000000   -1.125000
      2          3           0        0.000000    0.000000    0.375000
 ---------------------------------------------------------------------
 Rotational constants (GHZ):           0.0000000         254.8832952         254.8832952
 Leave Link  202 at Mon Mar 28 14:06:28 2022, MaxMem=  9663676416 cpu:               1.3 elap:               0.1
 (Enter /nopt/nrel/apps/gaussian/g16C_1/g16/l301.exe)
 General basis read from cards:  (5D, 7F)
                         Coordinates in L301:                         
 ---------------------------------------------------------------------
 Center     Atomic      Atomic             Coordinates (Angstroms)
 Number     Number       Type             X           Y           Z
 ---------------------------------------------------------------------
      1          1           0        0.000000    0.000000   -1.125000
      2          3           0        0.000000    0.000000    0.375000
 ---------------------------------------------------------------------
 Centers:       1
 STO-3G
 ****
 Centers:       2
 cc-pVDZ
 ****
 FixB: optimizing general contractions.
 Ernie: Thresh=  0.10000D-02 Tol=  0.10000D-05 Strict=F.
 IA=     1 ShT= 0 ShC= 0 NL=   1 NS=   0.
 IA=     1 L=0 SC=0 ISt=    0 NBk=    0 NP=    0 IndPr=    0.
 IA=     2 ShT= 0 ShC= 0 NL=   3 NS=   1.
 IA=     2 L=0 SC=0 ISt=    1 NBk=    2 NP=    8 IndPr=    0.
 DoElim1:  L=0 select primitive    2 from    2 using    1 C= 5.89D-03
 DoElim2:  L=0 select primitive    8 from    1 using    2 C= 5.77D-01
 Delete L=0 primitive    2 from    2 C=  2.10D-22.
 Delete L=0 primitive    1 from    2 C=  3.73D-09.
 Delete L=0 primitive    8 from    1 C=  8.70D-19.
 IA=     2 L=0 SC=0 ISt=    0 NBk=    0 NP=    0 IndPr=   13.
 IA=     2 ShT= 1 ShC= 1 NL=   2 NS=   1.
 IA=     2 L=1 SC=1 ISt=    0 NBk=    0 NP=    0 IndPr=    0.
 IA=     2 ShT= 2 ShC= 2 NL=   1 NS=   1.
 IA=     2 L=2 SC=2 ISt=    0 NBk=    0 NP=    0 IndPr=    0.
 Ernie:  3 primitive shells out of 25 were deleted.
 LdAtmC:  AtmChg=     1.000000     3.000000
 AtZEff=     -1.0000000     -1.3500000
 NEqShl: 
              1            2            3            4
     1            1            1            1            1
     2            2            2            2            2
     3            3            3            3            3
     4            4            4            4            4
     5            5            5            5            5
     6            6            6            6            6
     7            7            7            7            7
 NEqBas: 
              1            2            3            4
     1            1            1            1            1
     2            2            2            2            2
     3            3            3            3            3
     4            4            4            4            4
     5            5           -5           -5            5
     6            6           -6            6           -6
     7            7            7            7            7
     8            8           -8           -8            8
     9            9           -9            9           -9
    10           10           10           10           10
    11           11           11           11           11
    12           12           12           12           12
    13           13           13           13           13
    14           14           14          -14          -14
    15           15          -15          -15           15
    16           16          -16           16          -16
 There are     9 symmetry adapted cartesian basis functions of A1  symmetry.
   1         1   1   1   1
   2         2   2   2   2
   3         3   3   3   3
   4         4   4   4   4
   5         7   7   7   7
   6        10  10  10  10
   7        11  11  11  11
   8        12  12  12  12
   9        13  13  13  13
 There are     1 symmetry adapted cartesian basis functions of A2  symmetry.
  10        14  14  14  14
 There are     3 symmetry adapted cartesian basis functions of B1  symmetry.
  11         5   5   5   5
  12         8   8   8   8
  13        15  15  15  15
 There are     3 symmetry adapted cartesian basis functions of B2  symmetry.
  14         6   6   6   6
  15         9   9   9   9
  16        16  16  16  16
 Order= 1 2 4 3
 Reordered character table:
              1            2            3            4            5
     1            1            1            1            1            1
     2            2            1            1           -1           -1
     3            4            1           -1           -1            1
     4            3            1           -1            1           -1
 NEqShl: 
              1            2            3            4
     1            1            1            1            1
     2            2            2            2            2
     3            3            3            3            3
     4            4            4            4            4
     5            5            5            5            5
     6            6            6            6            6
     7            7            7            7            7
 NEqBas: 
              1            2            3            4
     1            1            1            1            1
     2            2            2            2            2
     3            3            3            3            3
     4            4            4            4            4
     5            5           -5           -5            5
     6            6           -6            6           -6
     7            7            7            7            7
     8            8           -8           -8            8
     9            9           -9            9           -9
    10           10           10           10           10
    11           11           11           11           11
    12           12          -12          -12           12
    13           13          -13           13          -13
    14           14           14           14           14
    15           15           15          -15          -15
 There are     8 symmetry adapted basis functions of A1  symmetry.
   1         1   1   1   1
   2         2   2   2   2
   3         3   3   3   3
   4         4   4   4   4
   5         7   7   7   7
   6        10  10  10  10
   7        11  11  11  11
   8        14  14  14  14
 There are     1 symmetry adapted basis functions of A2  symmetry.
   9        15  15  15  15
 There are     3 symmetry adapted basis functions of B1  symmetry.
  10         5   5   5   5
  11         8   8   8   8
  12        12  12  12  12
 There are     3 symmetry adapted basis functions of B2  symmetry.
  13         6   6   6   6
  14         9   9   9   9
  15        13  13  13  13
 Order= 1 2 4 3
 Reordered character table:
              1            2            3            4            5
     1            1            1            1            1            1
     2            2            1            1           -1           -1
     3            4            1           -1           -1            1
     4            3            1           -1            1           -1
    15 basis functions,    35 primitive gaussians,    16 cartesian basis functions
     3 alpha electrons        1 beta electrons
       nuclear repulsion energy         1.0583544218 Hartrees.
 IS=     1 IAt=     1 ISR=     1 T=0 IP=      1 IndIP=      1 IndIPD=      0 C=  2.769344D-01  0.000000D+00                             NZ=T
 IS=     1 IAt=     1 ISR=     1 T=0 IP=      2 IndIP=      2 IndIPD=      1 C=  2.678389D-01  0.000000D+00                             NZ=T
 IS=     1 IAt=     1 ISR=     1 T=0 IP=      3 IndIP=      3 IndIPD=      2 C=  8.347367D-02  0.000000D+00                             NZ=T
 IS=     2 IAt=     2 ISR=     1 T=0 IP=      1 IndIP=      4 IndIPD=      0 C=  1.296301D-01  0.000000D+00                             NZ=T
 IS=     2 IAt=     2 ISR=     1 T=0 IP=      2 IndIP=      5 IndIPD=      1 C=  2.404528D-01  0.000000D+00                             NZ=T
 IS=     2 IAt=     2 ISR=     1 T=0 IP=      3 IndIP=      6 IndIPD=      2 C=  3.994569D-01  0.000000D+00                             NZ=T
 IS=     2 IAt=     2 ISR=     1 T=0 IP=      4 IndIP=      7 IndIPD=      3 C=  5.708542D-01  0.000000D+00                             NZ=T
 IS=     2 IAt=     2 ISR=     1 T=0 IP=      5 IndIP=      8 IndIPD=      4 C=  6.317030D-01  0.000000D+00                             NZ=T
 IS=     2 IAt=     2 ISR=     1 T=0 IP=      6 IndIP=      9 IndIPD=      5 C=  4.558532D-01  0.000000D+00                             NZ=T
 IS=     2 IAt=     2 ISR=     1 T=0 IP=      7 IndIP=     10 IndIPD=      6 C=  1.282724D-01  0.000000D+00                             NZ=T
 IS=     3 IAt=     2 ISR=     2 T=0 IP=      1 IndIP=     11 IndIPD=      0 C= -1.035279D-03  0.000000D+00                             NZ=T
 IS=     3 IAt=     2 ISR=     2 T=0 IP=      2 IndIP=     12 IndIPD=      1 C= -5.681325D-03  0.000000D+00                             NZ=T
 IS=     3 IAt=     2 ISR=     2 T=0 IP=      3 IndIP=     13 IndIPD=      2 C= -1.930258D-02  0.000000D+00                             NZ=T
 IS=     3 IAt=     2 ISR=     2 T=0 IP=      4 IndIP=     14 IndIPD=      3 C= -4.723991D-02  0.000000D+00                             NZ=T
 IS=     3 IAt=     2 ISR=     2 T=0 IP=      5 IndIP=     15 IndIPD=      4 C= -8.136441D-02  0.000000D+00                             NZ=T
 IS=     3 IAt=     2 ISR=     2 T=0 IP=      6 IndIP=     16 IndIPD=      5 C=  1.089727D-01  0.000000D+00                             NZ=T
 IS=     4 IAt=     2 ISR=     3 T=0 IP=      1 IndIP=     17 IndIPD=      0 C=  4.884946D-02  0.000000D+00                             NZ=T
 IS=     5 IAt=     2 ISR=     4 T=1 IP=      1 IndIP=     18 IndIPD=      0 C=  0.000000D+00  9.248065D-02                             NZ=T
 IS=     5 IAt=     2 ISR=     4 T=1 IP=      2 IndIP=     19 IndIPD=      1 C=  0.000000D+00  6.583497D-02                             NZ=T
 IS=     5 IAt=     2 ISR=     4 T=1 IP=      3 IndIP=     20 IndIPD=      2 C=  0.000000D+00  4.562255D-02                             NZ=T
 IS=     6 IAt=     2 ISR=     5 T=1 IP=      1 IndIP=     21 IndIPD=      0 C=  0.000000D+00  1.348597D-02                             NZ=T
 IS=     7 IAt=     2 ISR=     6 T=2 IP=      1 IndIP=     22 IndIPD=      1 C=  0.000000D+00  0.000000D+00  4.258771D-02  0.000000D+00 NZ=T
 IExCor=    0 DFT=F Ex=HF Corr=None ExCW=0 ScaHFX=  1.000000
 ScaDFX=  1.000000  1.000000  1.000000  1.000000 ScalE2=  1.000000  1.000000
 IRadAn=      5 IRanWt=     -1 IRanGd=            0 ICorTp=0 IEmpDi=  4
 NAtoms=    2 NActive=    2 NUniq=    2 SFac= 1.00D+00 NAtFMM=   60 NAOKFM=F Big=F
 Integral buffers will be    131072 words long.
 Raffenetti 2 integral format.
 Two-electron integral symmetry is turned on.
 Leave Link  301 at Mon Mar 28 14:06:28 2022, MaxMem=  9663676416 cpu:               2.0 elap:               0.1
 (Enter /nopt/nrel/apps/gaussian/g16C_1/g16/l302.exe)
 NPDir=0 NMtPBC=     1 NCelOv=     1 NCel=       1 NClECP=     1 NCelD=      1
         NCelK=      1 NCelE2=     1 NClLst=     1 CellRange=     0.0.
 One-electron integrals computed using PRISM.
 One-electron integral symmetry used in STVInt
 Entering OneElI...
 Calculate overlap and kinetic energy integrals
    NBasis =  15  MinDer = 0  MaxDer = 0
 Requested accuracy = 0.1000D-12
 Symmetry will be used
 PrmmSu-InSpLW:  IPartL=    0 NPrtUS=   36 NPrtUL=    1 DoSpLW=F IThBeg=    0 IThEnd=   35 NThAct=   36.
 PrSmSu:  IncTry=   512 NBBP=             28 NTPThr=   100 NPartT=   36 Incr=           1 LDynOK=F GPUOK=F.
 PrsmSu:  NPrtUS=  36 ThrOK=T IAlg=1 LenDen=           0 ISkipM=0 DoSpLW=F IThBeg=    0 IThEnd=   35.
 Prism:   IPart=     0 DynPar=F LinDyn=F Incr=           1.
 PRISM was handed   268432079 working-precision words and    28 shell-pairs
 PRISM was handed   268432079 working-precision words and    28 shell-pairs
 PRISM was handed   268432079 working-precision words and    28 shell-pairs
 PRISM was handed   268432079 working-precision words and    28 shell-pairs
 PRISM was handed   268432079 working-precision words and    28 shell-pairs
 PRISM was handed   268432079 working-precision words and    28 shell-pairs
 PRISM was handed   268432079 working-precision words and    28 shell-pairs
 PRISM was handed   268432079 working-precision words and    28 shell-pairs
 PRISM was handed   268432079 working-precision words and    28 shell-pairs
 IPart= 18 NShTot=           0 NBatch=           0 AvBLen=         0.0
 IPart= 16 NShTot=           0 NBatch=           0 AvBLen=         0.0
 IPart=  7 NShTot=           0 NBatch=           0 AvBLen=         0.0
 IPart= 24 NShTot=           0 NBatch=           0 AvBLen=         0.0
 IPart=  4 NShTot=           0 NBatch=           0 AvBLen=         0.0
 PRISM was handed   268432079 working-precision words and    28 shell-pairs
 PRISM was handed   268432079 working-precision words and    28 shell-pairs
 PRISM was handed   268432079 working-precision words and    28 shell-pairs
 PRISM was handed   268432079 working-precision words and    28 shell-pairs
 PRISM was handed   268432079 working-precision words and    28 shell-pairs
 IPart= 21 NShTot=           0 NBatch=           0 AvBLen=         0.0
 IPart= 19 NShTot=           0 NBatch=           0 AvBLen=         0.0
 IPart=  5 NShTot=           0 NBatch=           0 AvBLen=         0.0
 PRISM was handed   268432079 working-precision words and    28 shell-pairs
 PRISM was handed   268432079 working-precision words and    28 shell-pairs
 PRISM was handed   268432079 working-precision words and    28 shell-pairs
 PRISM was handed   268432079 working-precision words and    28 shell-pairs
 PRISM was handed   268432079 working-precision words and    28 shell-pairs
 PRISM was handed   268432079 working-precision words and    28 shell-pairs
 PRISM was handed   268432079 working-precision words and    28 shell-pairs
 PRISM was handed   268432079 working-precision words and    28 shell-pairs
 PRISM was handed   268432079 working-precision words and    28 shell-pairs
 PRISM was handed   268432079 working-precision words and    28 shell-pairs
 PRISM was handed   268432079 working-precision words and    28 shell-pairs
 IPart=  6 NShTot=           0 NBatch=           0 AvBLen=         0.0
 IPart= 17 NShTot=           0 NBatch=           0 AvBLen=         0.0
 PRISM was handed   268432079 working-precision words and    28 shell-pairs
 PRISM was handed   268432079 working-precision words and    28 shell-pairs
 IPart= 33 NShTot=           0 NBatch=           0 AvBLen=         0.0
 PRISM was handed   268432079 working-precision words and    28 shell-pairs
 PRISM was handed   268432079 working-precision words and    28 shell-pairs
 PRISM was handed   268432079 working-precision words and    28 shell-pairs
 PRISM was handed   268432079 working-precision words and    28 shell-pairs
 IPart= 34 NShTot=           0 NBatch=           0 AvBLen=         0.0
 PRISM was handed   268432079 working-precision words and    28 shell-pairs
 IPart= 32 NShTot=           0 NBatch=           0 AvBLen=         0.0
 PRISM was handed   268432079 working-precision words and    28 shell-pairs
 PRISM was handed   268432079 working-precision words and    28 shell-pairs
 IPart= 20 NShTot=           0 NBatch=           0 AvBLen=         0.0
 IPart= 31 NShTot=           0 NBatch=           0 AvBLen=         0.0
 PRISM was handed   268432079 working-precision words and    28 shell-pairs
 PRISM was handed   268432079 working-precision words and    28 shell-pairs
 IPart=  0 NShTot=          27 NBatch=          27 AvBLen=         1.0
 IPart= 10 NShTot=           0 NBatch=           0 AvBLen=         0.0
 IPart= 35 NShTot=           0 NBatch=           0 AvBLen=         0.0
 IPart= 11 NShTot=           0 NBatch=           0 AvBLen=         0.0
 IPart= 22 NShTot=           0 NBatch=           0 AvBLen=         0.0
 IPart= 27 NShTot=           0 NBatch=           0 AvBLen=         0.0
 IPart= 26 NShTot=           0 NBatch=           0 AvBLen=         0.0
 IPart= 25 NShTot=           0 NBatch=           0 AvBLen=         0.0
 IPart= 13 NShTot=           0 NBatch=           0 AvBLen=         0.0
 IPart= 23 NShTot=           0 NBatch=           0 AvBLen=         0.0
 IPart=  9 NShTot=           0 NBatch=           0 AvBLen=         0.0
 IPart= 15 NShTot=           0 NBatch=           0 AvBLen=         0.0
 IPart= 30 NShTot=           0 NBatch=           0 AvBLen=         0.0
 IPart= 28 NShTot=           0 NBatch=           0 AvBLen=         0.0
 IPart=  8 NShTot=           0 NBatch=           0 AvBLen=         0.0
 IPart=  3 NShTot=           0 NBatch=           0 AvBLen=         0.0
 IPart=  2 NShTot=           0 NBatch=           0 AvBLen=         0.0
 IPart= 29 NShTot=           0 NBatch=           0 AvBLen=         0.0
 IPart= 14 NShTot=           0 NBatch=           0 AvBLen=         0.0
 IPart= 12 NShTot=           0 NBatch=           0 AvBLen=         0.0
 IPart=  1 NShTot=           1 NBatch=           1 AvBLen=         1.0
 PrSmSu:  NxtVal=             37.
 *** Overlap *** 
                1             2             3             4             5 
      1  0.100000D+01
      2  0.904217D-01  0.100000D+01
      3  0.426606D+00  0.130369D+00  0.100000D+01
      4  0.335128D+00  0.157971D+00  0.861205D+00  0.100000D+01
      5  0.000000D+00  0.000000D+00  0.000000D+00  0.000000D+00  0.100000D+01
      6  0.000000D+00  0.000000D+00  0.000000D+00  0.000000D+00  0.000000D+00
      7 -0.527967D+00  0.000000D+00  0.000000D+00  0.000000D+00  0.000000D+00
      8  0.000000D+00  0.000000D+00  0.000000D+00  0.000000D+00  0.626620D+00
      9  0.000000D+00  0.000000D+00  0.000000D+00  0.000000D+00  0.000000D+00
     10 -0.250006D+00  0.000000D+00  0.000000D+00  0.000000D+00  0.000000D+00
     11  0.455637D+00  0.000000D+00  0.000000D+00  0.000000D+00  0.000000D+00
     12  0.000000D+00  0.000000D+00  0.000000D+00  0.000000D+00  0.000000D+00
     13  0.000000D+00  0.000000D+00  0.000000D+00  0.000000D+00  0.000000D+00
     14  0.000000D+00  0.000000D+00  0.000000D+00  0.000000D+00  0.000000D+00
     15  0.000000D+00  0.000000D+00  0.000000D+00  0.000000D+00  0.000000D+00
                6             7             8             9            10 
      6  0.100000D+01
      7  0.000000D+00  0.100000D+01
      8  0.000000D+00  0.000000D+00  0.100000D+01
      9  0.626620D+00  0.000000D+00  0.000000D+00  0.100000D+01
     10  0.000000D+00  0.626620D+00  0.000000D+00  0.000000D+00  0.100000D+01
     11  0.000000D+00  0.000000D+00  0.000000D+00  0.000000D+00  0.000000D+00
     12  0.000000D+00  0.000000D+00  0.000000D+00  0.000000D+00  0.000000D+00
     13  0.000000D+00  0.000000D+00  0.000000D+00  0.000000D+00  0.000000D+00
     14  0.000000D+00  0.000000D+00  0.000000D+00  0.000000D+00  0.000000D+00
     15  0.000000D+00  0.000000D+00  0.000000D+00  0.000000D+00  0.000000D+00
               11            12            13            14            15 
     11  0.100000D+01
     12  0.000000D+00  0.100000D+01
     13  0.000000D+00  0.000000D+00  0.100000D+01
     14  0.000000D+00  0.000000D+00  0.000000D+00  0.100000D+01
     15  0.000000D+00  0.000000D+00  0.000000D+00  0.000000D+00  0.100000D+01
 *** Kinetic Energy *** 
                1             2             3             4             5 
      1  0.760032D+00
      2 -0.160146D-01  0.362154D+01
      3  0.580386D-01 -0.261904D+00  0.139297D+00
      4  0.218231D-01  0.128893D-01  0.513567D-01  0.420750D-01
      5  0.000000D+00  0.000000D+00  0.000000D+00  0.000000D+00  0.249967D+00
      6  0.000000D+00  0.000000D+00  0.000000D+00  0.000000D+00  0.000000D+00
      7 -0.135139D+00  0.000000D+00  0.000000D+00  0.000000D+00  0.000000D+00
      8  0.000000D+00  0.000000D+00  0.000000D+00  0.000000D+00  0.578002D-01
      9  0.000000D+00  0.000000D+00  0.000000D+00  0.000000D+00  0.000000D+00
     10 -0.253977D-01  0.000000D+00  0.000000D+00  0.000000D+00  0.000000D+00
     11  0.227863D+00  0.000000D+00  0.000000D+00  0.000000D+00  0.000000D+00
     12  0.000000D+00  0.000000D+00  0.000000D+00  0.000000D+00  0.000000D+00
     13  0.000000D+00  0.000000D+00  0.000000D+00  0.000000D+00  0.000000D+00
     14  0.000000D+00  0.000000D+00  0.000000D+00  0.000000D+00  0.000000D+00
     15  0.000000D+00  0.000000D+00  0.000000D+00  0.000000D+00  0.000000D+00
                6             7             8             9            10 
      6  0.249967D+00
      7  0.000000D+00  0.249967D+00
      8  0.000000D+00  0.000000D+00  0.600750D-01
      9  0.578002D-01  0.000000D+00  0.000000D+00  0.600750D-01
     10  0.000000D+00  0.578002D-01  0.000000D+00  0.000000D+00  0.600750D-01
     11  0.000000D+00  0.000000D+00  0.000000D+00  0.000000D+00  0.000000D+00
     12  0.000000D+00  0.000000D+00  0.000000D+00  0.000000D+00  0.000000D+00
     13  0.000000D+00  0.000000D+00  0.000000D+00  0.000000D+00  0.000000D+00
     14  0.000000D+00  0.000000D+00  0.000000D+00  0.000000D+00  0.000000D+00
     15  0.000000D+00  0.000000D+00  0.000000D+00  0.000000D+00  0.000000D+00
               11            12            13            14            15 
     11  0.433650D+00
     12  0.000000D+00  0.433650D+00
     13  0.000000D+00  0.000000D+00  0.433650D+00
     14  0.000000D+00  0.000000D+00  0.000000D+00  0.433650D+00
     15  0.000000D+00  0.000000D+00  0.000000D+00  0.000000D+00  0.433650D+00
 Entering OneElI...
 Calculate potential energy integrals
    NBasis =  15  MinDer = 0  MaxDer = 0
 Requested accuracy = 0.1000D-12
 Symmetry will be used
 PrmmSu-InSpLW:  IPartL=    0 NPrtUS=   36 NPrtUL=    1 DoSpLW=F IThBeg=    0 IThEnd=   35 NThAct=   36.
 PrSmSu:  IncTry=   512 NBBP=             56 NTPThr=   100 NPartT=   36 Incr=           1 LDynOK=F GPUOK=F.
 PrsmSu:  NPrtUS=  36 ThrOK=T IAlg=1 LenDen=           0 ISkipM=0 DoSpLW=F IThBeg=    0 IThEnd=   35.
 Prism:   IPart=     0 DynPar=F LinDyn=F Incr=           1.
 PRISM was handed   268432224 working-precision words and    28 shell-pairs
 PRISM was handed   268432224 working-precision words and    28 shell-pairs
 PRISM was handed   268432224 working-precision words and    28 shell-pairs
 PRISM was handed   268432224 working-precision words and    28 shell-pairs
 PRISM was handed   268432224 working-precision words and    28 shell-pairs
 PRISM was handed   268432224 working-precision words and    28 shell-pairs
 PRISM was handed   268432224 working-precision words and    28 shell-pairs
 PRISM was handed   268432224 working-precision words and    28 shell-pairs
 PRISM was handed   268432224 working-precision words and    28 shell-pairs
 PRISM was handed   268432224 working-precision words and    28 shell-pairs
 PRISM was handed   268432224 working-precision words and    28 shell-pairs
 PRISM was handed   268432224 working-precision words and    28 shell-pairs
 PRISM was handed   268432224 working-precision words and    28 shell-pairs
 PRISM was handed   268432224 working-precision words and    28 shell-pairs
 PRISM was handed   268432224 working-precision words and    28 shell-pairs
 PRISM was handed   268432224 working-precision words and    28 shell-pairs
 PRISM was handed   268432224 working-precision words and    28 shell-pairs
 PRISM was handed   268432224 working-precision words and    28 shell-pairs
 PRISM was handed   268432224 working-precision words and    28 shell-pairs
 PRISM was handed   268432224 working-precision words and    28 shell-pairs
 PRISM was handed   268432224 working-precision words and    28 shell-pairs
 PRISM was handed   268432224 working-precision words and    28 shell-pairs
 PRISM was handed   268432224 working-precision words and    28 shell-pairs
 PRISM was handed   268432224 working-precision words and    28 shell-pairs
 PRISM was handed   268432224 working-precision words and    28 shell-pairs
 PRISM was handed   268432224 working-precision words and    28 shell-pairs
 PRISM was handed   268432224 working-precision words and    28 shell-pairs
 PRISM was handed   268432224 working-precision words and    28 shell-pairs
 PRISM was handed   268432224 working-precision words and    28 shell-pairs
 PRISM was handed   268432224 working-precision words and    28 shell-pairs
 PRISM was handed   268432224 working-precision words and    28 shell-pairs
 PRISM was handed   268432224 working-precision words and    28 shell-pairs
 PRISM was handed   268432224 working-precision words and    28 shell-pairs
 PRISM was handed   268432224 working-precision words and    28 shell-pairs
 PRISM was handed   268432224 working-precision words and    28 shell-pairs
 PRISM was handed   268432224 working-precision words and    28 shell-pairs
 IPart=  1 NShTot=           2 NBatch=           1 AvBLen=         2.0
 IPart=  0 NShTot=          54 NBatch=          27 AvBLen=         2.0
 IPart= 21 NShTot=           0 NBatch=           0 AvBLen=         0.0
 IPart=  7 NShTot=           0 NBatch=           0 AvBLen=         0.0
 IPart= 32 NShTot=           0 NBatch=           0 AvBLen=         0.0
 IPart= 16 NShTot=           0 NBatch=           0 AvBLen=         0.0
 IPart= 30 NShTot=           0 NBatch=           0 AvBLen=         0.0
 IPart=  9 NShTot=           0 NBatch=           0 AvBLen=         0.0
 IPart= 34 NShTot=           0 NBatch=           0 AvBLen=         0.0
 IPart= 20 NShTot=           0 NBatch=           0 AvBLen=         0.0
 IPart= 19 NShTot=           0 NBatch=           0 AvBLen=         0.0
 IPart= 12 NShTot=           0 NBatch=           0 AvBLen=         0.0
 IPart= 14 NShTot=           0 NBatch=           0 AvBLen=         0.0
 IPart= 27 NShTot=           0 NBatch=           0 AvBLen=         0.0
 IPart=  4 NShTot=           0 NBatch=           0 AvBLen=         0.0
 IPart= 28 NShTot=           0 NBatch=           0 AvBLen=         0.0
 IPart= 24 NShTot=           0 NBatch=           0 AvBLen=         0.0
 IPart= 13 NShTot=           0 NBatch=           0 AvBLen=         0.0
 IPart= 31 NShTot=           0 NBatch=           0 AvBLen=         0.0
 IPart= 29 NShTot=           0 NBatch=           0 AvBLen=         0.0
 IPart= 35 NShTot=           0 NBatch=           0 AvBLen=         0.0
 IPart= 25 NShTot=           0 NBatch=           0 AvBLen=         0.0
 IPart=  5 NShTot=           0 NBatch=           0 AvBLen=         0.0
 IPart= 10 NShTot=           0 NBatch=           0 AvBLen=         0.0
 IPart=  6 NShTot=           0 NBatch=           0 AvBLen=         0.0
 IPart= 23 NShTot=           0 NBatch=           0 AvBLen=         0.0
 IPart= 22 NShTot=           0 NBatch=           0 AvBLen=         0.0
 IPart= 33 NShTot=           0 NBatch=           0 AvBLen=         0.0
 IPart= 15 NShTot=           0 NBatch=           0 AvBLen=         0.0
 IPart= 17 NShTot=           0 NBatch=           0 AvBLen=         0.0
 IPart=  2 NShTot=           0 NBatch=           0 AvBLen=         0.0
 IPart=  3 NShTot=           0 NBatch=           0 AvBLen=         0.0
 IPart= 18 NShTot=           0 NBatch=           0 AvBLen=         0.0
 IPart=  8 NShTot=           0 NBatch=           0 AvBLen=         0.0
 IPart= 11 NShTot=           0 NBatch=           0 AvBLen=         0.0
 IPart= 26 NShTot=           0 NBatch=           0 AvBLen=         0.0
 PrSmSu:  NxtVal=             37.
 ***** Potential Energy ***** 
                1             2             3             4             5 
      1  0.228068D+01
      2  0.376574D+00  0.841911D+01
      3  0.787574D+00  0.243692D+00  0.137613D+01
      4  0.590963D+00  0.687639D+00  0.106942D+01  0.103378D+01
      5  0.000000D+00  0.000000D+00  0.000000D+00  0.000000D+00  0.130749D+01
      6  0.000000D+00  0.000000D+00  0.000000D+00  0.000000D+00  0.000000D+00
      7 -0.996046D+00 -0.171904D-01 -0.127176D+00 -0.100161D+00  0.000000D+00
      8  0.000000D+00  0.000000D+00  0.000000D+00  0.000000D+00  0.602815D+00
      9  0.000000D+00  0.000000D+00  0.000000D+00  0.000000D+00  0.000000D+00
     10 -0.394673D+00 -0.292882D-02 -0.556853D-01 -0.587783D-01  0.000000D+00
     11  0.904537D+00  0.409700D-02  0.790574D-01  0.599067D-01  0.000000D+00
     12  0.000000D+00  0.000000D+00  0.000000D+00  0.000000D+00 -0.674516D-01
     13  0.000000D+00  0.000000D+00  0.000000D+00  0.000000D+00  0.000000D+00
     14  0.000000D+00  0.000000D+00  0.000000D+00  0.000000D+00  0.000000D+00
     15  0.000000D+00  0.000000D+00  0.000000D+00  0.000000D+00  0.000000D+00
                6             7             8             9            10 
      6  0.130749D+01
      7  0.000000D+00  0.140598D+01
      8  0.000000D+00  0.000000D+00  0.647900D+00
      9  0.602815D+00  0.000000D+00  0.000000D+00  0.647900D+00
     10  0.000000D+00  0.645957D+00  0.000000D+00  0.000000D+00  0.676999D+00
     11  0.000000D+00 -0.153453D+00  0.000000D+00  0.000000D+00 -0.711236D-01
     12  0.000000D+00  0.000000D+00 -0.336690D-01  0.000000D+00  0.000000D+00
     13 -0.674516D-01  0.000000D+00  0.000000D+00 -0.336690D-01  0.000000D+00
     14  0.000000D+00  0.000000D+00  0.000000D+00  0.000000D+00  0.000000D+00
     15  0.000000D+00  0.000000D+00  0.000000D+00  0.000000D+00  0.000000D+00
               11            12            13            14            15 
     11  0.126442D+01
     12  0.000000D+00  0.118094D+01
     13  0.000000D+00  0.000000D+00  0.118094D+01
     14  0.000000D+00  0.000000D+00  0.000000D+00  0.113467D+01
     15  0.000000D+00  0.000000D+00  0.000000D+00  0.000000D+00  0.113467D+01
 ****** Core Hamiltonian ****** 
                1             2             3             4             5 
      1 -0.152065D+01
      2 -0.392589D+00 -0.479757D+01
      3 -0.729535D+00 -0.505595D+00 -0.123684D+01
      4 -0.569140D+00 -0.674750D+00 -0.101807D+01 -0.991710D+00
      5  0.000000D+00  0.000000D+00  0.000000D+00  0.000000D+00 -0.105752D+01
      6  0.000000D+00  0.000000D+00  0.000000D+00  0.000000D+00  0.000000D+00
      7  0.860907D+00  0.171904D-01  0.127176D+00  0.100161D+00  0.000000D+00
      8  0.000000D+00  0.000000D+00  0.000000D+00  0.000000D+00 -0.545014D+00
      9  0.000000D+00  0.000000D+00  0.000000D+00  0.000000D+00  0.000000D+00
     10  0.369276D+00  0.292882D-02  0.556853D-01  0.587783D-01  0.000000D+00
     11 -0.676674D+00 -0.409700D-02 -0.790574D-01 -0.599067D-01  0.000000D+00
     12  0.000000D+00  0.000000D+00  0.000000D+00  0.000000D+00  0.674516D-01
     13  0.000000D+00  0.000000D+00  0.000000D+00  0.000000D+00  0.000000D+00
     14  0.000000D+00  0.000000D+00  0.000000D+00  0.000000D+00  0.000000D+00
     15  0.000000D+00  0.000000D+00  0.000000D+00  0.000000D+00  0.000000D+00
                6             7             8             9            10 
      6 -0.105752D+01
      7  0.000000D+00 -0.115602D+01
      8  0.000000D+00  0.000000D+00 -0.587825D+00
      9 -0.545014D+00  0.000000D+00  0.000000D+00 -0.587825D+00
     10  0.000000D+00 -0.588157D+00  0.000000D+00  0.000000D+00 -0.616924D+00
     11  0.000000D+00  0.153453D+00  0.000000D+00  0.000000D+00  0.711236D-01
     12  0.000000D+00  0.000000D+00  0.336690D-01  0.000000D+00  0.000000D+00
     13  0.674516D-01  0.000000D+00  0.000000D+00  0.336690D-01  0.000000D+00
     14  0.000000D+00  0.000000D+00  0.000000D+00  0.000000D+00  0.000000D+00
     15  0.000000D+00  0.000000D+00  0.000000D+00  0.000000D+00  0.000000D+00
               11            12            13            14            15 
     11 -0.830774D+00
     12  0.000000D+00 -0.747286D+00
     13  0.000000D+00  0.000000D+00 -0.747286D+00
     14  0.000000D+00  0.000000D+00  0.000000D+00 -0.701021D+00
     15  0.000000D+00  0.000000D+00  0.000000D+00  0.000000D+00 -0.701021D+00
 SVDSVc IOpt=   1 NormSV=T IR=1
 SVDSVc V= 2.32D+00 1.75D+00 1.17D+00 1.00D+00 9.55D-01 4.84D-01 2.00D-01 1.09D-01
 SVDSVc IOpt=   1 NormSV=T IR=2
 SVDSVc V= 1.00D+00
 SVDSVc IOpt=   1 NormSV=T IR=3
 SVDSVc V= 1.63D+00 1.00D+00 3.73D-01
 SVDSVc IOpt=   1 NormSV=T IR=4
 SVDSVc V= 1.63D+00 1.00D+00 3.73D-01
 TstOVc:  Largest diagonal error= 1.78D-15 IB=3 I=   12.
 TstOVc:  Largest same sym error= 3.46D-15 IB=1 I=    8 J=    4.
 TstOVc:  Largest diff sym error= 0.00D+00 IB=0 JB=0 I=    0 J=    0.
 Orthogonalized basis functions: 
                 1             2             3             4             5 
      1   0.352817D+00 -0.131893D+00  0.292440D+00  0.000000D+00 -0.613495D-02
      2   0.933917D-01  0.107735D+00 -0.881660D-01  0.000000D+00  0.997081D+00
      3   0.325832D+00  0.317832D+00 -0.129528D+00  0.000000D+00 -0.173223D+00
      4   0.312246D+00  0.327145D+00 -0.157716D+00  0.000000D+00 -0.138808D+00
      5   0.000000D+00  0.000000D+00  0.000000D+00  0.000000D+00  0.000000D+00
      6   0.000000D+00  0.000000D+00  0.000000D+00  0.000000D+00  0.000000D+00
      7  -0.221757D+00  0.417324D+00  0.200682D+00  0.000000D+00 -0.208570D-02
      8   0.000000D+00  0.000000D+00  0.000000D+00  0.000000D+00  0.000000D+00
      9   0.000000D+00  0.000000D+00  0.000000D+00  0.000000D+00  0.000000D+00
     10  -0.171496D+00  0.390762D+00  0.302187D+00  0.000000D+00 -0.501865D-02
     11   0.121363D+00 -0.797448D-01  0.764925D+00  0.000000D+00  0.618471D-01
     12   0.000000D+00  0.000000D+00  0.000000D+00  0.000000D+00  0.000000D+00
     13   0.000000D+00  0.000000D+00  0.000000D+00  0.000000D+00  0.000000D+00
     14   0.000000D+00  0.000000D+00  0.000000D+00  0.100000D+01  0.000000D+00
     15   0.000000D+00  0.000000D+00  0.000000D+00  0.000000D+00  0.000000D+00
                 6             7             8             9            10 
      1   0.620851D+00  0.112039D+01 -0.114220D+01  0.000000D+00  0.000000D+00
      2  -0.896053D-02 -0.520583D-02  0.939341D-01  0.000000D+00  0.000000D+00
      3  -0.880991D-01  0.584620D+00  0.204365D+01  0.000000D+00  0.000000D+00
      4  -0.253391D+00 -0.109741D+01 -0.156253D+01  0.000000D+00  0.000000D+00
      5   0.000000D+00  0.000000D+00  0.000000D+00  0.000000D+00  0.554424D+00
      6   0.000000D+00  0.000000D+00  0.000000D+00  0.000000D+00  0.000000D+00
      7  -0.569475D+00  0.120258D+01 -0.893448D+00  0.000000D+00  0.000000D+00
      8   0.000000D+00  0.000000D+00  0.000000D+00  0.000000D+00  0.554424D+00
      9   0.000000D+00  0.000000D+00  0.000000D+00  0.000000D+00  0.000000D+00
     10   0.992152D+00 -0.591685D+00  0.307888D+00  0.000000D+00  0.000000D+00
     11  -0.548105D+00 -0.637965D+00  0.584160D+00  0.000000D+00  0.000000D+00
     12   0.000000D+00  0.000000D+00  0.000000D+00  0.000000D+00  0.000000D+00
     13   0.000000D+00  0.000000D+00  0.000000D+00  0.000000D+00  0.000000D+00
     14   0.000000D+00  0.000000D+00  0.000000D+00  0.000000D+00  0.000000D+00
     15   0.000000D+00  0.000000D+00  0.000000D+00  0.100000D+01  0.000000D+00
                11            12            13            14            15 
      1   0.000000D+00  0.000000D+00  0.000000D+00  0.000000D+00  0.000000D+00
      2   0.000000D+00  0.000000D+00  0.000000D+00  0.000000D+00  0.000000D+00
      3   0.000000D+00  0.000000D+00  0.000000D+00  0.000000D+00  0.000000D+00
      4   0.000000D+00  0.000000D+00  0.000000D+00  0.000000D+00  0.000000D+00
      5   0.000000D+00  0.115720D+01  0.000000D+00  0.000000D+00  0.000000D+00
      6   0.000000D+00  0.000000D+00  0.554424D+00  0.000000D+00  0.115720D+01
      7   0.000000D+00  0.000000D+00  0.000000D+00  0.000000D+00  0.000000D+00
      8   0.000000D+00 -0.115720D+01  0.000000D+00  0.000000D+00  0.000000D+00
      9   0.000000D+00  0.000000D+00  0.554424D+00  0.000000D+00 -0.115720D+01
     10   0.000000D+00  0.000000D+00  0.000000D+00  0.000000D+00  0.000000D+00
     11   0.000000D+00  0.000000D+00  0.000000D+00  0.000000D+00  0.000000D+00
     12   0.100000D+01  0.000000D+00  0.000000D+00  0.000000D+00  0.000000D+00
     13   0.000000D+00  0.000000D+00  0.000000D+00  0.100000D+01  0.000000D+00
     14   0.000000D+00  0.000000D+00  0.000000D+00  0.000000D+00  0.000000D+00
     15   0.000000D+00  0.000000D+00  0.000000D+00  0.000000D+00  0.000000D+00
 NBasis=    15 RedAO= T EigKep=  1.09D-01  NBF=     8     1     3     3
 NBsUse=    15 1.00D-06 EigRej= -1.00D+00 NBFU=     8     1     3     3
 Leave Link  302 at Mon Mar 28 14:06:28 2022, MaxMem=  9663676416 cpu:               3.7 elap:               0.1
 (Enter /nopt/nrel/apps/gaussian/g16C_1/g16/l303.exe)
 DipDrv will not compute anything.
 Fermi contact integrals: 
                 1             2 
      1   0.628247D+00  0.232757D-01
      2   0.138194D-02  0.255622D+01
      3   0.595208D-01 -0.456508D-01
      4   0.389923D-01  0.488495D-01
      5   0.000000D+00  0.000000D+00
      6   0.000000D+00  0.000000D+00
      7  -0.920744D-01  0.000000D+00
      8   0.000000D+00  0.000000D+00
      9   0.000000D+00  0.000000D+00
     10  -0.315152D-01  0.000000D+00
     11   0.126449D+00  0.000000D+00
     12   0.000000D+00  0.000000D+00
     13   0.000000D+00  0.000000D+00
     14   0.000000D+00  0.000000D+00
     15   0.000000D+00  0.000000D+00
 Leave Link  303 at Mon Mar 28 14:06:28 2022, MaxMem=  9663676416 cpu:               1.2 elap:               0.1
 (Enter /nopt/nrel/apps/gaussian/g16C_1/g16/l401.exe)
 ExpMin= 2.40D-02 ExpMax= 1.47D+03 ExpMxC= 5.03D+01 IAcc=3 IRadAn=         5 AccDes= 0.00D+00
 Harris functional with IExCor=  205 and IRadAn=       5 diagonalized for initial guess.
 HarFok:  IExCor=  205 AccDes= 0.00D+00 IRadAn=         5 IDoV= 1 UseB2=F ITyADJ=14
 ICtDFT=  3500011 ScaDFX=  1.000000  1.000000  1.000000  1.000000
 FoFCou: FMM=F IPFlag=           0 FMFlag=      100000 FMFlg1=           0
         NFxFlg=           0 DoJE=T BraDBF=F KetDBF=T FulRan=T
         wScrn=  0.000000 ICntrl=       500 IOpCl=  0 I1Cent=   200000004 NGrid=           0
         NMat0=    1 NMatS0=      1 NMatT0=    0 NMatD0=    1 NMtDS0=    0 NMtDT0=    0
 Petite list used in FoFCou.
 Harris En= -7.81159445310817    
 JPrj=0 DoOrth=F DoCkMO=F.
 Initial guess orbital symmetries:
 Alpha Orbitals:
       Occupied  (SG) (SG) (SG)
       Virtual   (PI) (PI) (SG) (PI) (PI) (SG) (SG) (PI) (PI) (DLTA)
                 (DLTA) (SG)
 Beta  Orbitals:
       Occupied  (SG)
       Virtual   (SG) (SG) (PI) (PI) (SG) (PI) (PI) (SG) (SG) (PI)
                 (PI) (DLTA) (DLTA) (SG)
 The electronic state of the initial guess is 3-SG.
 Initial guess <Sx>= 0.0000 <Sy>= 0.0000 <Sz>= 1.0000 <S**2>= 2.0000 S= 1.0000
 Leave Link  401 at Mon Mar 28 14:06:28 2022, MaxMem=  9663676416 cpu:               6.2 elap:               0.2
 (Enter /nopt/nrel/apps/gaussian/g16C_1/g16/l502.exe)
 Keep R1 and R2 ints in memory in symmetry-blocked form, NReq=7408286.
 FoFCou: FMM=F IPFlag=           0 FMFlag=           0 FMFlg1=           0
         NFxFlg=           0 DoJE=F BraDBF=F KetDBF=F FulRan=T
         wScrn=  0.000000 ICntrl=       600 IOpCl=  0 I1Cent=           0 NGrid=           0
         NMat0=    1 NMatS0=    120 NMatT0=    0 NMatD0=    1 NMtDS0=    0 NMtDT0=    0
 Petite list used in FoFCou.
 UHF open shell SCF:
 Using DIIS extrapolation, IDIIS=  1040.
 NGot=  9663676416 LenX=  9663669219 LenY=  9663668337
 Requested convergence on RMS density matrix=1.00D-08 within 128 cycles.
 Requested convergence on MAX density matrix=1.00D-06.
 Requested convergence on             energy=1.00D-06.
 No special actions if energy rises.

 Cycle   1  Pass 1  IDiag  1:
 E= -7.87584920037111    
 DIIS: error= 2.25D-02 at cycle   1 NSaved=   1.
 NSaved= 1 IEnMin= 1 EnMin= -7.87584920037111     IErMin= 1 ErrMin= 2.25D-02
 ErrMax= 2.25D-02  0.00D+00 EMaxC= 1.00D-01 BMatC= 1.76D-02 BMatP= 1.76D-02
 IDIUse=3 WtCom= 7.75D-01 WtEn= 2.25D-01
 Coeff-Com:  0.100D+01
 Coeff-En:   0.100D+01
 Coeff:      0.100D+01
 Gap=     0.207 Goal=   None    Shift=    0.000
 Gap=     2.427 Goal=   None    Shift=    0.000
 GapD=    0.207 DampG=1.000 DampE=0.500 DampFc=0.5000 IDamp=-1.
 Damping current iteration by 5.00D-01
 RMSDP=7.83D-03 MaxDP=1.24D-01              OVMax= 4.73D-02

 Cycle   2  Pass 1  IDiag  1:
 E= -7.87998611168137     Delta-E=       -0.004136911310 Rises=F Damp=T
 DIIS: error= 1.46D-02 at cycle   2 NSaved=   2.
 NSaved= 2 IEnMin= 2 EnMin= -7.87998611168137     IErMin= 2 ErrMin= 1.46D-02
 ErrMax= 1.46D-02  0.00D+00 EMaxC= 1.00D-01 BMatC= 7.22D-03 BMatP= 1.76D-02
 IDIUse=3 WtCom= 8.54D-01 WtEn= 1.46D-01
 Coeff-Com: -0.171D+01 0.271D+01
 Coeff-En:   0.000D+00 0.100D+01
 Coeff:     -0.146D+01 0.246D+01
 Gap=     0.195 Goal=   None    Shift=    0.000
 Gap=     2.426 Goal=   None    Shift=    0.000
 RMSDP=7.18D-03 MaxDP=1.18D-01 DE=-4.14D-03 OVMax= 1.70D-02

 Cycle   3  Pass 1  IDiag  1:
 E= -7.88627056725573     Delta-E=       -0.006284455574 Rises=F Damp=F
 DIIS: error= 1.41D-03 at cycle   3 NSaved=   3.
 NSaved= 3 IEnMin= 3 EnMin= -7.88627056725573     IErMin= 3 ErrMin= 1.41D-03
 ErrMax= 1.41D-03  0.00D+00 EMaxC= 1.00D-01 BMatC= 5.48D-05 BMatP= 7.22D-03
 IDIUse=3 WtCom= 9.86D-01 WtEn= 1.41D-02
 Coeff-Com:  0.523D+00-0.914D+00 0.139D+01
 Coeff-En:   0.000D+00 0.000D+00 0.100D+01
 Coeff:      0.516D+00-0.901D+00 0.138D+01
 Gap=     0.196 Goal=   None    Shift=    0.000
 Gap=     2.428 Goal=   None    Shift=    0.000
 RMSDP=8.47D-04 MaxDP=1.39D-02 DE=-6.28D-03 OVMax= 3.54D-03

 Cycle   4  Pass 1  IDiag  1:
 E= -7.88631125464291     Delta-E=       -0.000040687387 Rises=F Damp=F
 DIIS: error= 1.11D-04 at cycle   4 NSaved=   4.
 NSaved= 4 IEnMin= 4 EnMin= -7.88631125464291     IErMin= 4 ErrMin= 1.11D-04
 ErrMax= 1.11D-04  0.00D+00 EMaxC= 1.00D-01 BMatC= 1.97D-07 BMatP= 5.48D-05
 IDIUse=3 WtCom= 9.99D-01 WtEn= 1.11D-03
 Coeff-Com: -0.131D+00 0.231D+00-0.375D+00 0.128D+01
 Coeff-En:   0.000D+00 0.000D+00 0.000D+00 0.100D+01
 Coeff:     -0.131D+00 0.230D+00-0.375D+00 0.128D+01
 Gap=     0.196 Goal=   None    Shift=    0.000
 Gap=     2.428 Goal=   None    Shift=    0.000
 RMSDP=7.99D-05 MaxDP=6.63D-04 DE=-4.07D-05 OVMax= 1.18D-03

 Cycle   5  Pass 1  IDiag  1:
 E= -7.88631179359356     Delta-E=       -0.000000538951 Rises=F Damp=F
 DIIS: error= 4.80D-05 at cycle   5 NSaved=   5.
 NSaved= 5 IEnMin= 5 EnMin= -7.88631179359356     IErMin= 5 ErrMin= 4.80D-05
 ErrMax= 4.80D-05  0.00D+00 EMaxC= 1.00D-01 BMatC= 3.07D-08 BMatP= 1.97D-07
 IDIUse=1 WtCom= 1.00D+00 WtEn= 0.00D+00
 Coeff-Com:  0.687D-01-0.121D+00 0.201D+00-0.101D+01 0.187D+01
 Coeff:      0.687D-01-0.121D+00 0.201D+00-0.101D+01 0.187D+01
 Gap=     0.196 Goal=   None    Shift=    0.000
 Gap=     2.428 Goal=   None    Shift=    0.000
 RMSDP=5.30D-05 MaxDP=4.66D-04 DE=-5.39D-07 OVMax= 8.46D-04

 Cycle   6  Pass 1  IDiag  1:
 E= -7.88631191225165     Delta-E=       -0.000000118658 Rises=F Damp=F
 DIIS: error= 4.12D-06 at cycle   6 NSaved=   6.
 NSaved= 6 IEnMin= 6 EnMin= -7.88631191225165     IErMin= 6 ErrMin= 4.12D-06
 ErrMax= 4.12D-06  0.00D+00 EMaxC= 1.00D-01 BMatC= 3.01D-10 BMatP= 3.07D-08
 IDIUse=1 WtCom= 1.00D+00 WtEn= 0.00D+00
 Coeff-Com: -0.923D-02 0.163D-01-0.278D-01 0.159D+00-0.371D+00 0.123D+01
 Coeff:     -0.923D-02 0.163D-01-0.278D-01 0.159D+00-0.371D+00 0.123D+01
 Gap=     0.196 Goal=   None    Shift=    0.000
 Gap=     2.428 Goal=   None    Shift=    0.000
 RMSDP=6.19D-06 MaxDP=6.42D-05 DE=-1.19D-07 OVMax= 8.88D-05

 Cycle   7  Pass 1  IDiag  1:
 E= -7.88631191349894     Delta-E=       -0.000000001247 Rises=F Damp=F
 DIIS: error= 1.08D-06 at cycle   7 NSaved=   7.
 NSaved= 7 IEnMin= 7 EnMin= -7.88631191349894     IErMin= 7 ErrMin= 1.08D-06
 ErrMax= 1.08D-06  0.00D+00 EMaxC= 1.00D-01 BMatC= 2.51D-11 BMatP= 3.01D-10
 IDIUse=1 WtCom= 1.00D+00 WtEn= 0.00D+00
 Coeff-Com:  0.224D-02-0.396D-02 0.700D-02-0.445D-01 0.129D+00-0.710D+00
 Coeff-Com:  0.162D+01
 Coeff:      0.224D-02-0.396D-02 0.700D-02-0.445D-01 0.129D+00-0.710D+00
 Coeff:      0.162D+01
 Gap=     0.196 Goal=   None    Shift=    0.000
 Gap=     2.428 Goal=   None    Shift=    0.000
 RMSDP=2.82D-06 MaxDP=4.08D-05 DE=-1.25D-09 OVMax= 2.37D-05

 Cycle   8  Pass 1  IDiag  1:
 E= -7.88631191359076     Delta-E=       -0.000000000092 Rises=F Damp=F
 DIIS: error= 1.47D-07 at cycle   8 NSaved=   8.
 NSaved= 8 IEnMin= 8 EnMin= -7.88631191359076     IErMin= 8 ErrMin= 1.47D-07
 ErrMax= 1.47D-07  0.00D+00 EMaxC= 1.00D-01 BMatC= 6.05D-13 BMatP= 2.51D-11
 IDIUse=1 WtCom= 1.00D+00 WtEn= 0.00D+00
 Coeff-Com:  0.623D-04-0.106D-03 0.910D-04 0.158D-02-0.136D-01 0.135D+00
 Coeff-Com: -0.457D+00 0.133D+01
 Coeff:      0.623D-04-0.106D-03 0.910D-04 0.158D-02-0.136D-01 0.135D+00
 Coeff:     -0.457D+00 0.133D+01
 Gap=     0.196 Goal=   None    Shift=    0.000
 Gap=     2.428 Goal=   None    Shift=    0.000
 RMSDP=4.25D-07 MaxDP=6.31D-06 DE=-9.18D-11 OVMax= 3.84D-06

 Cycle   9  Pass 1  IDiag  1:
 E= -7.88631191359264     Delta-E=       -0.000000000002 Rises=F Damp=F
 DIIS: error= 2.29D-08 at cycle   9 NSaved=   9.
 NSaved= 9 IEnMin= 9 EnMin= -7.88631191359264     IErMin= 9 ErrMin= 2.29D-08
 ErrMax= 2.29D-08  0.00D+00 EMaxC= 1.00D-01 BMatC= 9.98D-15 BMatP= 6.05D-13
 IDIUse=1 WtCom= 1.00D+00 WtEn= 0.00D+00
 Coeff-Com:  0.643D-05-0.134D-04 0.732D-04-0.156D-02 0.929D-02-0.827D-01
 Coeff-Com:  0.275D+00-0.817D+00 0.162D+01
 Coeff:      0.643D-05-0.134D-04 0.732D-04-0.156D-02 0.929D-02-0.827D-01
 Coeff:      0.275D+00-0.817D+00 0.162D+01
 Gap=     0.196 Goal=   None    Shift=    0.000
 Gap=     2.428 Goal=   None    Shift=    0.000
 RMSDP=3.11D-08 MaxDP=2.73D-07 DE=-1.88D-12 OVMax= 2.70D-07

 Cycle  10  Pass 1  IDiag  1:
 E= -7.88631191359267     Delta-E=       -0.000000000000 Rises=F Damp=F
 DIIS: error= 4.50D-09 at cycle  10 NSaved=  10.
 NSaved=10 IEnMin=10 EnMin= -7.88631191359267     IErMin=10 ErrMin= 4.50D-09
 ErrMax= 4.50D-09  0.00D+00 EMaxC= 1.00D-01 BMatC= 3.42D-16 BMatP= 9.98D-15
 IDIUse=1 WtCom= 1.00D+00 WtEn= 0.00D+00
 Coeff-Com: -0.835D-06 0.184D-05-0.120D-04 0.268D-03-0.162D-02 0.146D-01
 Coeff-Com: -0.487D-01 0.148D+00-0.468D+00 0.136D+01
 Coeff:     -0.835D-06 0.184D-05-0.120D-04 0.268D-03-0.162D-02 0.146D-01
 Coeff:     -0.487D-01 0.148D+00-0.468D+00 0.136D+01
 Gap=     0.196 Goal=   None    Shift=    0.000
 Gap=     2.428 Goal=   None    Shift=    0.000
 RMSDP=6.44D-09 MaxDP=4.87D-08 DE=-2.84D-14 OVMax= 6.05D-08

 SCF Done:  E(UHF) =  -7.88631191359     A.U. after   10 cycles
            NFock= 10  Conv=0.64D-08     -V/T= 1.9824
 <Sx>= 0.0000 <Sy>= 0.0000 <Sz>= 1.0000 <S**2>= 2.0000 S= 1.0000
 <L.S>= 0.000000000000E+00
 KE= 8.027823194855D+00 PE=-2.012296035044D+01 EE= 3.150470820156D+00
 Annihilation of the first spin contaminant:
 S**2 before annihilation     2.0000,   after     2.0000
 Leave Link  502 at Mon Mar 28 14:06:28 2022, MaxMem=  9663676416 cpu:               4.5 elap:               0.2
 (Enter /nopt/nrel/apps/gaussian/g16C_1/g16/l801.exe)
 Windowed orbitals will be sorted by symmetry type.
 ExpMin= 2.40D-02 ExpMax= 1.47D+03 ExpMxC= 5.03D+01 IAcc=3 IRadAn=         5 AccDes= 0.00D+00
 HarFok:  IExCor=  205 AccDes= 0.00D+00 IRadAn=         5 IDoV=-2 UseB2=F ITyADJ=14
 ICtDFT= 12500011 ScaDFX=  1.000000  1.000000  1.000000  1.000000
 Largest valence mixing into a core orbital is  3.09D-04
 Largest core mixing into a valence orbital is  1.79D-04
 Range of M.O.s used for correlation:     2    15
 NBasis=    15 NAE=     3 NBE=     1 NFC=     1 NFV=     0
 NROrb=     14 NOA=     2 NOB=     0 NVA=    12 NVB=    14
 Leave Link  801 at Mon Mar 28 14:06:28 2022, MaxMem=  9663676416 cpu:               1.8 elap:               0.1
 (Enter /nopt/nrel/apps/gaussian/g16C_1/g16/l804.exe)
 Open-shell transformation, MDV=  9663676416 ITran=4 ISComp=2.
 Unit  1 TFree=         15923 TCopy=        220880.
 Semi-Direct transformation.
 ModeAB=           2 MOrb=             2 LenV=    9663496484
 LASXX=          607 LTotXX=         607 LenRXX=         607
 LTotAB=         853 MaxLAS=        3808 LenRXY=        3808
 NonZer=        4396 LenScr=      785920 LnRSAI=           0
 LnScr1=           0 LExtra=      221865 Total=      1012200
 MaxDsk= 34359738368 SrtSym=           F ITran=            4
 DoSDTr:  NPSUse= 36
 JobTyp=1 Pass  1:  I=   1 to   2.
 (rs|ai) integrals will be sorted in core.
 Complete sort for first half transformation.
 First half transformation complete.
 Complete sort for second half transformation.
 Second half transformation complete.
 Spin components of T(2) and E(2):
     alpha-alpha T2 =       0.2297676224D-03 E2=     -0.2719760795D-03
     alpha-beta  T2 =       0.0000000000D+00 E2=      0.0000000000D+00
     beta-beta   T2 =       0.0000000000D+00 E2=      0.0000000000D+00
 ANorm=    0.1000114877D+01
 E2 =    -0.2719760795D-03 EUMP2 =    -0.78865838896722D+01
 Leave Link  804 at Mon Mar 28 14:06:29 2022, MaxMem=  9663676416 cpu:               3.0 elap:               0.1
 (Enter /nopt/nrel/apps/gaussian/g16C_1/g16/l913.exe)
 CIDS:  MDV=  9663676416.
 Frozen-core window:  NFC=   1 NFV=   0.
 IFCWin=0 IBDFC=1 NFBD=     0     0 NFCmp=     0     0 NFFFC=     0     0
 Using original routines for 1st iteration.
 Using DD4UQ or CC4UQ for 2nd and later iterations.
 Keep R2 and R3 ints in memory in symmetry-blocked form, NReq=7410722.
 FoFCou: FMM=F IPFlag=           0 FMFlag=           0 FMFlg1=           0
         NFxFlg=           0 DoJE=F BraDBF=F KetDBF=F FulRan=T
         wScrn=  0.000000 ICntrl=       600 IOpCl=  0 I1Cent=           0 NGrid=           0
         NMat0=    1 NMatS0=    120 NMatT0=    0 NMatD0=    1 NMtDS0=    0 NMtDT0=    0
 Petite list used in FoFCou.
 CIDS: In Core Option IDoMem=           1.
 Coupled Cluster theory with single and double substitutions
 ===========================================================
 Iterations= 200 Convergence= 0.100D-06
 Produce multiple copies of IABC intergrals
 Iteration Nr.   1
 **********************
 DD1Dir will call FoFMem   1 times, MxPair=         2
 NAB=     0 NAA=     1 NBB=     0.
 MP4(R+Q)=  0.62491297D-07
 Maximum subspace dimension=  5
 A-vector RMS=  8.9442136D-04 Max=  3.1170465D-03 conv= 1.00D-05.
 RLE energy=       -0.0004519740
 E3=       -0.10837673D-03        EUMP3=      -0.78866922664D+01
 E4(DQ)=   -0.43429673D-04        UMP4(DQ)=   -0.78867356961D+01
 E4(SDQ)=  -0.43822526D-04        UMP4(SDQ)=  -0.78867360889D+01
 VARIATIONAL ENERGIES WITH THE FIRST-ORDER WAVEFUNCTION:
 DE(Corr)= -0.38029012E-03 E(Corr)=     -7.8866922037    
 NORM(A)=   0.10003186D+01
 Iteration Nr.   2
 **********************
 DD1Dir will call FoFMem   1 times, MxPair=         2
 NAB=     0 NAA=     1 NBB=     0.
 A-vector RMS=  1.2068587D-04 Max=  2.4003266D-04 conv= 1.00D-05.
 RLE energy=       -0.0004546473
 DE(Corr)= -0.45306704E-03 E(CORR)=     -7.8867649806     Delta=-7.28D-05
 NORM(A)=   0.10003238D+01
 Iteration Nr.   3
 **********************
 DD1Dir will call FoFMem   1 times, MxPair=         2
 NAB=     0 NAA=     1 NBB=     0.
 A-vector RMS=  2.2974181D-05 Max=  7.4794268D-05 conv= 1.00D-05.
 RLE energy=       -0.0004547681
 DE(Corr)= -0.45467842E-03 E(CORR)=     -7.8867665920     Delta=-1.61D-06
 NORM(A)=   0.10003242D+01
 Iteration Nr.   4
 **********************
 DD1Dir will call FoFMem   1 times, MxPair=         2
 NAB=     0 NAA=     1 NBB=     0.
 A-vector RMS=  6.7489376D-06 Max=  2.7076808D-05 conv= 1.00D-05.
 RLE energy=       -0.0004547287
 DE(Corr)= -0.45475275E-03 E(CORR)=     -7.8867666663     Delta=-7.43D-08
 NORM(A)=   0.10003242D+01
 Iteration Nr.   5
 **********************
 DD1Dir will call FoFMem   1 times, MxPair=         2
 NAB=     0 NAA=     1 NBB=     0.
 A-vector RMS=  8.4165412D-07 Max=  3.1731400D-06 conv= 1.00D-05.
 RLE energy=       -0.0004547555
 DE(Corr)= -0.45473855E-03 E(CORR)=     -7.8867666521     Delta= 1.42D-08
 NORM(A)=   0.10003242D+01
 CI/CC converged in    5 iterations to DelEn= 1.42D-08 Conv= 1.00D-07 ErrA1= 8.42D-07 Conv= 1.00D-05
 Wavefunction amplitudes converged. E(Corr)=     -7.8867666521    
 Largest amplitude= 1.29D-02
 Discarding MO integrals.
 Leave Link  913 at Mon Mar 28 14:06:29 2022, MaxMem=  9663676416 cpu:               4.2 elap:               0.1
 (Enter /nopt/nrel/apps/gaussian/g16C_1/g16/l601.exe)
 Copying SCF densities to generalized density rwf, IOpCl= 1 IROHF=0.

 **********************************************************************

            Population analysis using the SCF Density.

 **********************************************************************

 Orbital symmetries:
 Alpha Orbitals:
       Occupied  (SG) (SG) (SG)
       Virtual   (PI) (PI) (SG) (PI) (PI) (SG) (SG) (PI) (PI) (DLTA)
                 (DLTA) (SG)
 Beta  Orbitals:
       Occupied  (SG)
       Virtual   (SG) (PI) (PI) (SG) (SG) (PI) (PI) (SG) (SG) (DLTA)
                 (DLTA) (PI) (PI) (SG)
 The electronic state is 3-SG.
 Alpha  occ. eigenvalues --   -2.49852  -0.63929  -0.17482
 Alpha virt. eigenvalues --    0.02081   0.02081   0.04931   0.14654   0.14654
 Alpha virt. eigenvalues --    0.14962   0.25713   0.31788   0.31788   0.34394
 Alpha virt. eigenvalues --    0.34394   0.73538
  Beta  occ. eigenvalues --   -2.48156
  Beta virt. eigenvalues --   -0.05376   0.04778   0.04778   0.06260   0.08553
  Beta virt. eigenvalues --    0.17835   0.17835   0.20757   0.33343   0.36846
  Beta virt. eigenvalues --    0.36846   0.36866   0.36866   0.88801
          Condensed to atoms (all electrons):
               1          2
     1  H    0.603634   0.153760
     2  Li   0.153760   3.088845
          Atomic-Atomic Spin Densities.
               1          2
     1  H    0.603631   0.153513
     2  Li   0.153513   1.089343
 Mulliken charges and spin densities:
               1          2
     1  H    0.242605   0.757144
     2  Li  -0.242605   1.242856
 Sum of Mulliken charges =  -0.00000   2.00000
 Mulliken charges and spin densities with hydrogens summed into heavy atoms:
               1          2
     2  Li  -0.000000   2.000000
 N-N= 1.058354421840D+00 E-N=-2.012296032717D+01  KE= 8.027823194855D+00
 Symmetry A1   KE= 8.027823194855D+00
 Symmetry A2   KE=-9.496801257092D-52
 Symmetry B1   KE= 0.000000000000D+00
 Symmetry B2   KE= 0.000000000000D+00
 Symmetry A1   SP= 2.000000000000D+00
 Symmetry A2   SP=-2.189977581485D-51
 Symmetry B1   SP= 0.000000000000D+00
 Symmetry B2   SP= 0.000000000000D+00

 Atomic contributions to Alpha molecular orbitals:
 Alpha occ 1 OE=-2.499 is Li2-s=0.9992
 Alpha occ 2 OE=-0.639 is H1-s=0.7525 Li2-p=0.1226
 Alpha occ 3 OE=-0.175 is Li2-s=0.7585 Li2-p=0.2314
 Alpha vir 4 OE=0.021 is Li2-p=0.9975
 Alpha vir 5 OE=0.021 is Li2-p=0.9975
 Alpha vir 6 OE=0.049 is Li2-p=0.8066 Li2-s=0.1761
 Alpha vir 7 OE=0.147 is Li2-p=0.9842
 Alpha vir 8 OE=0.147 is Li2-p=0.9842
 Alpha vir 9 OE=0.150 is Li2-s=0.7905 Li2-p=0.2072
 Alpha vir 10 OE=0.257 is Li2-d=0.4979 Li2-p=0.3936
 Alpha vir 11 OE=0.318 is Li2-d=0.9817
 Alpha vir 12 OE=0.318 is Li2-d=0.9817
 Alpha vir 13 OE=0.344 is Li2-d=1.0000
 Alpha vir 14 OE=0.344 is Li2-d=1.0000
 Alpha vir 15 OE=0.735 is Li2-d=0.4416 Li2-p=0.2386 H1-s=0.2102 Li2-s=0.1095

 Atomic contributions to Beta  molecular orbitals:
 Beta  occ 1 OE=-2.482 is Li2-s=0.9999
 Beta  vir 2 OE=-0.054 is Li2-s=0.4400 Li2-p=0.2796 H1-s=0.2580
 Beta  vir 3 OE=0.048 is Li2-p=0.9960
 Beta  vir 4 OE=0.048 is Li2-p=0.9960
 Beta  vir 5 OE=0.063 is Li2-p=0.6491 Li2-s=0.3416
 Beta  vir 6 OE=0.086 is Li2-p=0.4347 Li2-s=0.4216 H1-s=0.1111
 Beta  vir 7 OE=0.178 is Li2-p=0.9745
 Beta  vir 8 OE=0.178 is Li2-p=0.9745
 Beta  vir 9 OE=0.208 is Li2-s=0.7192 Li2-p=0.2465
 Beta  vir 10 OE=0.333 is Li2-d=0.6781 Li2-p=0.2526
 Beta  vir 11 OE=0.368 is Li2-d=1.0000
 Beta  vir 12 OE=0.368 is Li2-d=1.0000
 Beta  vir 13 OE=0.369 is Li2-d=0.9705
 Beta  vir 14 OE=0.369 is Li2-d=0.9705
 Beta  vir 15 OE=0.888 is H1-s=0.5594 Li2-d=0.2317 Li2-p=0.1374
 
 Leave Link  601 at Mon Mar 28 14:06:29 2022, MaxMem=  9663676416 cpu:               2.9 elap:               0.1
 (Enter /nopt/nrel/apps/gaussian/g16C_1/g16/l9999.exe)

 Test job not archived.
 1\1\GINC-R102U34\SP\UCCSD-FC\Gen\H1Li1(3)\USER\28-Mar-2022\0\\#P C
 CSD(MaxCyc=200,SaveAmplitudes,ReadAmplitudes)/GEN sp pop=AllOrbitals i
 op(3/33=1,3/36=-1)\\test\\0,3\H,0,0.,0.,0.\Li,0,0.,0.,1.5\\Version=ES6
 4L-G16RevC.01\State=3-SG\HF=-7.8863119\MP2=-7.8865839\MP3=-7.8866923\M
 P4D=-7.8867358\MP4DQ=-7.8867357\MP4SDQ=-7.8867361\CCSD=-7.8867667\S2=2
 .000005\S2-1=0.\S2A=2.\RMSD=6.437e-09\PG=C*V [C*(H1Li1)]\\@


 A MAN IS NEVER SO BRILLIANT AS WHEN HE TAKES THE WORDS RIGHT OUT
 OF YOUR MOUTH. -- ARNOT SHEPPARD, JR.
 Job cpu time:       0 days  0 hours  0 minutes 37.8 seconds.
 Elapsed time:       0 days  0 hours  0 minutes  1.4 seconds.
 File lengths (MBytes):  RWF=     13 Int=      0 D2E=      0 Chk=      1 Scr=      1
 Normal termination of Gaussian 16 at Mon Mar 28 14:06:29 2022.
