 Entering Gaussian System, Link 0=g16
 Initial command:
 /nopt/nrel/apps/gaussian/g16C_1/g16/l1.exe "/lustre/eaglefs/scratch/user/qc/kh-dissc/kh-3-ccsd-0.6-321g/Gau-17265.inp" -scrdir="/lustre/eaglefs/scratch/user/qc/kh-dissc/kh-3-ccsd-0.6-321g/"
 Default is to use a total of  36 processors:
                               36 via shared-memory
                                1 via Linda
 Entering Link 1 = /nopt/nrel/apps/gaussian/g16C_1/g16/l1.exe PID=     17266.
  
 Copyright (c) 1988-2019, Gaussian, Inc.  All Rights Reserved.
  
 This is part of the Gaussian(R) 16 program.  It is based on
 the Gaussian(R) 09 system (copyright 2009, Gaussian, Inc.),
 the Gaussian(R) 03 system (copyright 2003, Gaussian, Inc.),
 the Gaussian(R) 98 system (copyright 1998, Gaussian, Inc.),
 the Gaussian(R) 94 system (copyright 1995, Gaussian, Inc.),
 the Gaussian 92(TM) system (copyright 1992, Gaussian, Inc.),
 the Gaussian 90(TM) system (copyright 1990, Gaussian, Inc.),
 the Gaussian 88(TM) system (copyright 1988, Gaussian, Inc.),
 the Gaussian 86(TM) system (copyright 1986, Carnegie Mellon
 University), and the Gaussian 82(TM) system (copyright 1983,
 Carnegie Mellon University). Gaussian is a federally registered
 trademark of Gaussian, Inc.
  
 This software contains proprietary and confidential information,
 including trade secrets, belonging to Gaussian, Inc.
  
 This software is provided under written license and may be
 used, copied, transmitted, or stored only in accord with that
 written license.
  
 The following legend is applicable only to US Government
 contracts under FAR:
  
                    RESTRICTED RIGHTS LEGEND
  
 Use, reproduction and disclosure by the US Government is
 subject to restrictions as set forth in subparagraphs (a)
 and (c) of the Commercial Computer Software - Restricted
 Rights clause in FAR 52.227-19.
  
 Gaussian, Inc.
 340 Quinnipiac St., Bldg. 40, Wallingford CT 06492
  
  
 ---------------------------------------------------------------
 Warning -- This program may not be used in any manner that
 competes with the business of Gaussian, Inc. or will provide
 assistance to any competitor of Gaussian, Inc.  The licensee
 of this program is prohibited from giving any competitor of
 Gaussian, Inc. access to this program.  By using this program,
 the user acknowledges that Gaussian, Inc. is engaged in the
 business of creating and licensing software in the field of
 computational chemistry and represents and warrants to the
 licensee that it is not a competitor of Gaussian, Inc. and that
 it will not use this program in any manner prohibited above.
 ---------------------------------------------------------------
  

 Cite this work as:
 Gaussian 16, Revision C.01,
 M. J. Frisch, G. W. Trucks, H. B. Schlegel, G. E. Scuseria, 
 M. A. Robb, J. R. Cheeseman, G. Scalmani, V. Barone, 
 G. A. Petersson, H. Nakatsuji, X. Li, M. Caricato, A. V. Marenich, 
 J. Bloino, B. G. Janesko, R. Gomperts, B. Mennucci, H. P. Hratchian, 
 J. V. Ortiz, A. F. Izmaylov, J. L. Sonnenberg, D. Williams-Young, 
 F. Ding, F. Lipparini, F. Egidi, J. Goings, B. Peng, A. Petrone, 
 T. Henderson, D. Ranasinghe, V. G. Zakrzewski, J. Gao, N. Rega, 
 G. Zheng, W. Liang, M. Hada, M. Ehara, K. Toyota, R. Fukuda, 
 J. Hasegawa, M. Ishida, T. Nakajima, Y. Honda, O. Kitao, H. Nakai, 
 T. Vreven, K. Throssell, J. A. Montgomery, Jr., J. E. Peralta, 
 F. Ogliaro, M. J. Bearpark, J. J. Heyd, E. N. Brothers, K. N. Kudin, 
 V. N. Staroverov, T. A. Keith, R. Kobayashi, J. Normand, 
 K. Raghavachari, A. P. Rendell, J. C. Burant, S. S. Iyengar, 
 J. Tomasi, M. Cossi, J. M. Millam, M. Klene, C. Adamo, R. Cammi, 
 J. W. Ochterski, R. L. Martin, K. Morokuma, O. Farkas, 
 J. B. Foresman, and D. J. Fox, Gaussian, Inc., Wallingford CT, 2019.
 
 ******************************************
 Gaussian 16:  ES64L-G16RevC.01  3-Jul-2019
                28-Mar-2022 
 ******************************************
 %chk=molecule
 Default route: CacheSize=180224 MaxDisk=256GB
 ----------------------------------------------------------------------
 #P CCSD(MaxCyc=200,SaveAmplitudes,ReadAmplitudes)/GEN sp pop=AllOrbita
 ls iop(3/33=1,3/36=-1)
 ----------------------------------------------------------------------
 1/4=180224,38=1,172=1/1;
 2/4=180224,12=2,17=6,18=5,40=1/2;
 3/4=180224,5=7,11=9,25=1,30=1,33=1,36=-1/1,2,3;
 4/4=180224/1;
 5/4=180224,5=2,38=5/2;
 8/4=180224,6=4,9=120000,10=1,24=1/1,4;
 9/4=180224,5=7,6=200,77=1/13;
 6/4=180224,7=2,8=2,9=2,10=2,96=-1/1;
 99/4=180224,5=1,9=1/99;
 Leave Link    1 at Mon Mar 28 14:38:25 2022, MaxMem=           0 cpu:               2.7 elap:               0.1
 (Enter /nopt/nrel/apps/gaussian/g16C_1/g16/l101.exe)
 ----
 test
 ----
 Symbolic Z-matrix:
 Charge =  0 Multiplicity = 3
 H                     0.        0.        0. 
 K                     0.        0.        0.6 
 
 ITRead=  0  0
 MicOpt= -1 -1
 NAtoms=      2 NQM=        2 NQMF=       0 NMMI=      0 NMMIF=      0
                NMic=       0 NMicF=      0.
                    Isotopes and Nuclear Properties:
 (Nuclear quadrupole moments (NQMom) in fm**2, nuclear magnetic moments (NMagM)
  in nuclear magnetons)

  Atom         1           2
 IAtWgt=           1          39
 AtmWgt=   1.0078250  38.9637079
 NucSpn=           1           3
 AtZEff=  -0.0000000  -0.0000000
 NQMom=    0.0000000   5.8500000
 NMagM=    2.7928460   0.3914660
 AtZNuc=   1.0000000  19.0000000
 Leave Link  101 at Mon Mar 28 14:38:25 2022, MaxMem=  9663676416 cpu:               3.0 elap:               0.1
 (Enter /nopt/nrel/apps/gaussian/g16C_1/g16/l202.exe)
                          Input orientation:                          
 ---------------------------------------------------------------------
 Center     Atomic      Atomic             Coordinates (Angstroms)
 Number     Number       Type             X           Y           Z
 ---------------------------------------------------------------------
      1          1           0        0.000000    0.000000    0.000000
      2         19           0        0.000000    0.000000    0.600000
 ---------------------------------------------------------------------
 Stoichiometry    HK(3)
 Framework group  C*V[C*(HK)]
 Deg. of freedom     1
 Full point group                 C*V     NOp   4
 Largest Abelian subgroup         C2V     NOp   4
 Largest concise Abelian subgroup C1      NOp   1
                         Standard orientation:                         
 ---------------------------------------------------------------------
 Center     Atomic      Atomic             Coordinates (Angstroms)
 Number     Number       Type             X           Y           Z
 ---------------------------------------------------------------------
      1          1           0        0.000000    0.000000   -0.570000
      2         19           0        0.000000    0.000000    0.030000
 ---------------------------------------------------------------------
 Rotational constants (GHZ):           0.0000000        1428.9600292        1428.9600292
 Leave Link  202 at Mon Mar 28 14:38:25 2022, MaxMem=  9663676416 cpu:               0.7 elap:               0.0
 (Enter /nopt/nrel/apps/gaussian/g16C_1/g16/l301.exe)
 General basis read from cards:  (5D, 7F)
                         Coordinates in L301:                         
 ---------------------------------------------------------------------
 Center     Atomic      Atomic             Coordinates (Angstroms)
 Number     Number       Type             X           Y           Z
 ---------------------------------------------------------------------
      1          1           0        0.000000    0.000000   -0.570000
      2         19           0        0.000000    0.000000    0.030000
 ---------------------------------------------------------------------
 Centers:       1
 STO-3G
 ****
 Centers:       2
 3-21G
 ****
 FixB: optimizing general contractions.
 Ernie: Thresh=  0.10000D-02 Tol=  0.10000D-05 Strict=F.
 IA=     1 ShT= 0 ShC= 0 NL=   1 NS=   0.
 IA=     1 L=0 SC=0 ISt=    0 NBk=    0 NP=    0 IndPr=    0.
 IA=     2 ShT= 0 ShC= 0 NL=   1 NS=   0.
 IA=     2 L=0 SC=0 ISt=    0 NBk=    0 NP=    0 IndPr=    0.
 IA=     2 ShT= 1 ShC= 0 NL=   4 NS=   1.
 IA=     2 L=1 SC=0 ISt=    1 NBk=    3 NP=    8 IndPr=    0.
 DoElim1:  L=1 select primitive    1 from    2 using    1 C=-1.09D-01
 DoElim1:  L=1 select primitive    1 from    3 using    1 C=-1.09D-01
 DoElim1:  L=1 select primitive    4 from    3 using    2 C=-2.70D-01
 DoElim2:  L=1 select primitive    8 from    2 using    3 C= 1.13D+00
 DoElim2:  L=1 select primitive    8 from    1 using    3 C= 1.13D+00
 DoElim2:  L=1 select primitive    6 from    1 using    2 C= 8.11D-01
 DoElim1:  L=1 select primitive    1 from    2 using    1 C= 1.34D-01
 DoElim1:  L=1 select primitive    1 from    3 using    1 C= 1.34D-01
 DoElim1:  L=1 select primitive    4 from    3 using    2 C= 1.99D-02
 DoElim2:  L=1 select primitive    8 from    2 using    3 C= 1.00D+00
 DoElim2:  L=1 select primitive    8 from    1 using    3 C= 1.00D+00
 DoElim2:  L=1 select primitive    6 from    1 using    2 C= 6.45D-01
 Delete L=1 primitive    6 from    3 C=  0.00D+00.
 Delete L=1 primitive    5 from    3 C=  0.00D+00.
 Delete L=1 primitive    4 from    3 C=  0.00D+00.
 Delete L=1 primitive    3 from    3 C=  0.00D+00.
 Delete L=1 primitive    2 from    3 C=  0.00D+00.
 Delete L=1 primitive    1 from    3 C=  0.00D+00.
 Delete L=1 primitive    8 from    2 C=  0.00D+00.
 Delete L=1 primitive    7 from    2 C=  0.00D+00.
 Delete L=1 primitive    3 from    2 C=  0.00D+00.
 Delete L=1 primitive    2 from    2 C=  0.00D+00.
 Delete L=1 primitive    1 from    2 C=  0.00D+00.
 Delete L=1 primitive    8 from    1 C=  0.00D+00.
 Delete L=1 primitive    7 from    1 C=  0.00D+00.
 Delete L=1 primitive    6 from    1 C=  0.00D+00.
 Delete L=1 primitive    5 from    1 C=  0.00D+00.
 Delete L=1 primitive    4 from    1 C=  0.00D+00.
 IA=     2 L=1 SC=0 ISt=    0 NBk=    0 NP=    0 IndPr=    8.
 LdAtmC:  AtmChg=     1.000000    19.000000
 AtZEff=     -1.0000000    -22.4200000
 NEqShl: 
              1            2            3            4
     1            1            1            1            1
     2            2            2            2            2
     3            3            3            3            3
     4            4            4            4            4
     5            5            5            5            5
     6            6            6            6            6
 NEqBas: 
              1            2            3            4
     1            1            1            1            1
     2            2            2            2            2
     3            3            3            3            3
     4            4           -4           -4            4
     5            5           -5            5           -5
     6            6            6            6            6
     7            7            7            7            7
     8            8           -8           -8            8
     9            9           -9            9           -9
    10           10           10           10           10
    11           11           11           11           11
    12           12          -12          -12           12
    13           13          -13           13          -13
    14           14           14           14           14
    15           15           15           15           15
    16           16          -16          -16           16
    17           17          -17           17          -17
    18           18           18           18           18
 There are    10 symmetry adapted cartesian basis functions of A1  symmetry.
   1         1   1   1   1
   2         2   2   2   2
   3         3   3   3   3
   4         6   6   6   6
   5         7   7   7   7
   6        10  10  10  10
   7        11  11  11  11
   8        14  14  14  14
   9        15  15  15  15
  10        18  18  18  18
 There are     0 symmetry adapted cartesian basis functions of A2  symmetry.
 There are     4 symmetry adapted cartesian basis functions of B1  symmetry.
  11         4   4   4   4
  12         8   8   8   8
  13        12  12  12  12
  14        16  16  16  16
 There are     4 symmetry adapted cartesian basis functions of B2  symmetry.
  15         5   5   5   5
  16         9   9   9   9
  17        13  13  13  13
  18        17  17  17  17
 Order= 1 2 4 3
 Reordered character table:
              1            2            3            4            5
     1            1            1            1            1            1
     2            2            1            1           -1           -1
     3            4            1           -1           -1            1
     4            3            1           -1            1           -1
 NEqShl: 
              1            2            3            4
     1            1            1            1            1
     2            2            2            2            2
     3            3            3            3            3
     4            4            4            4            4
     5            5            5            5            5
     6            6            6            6            6
 NEqBas: 
              1            2            3            4
     1            1            1            1            1
     2            2            2            2            2
     3            3            3            3            3
     4            4           -4           -4            4
     5            5           -5            5           -5
     6            6            6            6            6
     7            7            7            7            7
     8            8           -8           -8            8
     9            9           -9            9           -9
    10           10           10           10           10
    11           11           11           11           11
    12           12          -12          -12           12
    13           13          -13           13          -13
    14           14           14           14           14
    15           15           15           15           15
    16           16          -16          -16           16
    17           17          -17           17          -17
    18           18           18           18           18
 There are    10 symmetry adapted basis functions of A1  symmetry.
   1         1   1   1   1
   2         2   2   2   2
   3         3   3   3   3
   4         6   6   6   6
   5         7   7   7   7
   6        10  10  10  10
   7        11  11  11  11
   8        14  14  14  14
   9        15  15  15  15
  10        18  18  18  18
 There are     0 symmetry adapted basis functions of A2  symmetry.
 There are     4 symmetry adapted basis functions of B1  symmetry.
  11         4   4   4   4
  12         8   8   8   8
  13        12  12  12  12
  14        16  16  16  16
 There are     4 symmetry adapted basis functions of B2  symmetry.
  15         5   5   5   5
  16         9   9   9   9
  17        13  13  13  13
  18        17  17  17  17
 Order= 1 2 4 3
 Reordered character table:
              1            2            3            4            5
     1            1            1            1            1            1
     2            2            1            1           -1           -1
     3            4            1           -1           -1            1
     4            3            1           -1            1           -1
    18 basis functions,    42 primitive gaussians,    18 cartesian basis functions
    11 alpha electrons        9 beta electrons
       nuclear repulsion energy        16.7572783458 Hartrees.
 IS=     1 IAt=     1 ISR=     1 T=0 IP=      1 IndIP=      1 IndIPD=      0 C=  2.769344D-01  0.000000D+00                             NZ=T
 IS=     1 IAt=     1 ISR=     1 T=0 IP=      2 IndIP=      2 IndIPD=      1 C=  2.678389D-01  0.000000D+00                             NZ=T
 IS=     1 IAt=     1 ISR=     1 T=0 IP=      3 IndIP=      3 IndIPD=      2 C=  8.347367D-02  0.000000D+00                             NZ=T
 IS=     2 IAt=     2 ISR=     1 T=0 IP=      1 IndIP=      4 IndIPD=      0 C=  1.235533D+01  0.000000D+00                             NZ=T
 IS=     2 IAt=     2 ISR=     1 T=0 IP=      2 IndIP=      5 IndIPD=      1 C=  1.757620D+01  0.000000D+00                             NZ=T
 IS=     2 IAt=     2 ISR=     1 T=0 IP=      3 IndIP=      6 IndIPD=      2 C=  9.965255D+00  0.000000D+00                             NZ=T
 IS=     3 IAt=     2 ISR=     2 T=1 IP=      1 IndIP=      7 IndIPD=      0 C= -1.917303D+00  3.974198D+01                             NZ=T
 IS=     3 IAt=     2 ISR=     2 T=1 IP=      2 IndIP=      8 IndIPD=      1 C=  6.276214D-01  2.313166D+01                             NZ=T
 IS=     3 IAt=     2 ISR=     2 T=1 IP=      3 IndIP=      9 IndIPD=      2 C=  2.074825D+00  4.747626D+00                             NZ=T
 IS=     4 IAt=     2 ISR=     3 T=1 IP=      1 IndIP=     10 IndIPD=      0 C= -5.565498D-01  1.669766D-01                             NZ=T
 IS=     4 IAt=     2 ISR=     3 T=1 IP=      2 IndIP=     11 IndIPD=      1 C=  2.958337D-01  7.678126D-01                             NZ=T
 IS=     4 IAt=     2 ISR=     3 T=1 IP=      3 IndIP=     12 IndIPD=      2 C=  2.772726D-01  2.705395D-01                             NZ=T
 IS=     5 IAt=     2 ISR=     4 T=1 IP=      1 IndIP=     13 IndIPD=      0 C= -6.663323D-02  7.553623D-05                             NZ=T
 IS=     5 IAt=     2 ISR=     4 T=1 IP=      2 IndIP=     14 IndIPD=      1 C=  7.057644D-02  2.467884D-02                             NZ=T
 IS=     6 IAt=     2 ISR=     5 T=1 IP=      1 IndIP=     15 IndIPD=      0 C=  3.215666D-02  8.150947D-03                             NZ=T
 IExCor=    0 DFT=F Ex=HF Corr=None ExCW=0 ScaHFX=  1.000000
 ScaDFX=  1.000000  1.000000  1.000000  1.000000 ScalE2=  1.000000  1.000000
 IRadAn=      5 IRanWt=     -1 IRanGd=            0 ICorTp=0 IEmpDi=  4
 NAtoms=    2 NActive=    2 NUniq=    2 SFac= 1.00D+00 NAtFMM=   60 NAOKFM=F Big=F
 Integral buffers will be    131072 words long.
 Raffenetti 2 integral format.
 Two-electron integral symmetry is turned on.
 Leave Link  301 at Mon Mar 28 14:38:25 2022, MaxMem=  9663676416 cpu:               2.2 elap:               0.1
 (Enter /nopt/nrel/apps/gaussian/g16C_1/g16/l302.exe)
 NPDir=0 NMtPBC=     1 NCelOv=     1 NCel=       1 NClECP=     1 NCelD=      1
         NCelK=      1 NCelE2=     1 NClLst=     1 CellRange=     0.0.
 One-electron integrals computed using PRISM.
 One-electron integral symmetry used in STVInt
 Entering OneElI...
 Calculate overlap and kinetic energy integrals
    NBasis =  18  MinDer = 0  MaxDer = 0
 Requested accuracy = 0.1000D-12
 Symmetry will be used
 PrmmSu-InSpLW:  IPartL=    0 NPrtUS=   36 NPrtUL=    1 DoSpLW=F IThBeg=    0 IThEnd=   35 NThAct=   36.
 PrSmSu:  IncTry=   512 NBBP=             21 NTPThr=   100 NPartT=   36 Incr=           1 LDynOK=F GPUOK=F.
 PrsmSu:  NPrtUS=  36 ThrOK=T IAlg=1 LenDen=           0 ISkipM=0 DoSpLW=F IThBeg=    0 IThEnd=   35.
 Prism:   IPart=     0 DynPar=F LinDyn=F Incr=           1.
 PRISM was handed   268433216 working-precision words and    21 shell-pairs
 PRISM was handed   268433216 working-precision words and    21 shell-pairs
 PRISM was handed   268433216 working-precision words and    21 shell-pairs
 PRISM was handed   268433216 working-precision words and    21 shell-pairs
 PRISM was handed   268433216 working-precision words and    21 shell-pairs
 PRISM was handed   268433216 working-precision words and    21 shell-pairs
 PRISM was handed   268433216 working-precision words and    21 shell-pairs
 PRISM was handed   268433216 working-precision words and    21 shell-pairs
 PRISM was handed   268433216 working-precision words and    21 shell-pairs
 IPart=  8 NShTot=           0 NBatch=           0 AvBLen=         0.0
 IPart= 34 NShTot=           0 NBatch=           0 AvBLen=         0.0
 IPart= 20 NShTot=           0 NBatch=           0 AvBLen=         0.0
 IPart= 11 NShTot=           0 NBatch=           0 AvBLen=         0.0
 IPart= 16 NShTot=           0 NBatch=           0 AvBLen=         0.0
 IPart=  4 NShTot=           0 NBatch=           0 AvBLen=         0.0
 PRISM was handed   268433216 working-precision words and    21 shell-pairs
 PRISM was handed   268433216 working-precision words and    21 shell-pairs
 PRISM was handed   268433216 working-precision words and    21 shell-pairs
 IPart= 10 NShTot=           0 NBatch=           0 AvBLen=         0.0
 IPart= 13 NShTot=           0 NBatch=           0 AvBLen=         0.0
 PRISM was handed   268433216 working-precision words and    21 shell-pairs
 IPart= 30 NShTot=           0 NBatch=           0 AvBLen=         0.0
 PRISM was handed   268433216 working-precision words and    21 shell-pairs
 IPart=  9 NShTot=           0 NBatch=           0 AvBLen=         0.0
 PRISM was handed   268433216 working-precision words and    21 shell-pairs
 IPart=  2 NShTot=           3 NBatch=           3 AvBLen=         1.0
 IPart= 29 NShTot=           0 NBatch=           0 AvBLen=         0.0
 IPart= 17 NShTot=           0 NBatch=           0 AvBLen=         0.0
 PRISM was handed   268433216 working-precision words and    21 shell-pairs
 PRISM was handed   268433216 working-precision words and    21 shell-pairs
 PRISM was handed   268433216 working-precision words and    21 shell-pairs
 IPart= 35 NShTot=           0 NBatch=           0 AvBLen=         0.0
 PRISM was handed   268433216 working-precision words and    21 shell-pairs
 PRISM was handed   268433216 working-precision words and    21 shell-pairs
 PRISM was handed   268433216 working-precision words and    21 shell-pairs
 PRISM was handed   268433216 working-precision words and    21 shell-pairs
 IPart=  0 NShTot=          10 NBatch=          10 AvBLen=         1.0
 IPart= 26 NShTot=           0 NBatch=           0 AvBLen=         0.0
 IPart= 12 NShTot=           0 NBatch=           0 AvBLen=         0.0
 PRISM was handed   268433216 working-precision words and    21 shell-pairs
 IPart= 24 NShTot=           0 NBatch=           0 AvBLen=         0.0
 IPart= 23 NShTot=           0 NBatch=           0 AvBLen=         0.0
 IPart=  1 NShTot=           7 NBatch=           7 AvBLen=         1.0
 IPart= 14 NShTot=           0 NBatch=           0 AvBLen=         0.0
 PRISM was handed   268433216 working-precision words and    21 shell-pairs
 PRISM was handed   268433216 working-precision words and    21 shell-pairs
 IPart=  3 NShTot=           1 NBatch=           1 AvBLen=         1.0
 IPart= 27 NShTot=           0 NBatch=           0 AvBLen=         0.0
 IPart= 32 NShTot=           0 NBatch=           0 AvBLen=         0.0
 PRISM was handed   268433216 working-precision words and    21 shell-pairs
 PRISM was handed   268433216 working-precision words and    21 shell-pairs
 PRISM was handed   268433216 working-precision words and    21 shell-pairs
 IPart= 33 NShTot=           0 NBatch=           0 AvBLen=         0.0
 PRISM was handed   268433216 working-precision words and    21 shell-pairs
 PRISM was handed   268433216 working-precision words and    21 shell-pairs
 PRISM was handed   268433216 working-precision words and    21 shell-pairs
 PRISM was handed   268433216 working-precision words and    21 shell-pairs
 PRISM was handed   268433216 working-precision words and    21 shell-pairs
 PRISM was handed   268433216 working-precision words and    21 shell-pairs
 PRISM was handed   268433216 working-precision words and    21 shell-pairs
 IPart= 19 NShTot=           0 NBatch=           0 AvBLen=         0.0
 PRISM was handed   268433216 working-precision words and    21 shell-pairs
 IPart= 21 NShTot=           0 NBatch=           0 AvBLen=         0.0
 IPart=  5 NShTot=           0 NBatch=           0 AvBLen=         0.0
 IPart= 22 NShTot=           0 NBatch=           0 AvBLen=         0.0
 IPart= 28 NShTot=           0 NBatch=           0 AvBLen=         0.0
 IPart= 25 NShTot=           0 NBatch=           0 AvBLen=         0.0
 IPart= 31 NShTot=           0 NBatch=           0 AvBLen=         0.0
 IPart=  7 NShTot=           0 NBatch=           0 AvBLen=         0.0
 IPart= 15 NShTot=           0 NBatch=           0 AvBLen=         0.0
 IPart= 18 NShTot=           0 NBatch=           0 AvBLen=         0.0
 IPart=  6 NShTot=           0 NBatch=           0 AvBLen=         0.0
 PrSmSu:  NxtVal=             37.
 *** Overlap *** 
                1             2             3             4             5 
      1  0.100000D+01
      2  0.293870D-01  0.100000D+01
      3  0.230552D+00  0.255104D+00  0.100000D+01
      4  0.000000D+00  0.000000D+00  0.000000D+00  0.100000D+01
      5  0.000000D+00  0.000000D+00  0.000000D+00  0.000000D+00  0.100000D+01
      6 -0.786209D-01  0.000000D+00  0.000000D+00  0.000000D+00  0.000000D+00
      7  0.745726D+00  0.851285D-02  0.305620D+00  0.000000D+00  0.000000D+00
      8  0.000000D+00  0.000000D+00  0.000000D+00  0.282859D+00  0.000000D+00
      9  0.000000D+00  0.000000D+00  0.000000D+00  0.000000D+00  0.282859D+00
     10 -0.512896D+00  0.000000D+00  0.000000D+00  0.000000D+00  0.000000D+00
     11  0.323216D+00  0.657633D-03  0.101668D-01  0.000000D+00  0.000000D+00
     12  0.000000D+00  0.000000D+00  0.000000D+00  0.931227D-02  0.000000D+00
     13  0.000000D+00  0.000000D+00  0.000000D+00  0.000000D+00  0.931227D-02
     14 -0.182966D+00  0.000000D+00  0.000000D+00  0.000000D+00  0.000000D+00
     15  0.283871D+00  0.496746D-02  0.403235D-01  0.000000D+00  0.000000D+00
     16  0.000000D+00  0.000000D+00  0.000000D+00  0.310109D-02  0.000000D+00
     17  0.000000D+00  0.000000D+00  0.000000D+00  0.000000D+00  0.310109D-02
     18 -0.763075D-01  0.000000D+00  0.000000D+00  0.000000D+00  0.000000D+00
                6             7             8             9            10 
      6  0.100000D+01
      7  0.000000D+00  0.100000D+01
      8  0.000000D+00  0.000000D+00  0.100000D+01
      9  0.000000D+00  0.000000D+00  0.000000D+00  0.100000D+01
     10  0.282859D+00  0.000000D+00  0.000000D+00  0.000000D+00  0.100000D+01
     11  0.000000D+00  0.215867D+00  0.000000D+00  0.000000D+00  0.000000D+00
     12  0.000000D+00  0.000000D+00  0.200079D+00  0.000000D+00  0.000000D+00
     13  0.000000D+00  0.000000D+00  0.000000D+00  0.200079D+00  0.000000D+00
     14  0.931227D-02  0.000000D+00  0.000000D+00  0.000000D+00  0.200079D+00
     15  0.000000D+00  0.230714D+00  0.000000D+00  0.000000D+00  0.000000D+00
     16  0.000000D+00  0.000000D+00  0.749696D-01  0.000000D+00  0.000000D+00
     17  0.000000D+00  0.000000D+00  0.000000D+00  0.749696D-01  0.000000D+00
     18  0.310109D-02  0.000000D+00  0.000000D+00  0.000000D+00  0.749696D-01
               11            12            13            14            15 
     11  0.100000D+01
     12  0.000000D+00  0.100000D+01
     13  0.000000D+00  0.000000D+00  0.100000D+01
     14  0.000000D+00  0.000000D+00  0.000000D+00  0.100000D+01
     15  0.889160D+00  0.000000D+00  0.000000D+00  0.000000D+00  0.100000D+01
     16  0.000000D+00  0.788263D+00  0.000000D+00  0.000000D+00  0.000000D+00
     17  0.000000D+00  0.000000D+00  0.788263D+00  0.000000D+00  0.000000D+00
     18  0.000000D+00  0.000000D+00  0.000000D+00  0.788263D+00  0.000000D+00
               16            17            18 
     16  0.100000D+01
     17  0.000000D+00  0.100000D+01
     18  0.000000D+00  0.000000D+00  0.100000D+01
 *** Kinetic Energy *** 
                1             2             3             4             5 
      1  0.760032D+00
      2  0.100039D-01  0.176298D+03
      3  0.105443D+00 -0.620687D+01  0.781415D+01
      4  0.000000D+00  0.000000D+00  0.000000D+00  0.280311D+02
      5  0.000000D+00  0.000000D+00  0.000000D+00  0.000000D+00  0.280311D+02
      6 -0.978262D-01  0.000000D+00  0.000000D+00  0.000000D+00  0.000000D+00
      7  0.376313D+00 -0.709406D+00 -0.685499D+00  0.000000D+00  0.000000D+00
      8  0.000000D+00  0.000000D+00  0.000000D+00  0.125035D+01  0.000000D+00
      9  0.000000D+00  0.000000D+00  0.000000D+00  0.000000D+00  0.125035D+01
     10 -0.596537D+00  0.000000D+00  0.000000D+00  0.000000D+00  0.000000D+00
     11 -0.255945D-01 -0.621117D-02 -0.439131D-01  0.000000D+00  0.000000D+00
     12  0.000000D+00  0.000000D+00  0.000000D+00  0.182620D-02  0.000000D+00
     13  0.000000D+00  0.000000D+00  0.000000D+00  0.000000D+00  0.182620D-02
     14 -0.304705D-01  0.000000D+00  0.000000D+00  0.000000D+00  0.000000D+00
     15  0.126294D-01  0.239311D-03  0.193628D-02  0.000000D+00  0.000000D+00
     16  0.000000D+00  0.000000D+00  0.000000D+00  0.248286D-03  0.000000D+00
     17  0.000000D+00  0.000000D+00  0.000000D+00  0.000000D+00  0.248286D-03
     18 -0.569367D-02  0.000000D+00  0.000000D+00  0.000000D+00  0.000000D+00
                6             7             8             9            10 
      6  0.280311D+02
      7  0.000000D+00  0.856984D+00
      8  0.000000D+00  0.000000D+00  0.155517D+01
      9  0.000000D+00  0.000000D+00  0.000000D+00  0.155517D+01
     10  0.125035D+01  0.000000D+00  0.000000D+00  0.000000D+00  0.155517D+01
     11  0.000000D+00 -0.669248D-01  0.000000D+00  0.000000D+00  0.000000D+00
     12  0.000000D+00  0.000000D+00  0.358731D-01  0.000000D+00  0.000000D+00
     13  0.000000D+00  0.000000D+00  0.000000D+00  0.358731D-01  0.000000D+00
     14  0.182620D-02  0.000000D+00  0.000000D+00  0.000000D+00  0.358731D-01
     15  0.000000D+00  0.106939D-01  0.000000D+00  0.000000D+00  0.000000D+00
     16  0.000000D+00  0.000000D+00  0.579876D-02  0.000000D+00  0.000000D+00
     17  0.000000D+00  0.000000D+00  0.000000D+00  0.579876D-02  0.000000D+00
     18  0.248286D-03  0.000000D+00  0.000000D+00  0.000000D+00  0.579876D-02
               11            12            13            14            15 
     11  0.660420D-01
     12  0.000000D+00  0.974466D-01
     13  0.000000D+00  0.000000D+00  0.974466D-01
     14  0.000000D+00  0.000000D+00  0.000000D+00  0.974466D-01
     15  0.293463D-01  0.000000D+00  0.000000D+00  0.000000D+00  0.240938D-01
     16  0.000000D+00  0.448313D-01  0.000000D+00  0.000000D+00  0.000000D+00
     17  0.000000D+00  0.000000D+00  0.448313D-01  0.000000D+00  0.000000D+00
     18  0.000000D+00  0.000000D+00  0.000000D+00  0.448313D-01  0.000000D+00
               16            17            18 
     16  0.401564D-01
     17  0.000000D+00  0.401564D-01
     18  0.000000D+00  0.000000D+00  0.401564D-01
 Entering OneElI...
 Calculate potential energy integrals
    NBasis =  18  MinDer = 0  MaxDer = 0
 Requested accuracy = 0.1000D-12
 Symmetry will be used
 PrmmSu-InSpLW:  IPartL=    0 NPrtUS=   36 NPrtUL=    1 DoSpLW=F IThBeg=    0 IThEnd=   35 NThAct=   36.
 PrSmSu:  IncTry=   512 NBBP=             42 NTPThr=   100 NPartT=   36 Incr=           1 LDynOK=F GPUOK=F.
 PrsmSu:  NPrtUS=  36 ThrOK=T IAlg=1 LenDen=           0 ISkipM=0 DoSpLW=F IThBeg=    0 IThEnd=   35.
 Prism:   IPart=     0 DynPar=F LinDyn=F Incr=           1.
 PRISM was handed   268433370 working-precision words and    21 shell-pairs
 PRISM was handed   268433370 working-precision words and    21 shell-pairs
 PRISM was handed   268433370 working-precision words and    21 shell-pairs
 PRISM was handed   268433370 working-precision words and    21 shell-pairs
 PRISM was handed   268433370 working-precision words and    21 shell-pairs
 PRISM was handed   268433370 working-precision words and    21 shell-pairs
 PRISM was handed   268433370 working-precision words and    21 shell-pairs
 PRISM was handed   268433370 working-precision words and    21 shell-pairs
 PRISM was handed   268433370 working-precision words and    21 shell-pairs
 PRISM was handed   268433370 working-precision words and    21 shell-pairs
 PRISM was handed   268433370 working-precision words and    21 shell-pairs
 PRISM was handed   268433370 working-precision words and    21 shell-pairs
 PRISM was handed   268433370 working-precision words and    21 shell-pairs
 PRISM was handed   268433370 working-precision words and    21 shell-pairs
 PRISM was handed   268433370 working-precision words and    21 shell-pairs
 PRISM was handed   268433370 working-precision words and    21 shell-pairs
 PRISM was handed   268433370 working-precision words and    21 shell-pairs
 PRISM was handed   268433370 working-precision words and    21 shell-pairs
 PRISM was handed   268433370 working-precision words and    21 shell-pairs
 PRISM was handed   268433370 working-precision words and    21 shell-pairs
 PRISM was handed   268433370 working-precision words and    21 shell-pairs
 PRISM was handed   268433370 working-precision words and    21 shell-pairs
 PRISM was handed   268433370 working-precision words and    21 shell-pairs
 PRISM was handed   268433370 working-precision words and    21 shell-pairs
 PRISM was handed   268433370 working-precision words and    21 shell-pairs
 PRISM was handed   268433370 working-precision words and    21 shell-pairs
 PRISM was handed   268433370 working-precision words and    21 shell-pairs
 PRISM was handed   268433370 working-precision words and    21 shell-pairs
 PRISM was handed   268433370 working-precision words and    21 shell-pairs
 PRISM was handed   268433370 working-precision words and    21 shell-pairs
 PRISM was handed   268433370 working-precision words and    21 shell-pairs
 PRISM was handed   268433370 working-precision words and    21 shell-pairs
 PRISM was handed   268433370 working-precision words and    21 shell-pairs
 PRISM was handed   268433370 working-precision words and    21 shell-pairs
 PRISM was handed   268433370 working-precision words and    21 shell-pairs
 PRISM was handed   268433370 working-precision words and    21 shell-pairs
 IPart=  3 NShTot=           2 NBatch=           1 AvBLen=         2.0
 IPart=  1 NShTot=          14 NBatch=           7 AvBLen=         2.0
 IPart=  2 NShTot=           6 NBatch=           3 AvBLen=         2.0
 IPart=  0 NShTot=          20 NBatch=          10 AvBLen=         2.0
 IPart= 12 NShTot=           0 NBatch=           0 AvBLen=         0.0
 IPart= 33 NShTot=           0 NBatch=           0 AvBLen=         0.0
 IPart= 18 NShTot=           0 NBatch=           0 AvBLen=         0.0
 IPart=  5 NShTot=           0 NBatch=           0 AvBLen=         0.0
 IPart= 34 NShTot=           0 NBatch=           0 AvBLen=         0.0
 IPart= 29 NShTot=           0 NBatch=           0 AvBLen=         0.0
 IPart=  7 NShTot=           0 NBatch=           0 AvBLen=         0.0
 IPart=  9 NShTot=           0 NBatch=           0 AvBLen=         0.0
 IPart= 28 NShTot=           0 NBatch=           0 AvBLen=         0.0
 IPart= 24 NShTot=           0 NBatch=           0 AvBLen=         0.0
 IPart= 10 NShTot=           0 NBatch=           0 AvBLen=         0.0
 IPart= 27 NShTot=           0 NBatch=           0 AvBLen=         0.0
 IPart= 30 NShTot=           0 NBatch=           0 AvBLen=         0.0
 IPart= 22 NShTot=           0 NBatch=           0 AvBLen=         0.0
 IPart= 26 NShTot=           0 NBatch=           0 AvBLen=         0.0
 IPart= 23 NShTot=           0 NBatch=           0 AvBLen=         0.0
 IPart= 31 NShTot=           0 NBatch=           0 AvBLen=         0.0
 IPart= 15 NShTot=           0 NBatch=           0 AvBLen=         0.0
 IPart=  4 NShTot=           0 NBatch=           0 AvBLen=         0.0
 IPart= 17 NShTot=           0 NBatch=           0 AvBLen=         0.0
 IPart= 13 NShTot=           0 NBatch=           0 AvBLen=         0.0
 IPart= 25 NShTot=           0 NBatch=           0 AvBLen=         0.0
 IPart= 20 NShTot=           0 NBatch=           0 AvBLen=         0.0
 IPart= 35 NShTot=           0 NBatch=           0 AvBLen=         0.0
 IPart= 32 NShTot=           0 NBatch=           0 AvBLen=         0.0
 IPart= 16 NShTot=           0 NBatch=           0 AvBLen=         0.0
 IPart= 14 NShTot=           0 NBatch=           0 AvBLen=         0.0
 IPart= 11 NShTot=           0 NBatch=           0 AvBLen=         0.0
 IPart= 21 NShTot=           0 NBatch=           0 AvBLen=         0.0
 IPart=  8 NShTot=           0 NBatch=           0 AvBLen=         0.0
 IPart= 19 NShTot=           0 NBatch=           0 AvBLen=         0.0
 IPart=  6 NShTot=           0 NBatch=           0 AvBLen=         0.0
 PrSmSu:  NxtVal=             37.
 ***** Potential Energy ***** 
                1             2             3             4             5 
      1  0.155576D+02
      2  0.572527D+01  0.356555D+03
      3  0.108108D+02  0.430272D+02  0.627169D+02
      4  0.000000D+00  0.000000D+00  0.000000D+00  0.717687D+02
      5  0.000000D+00  0.000000D+00  0.000000D+00  0.000000D+00  0.717687D+02
      6 -0.301948D+01 -0.210735D-01 -0.159242D+00  0.000000D+00  0.000000D+00
      7  0.132886D+02  0.118716D+01  0.117161D+02  0.000000D+00  0.000000D+00
      8  0.000000D+00  0.000000D+00  0.000000D+00  0.116693D+02  0.000000D+00
      9  0.000000D+00  0.000000D+00  0.000000D+00  0.000000D+00  0.116693D+02
     10 -0.824652D+01 -0.105714D-02 -0.732111D-01  0.000000D+00  0.000000D+00
     11  0.290212D+01  0.124052D+00  0.394764D+00  0.000000D+00  0.000000D+00
     12  0.000000D+00  0.000000D+00  0.000000D+00  0.339853D+00  0.000000D+00
     13  0.000000D+00  0.000000D+00  0.000000D+00  0.000000D+00  0.339853D+00
     14 -0.161117D+01 -0.229730D-04 -0.257977D-02  0.000000D+00  0.000000D+00
     15  0.315545D+01  0.966823D+00  0.186230D+01  0.000000D+00  0.000000D+00
     16  0.000000D+00  0.000000D+00  0.000000D+00  0.112821D+00  0.000000D+00
     17  0.000000D+00  0.000000D+00  0.000000D+00  0.000000D+00  0.112821D+00
     18 -0.625738D+00 -0.757202D-05 -0.860286D-03  0.000000D+00  0.000000D+00
                6             7             8             9            10 
      6  0.718273D+02
      7 -0.788322D-01  0.187864D+02
      8  0.000000D+00  0.000000D+00  0.172614D+02
      9  0.000000D+00  0.000000D+00  0.000000D+00  0.172614D+02
     10  0.117129D+02 -0.322450D+00  0.000000D+00  0.000000D+00  0.175158D+02
     11 -0.288793D-02  0.247096D+01  0.000000D+00  0.000000D+00 -0.493451D-01
     12  0.000000D+00  0.000000D+00  0.215254D+01  0.000000D+00  0.000000D+00
     13  0.000000D+00  0.000000D+00  0.000000D+00  0.215254D+01  0.000000D+00
     14  0.341619D+00 -0.339588D-01  0.000000D+00  0.000000D+00  0.217915D+01
     15 -0.944599D-02  0.328785D+01  0.000000D+00  0.000000D+00 -0.605772D-01
     16  0.000000D+00  0.000000D+00  0.780995D+00  0.000000D+00  0.000000D+00
     17  0.000000D+00  0.000000D+00  0.000000D+00  0.780995D+00  0.000000D+00
     18  0.113413D+00 -0.119818D-01  0.000000D+00  0.000000D+00  0.790348D+00
               11            12            13            14            15 
     11  0.500268D+01
     12  0.000000D+00  0.419713D+01
     13  0.000000D+00  0.000000D+00  0.419713D+01
     14 -0.388880D-01  0.000000D+00  0.000000D+00  0.420890D+01
     15  0.414829D+01  0.000000D+00  0.000000D+00 -0.328435D-01  0.404214D+01
     16  0.000000D+00  0.278042D+01  0.000000D+00  0.000000D+00  0.000000D+00
     17  0.000000D+00  0.000000D+00  0.278042D+01  0.000000D+00  0.000000D+00
     18 -0.197318D-01  0.000000D+00  0.000000D+00  0.278604D+01 -0.189020D-01
               16            17            18 
     16  0.269549D+01
     17  0.000000D+00  0.269549D+01
     18  0.000000D+00  0.000000D+00  0.269874D+01
 ****** Core Hamiltonian ****** 
                1             2             3             4             5 
      1 -0.147976D+02
      2 -0.571526D+01 -0.180257D+03
      3 -0.107054D+02 -0.492340D+02 -0.549028D+02
      4  0.000000D+00  0.000000D+00  0.000000D+00 -0.437376D+02
      5  0.000000D+00  0.000000D+00  0.000000D+00  0.000000D+00 -0.437376D+02
      6  0.292165D+01  0.210735D-01  0.159242D+00  0.000000D+00  0.000000D+00
      7 -0.129123D+02 -0.189657D+01 -0.124016D+02  0.000000D+00  0.000000D+00
      8  0.000000D+00  0.000000D+00  0.000000D+00 -0.104190D+02  0.000000D+00
      9  0.000000D+00  0.000000D+00  0.000000D+00  0.000000D+00 -0.104190D+02
     10  0.764998D+01  0.105714D-02  0.732111D-01  0.000000D+00  0.000000D+00
     11 -0.292771D+01 -0.130263D+00 -0.438677D+00  0.000000D+00  0.000000D+00
     12  0.000000D+00  0.000000D+00  0.000000D+00 -0.338027D+00  0.000000D+00
     13  0.000000D+00  0.000000D+00  0.000000D+00  0.000000D+00 -0.338027D+00
     14  0.158070D+01  0.229730D-04  0.257977D-02  0.000000D+00  0.000000D+00
     15 -0.314282D+01 -0.966583D+00 -0.186036D+01  0.000000D+00  0.000000D+00
     16  0.000000D+00  0.000000D+00  0.000000D+00 -0.112573D+00  0.000000D+00
     17  0.000000D+00  0.000000D+00  0.000000D+00  0.000000D+00 -0.112573D+00
     18  0.620044D+00  0.757202D-05  0.860286D-03  0.000000D+00  0.000000D+00
                6             7             8             9            10 
      6 -0.437962D+02
      7  0.788322D-01 -0.179294D+02
      8  0.000000D+00  0.000000D+00 -0.157063D+02
      9  0.000000D+00  0.000000D+00  0.000000D+00 -0.157063D+02
     10 -0.104625D+02  0.322450D+00  0.000000D+00  0.000000D+00 -0.159607D+02
     11  0.288793D-02 -0.253788D+01  0.000000D+00  0.000000D+00  0.493451D-01
     12  0.000000D+00  0.000000D+00 -0.211667D+01  0.000000D+00  0.000000D+00
     13  0.000000D+00  0.000000D+00  0.000000D+00 -0.211667D+01  0.000000D+00
     14 -0.339793D+00  0.339588D-01  0.000000D+00  0.000000D+00 -0.214328D+01
     15  0.944599D-02 -0.327715D+01  0.000000D+00  0.000000D+00  0.605772D-01
     16  0.000000D+00  0.000000D+00 -0.775196D+00  0.000000D+00  0.000000D+00
     17  0.000000D+00  0.000000D+00  0.000000D+00 -0.775196D+00  0.000000D+00
     18 -0.113164D+00  0.119818D-01  0.000000D+00  0.000000D+00 -0.784549D+00
               11            12            13            14            15 
     11 -0.493664D+01
     12  0.000000D+00 -0.409969D+01
     13  0.000000D+00  0.000000D+00 -0.409969D+01
     14  0.388880D-01  0.000000D+00  0.000000D+00 -0.411146D+01
     15 -0.411894D+01  0.000000D+00  0.000000D+00  0.328435D-01 -0.401805D+01
     16  0.000000D+00 -0.273559D+01  0.000000D+00  0.000000D+00  0.000000D+00
     17  0.000000D+00  0.000000D+00 -0.273559D+01  0.000000D+00  0.000000D+00
     18  0.197318D-01  0.000000D+00  0.000000D+00 -0.274121D+01  0.189020D-01
               16            17            18 
     16 -0.265534D+01
     17  0.000000D+00 -0.265534D+01
     18  0.000000D+00  0.000000D+00 -0.265858D+01
 SVDSVc IOpt=   1 NormSV=T IR=1
 SVDSVc V= 2.49D+00 1.87D+00 1.50D+00 1.29D+00 1.06D+00 7.78D-01 6.20D-01 2.01D-01 1.24D-01 6.38D-02
 SVDSVc IOpt=   1 NormSV=T IR=3
 SVDSVc V= 1.84D+00 1.25D+00 7.08D-01 2.01D-01
 SVDSVc IOpt=   1 NormSV=T IR=4
 SVDSVc V= 1.84D+00 1.25D+00 7.08D-01 2.01D-01
 TstOVc:  Largest diagonal error= 1.11D-15 IB=1 I=    3.
 TstOVc:  Largest same sym error= 3.63D-15 IB=1 I=    4 J=    3.
 TstOVc:  Largest diff sym error= 0.00D+00 IB=0 JB=0 I=    0 J=    0.
 Orthogonalized basis functions: 
                 1             2             3             4             5 
      1   0.338708D+00 -0.597718D-01 -0.242007D+00 -0.822625D-01 -0.219232D+00
      2   0.303714D-01  0.552063D-02 -0.175970D+00  0.350516D+00  0.671724D+00
      3   0.123531D+00  0.191266D-01 -0.316076D+00  0.407609D+00  0.184465D+00
      4   0.000000D+00  0.000000D+00  0.000000D+00  0.000000D+00  0.000000D+00
      5   0.000000D+00  0.000000D+00  0.000000D+00  0.000000D+00  0.000000D+00
      6  -0.455959D-01  0.777677D-01  0.159862D+00  0.446853D+00 -0.419724D+00
      7   0.277398D+00  0.608960D-01 -0.244654D+00  0.166296D+00 -0.390709D+00
      8   0.000000D+00  0.000000D+00  0.000000D+00  0.000000D+00  0.000000D+00
      9   0.000000D+00  0.000000D+00  0.000000D+00  0.000000D+00  0.000000D+00
     10  -0.142510D+00  0.202687D+00  0.224051D+00  0.446381D+00 -0.145247D+00
     11   0.278662D+00  0.204039D+00  0.351877D+00 -0.475822D-01  0.170984D+00
     12   0.000000D+00  0.000000D+00  0.000000D+00  0.000000D+00  0.000000D+00
     13   0.000000D+00  0.000000D+00  0.000000D+00  0.000000D+00  0.000000D+00
     14  -0.102228D+00  0.454556D+00 -0.197345D+00 -0.120007D+00 -0.644667D-02
     15   0.276417D+00  0.206232D+00  0.348707D+00 -0.310835D-01  0.182908D+00
     16   0.000000D+00  0.000000D+00  0.000000D+00  0.000000D+00  0.000000D+00
     17   0.000000D+00  0.000000D+00  0.000000D+00  0.000000D+00  0.000000D+00
     18  -0.784662D-01  0.435122D+00 -0.239934D+00 -0.182322D+00 -0.952744D-02
                 6             7             8             9            10 
      1   0.217958D+00 -0.150866D+00 -0.136065D+00 -0.942849D+00  0.248739D+01
      2   0.400691D+00 -0.553682D+00  0.780414D-02  0.437715D-01 -0.649005D-01
      3  -0.366134D+00  0.856962D+00 -0.138103D-01 -0.986867D-01 -0.325550D-02
      4   0.000000D+00  0.000000D+00  0.000000D+00  0.000000D+00  0.000000D+00
      5   0.000000D+00  0.000000D+00  0.000000D+00  0.000000D+00  0.000000D+00
      6   0.756551D+00  0.282703D+00  0.106925D+00  0.935707D-01 -0.204487D+00
      7  -0.230044D+00 -0.510595D+00  0.127185D+00  0.773223D+00 -0.191563D+01
      8   0.000000D+00  0.000000D+00  0.000000D+00  0.000000D+00  0.000000D+00
      9   0.000000D+00  0.000000D+00  0.000000D+00  0.000000D+00  0.000000D+00
     10  -0.536456D+00 -0.422428D+00 -0.374511D+00 -0.546547D+00  0.135749D+01
     11   0.996599D-02  0.886419D-01 -0.299962D-01 -0.169334D+01 -0.152652D+01
     12   0.000000D+00  0.000000D+00  0.000000D+00  0.000000D+00  0.000000D+00
     13   0.000000D+00  0.000000D+00  0.000000D+00  0.000000D+00  0.000000D+00
     14   0.206474D-01 -0.114185D-01  0.156570D+01 -0.215048D+00  0.406485D+00
     15  -0.219811D-01  0.131502D+00  0.456737D-01  0.182466D+01  0.116821D+01
     16   0.000000D+00  0.000000D+00  0.000000D+00  0.000000D+00  0.000000D+00
     17   0.000000D+00  0.000000D+00  0.000000D+00  0.000000D+00  0.000000D+00
     18   0.171995D+00  0.743723D-01 -0.152386D+01  0.157797D+00 -0.247547D+00
                11            12            13            14            15 
      1   0.000000D+00  0.000000D+00  0.000000D+00  0.000000D+00  0.000000D+00
      2   0.000000D+00  0.000000D+00  0.000000D+00  0.000000D+00  0.000000D+00
      3   0.000000D+00  0.000000D+00  0.000000D+00  0.000000D+00  0.000000D+00
      4   0.709850D-01  0.645112D+00 -0.813656D+00  0.880868D-01  0.000000D+00
      5   0.000000D+00  0.000000D+00  0.000000D+00  0.000000D+00  0.709850D-01
      6   0.000000D+00  0.000000D+00  0.000000D+00  0.000000D+00  0.000000D+00
      7   0.000000D+00  0.000000D+00  0.000000D+00  0.000000D+00  0.000000D+00
      8   0.188890D+00  0.576969D+00  0.841851D+00 -0.284389D+00  0.000000D+00
      9   0.000000D+00  0.000000D+00  0.000000D+00  0.000000D+00  0.188890D+00
     10   0.000000D+00  0.000000D+00  0.000000D+00  0.000000D+00  0.000000D+00
     11   0.000000D+00  0.000000D+00  0.000000D+00  0.000000D+00  0.000000D+00
     12   0.508568D+00 -0.118274D+00 -0.151283D-02  0.158900D+01  0.000000D+00
     13   0.000000D+00  0.000000D+00  0.000000D+00  0.000000D+00  0.508568D+00
     14   0.000000D+00  0.000000D+00  0.000000D+00  0.000000D+00  0.000000D+00
     15   0.000000D+00  0.000000D+00  0.000000D+00  0.000000D+00  0.000000D+00
     16   0.493792D+00 -0.191632D+00 -0.203508D+00 -0.154043D+01  0.000000D+00
     17   0.000000D+00  0.000000D+00  0.000000D+00  0.000000D+00  0.493792D+00
     18   0.000000D+00  0.000000D+00  0.000000D+00  0.000000D+00  0.000000D+00
                16            17            18 
      1   0.000000D+00  0.000000D+00  0.000000D+00
      2   0.000000D+00  0.000000D+00  0.000000D+00
      3   0.000000D+00  0.000000D+00  0.000000D+00
      4   0.000000D+00  0.000000D+00  0.000000D+00
      5   0.645112D+00 -0.813656D+00  0.880868D-01
      6   0.000000D+00  0.000000D+00  0.000000D+00
      7   0.000000D+00  0.000000D+00  0.000000D+00
      8   0.000000D+00  0.000000D+00  0.000000D+00
      9   0.576969D+00  0.841851D+00 -0.284389D+00
     10   0.000000D+00  0.000000D+00  0.000000D+00
     11   0.000000D+00  0.000000D+00  0.000000D+00
     12   0.000000D+00  0.000000D+00  0.000000D+00
     13  -0.118274D+00 -0.151283D-02  0.158900D+01
     14   0.000000D+00  0.000000D+00  0.000000D+00
     15   0.000000D+00  0.000000D+00  0.000000D+00
     16   0.000000D+00  0.000000D+00  0.000000D+00
     17  -0.191632D+00 -0.203508D+00 -0.154043D+01
     18   0.000000D+00  0.000000D+00  0.000000D+00
 NBasis=    18 RedAO= T EigKep=  6.38D-02  NBF=    10     0     4     4
 NBsUse=    18 1.00D-06 EigRej= -1.00D+00 NBFU=    10     0     4     4
 Leave Link  302 at Mon Mar 28 14:38:25 2022, MaxMem=  9663676416 cpu:               3.4 elap:               0.1
 (Enter /nopt/nrel/apps/gaussian/g16C_1/g16/l303.exe)
 DipDrv will not compute anything.
 Fermi contact integrals: 
                 1             2 
      1   0.628247D+00  0.190670D+00
      2   0.000000D+00  0.398968D+02
      3   0.658783D-02  0.785144D+00
      4   0.000000D+00  0.000000D+00
      5   0.000000D+00  0.000000D+00
      6  -0.170918D-01  0.000000D+00
      7   0.232464D+00  0.165565D-01
      8   0.000000D+00  0.000000D+00
      9   0.000000D+00  0.000000D+00
     10  -0.379070D+00  0.000000D+00
     11   0.184713D-01  0.394321D-02
     12   0.000000D+00  0.000000D+00
     13   0.000000D+00  0.000000D+00
     14  -0.266769D-01  0.000000D+00
     15   0.314994D-01  0.321567D-01
     16   0.000000D+00  0.000000D+00
     17   0.000000D+00  0.000000D+00
     18  -0.905295D-02  0.000000D+00
 Leave Link  303 at Mon Mar 28 14:38:25 2022, MaxMem=  9663676416 cpu:               1.1 elap:               0.1
 (Enter /nopt/nrel/apps/gaussian/g16C_1/g16/l401.exe)
 ExpMin= 1.61D-02 ExpMax= 1.72D+03 ExpMxC= 1.72D+03 IAcc=3 IRadAn=         5 AccDes= 0.00D+00
 Harris functional with IExCor=  205 and IRadAn=       5 diagonalized for initial guess.
 HarFok:  IExCor=  205 AccDes= 0.00D+00 IRadAn=         5 IDoV= 1 UseB2=F ITyADJ=14
 ICtDFT=  3500011 ScaDFX=  1.000000  1.000000  1.000000  1.000000
 FoFCou: FMM=F IPFlag=           0 FMFlag=      100000 FMFlg1=           0
         NFxFlg=           0 DoJE=T BraDBF=F KetDBF=T FulRan=T
         wScrn=  0.000000 ICntrl=       500 IOpCl=  0 I1Cent=   200000004 NGrid=           0
         NMat0=    1 NMatS0=      1 NMatT0=    0 NMatD0=    1 NMtDS0=    0 NMtDT0=    0
 Petite list used in FoFCou.
 Harris En= -593.995353397687    
 JPrj=0 DoOrth=F DoCkMO=F.
 Initial guess orbital symmetries:
 Alpha Orbitals:
       Occupied  (SG) (SG) (SG) (PI) (PI) (SG) (SG) (PI) (PI) (SG)
                 (SG)
       Virtual   (PI) (PI) (SG) (SG) (PI) (PI) (SG)
 Beta  Orbitals:
       Occupied  (SG) (SG) (SG) (PI) (PI) (SG) (SG) (PI) (PI)
       Virtual   (SG) (SG) (PI) (PI) (SG) (SG) (PI) (PI) (SG)
 The electronic state of the initial guess is 3-SG.
 Initial guess <Sx>= 0.0000 <Sy>= 0.0000 <Sz>= 1.0000 <S**2>= 2.0000 S= 1.0000
 Leave Link  401 at Mon Mar 28 14:38:25 2022, MaxMem=  9663676416 cpu:               3.7 elap:               0.1
 (Enter /nopt/nrel/apps/gaussian/g16C_1/g16/l502.exe)
 Keep R1 and R2 ints in memory in symmetry-blocked form, NReq=7226195.
 FoFCou: FMM=F IPFlag=           0 FMFlag=           0 FMFlg1=           0
         NFxFlg=           0 DoJE=F BraDBF=F KetDBF=F FulRan=T
         wScrn=  0.000000 ICntrl=       600 IOpCl=  0 I1Cent=           0 NGrid=           0
         NMat0=    1 NMatS0=    171 NMatT0=    0 NMatD0=    1 NMtDS0=    0 NMtDT0=    0
 Petite list used in FoFCou.
 UHF open shell SCF:
 Using DIIS extrapolation, IDIIS=  1040.
 NGot=  9663676416 LenX=  9663664010 LenY=  9663663128
 Requested convergence on RMS density matrix=1.00D-08 within 128 cycles.
 Requested convergence on MAX density matrix=1.00D-06.
 Requested convergence on             energy=1.00D-06.
 No special actions if energy rises.

 Cycle   1  Pass 1  IDiag  1:
 E= -594.472330829780    
 DIIS: error= 4.05D-02 at cycle   1 NSaved=   1.
 NSaved= 1 IEnMin= 1 EnMin= -594.472330829780     IErMin= 1 ErrMin= 4.05D-02
 ErrMax= 4.05D-02  0.00D+00 EMaxC= 1.00D-01 BMatC= 1.28D-01 BMatP= 1.28D-01
 IDIUse=3 WtCom= 5.95D-01 WtEn= 4.05D-01
 Coeff-Com:  0.100D+01
 Coeff-En:   0.100D+01
 Coeff:      0.100D+01
 Gap=     0.136 Goal=   None    Shift=    0.000
 Gap=     1.357 Goal=   None    Shift=    0.000
 GapD=    0.136 DampG=1.000 DampE=0.500 DampFc=0.5000 IDamp=-1.
 Damping current iteration by 5.00D-01
 RMSDP=2.14D-02 MaxDP=2.19D-01              OVMax= 0.00D+00

 Cycle   2  Pass 1  IDiag  1:
 E= -594.483267559903     Delta-E=       -0.010936730123 Rises=F Damp=T
 DIIS: error= 2.18D-02 at cycle   2 NSaved=   2.
 NSaved= 2 IEnMin= 2 EnMin= -594.483267559903     IErMin= 2 ErrMin= 2.18D-02
 ErrMax= 2.18D-02  0.00D+00 EMaxC= 1.00D-01 BMatC= 3.56D-02 BMatP= 1.28D-01
 IDIUse=3 WtCom= 7.82D-01 WtEn= 2.18D-01
 Coeff-Com: -0.111D+01 0.211D+01
 Coeff-En:   0.000D+00 0.100D+01
 Coeff:     -0.864D+00 0.186D+01
 Gap=     0.141 Goal=   None    Shift=    0.000
 Gap=     1.333 Goal=   None    Shift=    0.000
 RMSDP=1.68D-02 MaxDP=2.09D-01 DE=-1.09D-02 OVMax= 0.00D+00

 Cycle   3  Pass 1  IDiag  1:
 E= -594.496479282826     Delta-E=       -0.013211722923 Rises=F Damp=F
 DIIS: error= 1.90D-03 at cycle   3 NSaved=   3.
 NSaved= 3 IEnMin= 3 EnMin= -594.496479282826     IErMin= 3 ErrMin= 1.90D-03
 ErrMax= 1.90D-03  0.00D+00 EMaxC= 1.00D-01 BMatC= 8.48D-05 BMatP= 3.56D-02
 IDIUse=3 WtCom= 9.81D-01 WtEn= 1.90D-02
 Coeff-Com:  0.446D+00-0.875D+00 0.143D+01
 Coeff-En:   0.000D+00 0.000D+00 0.100D+01
 Coeff:      0.438D+00-0.858D+00 0.142D+01
 Gap=     0.143 Goal=   None    Shift=    0.000
 Gap=     1.326 Goal=   None    Shift=    0.000
 RMSDP=4.83D-03 MaxDP=7.67D-02 DE=-1.32D-02 OVMax= 0.00D+00

 Cycle   4  Pass 1  IDiag  1:
 E= -594.496705648230     Delta-E=       -0.000226365404 Rises=F Damp=F
 DIIS: error= 6.28D-04 at cycle   4 NSaved=   4.
 NSaved= 4 IEnMin= 4 EnMin= -594.496705648230     IErMin= 4 ErrMin= 6.28D-04
 ErrMax= 6.28D-04  0.00D+00 EMaxC= 1.00D-01 BMatC= 5.33D-06 BMatP= 8.48D-05
 IDIUse=3 WtCom= 9.94D-01 WtEn= 6.28D-03
 Coeff-Com: -0.215D+00 0.425D+00-0.868D+00 0.166D+01
 Coeff-En:   0.000D+00 0.000D+00 0.000D+00 0.100D+01
 Coeff:     -0.214D+00 0.422D+00-0.863D+00 0.165D+01
 Gap=     0.144 Goal=   None    Shift=    0.000
 Gap=     1.325 Goal=   None    Shift=    0.000
 RMSDP=2.00D-03 MaxDP=3.34D-02 DE=-2.26D-04 OVMax= 0.00D+00

 Cycle   5  Pass 1  IDiag  1:
 E= -594.496728299779     Delta-E=       -0.000022651548 Rises=F Damp=F
 DIIS: error= 6.36D-05 at cycle   5 NSaved=   5.
 NSaved= 5 IEnMin= 5 EnMin= -594.496728299779     IErMin= 5 ErrMin= 6.36D-05
 ErrMax= 6.36D-05  0.00D+00 EMaxC= 1.00D-01 BMatC= 6.25D-08 BMatP= 5.33D-06
 IDIUse=1 WtCom= 1.00D+00 WtEn= 0.00D+00
 Coeff-Com:  0.212D-01-0.421D-01 0.885D-01-0.232D+00 0.116D+01
 Coeff:      0.212D-01-0.421D-01 0.885D-01-0.232D+00 0.116D+01
 Gap=     0.144 Goal=   None    Shift=    0.000
 Gap=     1.325 Goal=   None    Shift=    0.000
 RMSDP=1.64D-04 MaxDP=2.92D-03 DE=-2.27D-05 OVMax= 0.00D+00

 Cycle   6  Pass 1  IDiag  1:
 E= -594.496728507459     Delta-E=       -0.000000207680 Rises=F Damp=F
 DIIS: error= 1.18D-05 at cycle   6 NSaved=   6.
 NSaved= 6 IEnMin= 6 EnMin= -594.496728507459     IErMin= 6 ErrMin= 1.18D-05
 ErrMax= 1.18D-05  0.00D+00 EMaxC= 1.00D-01 BMatC= 5.15D-09 BMatP= 6.25D-08
 IDIUse=1 WtCom= 1.00D+00 WtEn= 0.00D+00
 Coeff-Com: -0.567D-02 0.113D-01-0.228D-01 0.691D-01-0.559D+00 0.151D+01
 Coeff:     -0.567D-02 0.113D-01-0.228D-01 0.691D-01-0.559D+00 0.151D+01
 Gap=     0.144 Goal=   None    Shift=    0.000
 Gap=     1.325 Goal=   None    Shift=    0.000
 RMSDP=4.54D-05 MaxDP=5.40D-04 DE=-2.08D-07 OVMax= 0.00D+00

 Cycle   7  Pass 1  IDiag  1:
 E= -594.496728520996     Delta-E=       -0.000000013537 Rises=F Damp=F
 DIIS: error= 2.86D-06 at cycle   7 NSaved=   7.
 NSaved= 7 IEnMin= 7 EnMin= -594.496728520996     IErMin= 7 ErrMin= 2.86D-06
 ErrMax= 2.86D-06  0.00D+00 EMaxC= 1.00D-01 BMatC= 1.54D-10 BMatP= 5.15D-09
 IDIUse=1 WtCom= 1.00D+00 WtEn= 0.00D+00
 Coeff-Com:  0.166D-02-0.331D-02 0.626D-02-0.195D-01 0.185D+00-0.606D+00
 Coeff-Com:  0.144D+01
 Coeff:      0.166D-02-0.331D-02 0.626D-02-0.195D-01 0.185D+00-0.606D+00
 Coeff:      0.144D+01
 Gap=     0.144 Goal=   None    Shift=    0.000
 Gap=     1.325 Goal=   None    Shift=    0.000
 RMSDP=1.07D-05 MaxDP=1.23D-04 DE=-1.35D-08 OVMax= 0.00D+00

 Cycle   8  Pass 1  IDiag  1:
 E= -594.496728521637     Delta-E=       -0.000000000641 Rises=F Damp=F
 DIIS: error= 1.15D-06 at cycle   8 NSaved=   8.
 NSaved= 8 IEnMin= 8 EnMin= -594.496728521637     IErMin= 8 ErrMin= 1.15D-06
 ErrMax= 1.15D-06  0.00D+00 EMaxC= 1.00D-01 BMatC= 1.66D-11 BMatP= 1.54D-10
 IDIUse=1 WtCom= 1.00D+00 WtEn= 0.00D+00
 Coeff-Com: -0.578D-03 0.115D-02-0.201D-02 0.658D-02-0.748D-01 0.284D+00
 Coeff-Com: -0.103D+01 0.182D+01
 Coeff:     -0.578D-03 0.115D-02-0.201D-02 0.658D-02-0.748D-01 0.284D+00
 Coeff:     -0.103D+01 0.182D+01
 Gap=     0.144 Goal=   None    Shift=    0.000
 Gap=     1.325 Goal=   None    Shift=    0.000
 RMSDP=5.16D-06 MaxDP=6.34D-05 DE=-6.41D-10 OVMax= 0.00D+00

 Cycle   9  Pass 1  IDiag  1:
 E= -594.496728521727     Delta-E=       -0.000000000090 Rises=F Damp=F
 DIIS: error= 7.13D-08 at cycle   9 NSaved=   9.
 NSaved= 9 IEnMin= 9 EnMin= -594.496728521727     IErMin= 9 ErrMin= 7.13D-08
 ErrMax= 7.13D-08  0.00D+00 EMaxC= 1.00D-01 BMatC= 2.25D-13 BMatP= 1.66D-11
 IDIUse=1 WtCom= 1.00D+00 WtEn= 0.00D+00
 Coeff-Com:  0.621D-04-0.124D-03 0.171D-03-0.622D-03 0.105D-01-0.469D-01
 Coeff-Com:  0.196D+00-0.422D+00 0.126D+01
 Coeff:      0.621D-04-0.124D-03 0.171D-03-0.622D-03 0.105D-01-0.469D-01
 Coeff:      0.196D+00-0.422D+00 0.126D+01
 Gap=     0.144 Goal=   None    Shift=    0.000
 Gap=     1.325 Goal=   None    Shift=    0.000
 RMSDP=3.98D-07 MaxDP=4.39D-06 DE=-9.03D-11 OVMax= 0.00D+00

 Cycle  10  Pass 1  IDiag  1:
 E= -594.496728521728     Delta-E=       -0.000000000000 Rises=F Damp=F
 DIIS: error= 1.04D-08 at cycle  10 NSaved=  10.
 NSaved=10 IEnMin=10 EnMin= -594.496728521728     IErMin=10 ErrMin= 1.04D-08
 ErrMax= 1.04D-08  0.00D+00 EMaxC= 1.00D-01 BMatC= 4.10D-15 BMatP= 2.25D-13
 IDIUse=1 WtCom= 1.00D+00 WtEn= 0.00D+00
 Coeff-Com: -0.806D-05 0.161D-04-0.169D-04 0.514D-04-0.125D-02 0.683D-02
 Coeff-Com: -0.298D-01 0.695D-01-0.303D+00 0.126D+01
 Coeff:     -0.806D-05 0.161D-04-0.169D-04 0.514D-04-0.125D-02 0.683D-02
 Coeff:     -0.298D-01 0.695D-01-0.303D+00 0.126D+01
 Gap=     0.144 Goal=   None    Shift=    0.000
 Gap=     1.325 Goal=   None    Shift=    0.000
 RMSDP=3.62D-08 MaxDP=5.62D-07 DE=-4.55D-13 OVMax= 0.00D+00

 Cycle  11  Pass 1  IDiag  1:
 E= -594.496728521728     Delta-E=       -0.000000000000 Rises=F Damp=F
 DIIS: error= 7.48D-10 at cycle  11 NSaved=  11.
 NSaved=11 IEnMin=11 EnMin= -594.496728521728     IErMin=11 ErrMin= 7.48D-10
 ErrMax= 7.48D-10  0.00D+00 EMaxC= 1.00D-01 BMatC= 2.92D-17 BMatP= 4.10D-15
 IDIUse=1 WtCom= 1.00D+00 WtEn= 0.00D+00
 Coeff-Com:  0.889D-06-0.178D-05 0.106D-05-0.217D-05 0.139D-03-0.914D-03
 Coeff-Com:  0.395D-02-0.914D-02 0.457D-01-0.247D+00 0.121D+01
 Coeff:      0.889D-06-0.178D-05 0.106D-05-0.217D-05 0.139D-03-0.914D-03
 Coeff:      0.395D-02-0.914D-02 0.457D-01-0.247D+00 0.121D+01
 Gap=     0.144 Goal=   None    Shift=    0.000
 Gap=     1.325 Goal=   None    Shift=    0.000
 RMSDP=1.47D-09 MaxDP=1.42D-08 DE=-3.41D-13 OVMax= 0.00D+00

 SCF Done:  E(UHF) =  -594.496728522     A.U. after   11 cycles
            NFock= 11  Conv=0.15D-08     -V/T= 1.9989
 <Sx>= 0.0000 <Sy>= 0.0000 <Sz>= 1.0000 <S**2>= 2.0001 S= 1.0000
 <L.S>= 0.000000000000E+00
 KE= 5.951628693495D+02 PE=-1.434653737457D+03 EE= 2.282368612404D+02
 Annihilation of the first spin contaminant:
 S**2 before annihilation     2.0001,   after     2.0000
 Leave Link  502 at Mon Mar 28 14:38:26 2022, MaxMem=  9663676416 cpu:               4.8 elap:               0.2
 (Enter /nopt/nrel/apps/gaussian/g16C_1/g16/l801.exe)
 Windowed orbitals will be sorted by symmetry type.
 ExpMin= 1.61D-02 ExpMax= 1.72D+03 ExpMxC= 1.72D+03 IAcc=3 IRadAn=         5 AccDes= 0.00D+00
 HarFok:  IExCor=  205 AccDes= 0.00D+00 IRadAn=         5 IDoV=-2 UseB2=F ITyADJ=14
 ICtDFT= 12500011 ScaDFX=  1.000000  1.000000  1.000000  1.000000
 Largest valence mixing into a core orbital is  2.15D-02
 Largest core mixing into a valence orbital is  1.62D-03
 Range of M.O.s used for correlation:    10    18
 NBasis=    18 NAE=    11 NBE=     9 NFC=     9 NFV=     0
 NROrb=      9 NOA=     2 NOB=     0 NVA=     7 NVB=     9
 Leave Link  801 at Mon Mar 28 14:38:26 2022, MaxMem=  9663676416 cpu:               1.9 elap:               0.1
 (Enter /nopt/nrel/apps/gaussian/g16C_1/g16/l804.exe)
 Open-shell transformation, MDV=  9663676416 ITran=4 ISComp=2.
 Unit  1 TFree=         22650 TCopy=          3942.
 Semi-Direct transformation.
 ModeAB=           2 MOrb=             2 LenV=    9663554113
 LASXX=          158 LTotXX=         158 LenRXX=         158
 LTotAB=         269 MaxLAS=        3078 LenRXY=        3078
 NonZer=        3510 LenScr=      785920 LnRSAI=           0
 LnScr1=           0 LExtra=      223048 Total=      1012204
 MaxDsk= 34359738368 SrtSym=           F ITran=            4
 DoSDTr:  NPSUse= 36
 JobTyp=1 Pass  1:  I=   1 to   2.
 (rs|ai) integrals will be sorted in core.
 Complete sort for first half transformation.
 First half transformation complete.
 Complete sort for second half transformation.
 Second half transformation complete.
 Spin components of T(2) and E(2):
     alpha-alpha T2 =       0.9274230711D-04 E2=     -0.5626766462D-04
     alpha-beta  T2 =       0.0000000000D+00 E2=      0.0000000000D+00
     beta-beta   T2 =       0.0000000000D+00 E2=      0.0000000000D+00
 ANorm=    0.1000046370D+01
 E2 =    -0.5626766462D-04 EUMP2 =    -0.59449678478939D+03
 Leave Link  804 at Mon Mar 28 14:38:26 2022, MaxMem=  9663676416 cpu:               1.5 elap:               0.1
 (Enter /nopt/nrel/apps/gaussian/g16C_1/g16/l913.exe)
 CIDS:  MDV=  9663676416.
 Frozen-core window:  NFC=   9 NFV=   0.
 IFCWin=0 IBDFC=1 NFBD=     0     0 NFCmp=     0     0 NFFFC=     0     0
 Using original routines for 1st iteration.
 Using DD4UQ or CC4UQ for 2nd and later iterations.
 Keep R2 and R3 ints in memory in symmetry-blocked form, NReq=7228613.
 FoFCou: FMM=F IPFlag=           0 FMFlag=           0 FMFlg1=           0
         NFxFlg=           0 DoJE=F BraDBF=F KetDBF=F FulRan=T
         wScrn=  0.000000 ICntrl=       600 IOpCl=  0 I1Cent=           0 NGrid=           0
         NMat0=    1 NMatS0=    171 NMatT0=    0 NMatD0=    1 NMtDS0=    0 NMtDT0=    0
 Petite list used in FoFCou.
 CIDS: In Core Option IDoMem=           1.
 Coupled Cluster theory with single and double substitutions
 ===========================================================
 Iterations= 200 Convergence= 0.100D-06
 Produce multiple copies of IABC intergrals
 Iteration Nr.   1
 **********************
 DD1Dir will call FoFMem   1 times, MxPair=         2
 NAB=     0 NAA=     1 NBB=     0.
 MP4(R+Q)=  0.52183930D-08
 Maximum subspace dimension=  5
 A-vector RMS=  1.1489976D-03 Max=  3.6986226D-03 conv= 1.00D-05.
 RLE energy=       -0.0001005063
 E3=       -0.24771442D-04        EUMP3=      -0.59449680956D+03
 E4(DQ)=   -0.10921317D-04        UMP4(DQ)=   -0.59449682048D+03
 E4(SDQ)=  -0.11073251D-04        UMP4(SDQ)=  -0.59449682063D+03
 VARIATIONAL ENERGIES WITH THE FIRST-ORDER WAVEFUNCTION:
 DE(Corr)= -0.81034326E-04 E(Corr)=     -594.49680956    
 NORM(A)=   0.10001502D+01
 Iteration Nr.   2
 **********************
 DD1Dir will call FoFMem   1 times, MxPair=         2
 NAB=     0 NAA=     1 NBB=     0.
 A-vector RMS=  2.3431652D-04 Max=  7.0211628D-04 conv= 1.00D-05.
 RLE energy=       -0.0001015508
 DE(Corr)= -0.10080779E-03 E(CORR)=     -594.49682933     Delta=-1.98D-05
 NORM(A)=   0.10001574D+01
 Iteration Nr.   3
 **********************
 DD1Dir will call FoFMem   1 times, MxPair=         2
 NAB=     0 NAA=     1 NBB=     0.
 A-vector RMS=  3.4634018D-05 Max=  6.5477820D-05 conv= 1.00D-05.
 RLE energy=       -0.0001016019
 DE(Corr)= -0.10155741E-03 E(CORR)=     -594.49683008     Delta=-7.50D-07
 NORM(A)=   0.10001580D+01
 Iteration Nr.   4
 **********************
 DD1Dir will call FoFMem   1 times, MxPair=         2
 NAB=     0 NAA=     1 NBB=     0.
 A-vector RMS=  8.6502587D-06 Max=  2.6954281D-05 conv= 1.00D-05.
 RLE energy=       -0.0001015850
 DE(Corr)= -0.10159688E-03 E(CORR)=     -594.49683012     Delta=-3.95D-08
 NORM(A)=   0.10001579D+01
 Iteration Nr.   5
 **********************
 DD1Dir will call FoFMem   1 times, MxPair=         2
 NAB=     0 NAA=     1 NBB=     0.
 A-vector RMS=  1.0544247D-06 Max=  2.0876488D-06 conv= 1.00D-05.
 RLE energy=       -0.0001015994
 DE(Corr)= -0.10159002E-03 E(CORR)=     -594.49683011     Delta= 6.86D-09
 NORM(A)=   0.10001580D+01
 CI/CC converged in    5 iterations to DelEn= 6.86D-09 Conv= 1.00D-07 ErrA1= 1.05D-06 Conv= 1.00D-05
 Wavefunction amplitudes converged. E(Corr)=     -594.49683011    
 Largest amplitude= 1.51D-02
 Discarding MO integrals.
 Leave Link  913 at Mon Mar 28 14:38:26 2022, MaxMem=  9663676416 cpu:               4.1 elap:               0.1
 (Enter /nopt/nrel/apps/gaussian/g16C_1/g16/l601.exe)
 Copying SCF densities to generalized density rwf, IOpCl= 1 IROHF=0.

 **********************************************************************

            Population analysis using the SCF Density.

 **********************************************************************

 Orbital symmetries:
 Alpha Orbitals:
       Occupied  (SG) (SG) (SG) (PI) (PI) (SG) (SG) (PI) (PI) (SG)
                 (SG)
       Virtual   (PI) (PI) (SG) (SG) (PI) (PI) (SG)
 Beta  Orbitals:
       Occupied  (SG) (SG) (SG) (PI) (PI) (SG) (SG) (PI) (PI)
       Virtual   (SG) (PI) (PI) (SG) (SG) (PI) (PI) (SG) (SG)
 The electronic state is 3-SG.
 Alpha  occ. eigenvalues -- -133.31931 -15.09590 -12.13558 -12.08750 -12.08750
 Alpha  occ. eigenvalues --   -2.37823  -1.51780  -1.34878  -1.34878  -0.25843
 Alpha  occ. eigenvalues --   -0.15128
 Alpha virt. eigenvalues --   -0.00690  -0.00690   0.04456   0.06301   0.06421
 Alpha virt. eigenvalues --    0.06421   0.53490
  Beta  occ. eigenvalues -- -133.31756 -15.09321 -12.13314 -12.08645 -12.08645
  Beta  occ. eigenvalues --   -2.37036  -1.51081  -1.34503  -1.34503
  Beta virt. eigenvalues --   -0.02041   0.02472   0.02472   0.03857   0.06252
  Beta virt. eigenvalues --    0.08882   0.08882   0.10432   0.55359
          Condensed to atoms (all electrons):
               1          2
     1  H    0.437342   0.189471
     2  K    0.189471  19.183717
          Atomic-Atomic Spin Densities.
               1          2
     1  H    0.044436  -0.002350
     2  K   -0.002350   1.960265
 Mulliken charges and spin densities:
               1          2
     1  H    0.373188   0.042086
     2  K   -0.373188   1.957914
 Sum of Mulliken charges =   0.00000   2.00000
 Mulliken charges and spin densities with hydrogens summed into heavy atoms:
               1          2
     2  K    0.000000   2.000000
 N-N= 1.675727834580D+01 E-N=-1.434653737452D+03  KE= 5.951628693495D+02
 Symmetry A1   KE= 4.696551803734D+02
 Symmetry A2   KE= 0.000000000000D+00
 Symmetry B1   KE= 6.275384448807D+01
 Symmetry B2   KE= 6.275384448807D+01
 Symmetry A1   SP= 2.000000000000D+00
 Symmetry A2   SP= 0.000000000000D+00
 Symmetry B1   SP= 1.621052431626D-15
 Symmetry B2   SP=-1.154342499611D-15

 Atomic contributions to Alpha molecular orbitals:
 Alpha occ 1 OE=-133.319 is K2-s=0.9996
 Alpha occ 2 OE=-15.096 is K2-s=1.0034
 Alpha occ 3 OE=-12.136 is K2-p=0.9987
 Alpha occ 4 OE=-12.087 is K2-p=1.0000
 Alpha occ 5 OE=-12.087 is K2-p=1.0000
 Alpha occ 6 OE=-2.378 is K2-s=0.7256 H1-s=0.1942
 Alpha occ 7 OE=-1.518 is K2-p=0.6735 K2-s=0.2213 H1-s=0.1052
 Alpha occ 8 OE=-1.349 is K2-p=1.0000
 Alpha occ 9 OE=-1.349 is K2-p=1.0000
 Alpha occ 10 OE=-0.258 is K2-s=0.9027
 Alpha occ 11 OE=-0.151 is K2-p=0.9449
 Alpha vir 12 OE=-0.007 is K2-p=1.0000
 Alpha vir 13 OE=-0.007 is K2-p=1.0000
 Alpha vir 14 OE=0.045 is K2-s=0.7732 K2-p=0.2137
 Alpha vir 15 OE=0.063 is K2-p=0.7915 K2-s=0.2079
 Alpha vir 16 OE=0.064 is K2-p=1.0000
 Alpha vir 17 OE=0.064 is K2-p=1.0000
 Alpha vir 18 OE=0.535 is H1-s=0.6518 K2-p=0.2410 K2-s=0.1072

 Atomic contributions to Beta  molecular orbitals:
 Beta  occ 1 OE=-133.318 is K2-s=0.9996
 Beta  occ 2 OE=-15.093 is K2-s=1.0034
 Beta  occ 3 OE=-12.133 is K2-p=0.9987
 Beta  occ 4 OE=-12.086 is K2-p=1.0000
 Beta  occ 5 OE=-12.086 is K2-p=1.0000
 Beta  occ 6 OE=-2.370 is K2-s=0.7244 H1-s=0.1959
 Beta  occ 7 OE=-1.511 is K2-p=0.6778 K2-s=0.2193 H1-s=0.1029
 Beta  occ 8 OE=-1.345 is K2-p=1.0000
 Beta  occ 9 OE=-1.345 is K2-p=1.0000
 Beta  vir 10 OE=-0.020 is K2-s=0.9342
 Beta  vir 11 OE=0.025 is K2-p=1.0000
 Beta  vir 12 OE=0.025 is K2-p=1.0000
 Beta  vir 13 OE=0.039 is K2-p=0.9737
 Beta  vir 14 OE=0.063 is K2-s=0.8948
 Beta  vir 15 OE=0.089 is K2-p=1.0000
 Beta  vir 16 OE=0.089 is K2-p=1.0000
 Beta  vir 17 OE=0.104 is K2-p=0.9019 K2-s=0.1021
 Beta  vir 18 OE=0.554 is H1-s=0.6725 K2-p=0.2339
 
 Leave Link  601 at Mon Mar 28 14:38:26 2022, MaxMem=  9663676416 cpu:               3.8 elap:               0.2
 (Enter /nopt/nrel/apps/gaussian/g16C_1/g16/l9999.exe)

 Test job not archived.
 1\1\GINC-R102U34\SP\UCCSD-FC\Gen\H1K1(3)\USER\28-Mar-2022\0\\#P CC
 SD(MaxCyc=200,SaveAmplitudes,ReadAmplitudes)/GEN sp pop=AllOrbitals io
 p(3/33=1,3/36=-1)\\test\\0,3\H,0,0.,0.,0.\K,0,0.,0.,0.6\\Version=ES64L
 -G16RevC.01\State=3-SG\HF=-594.4967285\MP2=-594.4967848\MP3=-594.49680
 96\MP4D=-594.4968205\MP4DQ=-594.4968205\MP4SDQ=-594.4968206\CCSD=-594.
 4968301\S2=2.000062\S2-1=0.\S2A=2.\RMSD=1.472e-09\PG=C*V [C*(H1K1)]\\@


      TO SUSPECT YOUR OWN MORTALITY IS TO KNOW THE BEGINNING OF TERROR.
      TO LEARN IRREFUTABLY THAT YOU ARE MORTAL IS TO KNOW THE END
      OF TERROR.

                                                  -- JESSICA
                                                     CHILDREN OF DUNE
                                                     BY FRANK HERBERT
 Job cpu time:       0 days  0 hours  0 minutes 34.4 seconds.
 Elapsed time:       0 days  0 hours  0 minutes  1.3 seconds.
 File lengths (MBytes):  RWF=     13 Int=      0 D2E=      0 Chk=      1 Scr=      1
 Normal termination of Gaussian 16 at Mon Mar 28 14:38:26 2022.
