 Entering Gaussian System, Link 0=g16
 Initial command:
 /nopt/nrel/apps/gaussian/g16C_1/g16/l1.exe "/lustre/eaglefs/scratch/user/qc/tih-dissc-sto3g/tih-4-ccsd-0.8-sto3g/Gau-1514.inp" -scrdir="/lustre/eaglefs/scratch/user/qc/tih-dissc-sto3g/tih-4-ccsd-0.8-sto3g/"
 Default is to use a total of  36 processors:
                               36 via shared-memory
                                1 via Linda
 Entering Link 1 = /nopt/nrel/apps/gaussian/g16C_1/g16/l1.exe PID=      1515.
  
 Copyright (c) 1988-2019, Gaussian, Inc.  All Rights Reserved.
  
 This is part of the Gaussian(R) 16 program.  It is based on
 the Gaussian(R) 09 system (copyright 2009, Gaussian, Inc.),
 the Gaussian(R) 03 system (copyright 2003, Gaussian, Inc.),
 the Gaussian(R) 98 system (copyright 1998, Gaussian, Inc.),
 the Gaussian(R) 94 system (copyright 1995, Gaussian, Inc.),
 the Gaussian 92(TM) system (copyright 1992, Gaussian, Inc.),
 the Gaussian 90(TM) system (copyright 1990, Gaussian, Inc.),
 the Gaussian 88(TM) system (copyright 1988, Gaussian, Inc.),
 the Gaussian 86(TM) system (copyright 1986, Carnegie Mellon
 University), and the Gaussian 82(TM) system (copyright 1983,
 Carnegie Mellon University). Gaussian is a federally registered
 trademark of Gaussian, Inc.
  
 This software contains proprietary and confidential information,
 including trade secrets, belonging to Gaussian, Inc.
  
 This software is provided under written license and may be
 used, copied, transmitted, or stored only in accord with that
 written license.
  
 The following legend is applicable only to US Government
 contracts under FAR:
  
                    RESTRICTED RIGHTS LEGEND
  
 Use, reproduction and disclosure by the US Government is
 subject to restrictions as set forth in subparagraphs (a)
 and (c) of the Commercial Computer Software - Restricted
 Rights clause in FAR 52.227-19.
  
 Gaussian, Inc.
 340 Quinnipiac St., Bldg. 40, Wallingford CT 06492
  
  
 ---------------------------------------------------------------
 Warning -- This program may not be used in any manner that
 competes with the business of Gaussian, Inc. or will provide
 assistance to any competitor of Gaussian, Inc.  The licensee
 of this program is prohibited from giving any competitor of
 Gaussian, Inc. access to this program.  By using this program,
 the user acknowledges that Gaussian, Inc. is engaged in the
 business of creating and licensing software in the field of
 computational chemistry and represents and warrants to the
 licensee that it is not a competitor of Gaussian, Inc. and that
 it will not use this program in any manner prohibited above.
 ---------------------------------------------------------------
  

 Cite this work as:
 Gaussian 16, Revision C.01,
 M. J. Frisch, G. W. Trucks, H. B. Schlegel, G. E. Scuseria, 
 M. A. Robb, J. R. Cheeseman, G. Scalmani, V. Barone, 
 G. A. Petersson, H. Nakatsuji, X. Li, M. Caricato, A. V. Marenich, 
 J. Bloino, B. G. Janesko, R. Gomperts, B. Mennucci, H. P. Hratchian, 
 J. V. Ortiz, A. F. Izmaylov, J. L. Sonnenberg, D. Williams-Young, 
 F. Ding, F. Lipparini, F. Egidi, J. Goings, B. Peng, A. Petrone, 
 T. Henderson, D. Ranasinghe, V. G. Zakrzewski, J. Gao, N. Rega, 
 G. Zheng, W. Liang, M. Hada, M. Ehara, K. Toyota, R. Fukuda, 
 J. Hasegawa, M. Ishida, T. Nakajima, Y. Honda, O. Kitao, H. Nakai, 
 T. Vreven, K. Throssell, J. A. Montgomery, Jr., J. E. Peralta, 
 F. Ogliaro, M. J. Bearpark, J. J. Heyd, E. N. Brothers, K. N. Kudin, 
 V. N. Staroverov, T. A. Keith, R. Kobayashi, J. Normand, 
 K. Raghavachari, A. P. Rendell, J. C. Burant, S. S. Iyengar, 
 J. Tomasi, M. Cossi, J. M. Millam, M. Klene, C. Adamo, R. Cammi, 
 J. W. Ochterski, R. L. Martin, K. Morokuma, O. Farkas, 
 J. B. Foresman, and D. J. Fox, Gaussian, Inc., Wallingford CT, 2019.
 
 ******************************************
 Gaussian 16:  ES64L-G16RevC.01  3-Jul-2019
                25-Mar-2022 
 ******************************************
 %chk=molecule
 Default route: CacheSize=180224 MaxDisk=256GB
 --------------------------------------------------
 #P CCSD/GEN sp pop=AllOrbitals iop(3/33=1,3/36=-1)
 --------------------------------------------------
 1/4=180224,38=1,172=1/1;
 2/4=180224,12=2,17=6,18=5,40=1/2;
 3/4=180224,5=7,11=9,25=1,30=1,33=1,36=-1/1,2,3;
 4/4=180224/1;
 5/4=180224,5=2,38=5/2;
 8/4=180224,6=4,9=120000,10=1/1,4;
 9/4=180224,5=7/13;
 6/4=180224,7=2,8=2,9=2,10=2,96=-1/1;
 99/4=180224,5=1,9=1/99;
 Leave Link    1 at Fri Mar 25 14:38:32 2022, MaxMem=           0 cpu:               2.7 elap:               0.1
 (Enter /nopt/nrel/apps/gaussian/g16C_1/g16/l101.exe)
 ----
 test
 ----
 Symbolic Z-matrix:
 Charge =  0 Multiplicity = 4
 H                     0.        0.        0. 
 Ti                    0.        0.        0.8 
 
 ITRead=  0  0
 MicOpt= -1 -1
 NAtoms=      2 NQM=        2 NQMF=       0 NMMI=      0 NMMIF=      0
                NMic=       0 NMicF=      0.
                    Isotopes and Nuclear Properties:
 (Nuclear quadrupole moments (NQMom) in fm**2, nuclear magnetic moments (NMagM)
  in nuclear magnetons)

  Atom         1           2
 IAtWgt=           1          48
 AtmWgt=   1.0078250  47.9479467
 NucSpn=           1           0
 AtZEff=  -0.0000000  -0.0000000
 NQMom=    0.0000000   0.0000000
 NMagM=    2.7928460   0.0000000
 AtZNuc=   1.0000000  22.0000000
 Leave Link  101 at Fri Mar 25 14:38:32 2022, MaxMem=  9663676416 cpu:               3.0 elap:               0.1
 (Enter /nopt/nrel/apps/gaussian/g16C_1/g16/l202.exe)
                          Input orientation:                          
 ---------------------------------------------------------------------
 Center     Atomic      Atomic             Coordinates (Angstroms)
 Number     Number       Type             X           Y           Z
 ---------------------------------------------------------------------
      1          1           0        0.000000    0.000000    0.000000
      2         22           0        0.000000    0.000000    0.800000
 ---------------------------------------------------------------------
 Stoichiometry    HTi(4)
 Framework group  C*V[C*(HTi)]
 Deg. of freedom     1
 Full point group                 C*V     NOp   4
 Largest Abelian subgroup         C2V     NOp   4
 Largest concise Abelian subgroup C1      NOp   1
                         Standard orientation:                         
 ---------------------------------------------------------------------
 Center     Atomic      Atomic             Coordinates (Angstroms)
 Number     Number       Type             X           Y           Z
 ---------------------------------------------------------------------
      1          1           0        0.000000    0.000000   -0.765217
      2         22           0        0.000000    0.000000    0.034783
 ---------------------------------------------------------------------
 Rotational constants (GHZ):           0.0000000         799.9926001         799.9926001
 Leave Link  202 at Fri Mar 25 14:38:32 2022, MaxMem=  9663676416 cpu:               1.0 elap:               0.1
 (Enter /nopt/nrel/apps/gaussian/g16C_1/g16/l301.exe)
 General basis read from cards:  (5D, 7F)
                         Coordinates in L301:                         
 ---------------------------------------------------------------------
 Center     Atomic      Atomic             Coordinates (Angstroms)
 Number     Number       Type             X           Y           Z
 ---------------------------------------------------------------------
      1          1           0        0.000000    0.000000   -0.765217
      2         22           0        0.000000    0.000000    0.034783
 ---------------------------------------------------------------------
 Centers:       1
 STO-3G
 ****
 Centers:       2
 STO-3G
 ****
 FixB: optimizing general contractions.
 Ernie: Thresh=  0.10000D-02 Tol=  0.10000D-05 Strict=F.
 IA=     1 ShT= 0 ShC= 0 NL=   1 NS=   0.
 IA=     1 L=0 SC=0 ISt=    0 NBk=    0 NP=    0 IndPr=    0.
 IA=     2 ShT= 0 ShC= 0 NL=   1 NS=   0.
 IA=     2 L=0 SC=0 ISt=    0 NBk=    0 NP=    0 IndPr=    0.
 IA=     2 ShT= 1 ShC= 0 NL=   3 NS=   0.
 IA=     2 L=1 SC=0 ISt=    1 NBk=    3 NP=    9 IndPr=    0.
 DoElim1:  L=1 select primitive    1 from    2 using    1 C=-1.00D-01
 DoElim1:  L=1 select primitive    1 from    3 using    1 C=-1.00D-01
 DoElim1:  L=1 select primitive    4 from    3 using    2 C=-2.28D-01
 DoElim2:  L=1 select primitive    9 from    2 using    3 C= 1.13D+00
 DoElim2:  L=1 select primitive    9 from    1 using    3 C= 1.13D+00
 DoElim2:  L=1 select primitive    7 from    1 using    2 C= 9.17D-01
 DoElim1:  L=1 select primitive    1 from    2 using    1 C= 1.56D-01
 DoElim1:  L=1 select primitive    1 from    3 using    1 C= 1.56D-01
 DoElim1:  L=1 select primitive    4 from    3 using    2 C= 4.95D-03
 DoElim2:  L=1 select primitive    8 from    2 using    3 C= 5.72D-01
 DoElim2:  L=1 select primitive    8 from    1 using    3 C= 5.72D-01
 DoElim2:  L=1 select primitive    5 from    1 using    2 C= 5.78D-01
 Delete L=1 primitive    7 from    3 C=  0.00D+00.
 Delete L=1 primitive    5 from    3 C=  0.00D+00.
 Delete L=1 primitive    4 from    3 C=  0.00D+00.
 Delete L=1 primitive    3 from    3 C=  0.00D+00.
 Delete L=1 primitive    2 from    3 C=  0.00D+00.
 Delete L=1 primitive    1 from    3 C=  0.00D+00.
 Delete L=1 primitive    9 from    2 C=  0.00D+00.
 Delete L=1 primitive    8 from    2 C=  0.00D+00.
 Delete L=1 primitive    6 from    2 C=  0.00D+00.
 Delete L=1 primitive    3 from    2 C=  0.00D+00.
 Delete L=1 primitive    2 from    2 C=  0.00D+00.
 Delete L=1 primitive    1 from    2 C=  0.00D+00.
 Delete L=1 primitive    9 from    1 C=  0.00D+00.
 Delete L=1 primitive    8 from    1 C=  0.00D+00.
 Delete L=1 primitive    7 from    1 C=  0.00D+00.
 Delete L=1 primitive    6 from    1 C=  0.00D+00.
 Delete L=1 primitive    5 from    1 C=  0.00D+00.
 Delete L=1 primitive    4 from    1 C=  0.00D+00.
 IA=     2 L=1 SC=0 ISt=    0 NBk=    0 NP=    0 IndPr=    9.
 IA=     2 ShT= 2 ShC= 2 NL=   1 NS=   0.
 IA=     2 L=2 SC=2 ISt=    0 NBk=    0 NP=    0 IndPr=    0.
 LdAtmC:  AtmChg=     1.000000    22.000000
 AtZEff=     -1.0000000    -23.9800000
 NEqShl: 
              1            2            3            4
     1            1            1            1            1
     2            2            2            2            2
     3            3            3            3            3
     4            4            4            4            4
     5            5            5            5            5
     6            6            6            6            6
 NEqBas: 
              1            2            3            4
     1            1            1            1            1
     2            2            2            2            2
     3            3            3            3            3
     4            4           -4           -4            4
     5            5           -5            5           -5
     6            6            6            6            6
     7            7            7            7            7
     8            8           -8           -8            8
     9            9           -9            9           -9
    10           10           10           10           10
    11           11           11           11           11
    12           12          -12          -12           12
    13           13          -13           13          -13
    14           14           14           14           14
    15           15           15           15           15
    16           16           16           16           16
    17           17           17           17           17
    18           18           18          -18          -18
    19           19          -19          -19           19
    20           20          -20           20          -20
 There are    11 symmetry adapted cartesian basis functions of A1  symmetry.
   1         1   1   1   1
   2         2   2   2   2
   3         3   3   3   3
   4         6   6   6   6
   5         7   7   7   7
   6        10  10  10  10
   7        11  11  11  11
   8        14  14  14  14
   9        15  15  15  15
  10        16  16  16  16
  11        17  17  17  17
 There are     1 symmetry adapted cartesian basis functions of A2  symmetry.
  12        18  18  18  18
 There are     4 symmetry adapted cartesian basis functions of B1  symmetry.
  13         4   4   4   4
  14         8   8   8   8
  15        12  12  12  12
  16        19  19  19  19
 There are     4 symmetry adapted cartesian basis functions of B2  symmetry.
  17         5   5   5   5
  18         9   9   9   9
  19        13  13  13  13
  20        20  20  20  20
 Order= 1 2 4 3
 Reordered character table:
              1            2            3            4            5
     1            1            1            1            1            1
     2            2            1            1           -1           -1
     3            4            1           -1           -1            1
     4            3            1           -1            1           -1
 NEqShl: 
              1            2            3            4
     1            1            1            1            1
     2            2            2            2            2
     3            3            3            3            3
     4            4            4            4            4
     5            5            5            5            5
     6            6            6            6            6
 NEqBas: 
              1            2            3            4
     1            1            1            1            1
     2            2            2            2            2
     3            3            3            3            3
     4            4           -4           -4            4
     5            5           -5            5           -5
     6            6            6            6            6
     7            7            7            7            7
     8            8           -8           -8            8
     9            9           -9            9           -9
    10           10           10           10           10
    11           11           11           11           11
    12           12          -12          -12           12
    13           13          -13           13          -13
    14           14           14           14           14
    15           15           15           15           15
    16           16          -16          -16           16
    17           17          -17           17          -17
    18           18           18           18           18
    19           19           19          -19          -19
 There are    10 symmetry adapted basis functions of A1  symmetry.
   1         1   1   1   1
   2         2   2   2   2
   3         3   3   3   3
   4         6   6   6   6
   5         7   7   7   7
   6        10  10  10  10
   7        11  11  11  11
   8        14  14  14  14
   9        15  15  15  15
  10        18  18  18  18
 There are     1 symmetry adapted basis functions of A2  symmetry.
  11        19  19  19  19
 There are     4 symmetry adapted basis functions of B1  symmetry.
  12         4   4   4   4
  13         8   8   8   8
  14        12  12  12  12
  15        16  16  16  16
 There are     4 symmetry adapted basis functions of B2  symmetry.
  16         5   5   5   5
  17         9   9   9   9
  18        13  13  13  13
  19        17  17  17  17
 Order= 1 2 4 3
 Reordered character table:
              1            2            3            4            5
     1            1            1            1            1            1
     2            2            1            1           -1           -1
     3            4            1           -1           -1            1
     4            3            1           -1            1           -1
    19 basis functions,    60 primitive gaussians,    20 cartesian basis functions
    13 alpha electrons       10 beta electrons
       nuclear repulsion energy        14.5523733003 Hartrees.
 IS=     1 IAt=     1 ISR=     1 T=0 IP=      1 IndIP=      1 IndIPD=      0 C=  2.769344D-01  0.000000D+00                             NZ=T
 IS=     1 IAt=     1 ISR=     1 T=0 IP=      2 IndIP=      2 IndIPD=      1 C=  2.678389D-01  0.000000D+00                             NZ=T
 IS=     1 IAt=     1 ISR=     1 T=0 IP=      3 IndIP=      3 IndIPD=      2 C=  8.347367D-02  0.000000D+00                             NZ=T
 IS=     2 IAt=     2 ISR=     1 T=0 IP=      1 IndIP=      4 IndIPD=      0 C=  2.004993D+01  0.000000D+00                             NZ=T
 IS=     2 IAt=     2 ISR=     1 T=0 IP=      2 IndIP=      5 IndIPD=      1 C=  1.939142D+01  0.000000D+00                             NZ=T
 IS=     2 IAt=     2 ISR=     1 T=0 IP=      3 IndIP=      6 IndIPD=      2 C=  6.043458D+00  0.000000D+00                             NZ=T
 IS=     3 IAt=     2 ISR=     2 T=1 IP=      1 IndIP=      7 IndIPD=      0 C= -1.820341D+00  4.925761D+01                             NZ=T
 IS=     3 IAt=     2 ISR=     2 T=1 IP=      2 IndIP=      8 IndIPD=      1 C=  2.434854D+00  3.097451D+01                             NZ=T
 IS=     3 IAt=     2 ISR=     2 T=1 IP=      3 IndIP=      9 IndIPD=      2 C=  1.837620D+00  4.906883D+00                             NZ=T
 IS=     4 IAt=     2 ISR=     3 T=1 IP=      1 IndIP=     10 IndIPD=      0 C= -5.746721D-01  5.803915D-02                             NZ=T
 IS=     4 IAt=     2 ISR=     3 T=1 IP=      2 IndIP=     11 IndIPD=      1 C=  2.252897D-01  1.535208D+00                             NZ=T
 IS=     4 IAt=     2 ISR=     3 T=1 IP=      3 IndIP=     12 IndIPD=      2 C=  4.647390D-01  3.915940D-01                             NZ=T
 IS=     5 IAt=     2 ISR=     4 T=1 IP=      1 IndIP=     13 IndIPD=      0 C= -1.706594D-01 -1.133666D-01                             NZ=T
 IS=     5 IAt=     2 ISR=     4 T=1 IP=      2 IndIP=     14 IndIPD=      1 C=  5.129963D-03  1.533382D-01                             NZ=T
 IS=     5 IAt=     2 ISR=     4 T=1 IP=      3 IndIP=     15 IndIPD=      2 C=  1.603140D-01  5.311239D-02                             NZ=T
 IS=     6 IAt=     2 ISR=     5 T=2 IP=      1 IndIP=     16 IndIPD=      1 C=  0.000000D+00  0.000000D+00  8.652016D-01  0.000000D+00 NZ=T
 IS=     6 IAt=     2 ISR=     5 T=2 IP=      2 IndIP=     17 IndIPD=      2 C=  0.000000D+00  0.000000D+00  3.231180D-01  0.000000D+00 NZ=T
 IS=     6 IAt=     2 ISR=     5 T=2 IP=      3 IndIP=     18 IndIPD=      3 C=  0.000000D+00  0.000000D+00  2.668013D-02  0.000000D+00 NZ=T
 IExCor=    0 DFT=F Ex=HF Corr=None ExCW=0 ScaHFX=  1.000000
 ScaDFX=  1.000000  1.000000  1.000000  1.000000 ScalE2=  1.000000  1.000000
 IRadAn=      5 IRanWt=     -1 IRanGd=            0 ICorTp=0 IEmpDi=  4
 NAtoms=    2 NActive=    2 NUniq=    2 SFac= 1.00D+00 NAtFMM=   60 NAOKFM=F Big=F
 Integral buffers will be    131072 words long.
 Raffenetti 2 integral format.
 Two-electron integral symmetry is turned on.
 Leave Link  301 at Fri Mar 25 14:38:32 2022, MaxMem=  9663676416 cpu:               2.7 elap:               0.1
 (Enter /nopt/nrel/apps/gaussian/g16C_1/g16/l302.exe)
 NPDir=0 NMtPBC=     1 NCelOv=     1 NCel=       1 NClECP=     1 NCelD=      1
         NCelK=      1 NCelE2=     1 NClLst=     1 CellRange=     0.0.
 One-electron integrals computed using PRISM.
 One-electron integral symmetry used in STVInt
 Entering OneElI...
 Calculate overlap and kinetic energy integrals
    NBasis =  19  MinDer = 0  MaxDer = 0
 Requested accuracy = 0.1000D-12
 Symmetry will be used
 PrmmSu-InSpLW:  IPartL=    0 NPrtUS=   36 NPrtUL=    1 DoSpLW=F IThBeg=    0 IThEnd=   35 NThAct=   36.
 PrSmSu:  IncTry=   512 NBBP=             21 NTPThr=   100 NPartT=   36 Incr=           1 LDynOK=F GPUOK=F.
 PrsmSu:  NPrtUS=  36 ThrOK=T IAlg=1 LenDen=           0 ISkipM=0 DoSpLW=F IThBeg=    0 IThEnd=   35.
 Prism:   IPart=     0 DynPar=F LinDyn=F Incr=           1.
 PRISM was handed   268432635 working-precision words and    21 shell-pairs
 PRISM was handed   268432635 working-precision words and    21 shell-pairs
 PRISM was handed   268432635 working-precision words and    21 shell-pairs
 PRISM was handed   268432635 working-precision words and    21 shell-pairs
 PRISM was handed   268432635 working-precision words and    21 shell-pairs
 PRISM was handed   268432635 working-precision words and    21 shell-pairs
 PRISM was handed   268432635 working-precision words and    21 shell-pairs
 PRISM was handed   268432635 working-precision words and    21 shell-pairs
 PRISM was handed   268432635 working-precision words and    21 shell-pairs
 PRISM was handed   268432635 working-precision words and    21 shell-pairs
 PRISM was handed   268432635 working-precision words and    21 shell-pairs
 PRISM was handed   268432635 working-precision words and    21 shell-pairs
 PRISM was handed   268432635 working-precision words and    21 shell-pairs
 PRISM was handed   268432635 working-precision words and    21 shell-pairs
 PRISM was handed   268432635 working-precision words and    21 shell-pairs
 PRISM was handed   268432635 working-precision words and    21 shell-pairs
 IPart= 20 NShTot=           0 NBatch=           0 AvBLen=         0.0
 IPart= 19 NShTot=           0 NBatch=           0 AvBLen=         0.0
 IPart= 11 NShTot=           0 NBatch=           0 AvBLen=         0.0
 IPart= 16 NShTot=           0 NBatch=           0 AvBLen=         0.0
 IPart= 28 NShTot=           0 NBatch=           0 AvBLen=         0.0
 IPart= 34 NShTot=           0 NBatch=           0 AvBLen=         0.0
 IPart= 22 NShTot=           0 NBatch=           0 AvBLen=         0.0
 IPart=  8 NShTot=           0 NBatch=           0 AvBLen=         0.0
 IPart= 33 NShTot=           0 NBatch=           0 AvBLen=         0.0
 IPart= 25 NShTot=           0 NBatch=           0 AvBLen=         0.0
 IPart= 24 NShTot=           0 NBatch=           0 AvBLen=         0.0
 PRISM was handed   268432635 working-precision words and    21 shell-pairs
 PRISM was handed   268432635 working-precision words and    21 shell-pairs
 PRISM was handed   268432635 working-precision words and    21 shell-pairs
 IPart= 26 NShTot=           0 NBatch=           0 AvBLen=         0.0
 PRISM was handed   268432635 working-precision words and    21 shell-pairs
 IPart=  5 NShTot=           2 NBatch=           2 AvBLen=         1.0
 IPart= 12 NShTot=           0 NBatch=           0 AvBLen=         0.0
 IPart=  2 NShTot=           4 NBatch=           4 AvBLen=         1.0
 PRISM was handed   268432635 working-precision words and    21 shell-pairs
 PRISM was handed   268432635 working-precision words and    21 shell-pairs
 PRISM was handed   268432635 working-precision words and    21 shell-pairs
 PRISM was handed   268432635 working-precision words and    21 shell-pairs
 IPart= 35 NShTot=           0 NBatch=           0 AvBLen=         0.0
 IPart= 32 NShTot=           0 NBatch=           0 AvBLen=         0.0
 IPart=  7 NShTot=           0 NBatch=           0 AvBLen=         0.0
 IPart= 10 NShTot=           0 NBatch=           0 AvBLen=         0.0
 PRISM was handed   268432635 working-precision words and    21 shell-pairs
 PRISM was handed   268432635 working-precision words and    21 shell-pairs
 PRISM was handed   268432635 working-precision words and    21 shell-pairs
 IPart= 14 NShTot=           0 NBatch=           0 AvBLen=         0.0
 IPart=  3 NShTot=           2 NBatch=           2 AvBLen=         1.0
 IPart= 29 NShTot=           0 NBatch=           0 AvBLen=         0.0
 IPart=  1 NShTot=           5 NBatch=           5 AvBLen=         1.0
 PRISM was handed   268432635 working-precision words and    21 shell-pairs
 PRISM was handed   268432635 working-precision words and    21 shell-pairs
 IPart= 30 NShTot=           0 NBatch=           0 AvBLen=         0.0
 IPart=  6 NShTot=           0 NBatch=           0 AvBLen=         0.0
 IPart= 17 NShTot=           0 NBatch=           0 AvBLen=         0.0
 PRISM was handed   268432635 working-precision words and    21 shell-pairs
 PRISM was handed   268432635 working-precision words and    21 shell-pairs
 PRISM was handed   268432635 working-precision words and    21 shell-pairs
 PRISM was handed   268432635 working-precision words and    21 shell-pairs
 PRISM was handed   268432635 working-precision words and    21 shell-pairs
 IPart=  0 NShTot=           6 NBatch=           6 AvBLen=         1.0
 PRISM was handed   268432635 working-precision words and    21 shell-pairs
 PRISM was handed   268432635 working-precision words and    21 shell-pairs
 IPart= 23 NShTot=           0 NBatch=           0 AvBLen=         0.0
 IPart= 18 NShTot=           0 NBatch=           0 AvBLen=         0.0
 IPart=  9 NShTot=           0 NBatch=           0 AvBLen=         0.0
 IPart= 13 NShTot=           0 NBatch=           0 AvBLen=         0.0
 IPart= 27 NShTot=           0 NBatch=           0 AvBLen=         0.0
 IPart= 21 NShTot=           0 NBatch=           0 AvBLen=         0.0
 IPart= 31 NShTot=           0 NBatch=           0 AvBLen=         0.0
 IPart=  4 NShTot=           2 NBatch=           2 AvBLen=         1.0
 IPart= 15 NShTot=           0 NBatch=           0 AvBLen=         0.0
 PrSmSu:  NxtVal=             37.
 *** Overlap *** 
                1             2             3             4             5 
      1  0.100000D+01
      2  0.166667D-01  0.100000D+01
      3  0.110511D+00  0.371775D+00  0.100000D+01
      4  0.000000D+00  0.000000D+00  0.000000D+00  0.100000D+01
      5  0.000000D+00  0.000000D+00  0.000000D+00  0.000000D+00  0.100000D+01
      6 -0.354792D-01  0.000000D+00  0.000000D+00  0.000000D+00  0.000000D+00
      7  0.522816D+00  0.223608D-01  0.300384D+00  0.000000D+00  0.000000D+00
      8  0.000000D+00  0.000000D+00  0.000000D+00  0.313309D+00  0.000000D+00
      9  0.000000D+00  0.000000D+00  0.000000D+00  0.000000D+00  0.313309D+00
     10 -0.382598D+00  0.000000D+00  0.000000D+00  0.000000D+00  0.000000D+00
     11  0.605542D+00 -0.412730D-03  0.136941D-01  0.000000D+00  0.000000D+00
     12  0.000000D+00  0.000000D+00  0.000000D+00  0.250808D-01  0.000000D+00
     13  0.000000D+00  0.000000D+00  0.000000D+00  0.000000D+00  0.250808D-01
     14 -0.543725D+00  0.000000D+00  0.000000D+00  0.000000D+00  0.000000D+00
     15  0.337514D+00  0.000000D+00  0.000000D+00  0.000000D+00  0.000000D+00
     16  0.000000D+00  0.000000D+00  0.000000D+00  0.000000D+00  0.000000D+00
     17  0.000000D+00  0.000000D+00  0.000000D+00  0.000000D+00  0.000000D+00
     18  0.000000D+00  0.000000D+00  0.000000D+00  0.000000D+00  0.000000D+00
     19  0.000000D+00  0.000000D+00  0.000000D+00  0.000000D+00  0.000000D+00
                6             7             8             9            10 
      6  0.100000D+01
      7  0.000000D+00  0.100000D+01
      8  0.000000D+00  0.000000D+00  0.100000D+01
      9  0.000000D+00  0.000000D+00  0.000000D+00  0.100000D+01
     10  0.313309D+00  0.000000D+00  0.000000D+00  0.000000D+00  0.100000D+01
     11  0.000000D+00  0.395149D+00  0.000000D+00  0.000000D+00  0.000000D+00
     12  0.000000D+00  0.000000D+00  0.407435D+00  0.000000D+00  0.000000D+00
     13  0.000000D+00  0.000000D+00  0.000000D+00  0.407435D+00  0.000000D+00
     14  0.250808D-01  0.000000D+00  0.000000D+00  0.000000D+00  0.407435D+00
     15  0.000000D+00  0.000000D+00  0.000000D+00  0.000000D+00  0.000000D+00
     16  0.000000D+00  0.000000D+00  0.000000D+00  0.000000D+00  0.000000D+00
     17  0.000000D+00  0.000000D+00  0.000000D+00  0.000000D+00  0.000000D+00
     18  0.000000D+00  0.000000D+00  0.000000D+00  0.000000D+00  0.000000D+00
     19  0.000000D+00  0.000000D+00  0.000000D+00  0.000000D+00  0.000000D+00
               11            12            13            14            15 
     11  0.100000D+01
     12  0.000000D+00  0.100000D+01
     13  0.000000D+00  0.000000D+00  0.100000D+01
     14  0.000000D+00  0.000000D+00  0.000000D+00  0.100000D+01
     15  0.000000D+00  0.000000D+00  0.000000D+00  0.000000D+00  0.100000D+01
     16  0.000000D+00  0.000000D+00  0.000000D+00  0.000000D+00  0.000000D+00
     17  0.000000D+00  0.000000D+00  0.000000D+00  0.000000D+00  0.000000D+00
     18  0.000000D+00  0.000000D+00  0.000000D+00  0.000000D+00  0.000000D+00
     19  0.000000D+00  0.000000D+00  0.000000D+00  0.000000D+00  0.000000D+00
               16            17            18            19 
     16  0.100000D+01
     17  0.000000D+00  0.100000D+01
     18  0.000000D+00  0.000000D+00  0.100000D+01
     19  0.000000D+00  0.000000D+00  0.000000D+00  0.100000D+01
 *** Kinetic Energy *** 
                1             2             3             4             5 
      1  0.760032D+00
      2  0.308107D-02  0.229340D+03
      3  0.192691D-01  0.137973D+01  0.120824D+02
      4  0.000000D+00  0.000000D+00  0.000000D+00  0.378073D+02
      5  0.000000D+00  0.000000D+00  0.000000D+00  0.000000D+00  0.378073D+02
      6 -0.256727D-01  0.000000D+00  0.000000D+00  0.000000D+00  0.000000D+00
      7  0.210042D+00 -0.798994D+00 -0.840664D+00  0.000000D+00  0.000000D+00
      8  0.000000D+00  0.000000D+00  0.000000D+00  0.187471D+01  0.000000D+00
      9  0.000000D+00  0.000000D+00  0.000000D+00  0.000000D+00  0.187471D+01
     10 -0.390605D+00  0.000000D+00  0.000000D+00  0.000000D+00  0.000000D+00
     11  0.102645D+00 -0.407071D-01 -0.207745D+00  0.000000D+00  0.000000D+00
     12  0.000000D+00  0.000000D+00  0.000000D+00 -0.209473D-01  0.000000D+00
     13  0.000000D+00  0.000000D+00  0.000000D+00  0.000000D+00 -0.209473D-01
     14 -0.271299D+00  0.000000D+00  0.000000D+00  0.000000D+00  0.000000D+00
     15  0.497262D+00  0.000000D+00  0.000000D+00  0.000000D+00  0.000000D+00
     16  0.000000D+00  0.000000D+00  0.000000D+00  0.000000D+00  0.000000D+00
     17  0.000000D+00  0.000000D+00  0.000000D+00  0.000000D+00  0.000000D+00
     18  0.000000D+00  0.000000D+00  0.000000D+00  0.000000D+00  0.000000D+00
     19  0.000000D+00  0.000000D+00  0.000000D+00  0.000000D+00  0.000000D+00
                6             7             8             9            10 
      6  0.378073D+02
      7  0.000000D+00  0.116813D+01
      8  0.000000D+00  0.000000D+00  0.275070D+01
      9  0.000000D+00  0.000000D+00  0.000000D+00  0.275070D+01
     10  0.187471D+01  0.000000D+00  0.000000D+00  0.000000D+00  0.275070D+01
     11  0.000000D+00 -0.927537D-01  0.000000D+00  0.000000D+00  0.000000D+00
     12  0.000000D+00  0.000000D+00  0.199329D+00  0.000000D+00  0.000000D+00
     13  0.000000D+00  0.000000D+00  0.000000D+00  0.199329D+00  0.000000D+00
     14 -0.209473D-01  0.000000D+00  0.000000D+00  0.000000D+00  0.199329D+00
     15  0.000000D+00  0.000000D+00  0.000000D+00  0.000000D+00  0.000000D+00
     16  0.000000D+00  0.000000D+00  0.000000D+00  0.000000D+00  0.000000D+00
     17  0.000000D+00  0.000000D+00  0.000000D+00  0.000000D+00  0.000000D+00
     18  0.000000D+00  0.000000D+00  0.000000D+00  0.000000D+00  0.000000D+00
     19  0.000000D+00  0.000000D+00  0.000000D+00  0.000000D+00  0.000000D+00
               11            12            13            14            15 
     11  0.207443D+00
     12  0.000000D+00  0.409500D+00
     13  0.000000D+00  0.000000D+00  0.409500D+00
     14  0.000000D+00  0.000000D+00  0.000000D+00  0.409500D+00
     15  0.000000D+00  0.000000D+00  0.000000D+00  0.000000D+00  0.180044D+01
     16  0.000000D+00  0.000000D+00  0.000000D+00  0.000000D+00  0.000000D+00
     17  0.000000D+00  0.000000D+00  0.000000D+00  0.000000D+00  0.000000D+00
     18  0.000000D+00  0.000000D+00  0.000000D+00  0.000000D+00  0.000000D+00
     19  0.000000D+00  0.000000D+00  0.000000D+00  0.000000D+00  0.000000D+00
               16            17            18            19 
     16  0.180044D+01
     17  0.000000D+00  0.180044D+01
     18  0.000000D+00  0.000000D+00  0.180044D+01
     19  0.000000D+00  0.000000D+00  0.000000D+00  0.180044D+01
 Entering OneElI...
 Calculate potential energy integrals
    NBasis =  19  MinDer = 0  MaxDer = 0
 Requested accuracy = 0.1000D-12
 Symmetry will be used
 PrmmSu-InSpLW:  IPartL=    0 NPrtUS=   36 NPrtUL=    1 DoSpLW=F IThBeg=    0 IThEnd=   35 NThAct=   36.
 PrSmSu:  IncTry=   512 NBBP=             42 NTPThr=   100 NPartT=   36 Incr=           1 LDynOK=F GPUOK=F.
 PrsmSu:  NPrtUS=  36 ThrOK=T IAlg=1 LenDen=           0 ISkipM=0 DoSpLW=F IThBeg=    0 IThEnd=   35.
 Prism:   IPart=     0 DynPar=F LinDyn=F Incr=           1.
 PRISM was handed   268432827 working-precision words and    21 shell-pairs
 PRISM was handed   268432827 working-precision words and    21 shell-pairs
 PRISM was handed   268432827 working-precision words and    21 shell-pairs
 PRISM was handed   268432827 working-precision words and    21 shell-pairs
 PRISM was handed   268432827 working-precision words and    21 shell-pairs
 PRISM was handed   268432827 working-precision words and    21 shell-pairs
 PRISM was handed   268432827 working-precision words and    21 shell-pairs
 PRISM was handed   268432827 working-precision words and    21 shell-pairs
 PRISM was handed   268432827 working-precision words and    21 shell-pairs
 PRISM was handed   268432827 working-precision words and    21 shell-pairs
 PRISM was handed   268432827 working-precision words and    21 shell-pairs
 PRISM was handed   268432827 working-precision words and    21 shell-pairs
 PRISM was handed   268432827 working-precision words and    21 shell-pairs
 PRISM was handed   268432827 working-precision words and    21 shell-pairs
 PRISM was handed   268432827 working-precision words and    21 shell-pairs
 PRISM was handed   268432827 working-precision words and    21 shell-pairs
 PRISM was handed   268432827 working-precision words and    21 shell-pairs
 PRISM was handed   268432827 working-precision words and    21 shell-pairs
 PRISM was handed   268432827 working-precision words and    21 shell-pairs
 PRISM was handed   268432827 working-precision words and    21 shell-pairs
 PRISM was handed   268432827 working-precision words and    21 shell-pairs
 PRISM was handed   268432827 working-precision words and    21 shell-pairs
 PRISM was handed   268432827 working-precision words and    21 shell-pairs
 PRISM was handed   268432827 working-precision words and    21 shell-pairs
 PRISM was handed   268432827 working-precision words and    21 shell-pairs
 PRISM was handed   268432827 working-precision words and    21 shell-pairs
 PRISM was handed   268432827 working-precision words and    21 shell-pairs
 PRISM was handed   268432827 working-precision words and    21 shell-pairs
 PRISM was handed   268432827 working-precision words and    21 shell-pairs
 PRISM was handed   268432827 working-precision words and    21 shell-pairs
 PRISM was handed   268432827 working-precision words and    21 shell-pairs
 PRISM was handed   268432827 working-precision words and    21 shell-pairs
 PRISM was handed   268432827 working-precision words and    21 shell-pairs
 PRISM was handed   268432827 working-precision words and    21 shell-pairs
 PRISM was handed   268432827 working-precision words and    21 shell-pairs
 PRISM was handed   268432827 working-precision words and    21 shell-pairs
 IPart=  7 NShTot=           0 NBatch=           0 AvBLen=         0.0
 IPart= 11 NShTot=           0 NBatch=           0 AvBLen=         0.0
 IPart= 10 NShTot=           0 NBatch=           0 AvBLen=         0.0
 IPart= 30 NShTot=           0 NBatch=           0 AvBLen=         0.0
 IPart= 12 NShTot=           0 NBatch=           0 AvBLen=         0.0
 IPart=  8 NShTot=           0 NBatch=           0 AvBLen=         0.0
 IPart=  6 NShTot=           0 NBatch=           0 AvBLen=         0.0
 IPart= 26 NShTot=           0 NBatch=           0 AvBLen=         0.0
 IPart= 28 NShTot=           0 NBatch=           0 AvBLen=         0.0
 IPart= 20 NShTot=           0 NBatch=           0 AvBLen=         0.0
 IPart= 33 NShTot=           0 NBatch=           0 AvBLen=         0.0
 IPart= 35 NShTot=           0 NBatch=           0 AvBLen=         0.0
 IPart= 14 NShTot=           0 NBatch=           0 AvBLen=         0.0
 IPart= 15 NShTot=           0 NBatch=           0 AvBLen=         0.0
 IPart= 24 NShTot=           0 NBatch=           0 AvBLen=         0.0
 IPart=  9 NShTot=           0 NBatch=           0 AvBLen=         0.0
 IPart= 27 NShTot=           0 NBatch=           0 AvBLen=         0.0
 IPart= 17 NShTot=           0 NBatch=           0 AvBLen=         0.0
 IPart= 29 NShTot=           0 NBatch=           0 AvBLen=         0.0
 IPart= 22 NShTot=           0 NBatch=           0 AvBLen=         0.0
 IPart= 31 NShTot=           0 NBatch=           0 AvBLen=         0.0
 IPart= 21 NShTot=           0 NBatch=           0 AvBLen=         0.0
 IPart= 18 NShTot=           0 NBatch=           0 AvBLen=         0.0
 IPart= 32 NShTot=           0 NBatch=           0 AvBLen=         0.0
 IPart= 13 NShTot=           0 NBatch=           0 AvBLen=         0.0
 IPart= 23 NShTot=           0 NBatch=           0 AvBLen=         0.0
 IPart= 25 NShTot=           0 NBatch=           0 AvBLen=         0.0
 IPart= 16 NShTot=           0 NBatch=           0 AvBLen=         0.0
 IPart= 19 NShTot=           0 NBatch=           0 AvBLen=         0.0
 IPart= 34 NShTot=           0 NBatch=           0 AvBLen=         0.0
 IPart=  4 NShTot=           4 NBatch=           2 AvBLen=         2.0
 IPart=  1 NShTot=          10 NBatch=           5 AvBLen=         2.0
 IPart=  3 NShTot=           4 NBatch=           2 AvBLen=         2.0
 IPart=  2 NShTot=           8 NBatch=           4 AvBLen=         2.0
 IPart=  5 NShTot=           4 NBatch=           2 AvBLen=         2.0
 IPart=  0 NShTot=          12 NBatch=           6 AvBLen=         2.0
 PrSmSu:  NxtVal=             37.
 ***** Potential Energy ***** 
                1             2             3             4             5 
      1  0.148001D+02
      2  0.404633D+01  0.469426D+03
      3  0.735541D+01  0.903918D+02  0.969135D+02
      4  0.000000D+00  0.000000D+00  0.000000D+00  0.961373D+02
      5  0.000000D+00  0.000000D+00  0.000000D+00  0.000000D+00  0.961373D+02
      6 -0.179572D+01 -0.119204D-01 -0.725539D-01  0.000000D+00  0.000000D+00
      7  0.115370D+02  0.473488D+01  0.171603D+02  0.000000D+00  0.000000D+00
      8  0.000000D+00  0.000000D+00  0.000000D+00  0.175885D+02  0.000000D+00
      9  0.000000D+00  0.000000D+00  0.000000D+00  0.000000D+00  0.175885D+02
     10 -0.757996D+01 -0.827924D-03 -0.362993D-01  0.000000D+00  0.000000D+00
     11  0.727118D+01 -0.133941D+00  0.490467D+00  0.000000D+00  0.000000D+00
     12  0.000000D+00  0.000000D+00  0.000000D+00  0.121441D+01  0.000000D+00
     13  0.000000D+00  0.000000D+00  0.000000D+00  0.000000D+00  0.121441D+01
     14 -0.645179D+01 -0.422276D-04 -0.321222D-02  0.000000D+00  0.000000D+00
     15  0.488457D+01  0.891210D-05  0.326067D-02  0.000000D+00  0.000000D+00
     16  0.000000D+00  0.000000D+00  0.000000D+00 -0.795789D-02  0.000000D+00
     17  0.000000D+00  0.000000D+00  0.000000D+00  0.000000D+00 -0.795789D-02
     18  0.000000D+00  0.000000D+00  0.000000D+00  0.000000D+00  0.000000D+00
     19  0.000000D+00  0.000000D+00  0.000000D+00  0.000000D+00  0.000000D+00
                6             7             8             9            10 
      6  0.961545D+02
      7 -0.379100D-01  0.258862D+02
      8  0.000000D+00  0.000000D+00  0.258715D+02
      9  0.000000D+00  0.000000D+00  0.000000D+00  0.258715D+02
     10  0.176033D+02 -0.240100D+00  0.000000D+00  0.000000D+00  0.260455D+02
     11 -0.255879D-02  0.667797D+01  0.000000D+00  0.000000D+00 -0.107137D+00
     12  0.000000D+00  0.000000D+00  0.697044D+01  0.000000D+00  0.000000D+00
     13  0.000000D+00  0.000000D+00  0.000000D+00  0.697044D+01  0.000000D+00
     14  0.121600D+01 -0.105923D+00  0.000000D+00  0.000000D+00  0.705908D+01
     15 -0.113715D-01  0.116657D+00  0.000000D+00  0.000000D+00 -0.243473D+00
     16  0.000000D+00  0.000000D+00 -0.110195D+00  0.000000D+00  0.000000D+00
     17  0.000000D+00  0.000000D+00  0.000000D+00 -0.110195D+00  0.000000D+00
     18  0.000000D+00  0.000000D+00  0.000000D+00  0.000000D+00  0.000000D+00
     19  0.000000D+00  0.000000D+00  0.000000D+00  0.000000D+00  0.000000D+00
               11            12            13            14            15 
     11  0.976889D+01
     12  0.000000D+00  0.972943D+01
     13  0.000000D+00  0.000000D+00  0.972943D+01
     14 -0.158198D+00  0.000000D+00  0.000000D+00  0.984545D+01
     15  0.104763D+00  0.000000D+00  0.000000D+00 -0.218031D+00  0.145955D+02
     16  0.000000D+00 -0.100465D+00  0.000000D+00  0.000000D+00  0.000000D+00
     17  0.000000D+00  0.000000D+00 -0.100465D+00  0.000000D+00  0.000000D+00
     18  0.000000D+00  0.000000D+00  0.000000D+00  0.000000D+00  0.000000D+00
     19  0.000000D+00  0.000000D+00  0.000000D+00  0.000000D+00  0.000000D+00
               16            17            18            19 
     16  0.144432D+02
     17  0.000000D+00  0.144432D+02
     18  0.000000D+00  0.000000D+00  0.143570D+02
     19  0.000000D+00  0.000000D+00  0.000000D+00  0.143570D+02
 ****** Core Hamiltonian ****** 
                1             2             3             4             5 
      1 -0.140400D+02
      2 -0.404325D+01 -0.240086D+03
      3 -0.733615D+01 -0.890121D+02 -0.848311D+02
      4  0.000000D+00  0.000000D+00  0.000000D+00 -0.583299D+02
      5  0.000000D+00  0.000000D+00  0.000000D+00  0.000000D+00 -0.583299D+02
      6  0.177005D+01  0.119204D-01  0.725539D-01  0.000000D+00  0.000000D+00
      7 -0.113270D+02 -0.553387D+01 -0.180010D+02  0.000000D+00  0.000000D+00
      8  0.000000D+00  0.000000D+00  0.000000D+00 -0.157138D+02  0.000000D+00
      9  0.000000D+00  0.000000D+00  0.000000D+00  0.000000D+00 -0.157138D+02
     10  0.718935D+01  0.827924D-03  0.362993D-01  0.000000D+00  0.000000D+00
     11 -0.716854D+01  0.932339D-01 -0.698212D+00  0.000000D+00  0.000000D+00
     12  0.000000D+00  0.000000D+00  0.000000D+00 -0.123536D+01  0.000000D+00
     13  0.000000D+00  0.000000D+00  0.000000D+00  0.000000D+00 -0.123536D+01
     14  0.618049D+01  0.422276D-04  0.321222D-02  0.000000D+00  0.000000D+00
     15 -0.438731D+01 -0.891210D-05 -0.326067D-02  0.000000D+00  0.000000D+00
     16  0.000000D+00  0.000000D+00  0.000000D+00  0.795789D-02  0.000000D+00
     17  0.000000D+00  0.000000D+00  0.000000D+00  0.000000D+00  0.795789D-02
     18  0.000000D+00  0.000000D+00  0.000000D+00  0.000000D+00  0.000000D+00
     19  0.000000D+00  0.000000D+00  0.000000D+00  0.000000D+00  0.000000D+00
                6             7             8             9            10 
      6 -0.583472D+02
      7  0.379100D-01 -0.247181D+02
      8  0.000000D+00  0.000000D+00 -0.231208D+02
      9  0.000000D+00  0.000000D+00  0.000000D+00 -0.231208D+02
     10 -0.157286D+02  0.240100D+00  0.000000D+00  0.000000D+00 -0.232948D+02
     11  0.255879D-02 -0.677073D+01  0.000000D+00  0.000000D+00  0.107137D+00
     12  0.000000D+00  0.000000D+00 -0.677111D+01  0.000000D+00  0.000000D+00
     13  0.000000D+00  0.000000D+00  0.000000D+00 -0.677111D+01  0.000000D+00
     14 -0.123695D+01  0.105923D+00  0.000000D+00  0.000000D+00 -0.685975D+01
     15  0.113715D-01 -0.116657D+00  0.000000D+00  0.000000D+00  0.243473D+00
     16  0.000000D+00  0.000000D+00  0.110195D+00  0.000000D+00  0.000000D+00
     17  0.000000D+00  0.000000D+00  0.000000D+00  0.110195D+00  0.000000D+00
     18  0.000000D+00  0.000000D+00  0.000000D+00  0.000000D+00  0.000000D+00
     19  0.000000D+00  0.000000D+00  0.000000D+00  0.000000D+00  0.000000D+00
               11            12            13            14            15 
     11 -0.956145D+01
     12  0.000000D+00 -0.931993D+01
     13  0.000000D+00  0.000000D+00 -0.931993D+01
     14  0.158198D+00  0.000000D+00  0.000000D+00 -0.943595D+01
     15 -0.104763D+00  0.000000D+00  0.000000D+00  0.218031D+00 -0.127951D+02
     16  0.000000D+00  0.100465D+00  0.000000D+00  0.000000D+00  0.000000D+00
     17  0.000000D+00  0.000000D+00  0.100465D+00  0.000000D+00  0.000000D+00
     18  0.000000D+00  0.000000D+00  0.000000D+00  0.000000D+00  0.000000D+00
     19  0.000000D+00  0.000000D+00  0.000000D+00  0.000000D+00  0.000000D+00
               16            17            18            19 
     16 -0.126428D+02
     17  0.000000D+00 -0.126428D+02
     18  0.000000D+00  0.000000D+00 -0.125565D+02
     19  0.000000D+00  0.000000D+00  0.000000D+00 -0.125565D+02
 SVDSVc IOpt=   1 NormSV=T IR=1
 SVDSVc V= 2.34D+00 1.55D+00 1.33D+00 1.06D+00 1.00D+00 9.85D-01 7.28D-01 5.00D-01 4.54D-01 5.50D-02
 SVDSVc IOpt=   1 NormSV=T IR=2
 SVDSVc V= 1.00D+00
 SVDSVc IOpt=   1 NormSV=T IR=3
 SVDSVc V= 1.53D+00 1.00D+00 9.76D-01 4.98D-01
 SVDSVc IOpt=   1 NormSV=T IR=4
 SVDSVc V= 1.53D+00 1.00D+00 9.76D-01 4.98D-01
 TstOVc:  Largest diagonal error= 2.00D-15 IB=1 I=    3.
 TstOVc:  Largest same sym error= 1.71D-15 IB=1 I=    9 J=    5.
 TstOVc:  Largest diff sym error= 0.00D+00 IB=0 JB=0 I=    0 J=    0.
 Orthogonalized basis functions: 
                 1             2             3             4             5 
      1   0.410084D+00 -0.244371D-01 -0.117219D+00  0.134200D+00  0.000000D+00
      2   0.389797D-01  0.237048D+00  0.526537D+00  0.176536D+00  0.000000D+00
      3   0.106398D+00  0.333679D+00  0.470654D+00  0.387100D-01  0.000000D+00
      4   0.000000D+00  0.000000D+00  0.000000D+00  0.000000D+00  0.000000D+00
      5   0.000000D+00  0.000000D+00  0.000000D+00  0.000000D+00  0.000000D+00
      6  -0.623854D-01  0.244713D+00 -0.231126D+00  0.444963D+00  0.000000D+00
      7   0.262803D+00  0.318436D+00 -0.851784D-01 -0.247992D+00  0.000000D+00
      8   0.000000D+00  0.000000D+00  0.000000D+00  0.000000D+00  0.000000D+00
      9   0.000000D+00  0.000000D+00  0.000000D+00  0.000000D+00  0.000000D+00
     10  -0.201652D+00  0.401254D+00 -0.243076D+00  0.121005D+00  0.000000D+00
     11   0.264264D+00  0.209519D+00 -0.302593D+00 -0.256751D+00  0.000000D+00
     12   0.000000D+00  0.000000D+00  0.000000D+00  0.000000D+00  0.000000D+00
     13   0.000000D+00  0.000000D+00  0.000000D+00  0.000000D+00  0.000000D+00
     14  -0.229205D+00  0.331791D+00 -0.126372D+00 -0.197325D+00  0.000000D+00
     15   0.103438D+00 -0.149613D-01 -0.121647D+00  0.714655D+00  0.000000D+00
     16   0.000000D+00  0.000000D+00  0.000000D+00  0.000000D+00  0.000000D+00
     17   0.000000D+00  0.000000D+00  0.000000D+00  0.000000D+00  0.000000D+00
     18   0.000000D+00  0.000000D+00  0.000000D+00  0.000000D+00  0.100000D+01
     19   0.000000D+00  0.000000D+00  0.000000D+00  0.000000D+00  0.000000D+00
                 6             7             8             9            10 
      1   0.253779D-01  0.633875D-01  0.636224D-01  0.490701D-02  0.319847D+01
      2   0.240849D-01  0.719732D+00 -0.585630D-02  0.537489D+00 -0.374522D-01
      3   0.135481D-03 -0.500427D+00  0.641376D-02 -0.843882D+00  0.168826D-01
      4   0.000000D+00  0.000000D+00  0.000000D+00  0.000000D+00  0.000000D+00
      5   0.000000D+00  0.000000D+00  0.000000D+00  0.000000D+00  0.000000D+00
      6   0.660679D+00 -0.469042D-01 -0.606360D+00  0.102727D-02 -0.144203D+00
      7  -0.376184D-01 -0.487111D+00 -0.241845D-01  0.895180D+00 -0.111121D+01
      8   0.000000D+00  0.000000D+00  0.000000D+00  0.000000D+00  0.000000D+00
      9   0.000000D+00  0.000000D+00  0.000000D+00  0.000000D+00  0.000000D+00
     10   0.106768D-01  0.426014D-01  0.103435D+01 -0.172455D-02  0.672718D+00
     11  -0.336441D-01  0.591736D+00 -0.581215D-01 -0.631931D+00 -0.158519D+01
     12   0.000000D+00  0.000000D+00  0.000000D+00  0.000000D+00  0.000000D+00
     13   0.000000D+00  0.000000D+00  0.000000D+00  0.000000D+00  0.000000D+00
     14  -0.484602D+00  0.670993D-01 -0.743278D+00  0.612824D-02  0.155414D+01
     15  -0.582832D+00 -0.785111D-01 -0.429483D-01 -0.303428D-02 -0.114239D+01
     16   0.000000D+00  0.000000D+00  0.000000D+00  0.000000D+00  0.000000D+00
     17   0.000000D+00  0.000000D+00  0.000000D+00  0.000000D+00  0.000000D+00
     18   0.000000D+00  0.000000D+00  0.000000D+00  0.000000D+00  0.000000D+00
     19   0.000000D+00  0.000000D+00  0.000000D+00  0.000000D+00  0.000000D+00
                11            12            13            14            15 
      1   0.000000D+00  0.000000D+00  0.000000D+00  0.000000D+00  0.000000D+00
      2   0.000000D+00  0.000000D+00  0.000000D+00  0.000000D+00  0.000000D+00
      3   0.000000D+00  0.000000D+00  0.000000D+00  0.000000D+00  0.000000D+00
      4   0.000000D+00  0.358362D+00  0.000000D+00  0.802807D+00 -0.593005D+00
      5   0.000000D+00  0.000000D+00  0.000000D+00  0.000000D+00  0.000000D+00
      6   0.000000D+00  0.000000D+00  0.000000D+00  0.000000D+00  0.000000D+00
      7   0.000000D+00  0.000000D+00  0.000000D+00  0.000000D+00  0.000000D+00
      8   0.000000D+00  0.565532D+00  0.000000D+00 -0.127423D-01  0.101370D+01
      9   0.000000D+00  0.000000D+00  0.000000D+00  0.000000D+00  0.000000D+00
     10   0.000000D+00  0.000000D+00  0.000000D+00  0.000000D+00  0.000000D+00
     11   0.000000D+00  0.000000D+00  0.000000D+00  0.000000D+00  0.000000D+00
     12   0.000000D+00  0.454909D+00  0.000000D+00 -0.616584D+00 -0.793056D+00
     13   0.000000D+00  0.000000D+00  0.000000D+00  0.000000D+00  0.000000D+00
     14   0.000000D+00  0.000000D+00  0.000000D+00  0.000000D+00  0.000000D+00
     15   0.000000D+00  0.000000D+00  0.000000D+00  0.000000D+00  0.000000D+00
     16   0.000000D+00  0.000000D+00  0.100000D+01  0.000000D+00  0.000000D+00
     17   0.000000D+00  0.000000D+00  0.000000D+00  0.000000D+00  0.000000D+00
     18   0.000000D+00  0.000000D+00  0.000000D+00  0.000000D+00  0.000000D+00
     19   0.100000D+01  0.000000D+00  0.000000D+00  0.000000D+00  0.000000D+00
                16            17            18            19 
      1   0.000000D+00  0.000000D+00  0.000000D+00  0.000000D+00
      2   0.000000D+00  0.000000D+00  0.000000D+00  0.000000D+00
      3   0.000000D+00  0.000000D+00  0.000000D+00  0.000000D+00
      4   0.000000D+00  0.000000D+00  0.000000D+00  0.000000D+00
      5   0.358362D+00  0.000000D+00  0.802807D+00 -0.593005D+00
      6   0.000000D+00  0.000000D+00  0.000000D+00  0.000000D+00
      7   0.000000D+00  0.000000D+00  0.000000D+00  0.000000D+00
      8   0.000000D+00  0.000000D+00  0.000000D+00  0.000000D+00
      9   0.565532D+00  0.000000D+00 -0.127423D-01  0.101370D+01
     10   0.000000D+00  0.000000D+00  0.000000D+00  0.000000D+00
     11   0.000000D+00  0.000000D+00  0.000000D+00  0.000000D+00
     12   0.000000D+00  0.000000D+00  0.000000D+00  0.000000D+00
     13   0.454909D+00  0.000000D+00 -0.616584D+00 -0.793056D+00
     14   0.000000D+00  0.000000D+00  0.000000D+00  0.000000D+00
     15   0.000000D+00  0.000000D+00  0.000000D+00  0.000000D+00
     16   0.000000D+00  0.000000D+00  0.000000D+00  0.000000D+00
     17   0.000000D+00  0.100000D+01  0.000000D+00  0.000000D+00
     18   0.000000D+00  0.000000D+00  0.000000D+00  0.000000D+00
     19   0.000000D+00  0.000000D+00  0.000000D+00  0.000000D+00
 NBasis=    19 RedAO= T EigKep=  5.50D-02  NBF=    10     1     4     4
 NBsUse=    19 1.00D-06 EigRej= -1.00D+00 NBFU=    10     1     4     4
 Leave Link  302 at Fri Mar 25 14:38:32 2022, MaxMem=  9663676416 cpu:               3.5 elap:               0.1
 (Enter /nopt/nrel/apps/gaussian/g16C_1/g16/l303.exe)
 DipDrv will not compute anything.
 Fermi contact integrals: 
                 1             2 
      1   0.628247D+00  0.121215D+00
      2   0.000000D+00  0.454848D+02
      3   0.416163D-05  0.245213D+01
      4   0.000000D+00  0.000000D+00
      5   0.000000D+00  0.000000D+00
      6  -0.167997D-04  0.000000D+00
      7   0.114109D+00  0.115357D+00
      8   0.000000D+00  0.000000D+00
      9   0.000000D+00  0.000000D+00
     10  -0.192648D+00  0.000000D+00
     11   0.922599D-01 -0.521539D-02
     12   0.000000D+00  0.000000D+00
     13   0.000000D+00  0.000000D+00
     14  -0.155054D+00  0.000000D+00
     15   0.319538D+00  0.000000D+00
     16   0.000000D+00  0.000000D+00
     17   0.000000D+00  0.000000D+00
     18   0.000000D+00  0.000000D+00
     19   0.000000D+00  0.000000D+00
 Leave Link  303 at Fri Mar 25 14:38:32 2022, MaxMem=  9663676416 cpu:               1.1 elap:               0.1
 (Enter /nopt/nrel/apps/gaussian/g16C_1/g16/l401.exe)
 ExpMin= 1.16D-01 ExpMax= 1.03D+03 ExpMxC= 1.03D+03 IAcc=3 IRadAn=         5 AccDes= 0.00D+00
 Harris functional with IExCor=  205 and IRadAn=       5 diagonalized for initial guess.
 HarFok:  IExCor=  205 AccDes= 0.00D+00 IRadAn=         5 IDoV= 1 UseB2=F ITyADJ=14
 ICtDFT=  3500011 ScaDFX=  1.000000  1.000000  1.000000  1.000000
 FoFCou: FMM=F IPFlag=           0 FMFlag=      100000 FMFlg1=           0
         NFxFlg=           0 DoJE=T BraDBF=F KetDBF=T FulRan=T
         wScrn=  0.000000 ICntrl=       500 IOpCl=  0 I1Cent=   200000004 NGrid=           0
         NMat0=    1 NMatS0=      1 NMatT0=    0 NMatD0=    1 NMtDS0=    0 NMtDT0=    0
 Petite list used in FoFCou.
 Harris En= -838.593565967965    
 JPrj=0 DoOrth=F DoCkMO=F.
 Initial guess orbital symmetries:
 Alpha Orbitals:
       Occupied  (SG) (SG) (SG) (PI) (PI) (SG) (SG) (PI) (PI) (SG)
                 (SG) (PI) (PI)
       Virtual   (SG) (DLTA) (DLTA) (PI) (PI) (SG)
 Beta  Orbitals:
       Occupied  (SG) (SG) (SG) (PI) (PI) (SG) (SG) (PI) (PI) (SG)
       Virtual   (SG) (PI) (PI) (SG) (DLTA) (DLTA) (PI) (PI) (SG)
 The electronic state of the initial guess is 4-SG.
 Initial guess <Sx>= 0.0000 <Sy>= 0.0000 <Sz>= 1.5000 <S**2>= 3.7500 S= 1.5000
 Leave Link  401 at Fri Mar 25 14:38:33 2022, MaxMem=  9663676416 cpu:               7.3 elap:               0.2
 (Enter /nopt/nrel/apps/gaussian/g16C_1/g16/l502.exe)
 Keep R1 and R2 ints in memory in symmetry-blocked form, NReq=7413390.
 FoFCou: FMM=F IPFlag=           0 FMFlag=           0 FMFlg1=           0
         NFxFlg=           0 DoJE=F BraDBF=F KetDBF=F FulRan=T
         wScrn=  0.000000 ICntrl=       600 IOpCl=  0 I1Cent=           0 NGrid=           0
         NMat0=    1 NMatS0=    190 NMatT0=    0 NMatD0=    1 NMtDS0=    0 NMtDT0=    0
 Petite list used in FoFCou.
 UHF open shell SCF:
 Using DIIS extrapolation, IDIIS=  1040.
 NGot=  9663676416 LenX=  9663662661 LenY=  9663661779
 Requested convergence on RMS density matrix=1.00D-08 within 128 cycles.
 Requested convergence on MAX density matrix=1.00D-06.
 Requested convergence on             energy=1.00D-06.
 No special actions if energy rises.

 Cycle   1  Pass 1  IDiag  1:
 E= -839.180819294046    
 DIIS: error= 5.97D-02 at cycle   1 NSaved=   1.
 NSaved= 1 IEnMin= 1 EnMin= -839.180819294046     IErMin= 1 ErrMin= 5.97D-02
 ErrMax= 5.97D-02  0.00D+00 EMaxC= 1.00D-01 BMatC= 2.79D-01 BMatP= 2.79D-01
 IDIUse=3 WtCom= 4.03D-01 WtEn= 5.97D-01
 Coeff-Com:  0.100D+01
 Coeff-En:   0.100D+01
 Coeff:      0.100D+01
 Gap=     0.389 Goal=   None    Shift=    0.000
 Gap=     0.419 Goal=   None    Shift=    0.000
 GapD=    0.389 DampG=1.000 DampE=0.250 DampFc=0.2500 IDamp=-1.
 Damping current iteration by 2.50D-01
 RMSDP=1.70D-02 MaxDP=2.08D-01              OVMax= 0.00D+00

 Cycle   2  Pass 1  IDiag  1:
 E= -839.188740164343     Delta-E=       -0.007920870297 Rises=F Damp=T
 DIIS: error= 4.54D-02 at cycle   2 NSaved=   2.
 NSaved= 2 IEnMin= 2 EnMin= -839.188740164343     IErMin= 2 ErrMin= 4.54D-02
 ErrMax= 4.54D-02  0.00D+00 EMaxC= 1.00D-01 BMatC= 1.57D-01 BMatP= 2.79D-01
 IDIUse=3 WtCom= 5.46D-01 WtEn= 4.54D-01
 Coeff-Com: -0.298D+01 0.398D+01
 Coeff-En:   0.000D+00 0.100D+01
 Coeff:     -0.163D+01 0.263D+01
 Gap=     0.387 Goal=   None    Shift=    0.000
 Gap=     0.415 Goal=   None    Shift=    0.000
 RMSDP=1.28D-02 MaxDP=1.53D-01 DE=-7.92D-03 OVMax= 0.00D+00

 Cycle   3  Pass 1  IDiag  1:
 E= -839.213627234612     Delta-E=       -0.024887070269 Rises=F Damp=F
 DIIS: error= 3.12D-03 at cycle   3 NSaved=   3.
 NSaved= 3 IEnMin= 3 EnMin= -839.213627234612     IErMin= 3 ErrMin= 3.12D-03
 ErrMax= 3.12D-03  0.00D+00 EMaxC= 1.00D-01 BMatC= 5.51D-04 BMatP= 1.57D-01
 IDIUse=3 WtCom= 9.69D-01 WtEn= 3.12D-02
 Coeff-Com:  0.197D+01-0.263D+01 0.167D+01
 Coeff-En:   0.000D+00 0.000D+00 0.100D+01
 Coeff:      0.190D+01-0.255D+01 0.165D+01
 Gap=     0.387 Goal=   None    Shift=    0.000
 Gap=     0.420 Goal=   None    Shift=    0.000
 RMSDP=2.89D-03 MaxDP=3.84D-02 DE=-2.49D-02 OVMax= 0.00D+00

 Cycle   4  Pass 1  IDiag  1:
 E= -839.214671456363     Delta-E=       -0.001044221751 Rises=F Damp=F
 DIIS: error= 2.20D-03 at cycle   4 NSaved=   4.
 NSaved= 4 IEnMin= 4 EnMin= -839.214671456363     IErMin= 4 ErrMin= 2.20D-03
 ErrMax= 2.20D-03  0.00D+00 EMaxC= 1.00D-01 BMatC= 2.33D-04 BMatP= 5.51D-04
 IDIUse=3 WtCom= 9.78D-01 WtEn= 2.20D-02
 Coeff-Com: -0.296D+00 0.398D+00-0.588D+00 0.149D+01
 Coeff-En:   0.000D+00 0.000D+00 0.000D+00 0.100D+01
 Coeff:     -0.289D+00 0.389D+00-0.575D+00 0.148D+01
 Gap=     0.390 Goal=   None    Shift=    0.000
 Gap=     0.422 Goal=   None    Shift=    0.000
 RMSDP=2.57D-03 MaxDP=3.62D-02 DE=-1.04D-03 OVMax= 0.00D+00

 Cycle   5  Pass 1  IDiag  1:
 E= -839.215350633704     Delta-E=       -0.000679177341 Rises=F Damp=F
 DIIS: error= 1.58D-03 at cycle   5 NSaved=   5.
 NSaved= 5 IEnMin= 5 EnMin= -839.215350633704     IErMin= 5 ErrMin= 1.58D-03
 ErrMax= 1.58D-03  0.00D+00 EMaxC= 1.00D-01 BMatC= 1.40D-04 BMatP= 2.33D-04
 IDIUse=3 WtCom= 9.84D-01 WtEn= 1.58D-02
 Coeff-Com:  0.735D+00-0.983D+00 0.995D+00-0.377D+01 0.402D+01
 Coeff-En:   0.000D+00 0.000D+00 0.000D+00 0.000D+00 0.100D+01
 Coeff:      0.723D+00-0.967D+00 0.979D+00-0.371D+01 0.397D+01
 Gap=     0.397 Goal=   None    Shift=    0.000
 Gap=     0.423 Goal=   None    Shift=    0.000
 RMSDP=6.26D-03 MaxDP=9.14D-02 DE=-6.79D-04 OVMax= 0.00D+00

 Cycle   6  Pass 1  IDiag  1:
 E= -839.216275308770     Delta-E=       -0.000924675066 Rises=F Damp=F
 DIIS: error= 7.06D-04 at cycle   6 NSaved=   6.
 NSaved= 6 IEnMin= 6 EnMin= -839.216275308770     IErMin= 6 ErrMin= 7.06D-04
 ErrMax= 7.06D-04  0.00D+00 EMaxC= 1.00D-01 BMatC= 3.21D-05 BMatP= 1.40D-04
 IDIUse=3 WtCom= 9.93D-01 WtEn= 7.06D-03
 Coeff-Com:  0.197D+00-0.262D+00-0.120D+00 0.224D+01-0.296D+01 0.191D+01
 Coeff-En:   0.000D+00 0.000D+00 0.000D+00 0.000D+00 0.000D+00 0.100D+01
 Coeff:      0.196D+00-0.260D+00-0.120D+00 0.223D+01-0.294D+01 0.190D+01
 Gap=     0.399 Goal=   None    Shift=    0.000
 Gap=     0.420 Goal=   None    Shift=    0.000
 RMSDP=1.58D-03 MaxDP=1.56D-02 DE=-9.25D-04 OVMax= 0.00D+00

 Cycle   7  Pass 1  IDiag  1:
 E= -839.216412213694     Delta-E=       -0.000136904924 Rises=F Damp=F
 DIIS: error= 6.71D-04 at cycle   7 NSaved=   7.
 NSaved= 7 IEnMin= 7 EnMin= -839.216412213694     IErMin= 7 ErrMin= 6.71D-04
 ErrMax= 6.71D-04  0.00D+00 EMaxC= 1.00D-01 BMatC= 1.99D-05 BMatP= 3.21D-05
 IDIUse=3 WtCom= 9.93D-01 WtEn= 6.71D-03
 Coeff-Com: -0.235D+00 0.314D+00-0.312D+00 0.112D+01-0.119D+01 0.209D+00
 Coeff-Com:  0.109D+01
 Coeff-En:   0.000D+00 0.000D+00 0.000D+00 0.000D+00 0.000D+00 0.000D+00
 Coeff-En:   0.100D+01
 Coeff:     -0.233D+00 0.312D+00-0.310D+00 0.112D+01-0.118D+01 0.207D+00
 Coeff:      0.109D+01
 Gap=     0.399 Goal=   None    Shift=    0.000
 Gap=     0.423 Goal=   None    Shift=    0.000
 RMSDP=7.74D-04 MaxDP=7.48D-03 DE=-1.37D-04 OVMax= 0.00D+00

 Cycle   8  Pass 1  IDiag  1:
 E= -839.216479723351     Delta-E=       -0.000067509658 Rises=F Damp=F
 DIIS: error= 6.26D-04 at cycle   8 NSaved=   8.
 NSaved= 8 IEnMin= 8 EnMin= -839.216479723351     IErMin= 8 ErrMin= 6.26D-04
 ErrMax= 6.26D-04  0.00D+00 EMaxC= 1.00D-01 BMatC= 1.79D-05 BMatP= 1.99D-05
 IDIUse=3 WtCom= 9.94D-01 WtEn= 6.26D-03
 Coeff-Com:  0.351D+00-0.469D+00 0.239D+00-0.353D-01-0.126D+00 0.315D+00
 Coeff-Com: -0.266D+01 0.339D+01
 Coeff-En:   0.000D+00 0.000D+00 0.000D+00 0.000D+00 0.000D+00 0.000D+00
 Coeff-En:   0.000D+00 0.100D+01
 Coeff:      0.349D+00-0.466D+00 0.237D+00-0.351D-01-0.125D+00 0.313D+00
 Coeff:     -0.265D+01 0.337D+01
 Gap=     0.399 Goal=   None    Shift=    0.000
 Gap=     0.425 Goal=   None    Shift=    0.000
 RMSDP=1.82D-03 MaxDP=1.81D-02 DE=-6.75D-05 OVMax= 0.00D+00

 Cycle   9  Pass 1  IDiag  1:
 E= -839.216629504962     Delta-E=       -0.000149781611 Rises=F Damp=F
 DIIS: error= 5.48D-04 at cycle   9 NSaved=   9.
 NSaved= 9 IEnMin= 9 EnMin= -839.216629504962     IErMin= 9 ErrMin= 5.48D-04
 ErrMax= 5.48D-04  0.00D+00 EMaxC= 1.00D-01 BMatC= 1.46D-05 BMatP= 1.79D-05
 IDIUse=3 WtCom= 9.95D-01 WtEn= 5.48D-03
 Coeff-Com: -0.589D+00 0.787D+00-0.587D+00 0.159D+01-0.168D+01 0.179D-01
 Coeff-Com:  0.623D+01-0.937D+01 0.461D+01
 Coeff-En:   0.000D+00 0.000D+00 0.000D+00 0.000D+00 0.000D+00 0.000D+00
 Coeff-En:   0.000D+00 0.000D+00 0.100D+01
 Coeff:     -0.586D+00 0.782D+00-0.584D+00 0.158D+01-0.167D+01 0.178D-01
 Coeff:      0.619D+01-0.932D+01 0.459D+01
 Gap=     0.399 Goal=   None    Shift=    0.000
 Gap=     0.427 Goal=   None    Shift=    0.000
 RMSDP=3.58D-03 MaxDP=3.53D-02 DE=-1.50D-04 OVMax= 0.00D+00

 Cycle  10  Pass 1  IDiag  1:
 E= -839.216873131588     Delta-E=       -0.000243626626 Rises=F Damp=F
 DIIS: error= 4.14D-04 at cycle  10 NSaved=  10.
 NSaved=10 IEnMin=10 EnMin= -839.216873131588     IErMin=10 ErrMin= 4.14D-04
 ErrMax= 4.14D-04  0.00D+00 EMaxC= 1.00D-01 BMatC= 9.27D-06 BMatP= 1.46D-05
 IDIUse=3 WtCom= 9.96D-01 WtEn= 4.14D-03
 Coeff-Com: -0.373D-02 0.490D-02-0.793D-01 0.270D+00-0.151D+00 0.195D+00
 Coeff-Com: -0.132D+01 0.447D+01-0.617D+01 0.378D+01
 Coeff-En:   0.000D+00 0.000D+00 0.000D+00 0.000D+00 0.000D+00 0.000D+00
 Coeff-En:   0.000D+00 0.000D+00 0.000D+00 0.100D+01
 Coeff:     -0.372D-02 0.488D-02-0.790D-01 0.269D+00-0.151D+00 0.194D+00
 Coeff:     -0.131D+01 0.445D+01-0.614D+01 0.377D+01
 Gap=     0.398 Goal=   None    Shift=    0.000
 Gap=     0.432 Goal=   None    Shift=    0.000
 RMSDP=4.38D-03 MaxDP=4.21D-02 DE=-2.44D-04 OVMax= 0.00D+00

 Cycle  11  Pass 1  IDiag  1:
 E= -839.217070275943     Delta-E=       -0.000197144355 Rises=F Damp=F
 DIIS: error= 2.62D-04 at cycle  11 NSaved=  11.
 NSaved=11 IEnMin=11 EnMin= -839.217070275943     IErMin=11 ErrMin= 2.62D-04
 ErrMax= 2.62D-04  0.00D+00 EMaxC= 1.00D-01 BMatC= 2.59D-06 BMatP= 9.27D-06
 IDIUse=3 WtCom= 9.97D-01 WtEn= 2.62D-03
 Coeff-Com:  0.143D-01-0.185D-01-0.397D-01 0.530D+00-0.704D+00 0.222D+00
 Coeff-Com:  0.642D+00-0.215D+01 0.252D+01-0.185D+01 0.184D+01
 Coeff-En:   0.000D+00 0.000D+00 0.000D+00 0.000D+00 0.000D+00 0.000D+00
 Coeff-En:   0.000D+00 0.000D+00 0.000D+00 0.000D+00 0.100D+01
 Coeff:      0.143D-01-0.185D-01-0.396D-01 0.529D+00-0.702D+00 0.221D+00
 Coeff:      0.641D+00-0.215D+01 0.251D+01-0.184D+01 0.184D+01
 Gap=     0.400 Goal=   None    Shift=    0.000
 Gap=     0.435 Goal=   None    Shift=    0.000
 RMSDP=2.50D-03 MaxDP=2.50D-02 DE=-1.97D-04 OVMax= 0.00D+00

 Cycle  12  Pass 1  IDiag  1:
 E= -839.217117113279     Delta-E=       -0.000046837336 Rises=F Damp=F
 DIIS: error= 1.33D-04 at cycle  12 NSaved=  12.
 NSaved=12 IEnMin=12 EnMin= -839.217117113279     IErMin=12 ErrMin= 1.33D-04
 ErrMax= 1.33D-04  0.00D+00 EMaxC= 1.00D-01 BMatC= 1.32D-06 BMatP= 2.59D-06
 IDIUse=3 WtCom= 9.99D-01 WtEn= 1.33D-03
 Coeff-Com: -0.329D-01 0.434D-01-0.274D-01 0.210D+00-0.331D+00-0.189D-01
 Coeff-Com:  0.140D+01-0.283D+01 0.286D+01-0.150D+01-0.120D+00 0.134D+01
 Coeff-En:   0.000D+00 0.000D+00 0.000D+00 0.000D+00 0.000D+00 0.000D+00
 Coeff-En:   0.000D+00 0.000D+00 0.000D+00 0.000D+00 0.000D+00 0.100D+01
 Coeff:     -0.328D-01 0.433D-01-0.273D-01 0.210D+00-0.331D+00-0.189D-01
 Coeff:      0.140D+01-0.282D+01 0.286D+01-0.150D+01-0.120D+00 0.134D+01
 Gap=     0.399 Goal=   None    Shift=    0.000
 Gap=     0.435 Goal=   None    Shift=    0.000
 RMSDP=4.64D-04 MaxDP=3.51D-03 DE=-4.68D-05 OVMax= 0.00D+00

 Cycle  13  Pass 1  IDiag  1:
 E= -839.217115750894     Delta-E=        0.000001362386 Rises=F Damp=F
 DIIS: error= 1.17D-04 at cycle  13 NSaved=  13.
 NSaved=13 IEnMin=12 EnMin= -839.217117113279     IErMin=13 ErrMin= 1.17D-04
 ErrMax= 1.17D-04  0.00D+00 EMaxC= 1.00D-01 BMatC= 6.78D-07 BMatP= 1.32D-06
 IDIUse=3 WtCom= 9.99D-01 WtEn= 1.17D-03
 Rare condition: small coef for last iteration:  0.000D+00
 Coeff-Com: -0.411D-01 0.547D-01-0.162D-01-0.241D+00 0.394D+00-0.618D-03
 Coeff-Com: -0.125D+01 0.298D+01-0.322D+01 0.215D+01-0.200D+01 0.470D+00
 Coeff-Com:  0.172D+01
 Coeff-En:   0.000D+00 0.000D+00 0.000D+00 0.000D+00 0.000D+00 0.000D+00
 Coeff-En:   0.000D+00 0.000D+00 0.000D+00 0.000D+00 0.000D+00 0.000D+00
 Coeff-En:   0.100D+01
 Coeff:     -0.411D-01 0.547D-01-0.162D-01-0.241D+00 0.394D+00-0.618D-03
 Coeff:     -0.125D+01 0.298D+01-0.322D+01 0.215D+01-0.200D+01 0.470D+00
 Coeff:      0.172D+01
 Gap=     0.399 Goal=   None    Shift=    0.000
 Gap=     0.437 Goal=   None    Shift=    0.000
 RMSDP=1.03D-03 MaxDP=1.09D-02 DE= 1.36D-06 OVMax= 0.00D+00

 Cycle  14  Pass 1  IDiag  1:
 E= -839.217124019552     Delta-E=       -0.000008268659 Rises=F Damp=F
 DIIS: error= 3.12D-05 at cycle  14 NSaved=  14.
 NSaved=14 IEnMin=14 EnMin= -839.217124019552     IErMin=14 ErrMin= 3.12D-05
 ErrMax= 3.12D-05  0.00D+00 EMaxC= 1.00D-01 BMatC= 8.23D-08 BMatP= 6.78D-07
 IDIUse=1 WtCom= 1.00D+00 WtEn= 0.00D+00
 Coeff-Com: -0.276D-02 0.365D-02-0.325D-02 0.501D-02-0.129D-01-0.248D-01
 Coeff-Com:  0.205D+00-0.314D+00 0.175D+00-0.374D-01 0.286D-01 0.216D+00
 Coeff-Com: -0.511D+00 0.127D+01
 Coeff:     -0.276D-02 0.365D-02-0.325D-02 0.501D-02-0.129D-01-0.248D-01
 Coeff:      0.205D+00-0.314D+00 0.175D+00-0.374D-01 0.286D-01 0.216D+00
 Coeff:     -0.511D+00 0.127D+01
 Gap=     0.400 Goal=   None    Shift=    0.000
 Gap=     0.437 Goal=   None    Shift=    0.000
 RMSDP=4.25D-04 MaxDP=4.35D-03 DE=-8.27D-06 OVMax= 0.00D+00

 Cycle  15  Pass 1  IDiag  1:
 E= -839.217124510651     Delta-E=       -0.000000491098 Rises=F Damp=F
 DIIS: error= 1.20D-05 at cycle  15 NSaved=  15.
 NSaved=15 IEnMin=15 EnMin= -839.217124510651     IErMin=15 ErrMin= 1.20D-05
 ErrMax= 1.20D-05  0.00D+00 EMaxC= 1.00D-01 BMatC= 1.15D-08 BMatP= 8.23D-08
 IDIUse=1 WtCom= 1.00D+00 WtEn= 0.00D+00
 Coeff-Com: -0.492D-02 0.659D-02-0.222D-02 0.605D-02-0.323D-02-0.100D-01
 Coeff-Com:  0.305D-01-0.873D-01 0.141D+00-0.138D+00 0.165D+00-0.195D+00
 Coeff-Com:  0.151D+00-0.323D+00 0.126D+01
 Coeff:     -0.492D-02 0.659D-02-0.222D-02 0.605D-02-0.323D-02-0.100D-01
 Coeff:      0.305D-01-0.873D-01 0.141D+00-0.138D+00 0.165D+00-0.195D+00
 Coeff:      0.151D+00-0.323D+00 0.126D+01
 Gap=     0.399 Goal=   None    Shift=    0.000
 Gap=     0.437 Goal=   None    Shift=    0.000
 RMSDP=1.39D-04 MaxDP=1.40D-03 DE=-4.91D-07 OVMax= 0.00D+00

 Cycle  16  Pass 1  IDiag  1:
 E= -839.217124565095     Delta-E=       -0.000000054444 Rises=F Damp=F
 DIIS: error= 4.21D-06 at cycle  16 NSaved=  16.
 NSaved=16 IEnMin=16 EnMin= -839.217124565095     IErMin=16 ErrMin= 4.21D-06
 ErrMax= 4.21D-06  0.00D+00 EMaxC= 1.00D-01 BMatC= 1.28D-09 BMatP= 1.15D-08
 IDIUse=1 WtCom= 1.00D+00 WtEn= 0.00D+00
 Coeff-Com: -0.400D-03 0.535D-03-0.341D-03-0.641D-03 0.136D-02 0.387D-02
 Coeff-Com: -0.198D-01 0.334D-01-0.286D-01 0.199D-01-0.263D-01 0.107D-02
 Coeff-Com:  0.333D-01-0.895D-01 0.144D+00 0.928D+00
 Coeff:     -0.400D-03 0.535D-03-0.341D-03-0.641D-03 0.136D-02 0.387D-02
 Coeff:     -0.198D-01 0.334D-01-0.286D-01 0.199D-01-0.263D-01 0.107D-02
 Coeff:      0.333D-01-0.895D-01 0.144D+00 0.928D+00
 Gap=     0.399 Goal=   None    Shift=    0.000
 Gap=     0.437 Goal=   None    Shift=    0.000
 RMSDP=2.98D-05 MaxDP=3.07D-04 DE=-5.44D-08 OVMax= 0.00D+00

 Cycle  17  Pass 1  IDiag  1:
 E= -839.217124571993     Delta-E=       -0.000000006898 Rises=F Damp=F
 DIIS: error= 8.21D-07 at cycle  17 NSaved=  17.
 NSaved=17 IEnMin=17 EnMin= -839.217124571993     IErMin=17 ErrMin= 8.21D-07
 ErrMax= 8.21D-07  0.00D+00 EMaxC= 1.00D-01 BMatC= 5.79D-11 BMatP= 1.28D-09
 IDIUse=1 WtCom= 1.00D+00 WtEn= 0.00D+00
 Coeff-Com:  0.530D-04-0.713D-04 0.711D-04-0.347D-03 0.460D-03-0.128D-03
 Coeff-Com: -0.115D-02 0.300D-02-0.301D-02 0.165D-02-0.149D-02 0.518D-02
 Coeff-Com: -0.459D-02 0.174D-02-0.146D-01-0.157D+00 0.117D+01
 Coeff:      0.530D-04-0.713D-04 0.711D-04-0.347D-03 0.460D-03-0.128D-03
 Coeff:     -0.115D-02 0.300D-02-0.301D-02 0.165D-02-0.149D-02 0.518D-02
 Coeff:     -0.459D-02 0.174D-02-0.146D-01-0.157D+00 0.117D+01
 Gap=     0.399 Goal=   None    Shift=    0.000
 Gap=     0.437 Goal=   None    Shift=    0.000
 RMSDP=6.08D-06 MaxDP=5.96D-05 DE=-6.90D-09 OVMax= 0.00D+00

 Cycle  18  Pass 1  IDiag  1:
 E= -839.217124572211     Delta-E=       -0.000000000217 Rises=F Damp=F
 DIIS: error= 1.86D-08 at cycle  18 NSaved=  18.
 NSaved=18 IEnMin=18 EnMin= -839.217124572211     IErMin=18 ErrMin= 1.86D-08
 ErrMax= 1.86D-08  0.00D+00 EMaxC= 1.00D-01 BMatC= 1.97D-14 BMatP= 5.79D-11
 IDIUse=1 WtCom= 1.00D+00 WtEn= 0.00D+00
 Coeff-Com: -0.143D-05 0.204D-05-0.534D-05 0.795D-05-0.654D-05 0.466D-04
 Coeff-Com: -0.144D-03 0.160D-03-0.178D-03 0.209D-03-0.111D-03-0.139D-02
 Coeff-Com:  0.185D-02-0.131D-02 0.464D-02 0.444D-01-0.313D+00 0.126D+01
 Coeff:     -0.143D-05 0.204D-05-0.534D-05 0.795D-05-0.654D-05 0.466D-04
 Coeff:     -0.144D-03 0.160D-03-0.178D-03 0.209D-03-0.111D-03-0.139D-02
 Coeff:      0.185D-02-0.131D-02 0.464D-02 0.444D-01-0.313D+00 0.126D+01
 Gap=     0.399 Goal=   None    Shift=    0.000
 Gap=     0.437 Goal=   None    Shift=    0.000
 RMSDP=7.77D-08 MaxDP=7.85D-07 DE=-2.17D-10 OVMax= 0.00D+00

 Cycle  19  Pass 1  IDiag  1:
 E= -839.217124572211     Delta-E=        0.000000000000 Rises=F Damp=F
 DIIS: error= 1.96D-09 at cycle  19 NSaved=  19.
 NSaved=19 IEnMin=18 EnMin= -839.217124572211     IErMin=19 ErrMin= 1.96D-09
 ErrMax= 1.96D-09  0.00D+00 EMaxC= 1.00D-01 BMatC= 3.02D-16 BMatP= 1.97D-14
 IDIUse=1 WtCom= 1.00D+00 WtEn= 0.00D+00
 Large coefficients: NSaved= 19 BigCof=    0.00 CofMax=   10.00 Det=-3.82D-16
 Inversion failed.  Reducing to 18 matrices.
 Large coefficients: NSaved= 18 BigCof=    0.00 CofMax=   10.00 Det=-3.86D-16
 Inversion failed.  Reducing to 17 matrices.
 Large coefficients: NSaved= 17 BigCof=    0.00 CofMax=   10.00 Det=-1.10D-15
 Inversion failed.  Reducing to 16 matrices.
 Large coefficients: NSaved= 16 BigCof=    0.00 CofMax=   10.00 Det=-1.11D-15
 Inversion failed.  Reducing to 15 matrices.
 Coeff-Com: -0.114D-06-0.415D-05 0.186D-04-0.243D-04 0.225D-04-0.160D-04
 Coeff-Com:  0.177D-05 0.143D-04-0.134D-04-0.616D-05 0.395D-04 0.284D-03
 Coeff-Com:  0.207D-03 0.397D-01 0.960D+00
 Coeff:     -0.114D-06-0.415D-05 0.186D-04-0.243D-04 0.225D-04-0.160D-04
 Coeff:      0.177D-05 0.143D-04-0.134D-04-0.616D-05 0.395D-04 0.284D-03
 Coeff:      0.207D-03 0.397D-01 0.960D+00
 Gap=     0.399 Goal=   None    Shift=    0.000
 Gap=     0.437 Goal=   None    Shift=    0.000
 RMSDP=1.53D-08 MaxDP=1.59D-07 DE= 0.00D+00 OVMax= 0.00D+00

 Cycle  20  Pass 1  IDiag  1:
 E= -839.217124572212     Delta-E=       -0.000000000001 Rises=F Damp=F
 DIIS: error= 1.19D-09 at cycle  20 NSaved=  16.
 NSaved=16 IEnMin=16 EnMin= -839.217124572212     IErMin=16 ErrMin= 1.19D-09
 ErrMax= 1.19D-09  0.00D+00 EMaxC= 1.00D-01 BMatC= 1.33D-16 BMatP= 3.02D-16
 IDIUse=1 WtCom= 1.00D+00 WtEn= 0.00D+00
 Large coefficients: NSaved= 16 BigCof=    0.00 CofMax=   10.00 Det=-2.66D-18
 Inversion failed.  Reducing to 15 matrices.
 Coeff-Com:  0.150D-05-0.713D-05 0.974D-05-0.655D-05 0.387D-05-0.372D-05
 Coeff-Com:  0.495D-06 0.447D-05-0.202D-04 0.297D-04 0.131D-03-0.114D-02
 Coeff-Com: -0.400D-02-0.145D+00 0.115D+01
 Coeff:      0.150D-05-0.713D-05 0.974D-05-0.655D-05 0.387D-05-0.372D-05
 Coeff:      0.495D-06 0.447D-05-0.202D-04 0.297D-04 0.131D-03-0.114D-02
 Coeff:     -0.400D-02-0.145D+00 0.115D+01
 Gap=     0.399 Goal=   None    Shift=    0.000
 Gap=     0.437 Goal=   None    Shift=    0.000
 RMSDP=8.56D-09 MaxDP=8.27D-08 DE=-7.96D-13 OVMax= 0.00D+00

 SCF Done:  E(UHF) =  -839.217124572     A.U. after   20 cycles
            NFock= 20  Conv=0.86D-08     -V/T= 2.0022
 <Sx>= 0.0000 <Sy>= 0.0000 <Sz>= 1.5000 <S**2>= 3.7577 S= 1.5019
 <L.S>= 0.000000000000E+00
 KE= 8.373908623722D+02 PE=-2.013971343214D+03 EE= 3.228109829695D+02
 Annihilation of the first spin contaminant:
 S**2 before annihilation     3.7577,   after     3.7500
 Leave Link  502 at Fri Mar 25 14:38:33 2022, MaxMem=  9663676416 cpu:               5.8 elap:               0.2
 (Enter /nopt/nrel/apps/gaussian/g16C_1/g16/l801.exe)
 Windowed orbitals will be sorted by symmetry type.
 ExpMin= 1.16D-01 ExpMax= 1.03D+03 ExpMxC= 1.03D+03 IAcc=3 IRadAn=         5 AccDes= 0.00D+00
 HarFok:  IExCor=  205 AccDes= 0.00D+00 IRadAn=         5 IDoV=-2 UseB2=F ITyADJ=14
 ICtDFT= 12500011 ScaDFX=  1.000000  1.000000  1.000000  1.000000
 Largest valence mixing into a core orbital is  1.22D-02
 Largest core mixing into a valence orbital is  9.57D-03
 Largest valence mixing into a core orbital is  1.49D-02
 Largest core mixing into a valence orbital is  6.05D-03
 Range of M.O.s used for correlation:    10    19
 NBasis=    19 NAE=    13 NBE=    10 NFC=     9 NFV=     0
 NROrb=     10 NOA=     4 NOB=     1 NVA=     6 NVB=     9
 Leave Link  801 at Fri Mar 25 14:38:33 2022, MaxMem=  9663676416 cpu:               1.6 elap:               0.1
 (Enter /nopt/nrel/apps/gaussian/g16C_1/g16/l804.exe)
 Open-shell transformation, MDV=  9663676416 ITran=4 ISComp=2.
 Unit  1 TFree=         25012 TCopy=        222819.
 Semi-Direct transformation.
 ModeAB=           2 MOrb=             4 LenV=    9663501460
 LASXX=          307 LTotXX=         307 LenRXX=         307
 LTotAB=         523 MaxLAS=        8400 LenRXY=        8400
 NonZer=        9720 LenScr=      785920 LnRSAI=           0
 LnScr1=           0 LExtra=      224069 Total=      1018696
 MaxDsk= 34359738368 SrtSym=           F ITran=            4
 DoSDTr:  NPSUse= 36
 JobTyp=1 Pass  1:  I=   1 to   4.
 (rs|ai) integrals will be sorted in core.
 Complete sort for first half transformation.
 First half transformation complete.
 Complete sort for second half transformation.
 Second half transformation complete.
 ModeAB=           2 MOrb=             1 LenV=    9663501460
 LASXX=          105 LTotXX=         105 LenRXX=        2100
 LTotAB=          65 MaxLAS=        2100 LenRXY=          65
 NonZer=        2430 LenScr=      785920 LnRSAI=           0
 LnScr1=           0 LExtra=      232776 Total=      1020861
 MaxDsk= 34359738368 SrtSym=           F ITran=            4
 DoSDTr:  NPSUse= 36
 JobTyp=2 Pass  1:  I=   1 to   1.
 (rs|ai) integrals will be sorted in core.
 Complete sort for first half transformation.
 First half transformation complete.
 Complete sort for second half transformation.
 Second half transformation complete.
 Spin components of T(2) and E(2):
     alpha-alpha T2 =       0.2418193827D-02 E2=     -0.3039341527D-02
     alpha-beta  T2 =       0.1386187459D-01 E2=     -0.1818729020D-01
     beta-beta   T2 =       0.0000000000D+00 E2=      0.0000000000D+00
 ANorm=    0.1008107171D+01
 E2 =    -0.2122663173D-01 EUMP2 =    -0.83923835120394D+03
 (S**2,0)=  0.37577D+01           (S**2,1)=  0.37563D+01
 E(PUHF)=      -0.83921726593D+03        E(PMP2)=      -0.83923847959D+03
 Leave Link  804 at Fri Mar 25 14:38:33 2022, MaxMem=  9663676416 cpu:               3.6 elap:               0.1
 (Enter /nopt/nrel/apps/gaussian/g16C_1/g16/l913.exe)
 CIDS:  MDV=  9663676416.
 Frozen-core window:  NFC=   9 NFV=   0.
 IFCWin=0 IBDFC=1 NFBD=     0     0 NFCmp=     0     0 NFFFC=     0     0
 Using original routines for 1st iteration.
 Using DD4UQ or CC4UQ for 2nd and later iterations.
 Keep R2 and R3 ints in memory in symmetry-blocked form, NReq=7415848.
 FoFCou: FMM=F IPFlag=           0 FMFlag=           0 FMFlg1=           0
         NFxFlg=           0 DoJE=F BraDBF=F KetDBF=F FulRan=T
         wScrn=  0.000000 ICntrl=       600 IOpCl=  0 I1Cent=           0 NGrid=           0
         NMat0=    1 NMatS0=    190 NMatT0=    0 NMatD0=    1 NMtDS0=    0 NMtDT0=    0
 Petite list used in FoFCou.
 CIDS: In Core Option IDoMem=           1.
 Coupled Cluster theory with single and double substitutions
 ===========================================================
 Iterations=  50 Convergence= 0.100D-06
 Produce multiple copies of IABC intergrals
 Iteration Nr.   1
 **********************
 DD1Dir will call FoFMem   1 times, MxPair=        14
 NAB=     4 NAA=     6 NBB=     0.
 E(PMP3)=      -0.83924656347D+03
 MP4(R+Q)=  0.30648755D-03
 Maximum subspace dimension=  5
 A-vector RMS=  1.9648669D-02 Max=  2.3386984D-02 conv= 1.00D-05.
 RLE energy=       -0.0335099029
 E3=       -0.81039483D-02        EUMP3=      -0.83924645515D+03
 E4(DQ)=   -0.35651525D-02        UMP4(DQ)=   -0.83925002030D+03
 E4(SDQ)=  -0.41524688D-02        UMP4(SDQ)=  -0.83925060762D+03
 VARIATIONAL ENERGIES WITH THE FIRST-ORDER WAVEFUNCTION:
 DE(Corr)= -0.29007411E-01 E(Corr)=     -839.24613198    
 NORM(A)=   0.10246327D+01
 Iteration Nr.   2
 **********************
 DD1Dir will call FoFMem   1 times, MxPair=        14
 NAB=     4 NAA=     6 NBB=     0.
 A-vector RMS=  1.4343533D-02 Max=  2.5992215D-02 conv= 1.00D-05.
 RLE energy=       -0.0397996255
 DE(Corr)= -0.35298717E-01 E(CORR)=     -839.25242329     Delta=-6.29D-03
 NORM(A)=   0.10459197D+01
 Iteration Nr.   3
 **********************
 DD1Dir will call FoFMem   1 times, MxPair=        14
 NAB=     4 NAA=     6 NBB=     0.
 A-vector RMS=  9.7343653D-03 Max=  1.7798744D-02 conv= 1.00D-05.
 RLE energy=       -0.0423595855
 DE(Corr)= -0.39942953E-01 E(CORR)=     -839.25706753     Delta=-4.64D-03
 NORM(A)=   0.10654868D+01
 Iteration Nr.   4
 **********************
 DD1Dir will call FoFMem   1 times, MxPair=        14
 NAB=     4 NAA=     6 NBB=     0.
 A-vector RMS=  4.4335406D-03 Max=  6.3437688D-03 conv= 1.00D-05.
 RLE energy=       -0.0433549656
 DE(Corr)= -0.42289395E-01 E(CORR)=     -839.25941397     Delta=-2.35D-03
 NORM(A)=   0.10820641D+01
 Iteration Nr.   5
 **********************
 DD1Dir will call FoFMem   1 times, MxPair=        14
 NAB=     4 NAA=     6 NBB=     0.
 A-vector RMS=  2.0500671D-03 Max=  3.1240991D-03 conv= 1.00D-05.
 RLE energy=       -0.0437660325
 DE(Corr)= -0.43480180E-01 E(CORR)=     -839.26060475     Delta=-1.19D-03
 NORM(A)=   0.10853849D+01
 Iteration Nr.   6
 **********************
 DD1Dir will call FoFMem   1 times, MxPair=        14
 NAB=     4 NAA=     6 NBB=     0.
 A-vector RMS=  1.1863302D-03 Max=  2.3938437D-03 conv= 1.00D-05.
 RLE energy=       -0.0437677642
 DE(Corr)= -0.43646941E-01 E(CORR)=     -839.26077151     Delta=-1.67D-04
 NORM(A)=   0.10878837D+01
 Iteration Nr.   7
 **********************
 DD1Dir will call FoFMem   1 times, MxPair=        14
 NAB=     4 NAA=     6 NBB=     0.
 A-vector RMS=  1.0775082D-03 Max=  1.8842636D-03 conv= 1.00D-05.
 RLE energy=       -0.0440426240
 DE(Corr)= -0.43791387E-01 E(CORR)=     -839.26091596     Delta=-1.44D-04
 NORM(A)=   0.10900442D+01
 Iteration Nr.   8
 **********************
 DD1Dir will call FoFMem   1 times, MxPair=        14
 NAB=     4 NAA=     6 NBB=     0.
 A-vector RMS=  9.1549274D-04 Max=  1.6774497D-03 conv= 1.00D-05.
 RLE energy=       -0.0438745754
 DE(Corr)= -0.44009395E-01 E(CORR)=     -839.26113397     Delta=-2.18D-04
 NORM(A)=   0.10891593D+01
 Iteration Nr.   9
 **********************
 DD1Dir will call FoFMem   1 times, MxPair=        14
 NAB=     4 NAA=     6 NBB=     0.
 A-vector RMS=  3.6382106D-04 Max=  6.3293798D-04 conv= 1.00D-05.
 RLE energy=       -0.0441704838
 DE(Corr)= -0.43912141E-01 E(CORR)=     -839.26103671     Delta= 9.73D-05
 NORM(A)=   0.10915903D+01
 Iteration Nr.  10
 **********************
 DD1Dir will call FoFMem   1 times, MxPair=        14
 NAB=     4 NAA=     6 NBB=     0.
 A-vector RMS=  2.8667435D-04 Max=  6.0133431D-04 conv= 1.00D-05.
 RLE energy=       -0.0440299130
 DE(Corr)= -0.44131155E-01 E(CORR)=     -839.26125573     Delta=-2.19D-04
 NORM(A)=   0.10905781D+01
 Iteration Nr.  11
 **********************
 DD1Dir will call FoFMem   1 times, MxPair=        14
 NAB=     4 NAA=     6 NBB=     0.
 A-vector RMS=  1.7007974D-04 Max=  2.6675277D-04 conv= 1.00D-05.
 RLE energy=       -0.0440503565
 DE(Corr)= -0.44041650E-01 E(CORR)=     -839.26116622     Delta= 8.95D-05
 NORM(A)=   0.10904102D+01
 Iteration Nr.  12
 **********************
 DD1Dir will call FoFMem   1 times, MxPair=        14
 NAB=     4 NAA=     6 NBB=     0.
 A-vector RMS=  6.1011093D-05 Max=  7.8154472D-05 conv= 1.00D-05.
 RLE energy=       -0.0440327860
 DE(Corr)= -0.44046566E-01 E(CORR)=     -839.26117114     Delta=-4.92D-06
 NORM(A)=   0.10902550D+01
 Iteration Nr.  13
 **********************
 DD1Dir will call FoFMem   1 times, MxPair=        14
 NAB=     4 NAA=     6 NBB=     0.
 A-vector RMS=  2.4541137D-05 Max=  3.6662245D-05 conv= 1.00D-05.
 RLE energy=       -0.0440334379
 DE(Corr)= -0.44032888E-01 E(CORR)=     -839.26115746     Delta= 1.37D-05
 NORM(A)=   0.10903018D+01
 Iteration Nr.  14
 **********************
 DD1Dir will call FoFMem   1 times, MxPair=        14
 NAB=     4 NAA=     6 NBB=     0.
 A-vector RMS=  1.6803260D-05 Max=  2.3377911D-05 conv= 1.00D-05.
 RLE energy=       -0.0440336882
 DE(Corr)= -0.44033140E-01 E(CORR)=     -839.26115771     Delta=-2.52D-07
 NORM(A)=   0.10903168D+01
 Iteration Nr.  15
 **********************
 DD1Dir will call FoFMem   1 times, MxPair=        14
 NAB=     4 NAA=     6 NBB=     0.
 A-vector RMS=  1.4124762D-05 Max=  1.8509100D-05 conv= 1.00D-05.
 RLE energy=       -0.0440346636
 DE(Corr)= -0.44033792E-01 E(CORR)=     -839.26115836     Delta=-6.52D-07
 NORM(A)=   0.10903158D+01
 Iteration Nr.  16
 **********************
 DD1Dir will call FoFMem   1 times, MxPair=        14
 NAB=     4 NAA=     6 NBB=     0.
 A-vector RMS=  6.4748916D-06 Max=  1.1657308D-05 conv= 1.00D-05.
 RLE energy=       -0.0440322313
 DE(Corr)= -0.44034194E-01 E(CORR)=     -839.26115877     Delta=-4.02D-07
 NORM(A)=   0.10902900D+01
 Iteration Nr.  17
 **********************
 DD1Dir will call FoFMem   1 times, MxPair=        14
 NAB=     4 NAA=     6 NBB=     0.
 A-vector RMS=  4.6179249D-06 Max=  6.5885182D-06 conv= 1.00D-05.
 RLE energy=       -0.0440328364
 DE(Corr)= -0.44032236E-01 E(CORR)=     -839.26115681     Delta= 1.96D-06
 NORM(A)=   0.10902919D+01
 Iteration Nr.  18
 **********************
 DD1Dir will call FoFMem   1 times, MxPair=        14
 NAB=     4 NAA=     6 NBB=     0.
 A-vector RMS=  3.1166437D-06 Max=  4.4600077D-06 conv= 1.00D-05.
 RLE energy=       -0.0440320241
 DE(Corr)= -0.44032520E-01 E(CORR)=     -839.26115709     Delta=-2.84D-07
 NORM(A)=   0.10902871D+01
 Iteration Nr.  19
 **********************
 DD1Dir will call FoFMem   1 times, MxPair=        14
 NAB=     4 NAA=     6 NBB=     0.
 A-vector RMS=  2.0205466D-06 Max=  3.1913032D-06 conv= 1.00D-05.
 RLE energy=       -0.0440320631
 DE(Corr)= -0.44031994E-01 E(CORR)=     -839.26115657     Delta= 5.25D-07
 NORM(A)=   0.10902877D+01
 Iteration Nr.  20
 **********************
 DD1Dir will call FoFMem   1 times, MxPair=        14
 NAB=     4 NAA=     6 NBB=     0.
 A-vector RMS=  1.0781189D-06 Max=  1.4623610D-06 conv= 1.00D-05.
 RLE energy=       -0.0440318419
 DE(Corr)= -0.44031986E-01 E(CORR)=     -839.26115656     Delta= 8.72D-09
 NORM(A)=   0.10902875D+01
 CI/CC converged in   20 iterations to DelEn= 8.72D-09 Conv= 1.00D-07 ErrA1= 1.08D-06 Conv= 1.00D-05
 Wavefunction amplitudes converged. E(Corr)=     -839.26115656    
 Dominant configurations:
 ***********************
 Spin Case        I    J    A    B          Value
    BB           10        11            0.212072D+00
   AAAA          12   13   17   18      -0.225539D+00
 Largest amplitude= 2.26D-01

 S**2, projected HF & approx projected MPn energies after annihilation of
 unwanted spin states (see manual for definitions):

 spins       (S**2,0) (S**2,1)    PUHF        PMP2        PMP3        PMP4
 annihilated
 s+1         3.74999  3.74999 -839.217266 -839.238480 -839.246563

 Discarding MO integrals.
 Leave Link  913 at Fri Mar 25 14:38:33 2022, MaxMem=  9663676416 cpu:               7.9 elap:               0.3
 (Enter /nopt/nrel/apps/gaussian/g16C_1/g16/l601.exe)
 Copying SCF densities to generalized density rwf, IOpCl= 1 IROHF=0.

 **********************************************************************

            Population analysis using the SCF Density.

 **********************************************************************

 Orbital symmetries:
 Alpha Orbitals:
       Occupied  (SG) (SG) (SG) (PI) (PI) (SG) (SG) (PI) (PI) (SG)
                 (SG) (PI) (PI)
       Virtual   (PI) (PI) (SG) (DLTA) (DLTA) (SG)
 Beta  Orbitals:
       Occupied  (SG) (SG) (SG) (PI) (PI) (SG) (SG) (PI) (PI) (SG)
       Virtual   (SG) (SG) (PI) (PI) (DLTA) (DLTA) (PI) (PI) (SG)
 The electronic state is 4-SG.
 Alpha  occ. eigenvalues -- -181.54699 -21.30592 -17.88887 -17.88452 -17.88452
 Alpha  occ. eigenvalues --   -2.99532  -2.04951  -1.86649  -1.86649  -0.29353
 Alpha  occ. eigenvalues --   -0.17088  -0.12039  -0.12039
 Alpha virt. eigenvalues --    0.27908   0.27908   0.28069   0.34552   0.34552
 Alpha virt. eigenvalues --    1.64404
  Beta  occ. eigenvalues -- -181.54602 -21.30012 -17.88284 -17.88267 -17.88267
  Beta  occ. eigenvalues --   -2.89114  -1.84626  -1.77009  -1.77009  -0.19279
  Beta virt. eigenvalues --    0.24406   0.36610   0.37564   0.37564   0.43318
  Beta virt. eigenvalues --    0.43318   0.44192   0.44192   1.73140
          Condensed to atoms (all electrons):
               1          2
     1  H    0.502509   0.190850
     2  Ti   0.190850  22.115791
          Atomic-Atomic Spin Densities.
               1          2
     1  H    0.134450  -0.111392
     2  Ti  -0.111392   3.088333
 Mulliken charges and spin densities:
               1          2
     1  H    0.306641   0.023058
     2  Ti  -0.306641   2.976942
 Sum of Mulliken charges =  -0.00000   3.00000
 Mulliken charges and spin densities with hydrogens summed into heavy atoms:
               1          2
     2  Ti  -0.000000   3.000000
 N-N= 1.455237330030D+01 E-N=-2.013971343081D+03  KE= 8.373908623722D+02
 Symmetry A1   KE= 6.605862444616D+02
 Symmetry A2   KE= 1.368402087348D-49
 Symmetry B1   KE= 8.840230895528D+01
 Symmetry B2   KE= 8.840230895528D+01
 Symmetry A1   SP= 1.000000000000D+00
 Symmetry A2   SP= 1.299593492711D-49
 Symmetry B1   SP= 1.000000000000D+00
 Symmetry B2   SP= 1.000000000000D+00

 Atomic contributions to Alpha molecular orbitals:
 Alpha occ 1 OE=-181.547 is Ti2-s=1.0000
 Alpha occ 2 OE=-21.306 is Ti2-s=1.0041
 Alpha occ 3 OE=-17.889 is Ti2-p=1.0007
 Alpha occ 4 OE=-17.885 is Ti2-p=1.0000
 Alpha occ 5 OE=-17.885 is Ti2-p=1.0000
 Alpha occ 6 OE=-2.995 is Ti2-s=0.9614
 Alpha occ 7 OE=-2.050 is Ti2-p=0.8793
 Alpha occ 8 OE=-1.866 is Ti2-p=0.9994
 Alpha occ 9 OE=-1.866 is Ti2-p=0.9994
 Alpha occ 10 OE=-0.294 is Ti2-d=0.5275 H1-s=0.2924 Ti2-s=0.1201
 Alpha occ 11 OE=-0.171 is Ti2-s=0.8316 Ti2-d=0.1992
 Alpha occ 12 OE=-0.120 is Ti2-d=0.9977
 Alpha occ 13 OE=-0.120 is Ti2-d=0.9977
 Alpha vir 14 OE=0.279 is Ti2-p=0.9982
 Alpha vir 15 OE=0.279 is Ti2-p=0.9982
 Alpha vir 16 OE=0.281 is Ti2-p=0.9867
 Alpha vir 17 OE=0.346 is Ti2-d=1.0000
 Alpha vir 18 OE=0.346 is Ti2-d=1.0000
 Alpha vir 19 OE=1.644 is H1-s=0.6862 Ti2-d=0.2169

 Atomic contributions to Beta  molecular orbitals:
 Beta  occ 1 OE=-181.546 is Ti2-s=1.0000
 Beta  occ 2 OE=-21.300 is Ti2-s=1.0041
 Beta  occ 3 OE=-17.883 is Ti2-p=1.0006
 Beta  occ 4 OE=-17.883 is Ti2-p=1.0000
 Beta  occ 5 OE=-17.883 is Ti2-p=1.0000
 Beta  occ 6 OE=-2.891 is Ti2-s=0.9637
 Beta  occ 7 OE=-1.846 is Ti2-p=0.8815
 Beta  occ 8 OE=-1.770 is Ti2-p=0.9992
 Beta  occ 9 OE=-1.770 is Ti2-p=0.9992
 Beta  occ 10 OE=-0.193 is Ti2-s=0.4247 Ti2-d=0.2480 H1-s=0.2459
 Beta  vir 11 OE=0.244 is Ti2-s=0.5425 Ti2-d=0.4245
 Beta  vir 12 OE=0.366 is Ti2-p=0.9365
 Beta  vir 13 OE=0.376 is Ti2-p=0.9923
 Beta  vir 14 OE=0.376 is Ti2-p=0.9923
 Beta  vir 15 OE=0.433 is Ti2-d=1.0000
 Beta  vir 16 OE=0.433 is Ti2-d=1.0000
 Beta  vir 17 OE=0.442 is Ti2-d=0.9916
 Beta  vir 18 OE=0.442 is Ti2-d=0.9916
 Beta  vir 19 OE=1.731 is H1-s=0.6950 Ti2-d=0.2285
 
 Leave Link  601 at Fri Mar 25 14:38:33 2022, MaxMem=  9663676416 cpu:               3.3 elap:               0.1
 (Enter /nopt/nrel/apps/gaussian/g16C_1/g16/l9999.exe)

 Test job not archived.
 1\1\GINC-R3I7N35\SP\UCCSD-FC\Gen\H1Ti1(4)\USER\25-Mar-2022\0\\#P C
 CSD/GEN sp pop=AllOrbitals iop(3/33=1,3/36=-1)\\test\\0,4\H,0,0.,0.,0.
 \Ti,0,0.,0.,0.8\\Version=ES64L-G16RevC.01\State=4-SG\HF=-839.2171246\M
 P2=-839.2383512\MP3=-839.2464552\MP4D=-839.2503268\MP4DQ=-839.2500203\
 PUHF=-839.2172659\PMP2-0=-839.2384796\PMP3-0=-839.2465635\MP4SDQ=-839.
 2506076\CCSD=-839.2611566\S2=3.757711\S2-1=3.756295\S2A=3.750011\RMSD=
 8.564e-09\PG=C*V [C*(H1Ti1)]\\@


 THOSE WITH THE GOLD MAKE THE RULES.

             -- PETER'S GOLDEN RULE
 Job cpu time:       0 days  0 hours  0 minutes 45.1 seconds.
 Elapsed time:       0 days  0 hours  0 minutes  1.6 seconds.
 File lengths (MBytes):  RWF=     13 Int=      0 D2E=      0 Chk=      1 Scr=      1
 Normal termination of Gaussian 16 at Fri Mar 25 14:38:33 2022.
