 Entering Gaussian System, Link 0=g16
 Initial command:
 /nopt/nrel/apps/gaussian/g16C_1/g16/l1.exe "/lustre/eaglefs/scratch/user/qc/nah-dissc/nah-1-ccsd-3.2-631g/Gau-21589.inp" -scrdir="/lustre/eaglefs/scratch/user/qc/nah-dissc/nah-1-ccsd-3.2-631g/"
 Default is to use a total of  36 processors:
                               36 via shared-memory
                                1 via Linda
 Entering Link 1 = /nopt/nrel/apps/gaussian/g16C_1/g16/l1.exe PID=     21590.
  
 Copyright (c) 1988-2019, Gaussian, Inc.  All Rights Reserved.
  
 This is part of the Gaussian(R) 16 program.  It is based on
 the Gaussian(R) 09 system (copyright 2009, Gaussian, Inc.),
 the Gaussian(R) 03 system (copyright 2003, Gaussian, Inc.),
 the Gaussian(R) 98 system (copyright 1998, Gaussian, Inc.),
 the Gaussian(R) 94 system (copyright 1995, Gaussian, Inc.),
 the Gaussian 92(TM) system (copyright 1992, Gaussian, Inc.),
 the Gaussian 90(TM) system (copyright 1990, Gaussian, Inc.),
 the Gaussian 88(TM) system (copyright 1988, Gaussian, Inc.),
 the Gaussian 86(TM) system (copyright 1986, Carnegie Mellon
 University), and the Gaussian 82(TM) system (copyright 1983,
 Carnegie Mellon University). Gaussian is a federally registered
 trademark of Gaussian, Inc.
  
 This software contains proprietary and confidential information,
 including trade secrets, belonging to Gaussian, Inc.
  
 This software is provided under written license and may be
 used, copied, transmitted, or stored only in accord with that
 written license.
  
 The following legend is applicable only to US Government
 contracts under FAR:
  
                    RESTRICTED RIGHTS LEGEND
  
 Use, reproduction and disclosure by the US Government is
 subject to restrictions as set forth in subparagraphs (a)
 and (c) of the Commercial Computer Software - Restricted
 Rights clause in FAR 52.227-19.
  
 Gaussian, Inc.
 340 Quinnipiac St., Bldg. 40, Wallingford CT 06492
  
  
 ---------------------------------------------------------------
 Warning -- This program may not be used in any manner that
 competes with the business of Gaussian, Inc. or will provide
 assistance to any competitor of Gaussian, Inc.  The licensee
 of this program is prohibited from giving any competitor of
 Gaussian, Inc. access to this program.  By using this program,
 the user acknowledges that Gaussian, Inc. is engaged in the
 business of creating and licensing software in the field of
 computational chemistry and represents and warrants to the
 licensee that it is not a competitor of Gaussian, Inc. and that
 it will not use this program in any manner prohibited above.
 ---------------------------------------------------------------
  

 Cite this work as:
 Gaussian 16, Revision C.01,
 M. J. Frisch, G. W. Trucks, H. B. Schlegel, G. E. Scuseria, 
 M. A. Robb, J. R. Cheeseman, G. Scalmani, V. Barone, 
 G. A. Petersson, H. Nakatsuji, X. Li, M. Caricato, A. V. Marenich, 
 J. Bloino, B. G. Janesko, R. Gomperts, B. Mennucci, H. P. Hratchian, 
 J. V. Ortiz, A. F. Izmaylov, J. L. Sonnenberg, D. Williams-Young, 
 F. Ding, F. Lipparini, F. Egidi, J. Goings, B. Peng, A. Petrone, 
 T. Henderson, D. Ranasinghe, V. G. Zakrzewski, J. Gao, N. Rega, 
 G. Zheng, W. Liang, M. Hada, M. Ehara, K. Toyota, R. Fukuda, 
 J. Hasegawa, M. Ishida, T. Nakajima, Y. Honda, O. Kitao, H. Nakai, 
 T. Vreven, K. Throssell, J. A. Montgomery, Jr., J. E. Peralta, 
 F. Ogliaro, M. J. Bearpark, J. J. Heyd, E. N. Brothers, K. N. Kudin, 
 V. N. Staroverov, T. A. Keith, R. Kobayashi, J. Normand, 
 K. Raghavachari, A. P. Rendell, J. C. Burant, S. S. Iyengar, 
 J. Tomasi, M. Cossi, J. M. Millam, M. Klene, C. Adamo, R. Cammi, 
 J. W. Ochterski, R. L. Martin, K. Morokuma, O. Farkas, 
 J. B. Foresman, and D. J. Fox, Gaussian, Inc., Wallingford CT, 2019.
 
 ******************************************
 Gaussian 16:  ES64L-G16RevC.01  3-Jul-2019
                28-Mar-2022 
 ******************************************
 %chk=molecule
 Default route: CacheSize=180224 MaxDisk=256GB
 ----------------------------------------------------------------------
 #P CCSD(MaxCyc=200,SaveAmplitudes,ReadAmplitudes)/GEN sp pop=AllOrbita
 ls iop(3/33=1,3/36=-1)
 ----------------------------------------------------------------------
 1/4=180224,38=1,172=1/1;
 2/4=180224,12=2,17=6,18=5,40=1/2;
 3/4=180224,5=7,11=9,25=1,30=1,33=1,36=-1/1,2,3;
 4/4=180224/1;
 5/4=180224,5=2,38=5/2;
 8/4=180224,6=4,9=120000,10=1,24=1/1,4;
 9/4=180224,5=7,6=200,77=1/13;
 6/4=180224,7=2,8=2,9=2,10=2,96=-1/1;
 99/4=180224,5=1,9=1/99;
 Leave Link    1 at Mon Mar 28 14:20:32 2022, MaxMem=           0 cpu:               2.4 elap:               0.1
 (Enter /nopt/nrel/apps/gaussian/g16C_1/g16/l101.exe)
 ----
 test
 ----
 Symbolic Z-matrix:
 Charge =  0 Multiplicity = 1
 H                     0.        0.        0. 
 Na                    0.        0.        3.2 
 
 ITRead=  0  0
 MicOpt= -1 -1
 NAtoms=      2 NQM=        2 NQMF=       0 NMMI=      0 NMMIF=      0
                NMic=       0 NMicF=      0.
                    Isotopes and Nuclear Properties:
 (Nuclear quadrupole moments (NQMom) in fm**2, nuclear magnetic moments (NMagM)
  in nuclear magnetons)

  Atom         1           2
 IAtWgt=           1          23
 AtmWgt=   1.0078250  22.9897697
 NucSpn=           1           3
 AtZEff=  -0.0000000  -0.0000000
 NQMom=    0.0000000  10.4000000
 NMagM=    2.7928460   2.2175200
 AtZNuc=   1.0000000  11.0000000
 Leave Link  101 at Mon Mar 28 14:20:32 2022, MaxMem=  9663676416 cpu:               3.5 elap:               0.1
 (Enter /nopt/nrel/apps/gaussian/g16C_1/g16/l202.exe)
                          Input orientation:                          
 ---------------------------------------------------------------------
 Center     Atomic      Atomic             Coordinates (Angstroms)
 Number     Number       Type             X           Y           Z
 ---------------------------------------------------------------------
      1          1           0        0.000000    0.000000    0.000000
      2         11           0        0.000000    0.000000    3.200000
 ---------------------------------------------------------------------
 Stoichiometry    HNa
 Framework group  C*V[C*(HNa)]
 Deg. of freedom     1
 Full point group                 C*V     NOp   4
 Largest Abelian subgroup         C2V     NOp   4
 Largest concise Abelian subgroup C1      NOp   1
                         Standard orientation:                         
 ---------------------------------------------------------------------
 Center     Atomic      Atomic             Coordinates (Angstroms)
 Number     Number       Type             X           Y           Z
 ---------------------------------------------------------------------
      1          1           0        0.000000    0.000000   -2.933333
      2         11           0        0.000000    0.000000    0.266667
 ---------------------------------------------------------------------
 Rotational constants (GHZ):           0.0000000          51.1169807          51.1169807
 Leave Link  202 at Mon Mar 28 14:20:32 2022, MaxMem=  9663676416 cpu:               0.9 elap:               0.1
 (Enter /nopt/nrel/apps/gaussian/g16C_1/g16/l301.exe)
 General basis read from cards:  (5D, 7F)
                         Coordinates in L301:                         
 ---------------------------------------------------------------------
 Center     Atomic      Atomic             Coordinates (Angstroms)
 Number     Number       Type             X           Y           Z
 ---------------------------------------------------------------------
      1          1           0        0.000000    0.000000   -2.933333
      2         11           0        0.000000    0.000000    0.266667
 ---------------------------------------------------------------------
 Centers:       1
 STO-3G
 ****
 Centers:       2
 6-31G
 ****
 FixB: optimizing general contractions.
 Ernie: Thresh=  0.10000D-02 Tol=  0.10000D-05 Strict=F.
 IA=     1 ShT= 0 ShC= 0 NL=   1 NS=   0.
 IA=     1 L=0 SC=0 ISt=    0 NBk=    0 NP=    0 IndPr=    0.
 IA=     2 ShT= 0 ShC= 0 NL=   1 NS=   0.
 IA=     2 L=0 SC=0 ISt=    0 NBk=    0 NP=    0 IndPr=    0.
 IA=     2 ShT= 1 ShC= 0 NL=   3 NS=   1.
 IA=     2 L=1 SC=0 ISt=    1 NBk=    2 NP=    9 IndPr=    0.
 DoElim1:  L=1 select primitive    1 from    2 using    1 C=-3.54D-03
 DoElim2:  L=1 select primitive    9 from    1 using    2 C= 1.23D+00
 DoElim1:  L=1 select primitive    1 from    2 using    1 C= 5.00D-03
 DoElim2:  L=1 select primitive    8 from    1 using    2 C= 9.50D-01
 Delete L=1 primitive    7 from    2 C=  0.00D+00.
 Delete L=1 primitive    5 from    2 C=  0.00D+00.
 Delete L=1 primitive    4 from    2 C=  0.00D+00.
 Delete L=1 primitive    3 from    2 C=  0.00D+00.
 Delete L=1 primitive    2 from    2 C=  0.00D+00.
 Delete L=1 primitive    1 from    2 C=  0.00D+00.
 Delete L=1 primitive    9 from    1 C=  0.00D+00.
 Delete L=1 primitive    8 from    1 C=  0.00D+00.
 Delete L=1 primitive    6 from    1 C=  0.00D+00.
 IA=     2 L=1 SC=0 ISt=    0 NBk=    0 NP=    0 IndPr=    9.
 LdAtmC:  AtmChg=     1.000000    11.000000
 AtZEff=     -1.0000000    -10.0400000
 NEqShl: 
              1            2            3            4
     1            1            1            1            1
     2            2            2            2            2
     3            3            3            3            3
     4            4            4            4            4
     5            5            5            5            5
 NEqBas: 
              1            2            3            4
     1            1            1            1            1
     2            2            2            2            2
     3            3            3            3            3
     4            4           -4           -4            4
     5            5           -5            5           -5
     6            6            6            6            6
     7            7            7            7            7
     8            8           -8           -8            8
     9            9           -9            9           -9
    10           10           10           10           10
    11           11           11           11           11
    12           12          -12          -12           12
    13           13          -13           13          -13
    14           14           14           14           14
 There are     8 symmetry adapted cartesian basis functions of A1  symmetry.
   1         1   1   1   1
   2         2   2   2   2
   3         3   3   3   3
   4         6   6   6   6
   5         7   7   7   7
   6        10  10  10  10
   7        11  11  11  11
   8        14  14  14  14
 There are     0 symmetry adapted cartesian basis functions of A2  symmetry.
 There are     3 symmetry adapted cartesian basis functions of B1  symmetry.
   9         4   4   4   4
  10         8   8   8   8
  11        12  12  12  12
 There are     3 symmetry adapted cartesian basis functions of B2  symmetry.
  12         5   5   5   5
  13         9   9   9   9
  14        13  13  13  13
 Order= 1 2 4 3
 Reordered character table:
              1            2            3            4            5
     1            1            1            1            1            1
     2            2            1            1           -1           -1
     3            4            1           -1           -1            1
     4            3            1           -1            1           -1
 NEqShl: 
              1            2            3            4
     1            1            1            1            1
     2            2            2            2            2
     3            3            3            3            3
     4            4            4            4            4
     5            5            5            5            5
 NEqBas: 
              1            2            3            4
     1            1            1            1            1
     2            2            2            2            2
     3            3            3            3            3
     4            4           -4           -4            4
     5            5           -5            5           -5
     6            6            6            6            6
     7            7            7            7            7
     8            8           -8           -8            8
     9            9           -9            9           -9
    10           10           10           10           10
    11           11           11           11           11
    12           12          -12          -12           12
    13           13          -13           13          -13
    14           14           14           14           14
 There are     8 symmetry adapted basis functions of A1  symmetry.
   1         1   1   1   1
   2         2   2   2   2
   3         3   3   3   3
   4         6   6   6   6
   5         7   7   7   7
   6        10  10  10  10
   7        11  11  11  11
   8        14  14  14  14
 There are     0 symmetry adapted basis functions of A2  symmetry.
 There are     3 symmetry adapted basis functions of B1  symmetry.
   9         4   4   4   4
  10         8   8   8   8
  11        12  12  12  12
 There are     3 symmetry adapted basis functions of B2  symmetry.
  12         5   5   5   5
  13         9   9   9   9
  14        13  13  13  13
 Order= 1 2 4 3
 Reordered character table:
              1            2            3            4            5
     1            1            1            1            1            1
     2            2            1            1           -1           -1
     3            4            1           -1           -1            1
     4            3            1           -1            1           -1
    14 basis functions,    49 primitive gaussians,    14 cartesian basis functions
     6 alpha electrons        6 beta electrons
       nuclear repulsion energy         1.8190466625 Hartrees.
 IS=     1 IAt=     1 ISR=     1 T=0 IP=      1 IndIP=      1 IndIPD=      0 C=  2.769344D-01  0.000000D+00                             NZ=T
 IS=     1 IAt=     1 ISR=     1 T=0 IP=      2 IndIP=      2 IndIPD=      1 C=  2.678389D-01  0.000000D+00                             NZ=T
 IS=     1 IAt=     1 ISR=     1 T=0 IP=      3 IndIP=      3 IndIPD=      2 C=  8.347367D-02  0.000000D+00                             NZ=T
 IS=     2 IAt=     2 ISR=     1 T=0 IP=      1 IndIP=      4 IndIPD=      0 C=  1.380276D+00  0.000000D+00                             NZ=T
 IS=     2 IAt=     2 ISR=     1 T=0 IP=      2 IndIP=      5 IndIPD=      1 C=  2.543440D+00  0.000000D+00                             NZ=T
 IS=     2 IAt=     2 ISR=     1 T=0 IP=      3 IndIP=      6 IndIPD=      2 C=  4.120502D+00  0.000000D+00                             NZ=T
 IS=     2 IAt=     2 ISR=     1 T=0 IP=      4 IndIP=      7 IndIPD=      3 C=  5.464941D+00  0.000000D+00                             NZ=T
 IS=     2 IAt=     2 ISR=     1 T=0 IP=      5 IndIP=      8 IndIPD=      4 C=  4.476262D+00  0.000000D+00                             NZ=T
 IS=     2 IAt=     2 ISR=     1 T=0 IP=      6 IndIP=      9 IndIPD=      5 C=  1.255723D+00  0.000000D+00                             NZ=T
 IS=     3 IAt=     2 ISR=     2 T=1 IP=      1 IndIP=     10 IndIPD=      0 C= -1.087231D-01  3.772614D+00                             NZ=T
 IS=     3 IAt=     2 ISR=     2 T=1 IP=      2 IndIP=     11 IndIPD=      1 C= -4.564910D-01  4.399752D+00                             NZ=T
 IS=     3 IAt=     2 ISR=     2 T=1 IP=      3 IndIP=     12 IndIPD=      2 C= -4.778739D-01  4.156503D+00                             NZ=T
 IS=     3 IAt=     2 ISR=     2 T=1 IP=      4 IndIP=     13 IndIPD=      3 C=  3.708017D-01  2.647056D+00                             NZ=T
 IS=     3 IAt=     2 ISR=     2 T=1 IP=      5 IndIP=     14 IndIPD=      4 C=  5.874076D-01  9.643141D-01                             NZ=T
 IS=     3 IAt=     2 ISR=     2 T=1 IP=      6 IndIP=     15 IndIPD=      5 C=  1.231036D-01  1.501277D-01                             NZ=T
 IS=     4 IAt=     2 ISR=     3 T=1 IP=      1 IndIP=     16 IndIPD=      0 C= -1.049885D-01 -1.372752D-02                             NZ=T
 IS=     4 IAt=     2 ISR=     3 T=1 IP=      2 IndIP=     17 IndIPD=      1 C= -1.469212D-02  6.158186D-02                             NZ=T
 IS=     4 IAt=     2 ISR=     3 T=1 IP=      3 IndIP=     18 IndIPD=      2 C=  1.153011D-01  2.888614D-03                             NZ=T
 IS=     5 IAt=     2 ISR=     4 T=1 IP=      1 IndIP=     19 IndIPD=      0 C=  4.608593D-02  1.484923D-02                             NZ=T
 IExCor=    0 DFT=F Ex=HF Corr=None ExCW=0 ScaHFX=  1.000000
 ScaDFX=  1.000000  1.000000  1.000000  1.000000 ScalE2=  1.000000  1.000000
 IRadAn=      5 IRanWt=     -1 IRanGd=            0 ICorTp=0 IEmpDi=  4
 NAtoms=    2 NActive=    2 NUniq=    2 SFac= 1.00D+00 NAtFMM=   60 NAOKFM=F Big=F
 Integral buffers will be    131072 words long.
 Raffenetti 1 integral format.
 Two-electron integral symmetry is turned on.
 Leave Link  301 at Mon Mar 28 14:20:32 2022, MaxMem=  9663676416 cpu:               2.1 elap:               0.1
 (Enter /nopt/nrel/apps/gaussian/g16C_1/g16/l302.exe)
 NPDir=0 NMtPBC=     1 NCelOv=     1 NCel=       1 NClECP=     1 NCelD=      1
         NCelK=      1 NCelE2=     1 NClLst=     1 CellRange=     0.0.
 One-electron integrals computed using PRISM.
 One-electron integral symmetry used in STVInt
 Entering OneElI...
 Calculate overlap and kinetic energy integrals
    NBasis =  14  MinDer = 0  MaxDer = 0
 Requested accuracy = 0.1000D-12
 Symmetry will be used
 PrmmSu-InSpLW:  IPartL=    0 NPrtUS=   36 NPrtUL=    1 DoSpLW=F IThBeg=    0 IThEnd=   35 NThAct=   36.
 PrSmSu:  IncTry=   512 NBBP=             15 NTPThr=   100 NPartT=   36 Incr=           1 LDynOK=F GPUOK=F.
 PrsmSu:  NPrtUS=  36 ThrOK=T IAlg=1 LenDen=           0 ISkipM=0 DoSpLW=F IThBeg=    0 IThEnd=   35.
 Prism:   IPart=     0 DynPar=F LinDyn=F Incr=           1.
 PRISM was handed   268432554 working-precision words and    15 shell-pairs
 PRISM was handed   268432554 working-precision words and    15 shell-pairs
 PRISM was handed   268432554 working-precision words and    15 shell-pairs
 PRISM was handed   268432554 working-precision words and    15 shell-pairs
 PRISM was handed   268432554 working-precision words and    15 shell-pairs
 PRISM was handed   268432554 working-precision words and    15 shell-pairs
 PRISM was handed   268432554 working-precision words and    15 shell-pairs
 PRISM was handed   268432554 working-precision words and    15 shell-pairs
 IPart= 16 NShTot=           0 NBatch=           0 AvBLen=         0.0
 IPart=  5 NShTot=           0 NBatch=           0 AvBLen=         0.0
 IPart=  1 NShTot=           0 NBatch=           0 AvBLen=         0.0
 IPart= 18 NShTot=           0 NBatch=           0 AvBLen=         0.0
 IPart= 12 NShTot=           0 NBatch=           0 AvBLen=         0.0
 IPart=  0 NShTot=          15 NBatch=          15 AvBLen=         1.0
 IPart= 10 NShTot=           0 NBatch=           0 AvBLen=         0.0
 IPart=  3 NShTot=           0 NBatch=           0 AvBLen=         0.0
 PRISM was handed   268432554 working-precision words and    15 shell-pairs
 PRISM was handed   268432554 working-precision words and    15 shell-pairs
 PRISM was handed   268432554 working-precision words and    15 shell-pairs
 PRISM was handed   268432554 working-precision words and    15 shell-pairs
 PRISM was handed   268432554 working-precision words and    15 shell-pairs
 PRISM was handed   268432554 working-precision words and    15 shell-pairs
 IPart= 23 NShTot=           0 NBatch=           0 AvBLen=         0.0
 IPart= 24 NShTot=           0 NBatch=           0 AvBLen=         0.0
 IPart= 22 NShTot=           0 NBatch=           0 AvBLen=         0.0
 IPart= 30 NShTot=           0 NBatch=           0 AvBLen=         0.0
 IPart= 21 NShTot=           0 NBatch=           0 AvBLen=         0.0
 IPart= 33 NShTot=           0 NBatch=           0 AvBLen=         0.0
 PRISM was handed   268432554 working-precision words and    15 shell-pairs
 PRISM was handed   268432554 working-precision words and    15 shell-pairs
 IPart= 11 NShTot=           0 NBatch=           0 AvBLen=         0.0
 PRISM was handed   268432554 working-precision words and    15 shell-pairs
 IPart= 27 NShTot=           0 NBatch=           0 AvBLen=         0.0
 PRISM was handed   268432554 working-precision words and    15 shell-pairs
 PRISM was handed   268432554 working-precision words and    15 shell-pairs
 PRISM was handed   268432554 working-precision words and    15 shell-pairs
 PRISM was handed   268432554 working-precision words and    15 shell-pairs
 PRISM was handed   268432554 working-precision words and    15 shell-pairs
 PRISM was handed   268432554 working-precision words and    15 shell-pairs
 PRISM was handed   268432554 working-precision words and    15 shell-pairs
 PRISM was handed   268432554 working-precision words and    15 shell-pairs
 PRISM was handed   268432554 working-precision words and    15 shell-pairs
 PRISM was handed   268432554 working-precision words and    15 shell-pairs
 IPart= 32 NShTot=           0 NBatch=           0 AvBLen=         0.0
 PRISM was handed   268432554 working-precision words and    15 shell-pairs
 IPart= 26 NShTot=           0 NBatch=           0 AvBLen=         0.0
 IPart=  4 NShTot=           0 NBatch=           0 AvBLen=         0.0
 IPart= 20 NShTot=           0 NBatch=           0 AvBLen=         0.0
 IPart= 14 NShTot=           0 NBatch=           0 AvBLen=         0.0
 IPart= 34 NShTot=           0 NBatch=           0 AvBLen=         0.0
 IPart= 15 NShTot=           0 NBatch=           0 AvBLen=         0.0
 IPart=  2 NShTot=           0 NBatch=           0 AvBLen=         0.0
 IPart= 35 NShTot=           0 NBatch=           0 AvBLen=         0.0
 IPart=  9 NShTot=           0 NBatch=           0 AvBLen=         0.0
 IPart= 25 NShTot=           0 NBatch=           0 AvBLen=         0.0
 PRISM was handed   268432554 working-precision words and    15 shell-pairs
 PRISM was handed   268432554 working-precision words and    15 shell-pairs
 PRISM was handed   268432554 working-precision words and    15 shell-pairs
 PRISM was handed   268432554 working-precision words and    15 shell-pairs
 PRISM was handed   268432554 working-precision words and    15 shell-pairs
 PRISM was handed   268432554 working-precision words and    15 shell-pairs
 IPart=  8 NShTot=           0 NBatch=           0 AvBLen=         0.0
 PRISM was handed   268432554 working-precision words and    15 shell-pairs
 PRISM was handed   268432554 working-precision words and    15 shell-pairs
 IPart= 13 NShTot=           0 NBatch=           0 AvBLen=         0.0
 IPart=  6 NShTot=           0 NBatch=           0 AvBLen=         0.0
 IPart= 28 NShTot=           0 NBatch=           0 AvBLen=         0.0
 IPart=  7 NShTot=           0 NBatch=           0 AvBLen=         0.0
 IPart= 19 NShTot=           0 NBatch=           0 AvBLen=         0.0
 IPart= 31 NShTot=           0 NBatch=           0 AvBLen=         0.0
 IPart= 17 NShTot=           0 NBatch=           0 AvBLen=         0.0
 IPart= 29 NShTot=           0 NBatch=           0 AvBLen=         0.0
 PrSmSu:  NxtVal=             37.
 *** Overlap *** 
                1             2             3             4             5 
      1  0.100000D+01
      2  0.753576D-04  0.100000D+01
      3  0.184123D-02  0.230835D+00  0.100000D+01
      4  0.000000D+00  0.000000D+00  0.000000D+00  0.100000D+01
      5  0.000000D+00  0.000000D+00  0.000000D+00  0.000000D+00  0.100000D+01
      6 -0.315524D-02  0.000000D+00  0.000000D+00  0.000000D+00  0.000000D+00
      7  0.107027D+00 -0.127644D-04  0.161245D+00  0.000000D+00  0.000000D+00
      8  0.000000D+00  0.000000D+00  0.000000D+00  0.186871D+00  0.000000D+00
      9  0.000000D+00  0.000000D+00  0.000000D+00  0.000000D+00  0.186871D+00
     10 -0.187837D+00  0.000000D+00  0.000000D+00  0.000000D+00  0.000000D+00
     11  0.166504D+00  0.189170D-01  0.190082D+00  0.000000D+00  0.000000D+00
     12  0.000000D+00  0.000000D+00  0.000000D+00  0.574619D-01  0.000000D+00
     13  0.000000D+00  0.000000D+00  0.000000D+00  0.000000D+00  0.574619D-01
     14 -0.291846D+00  0.000000D+00  0.000000D+00  0.000000D+00  0.000000D+00
                6             7             8             9            10 
      6  0.100000D+01
      7  0.000000D+00  0.100000D+01
      8  0.000000D+00  0.000000D+00  0.100000D+01
      9  0.000000D+00  0.000000D+00  0.000000D+00  0.100000D+01
     10  0.186871D+00  0.000000D+00  0.000000D+00  0.000000D+00  0.100000D+01
     11  0.000000D+00  0.876272D+00  0.000000D+00  0.000000D+00  0.000000D+00
     12  0.000000D+00  0.000000D+00  0.672925D+00  0.000000D+00  0.000000D+00
     13  0.000000D+00  0.000000D+00  0.000000D+00  0.672925D+00  0.000000D+00
     14  0.574619D-01  0.000000D+00  0.000000D+00  0.000000D+00  0.672925D+00
               11            12            13            14 
     11  0.100000D+01
     12  0.000000D+00  0.100000D+01
     13  0.000000D+00  0.000000D+00  0.100000D+01
     14  0.000000D+00  0.000000D+00  0.000000D+00  0.100000D+01
 *** Kinetic Energy *** 
                1             2             3             4             5 
      1  0.760032D+00
      2 -0.115864D-03  0.565455D+02
      3 -0.170648D-02 -0.266647D+01  0.196759D+01
      4  0.000000D+00  0.000000D+00  0.000000D+00  0.588848D+01
      5  0.000000D+00  0.000000D+00  0.000000D+00  0.000000D+00  0.588848D+01
      6  0.204260D-02  0.000000D+00  0.000000D+00  0.000000D+00  0.000000D+00
      7 -0.338645D-02 -0.516638D-01 -0.152029D+00  0.000000D+00  0.000000D+00
      8  0.000000D+00  0.000000D+00  0.000000D+00  0.478086D-01  0.000000D+00
      9  0.000000D+00  0.000000D+00  0.000000D+00  0.000000D+00  0.478086D-01
     10 -0.458040D-02  0.000000D+00  0.000000D+00  0.000000D+00  0.000000D+00
     11  0.500723D-02  0.147038D-02  0.142898D-01  0.000000D+00  0.000000D+00
     12  0.000000D+00  0.000000D+00  0.000000D+00  0.716353D-02  0.000000D+00
     13  0.000000D+00  0.000000D+00  0.000000D+00  0.000000D+00  0.716353D-02
     14 -0.224316D-01  0.000000D+00  0.000000D+00  0.000000D+00  0.000000D+00
                6             7             8             9            10 
      6  0.588848D+01
      7  0.000000D+00  0.116833D+00
      8  0.000000D+00  0.000000D+00  0.205703D+00
      9  0.000000D+00  0.000000D+00  0.000000D+00  0.205703D+00
     10  0.478086D-01  0.000000D+00  0.000000D+00  0.000000D+00  0.205703D+00
     11  0.000000D+00  0.474660D-01  0.000000D+00  0.000000D+00  0.000000D+00
     12  0.000000D+00  0.000000D+00  0.664432D-01  0.000000D+00  0.000000D+00
     13  0.000000D+00  0.000000D+00  0.000000D+00  0.664432D-01  0.000000D+00
     14  0.716353D-02  0.000000D+00  0.000000D+00  0.000000D+00  0.664432D-01
               11            12            13            14 
     11  0.389316D-01
     12  0.000000D+00  0.648860D-01
     13  0.000000D+00  0.000000D+00  0.648860D-01
     14  0.000000D+00  0.000000D+00  0.000000D+00  0.648860D-01
 Entering OneElI...
 Calculate potential energy integrals
    NBasis =  14  MinDer = 0  MaxDer = 0
 Requested accuracy = 0.1000D-12
 Symmetry will be used
 PrmmSu-InSpLW:  IPartL=    0 NPrtUS=   36 NPrtUL=    1 DoSpLW=F IThBeg=    0 IThEnd=   35 NThAct=   36.
 PrSmSu:  IncTry=   512 NBBP=             30 NTPThr=   100 NPartT=   36 Incr=           1 LDynOK=F GPUOK=F.
 PrsmSu:  NPrtUS=  36 ThrOK=T IAlg=1 LenDen=           0 ISkipM=0 DoSpLW=F IThBeg=    0 IThEnd=   35.
 Prism:   IPart=     0 DynPar=F LinDyn=F Incr=           1.
 PRISM was handed   268432653 working-precision words and    15 shell-pairs
 PRISM was handed   268432653 working-precision words and    15 shell-pairs
 PRISM was handed   268432653 working-precision words and    15 shell-pairs
 PRISM was handed   268432653 working-precision words and    15 shell-pairs
 PRISM was handed   268432653 working-precision words and    15 shell-pairs
 PRISM was handed   268432653 working-precision words and    15 shell-pairs
 PRISM was handed   268432653 working-precision words and    15 shell-pairs
 PRISM was handed   268432653 working-precision words and    15 shell-pairs
 PRISM was handed   268432653 working-precision words and    15 shell-pairs
 PRISM was handed   268432653 working-precision words and    15 shell-pairs
 PRISM was handed   268432653 working-precision words and    15 shell-pairs
 PRISM was handed   268432653 working-precision words and    15 shell-pairs
 PRISM was handed   268432653 working-precision words and    15 shell-pairs
 PRISM was handed   268432653 working-precision words and    15 shell-pairs
 PRISM was handed   268432653 working-precision words and    15 shell-pairs
 PRISM was handed   268432653 working-precision words and    15 shell-pairs
 PRISM was handed   268432653 working-precision words and    15 shell-pairs
 PRISM was handed   268432653 working-precision words and    15 shell-pairs
 PRISM was handed   268432653 working-precision words and    15 shell-pairs
 PRISM was handed   268432653 working-precision words and    15 shell-pairs
 PRISM was handed   268432653 working-precision words and    15 shell-pairs
 PRISM was handed   268432653 working-precision words and    15 shell-pairs
 PRISM was handed   268432653 working-precision words and    15 shell-pairs
 PRISM was handed   268432653 working-precision words and    15 shell-pairs
 PRISM was handed   268432653 working-precision words and    15 shell-pairs
 PRISM was handed   268432653 working-precision words and    15 shell-pairs
 PRISM was handed   268432653 working-precision words and    15 shell-pairs
 PRISM was handed   268432653 working-precision words and    15 shell-pairs
 PRISM was handed   268432653 working-precision words and    15 shell-pairs
 PRISM was handed   268432653 working-precision words and    15 shell-pairs
 PRISM was handed   268432653 working-precision words and    15 shell-pairs
 PRISM was handed   268432653 working-precision words and    15 shell-pairs
 PRISM was handed   268432653 working-precision words and    15 shell-pairs
 PRISM was handed   268432653 working-precision words and    15 shell-pairs
 PRISM was handed   268432653 working-precision words and    15 shell-pairs
 PRISM was handed   268432653 working-precision words and    15 shell-pairs
 IPart= 20 NShTot=           0 NBatch=           0 AvBLen=         0.0
 IPart= 25 NShTot=           0 NBatch=           0 AvBLen=         0.0
 IPart= 16 NShTot=           0 NBatch=           0 AvBLen=         0.0
 IPart= 17 NShTot=           0 NBatch=           0 AvBLen=         0.0
 IPart= 32 NShTot=           0 NBatch=           0 AvBLen=         0.0
 IPart= 13 NShTot=           0 NBatch=           0 AvBLen=         0.0
 IPart= 22 NShTot=           0 NBatch=           0 AvBLen=         0.0
 IPart= 28 NShTot=           0 NBatch=           0 AvBLen=         0.0
 IPart= 30 NShTot=           0 NBatch=           0 AvBLen=         0.0
 IPart= 29 NShTot=           0 NBatch=           0 AvBLen=         0.0
 IPart= 24 NShTot=           0 NBatch=           0 AvBLen=         0.0
 IPart=  4 NShTot=           0 NBatch=           0 AvBLen=         0.0
 IPart= 35 NShTot=           0 NBatch=           0 AvBLen=         0.0
 IPart= 23 NShTot=           0 NBatch=           0 AvBLen=         0.0
 IPart= 14 NShTot=           0 NBatch=           0 AvBLen=         0.0
 IPart=  8 NShTot=           0 NBatch=           0 AvBLen=         0.0
 IPart= 34 NShTot=           0 NBatch=           0 AvBLen=         0.0
 IPart=  7 NShTot=           0 NBatch=           0 AvBLen=         0.0
 IPart= 26 NShTot=           0 NBatch=           0 AvBLen=         0.0
 IPart= 31 NShTot=           0 NBatch=           0 AvBLen=         0.0
 IPart=  6 NShTot=           0 NBatch=           0 AvBLen=         0.0
 IPart=  9 NShTot=           0 NBatch=           0 AvBLen=         0.0
 IPart= 18 NShTot=           0 NBatch=           0 AvBLen=         0.0
 IPart= 27 NShTot=           0 NBatch=           0 AvBLen=         0.0
 IPart= 15 NShTot=           0 NBatch=           0 AvBLen=         0.0
 IPart=  1 NShTot=           0 NBatch=           0 AvBLen=         0.0
 IPart= 19 NShTot=           0 NBatch=           0 AvBLen=         0.0
 IPart= 33 NShTot=           0 NBatch=           0 AvBLen=         0.0
 IPart= 12 NShTot=           0 NBatch=           0 AvBLen=         0.0
 IPart=  2 NShTot=           0 NBatch=           0 AvBLen=         0.0
 IPart= 21 NShTot=           0 NBatch=           0 AvBLen=         0.0
 IPart=  0 NShTot=          30 NBatch=          15 AvBLen=         2.0
 IPart= 11 NShTot=           0 NBatch=           0 AvBLen=         0.0
 IPart= 10 NShTot=           0 NBatch=           0 AvBLen=         0.0
 IPart=  5 NShTot=           0 NBatch=           0 AvBLen=         0.0
 IPart=  3 NShTot=           0 NBatch=           0 AvBLen=         0.0
 PrSmSu:  NxtVal=             37.
 ***** Potential Energy ***** 
                1             2             3             4             5 
      1  0.304566D+01
      2  0.430413D-02  0.117126D+03
      3  0.160073D-01  0.106449D+02  0.179915D+02
      4  0.000000D+00  0.000000D+00  0.000000D+00  0.188220D+02
      5  0.000000D+00  0.000000D+00  0.000000D+00  0.000000D+00  0.188220D+02
      6 -0.203925D-01 -0.125744D-02 -0.122067D-01  0.000000D+00  0.000000D+00
      7  0.313020D+00 -0.498337D-01  0.131433D+01  0.000000D+00  0.000000D+00
      8  0.000000D+00  0.000000D+00  0.000000D+00  0.154505D+01  0.000000D+00
      9  0.000000D+00  0.000000D+00  0.000000D+00  0.000000D+00  0.154505D+01
     10 -0.543972D+00 -0.192351D-04 -0.357970D-02  0.000000D+00  0.000000D+00
     11  0.445992D+00  0.110893D+01  0.227857D+01  0.000000D+00  0.000000D+00
     12  0.000000D+00  0.000000D+00  0.000000D+00  0.458941D+00  0.000000D+00
     13  0.000000D+00  0.000000D+00  0.000000D+00  0.000000D+00  0.458941D+00
     14 -0.749698D+00 -0.557385D-05 -0.111311D-02  0.000000D+00  0.000000D+00
                6             7             8             9            10 
      6  0.188242D+02
      7 -0.577105D-02  0.376446D+01
      8  0.000000D+00  0.000000D+00  0.347545D+01
      9  0.000000D+00  0.000000D+00  0.000000D+00  0.347545D+01
     10  0.154679D+01 -0.556079D-01  0.000000D+00  0.000000D+00  0.351538D+01
     11 -0.487693D-02  0.304739D+01  0.000000D+00  0.000000D+00 -0.544168D-01
     12  0.000000D+00  0.000000D+00  0.192696D+01  0.000000D+00  0.000000D+00
     13  0.000000D+00  0.000000D+00  0.000000D+00  0.192696D+01  0.000000D+00
     14  0.459531D+00 -0.414731D-01  0.000000D+00  0.000000D+00  0.196231D+01
               11            12            13            14 
     11  0.298480D+01
     12  0.000000D+00  0.201098D+01
     13  0.000000D+00  0.000000D+00  0.201098D+01
     14 -0.607425D-01  0.000000D+00  0.000000D+00  0.206599D+01
 ****** Core Hamiltonian ****** 
                1             2             3             4             5 
      1 -0.228563D+01
      2 -0.441999D-02 -0.605806D+02
      3 -0.177138D-01 -0.133113D+02 -0.160239D+02
      4  0.000000D+00  0.000000D+00  0.000000D+00 -0.129335D+02
      5  0.000000D+00  0.000000D+00  0.000000D+00  0.000000D+00 -0.129335D+02
      6  0.224351D-01  0.125744D-02  0.122067D-01  0.000000D+00  0.000000D+00
      7 -0.316407D+00 -0.183007D-02 -0.146636D+01  0.000000D+00  0.000000D+00
      8  0.000000D+00  0.000000D+00  0.000000D+00 -0.149724D+01  0.000000D+00
      9  0.000000D+00  0.000000D+00  0.000000D+00  0.000000D+00 -0.149724D+01
     10  0.539392D+00  0.192351D-04  0.357970D-02  0.000000D+00  0.000000D+00
     11 -0.440985D+00 -0.110746D+01 -0.226428D+01  0.000000D+00  0.000000D+00
     12  0.000000D+00  0.000000D+00  0.000000D+00 -0.451777D+00  0.000000D+00
     13  0.000000D+00  0.000000D+00  0.000000D+00  0.000000D+00 -0.451777D+00
     14  0.727267D+00  0.557385D-05  0.111311D-02  0.000000D+00  0.000000D+00
                6             7             8             9            10 
      6 -0.129357D+02
      7  0.577105D-02 -0.364763D+01
      8  0.000000D+00  0.000000D+00 -0.326975D+01
      9  0.000000D+00  0.000000D+00  0.000000D+00 -0.326975D+01
     10 -0.149899D+01  0.556079D-01  0.000000D+00  0.000000D+00 -0.330968D+01
     11  0.487693D-02 -0.299992D+01  0.000000D+00  0.000000D+00  0.544168D-01
     12  0.000000D+00  0.000000D+00 -0.186051D+01  0.000000D+00  0.000000D+00
     13  0.000000D+00  0.000000D+00  0.000000D+00 -0.186051D+01  0.000000D+00
     14 -0.452368D+00  0.414731D-01  0.000000D+00  0.000000D+00 -0.189586D+01
               11            12            13            14 
     11 -0.294587D+01
     12  0.000000D+00 -0.194610D+01
     13  0.000000D+00  0.000000D+00 -0.194610D+01
     14  0.607425D-01  0.000000D+00  0.000000D+00 -0.200110D+01
 SVDSVc IOpt=   1 NormSV=T IR=1
 SVDSVc V= 2.00D+00 1.82D+00 1.19D+00 1.01D+00 8.17D-01 7.36D-01 3.07D-01 1.21D-01
 SVDSVc IOpt=   1 NormSV=T IR=3
 SVDSVc V= 1.72D+00 9.71D-01 3.14D-01
 SVDSVc IOpt=   1 NormSV=T IR=4
 SVDSVc V= 1.72D+00 9.71D-01 3.14D-01
 TstOVc:  Largest diagonal error= 2.22D-15 IB=1 I=    4.
 TstOVc:  Largest same sym error= 7.27D-16 IB=1 I=    8 J=    3.
 TstOVc:  Largest diff sym error= 0.00D+00 IB=0 JB=0 I=    0 J=    0.
 Orthogonalized basis functions: 
                 1             2             3             4             5 
      1   0.194279D+00 -0.201814D+00 -0.991079D-01  0.390207D+00  0.857601D+00
      2   0.460934D-01  0.299323D-01  0.678776D+00  0.929087D-01  0.279871D+00
      3   0.164196D+00  0.904680D-01  0.571387D+00  0.753685D-02 -0.219345D+00
      4   0.000000D+00  0.000000D+00  0.000000D+00  0.000000D+00  0.000000D+00
      5   0.000000D+00  0.000000D+00  0.000000D+00  0.000000D+00  0.000000D+00
      6  -0.376662D-01  0.135801D+00 -0.514575D-01  0.891291D+00 -0.409042D+00
      7   0.432952D+00  0.194524D+00 -0.146996D+00 -0.782920D-01 -0.112888D+00
      8   0.000000D+00  0.000000D+00  0.000000D+00  0.000000D+00  0.000000D+00
      9   0.000000D+00  0.000000D+00  0.000000D+00  0.000000D+00  0.000000D+00
     10  -0.150105D+00  0.450797D+00 -0.460875D-01  0.913052D-01  0.335585D+00
     11   0.442080D+00  0.189310D+00 -0.125038D+00 -0.498406D-01 -0.407489D-01
     12   0.000000D+00  0.000000D+00  0.000000D+00  0.000000D+00  0.000000D+00
     13   0.000000D+00  0.000000D+00  0.000000D+00  0.000000D+00  0.000000D+00
     14  -0.159248D+00  0.453091D+00 -0.264438D-01 -0.137383D+00  0.261500D+00
                 6             7             8             9            10 
      1   0.305088D+00  0.204808D+00 -0.161705D+00  0.000000D+00  0.000000D+00
      2  -0.711836D+00 -0.332395D-02 -0.265094D-01  0.000000D+00  0.000000D+00
      3   0.826473D+00  0.868416D-02 -0.670631D-01  0.000000D+00  0.000000D+00
      4   0.000000D+00  0.000000D+00  0.000000D+00  0.180764D+00  0.976429D+00
      5   0.000000D+00  0.000000D+00  0.000000D+00  0.000000D+00  0.000000D+00
      6  -0.914045D-01  0.230212D+00  0.390709D-03  0.000000D+00  0.000000D+00
      7  -0.181244D+00 -0.525885D-01 -0.201085D+01  0.000000D+00  0.000000D+00
      8   0.000000D+00  0.000000D+00  0.000000D+00  0.532957D+00 -0.716361D-01
      9   0.000000D+00  0.000000D+00  0.000000D+00  0.000000D+00  0.000000D+00
     10   0.114336D+00 -0.124190D+01  0.156199D-01  0.000000D+00  0.000000D+00
     11  -0.134654D+00  0.149913D-01  0.204975D+01  0.000000D+00  0.000000D+00
     12   0.000000D+00  0.000000D+00  0.000000D+00  0.516103D+00 -0.268016D+00
     13   0.000000D+00  0.000000D+00  0.000000D+00  0.000000D+00  0.000000D+00
     14   0.656083D-01  0.127263D+01 -0.656550D-01  0.000000D+00  0.000000D+00
                11            12            13            14 
      1   0.000000D+00  0.000000D+00  0.000000D+00  0.000000D+00
      2   0.000000D+00  0.000000D+00  0.000000D+00  0.000000D+00
      3   0.000000D+00  0.000000D+00  0.000000D+00  0.000000D+00
      4  -0.243572D+00  0.000000D+00  0.000000D+00  0.000000D+00
      5   0.000000D+00  0.180764D+00  0.976429D+00 -0.243572D+00
      6   0.000000D+00  0.000000D+00  0.000000D+00  0.000000D+00
      7   0.000000D+00  0.000000D+00  0.000000D+00  0.000000D+00
      8   0.127086D+01  0.000000D+00  0.000000D+00  0.000000D+00
      9   0.000000D+00  0.532957D+00 -0.716361D-01  0.127086D+01
     10   0.000000D+00  0.000000D+00  0.000000D+00  0.000000D+00
     11   0.000000D+00  0.000000D+00  0.000000D+00  0.000000D+00
     12  -0.122706D+01  0.000000D+00  0.000000D+00  0.000000D+00
     13   0.000000D+00  0.516103D+00 -0.268016D+00 -0.122706D+01
     14   0.000000D+00  0.000000D+00  0.000000D+00  0.000000D+00
 NBasis=    14 RedAO= T EigKep=  1.21D-01  NBF=     8     0     3     3
 NBsUse=    14 1.00D-06 EigRej= -1.00D+00 NBFU=     8     0     3     3
 Leave Link  302 at Mon Mar 28 14:20:33 2022, MaxMem=  9663676416 cpu:               4.6 elap:               0.2
 (Enter /nopt/nrel/apps/gaussian/g16C_1/g16/l303.exe)
 DipDrv will not compute anything.
 Fermi contact integrals: 
                 1             2 
      1   0.628247D+00  0.173753D-03
      2   0.000000D+00  0.192411D+02
      3   0.000000D+00  0.382249D-01
      4   0.000000D+00  0.000000D+00
      5   0.000000D+00  0.000000D+00
      6   0.000000D+00  0.000000D+00
      7   0.941092D-02 -0.437955D-02
      8   0.000000D+00  0.000000D+00
      9   0.000000D+00  0.000000D+00
     10  -0.185641D-01  0.000000D+00
     11   0.178395D-01  0.460859D-01
     12   0.000000D+00  0.000000D+00
     13   0.000000D+00  0.000000D+00
     14  -0.347590D-01  0.000000D+00
 Leave Link  303 at Mon Mar 28 14:20:33 2022, MaxMem=  9663676416 cpu:               1.3 elap:               0.1
 (Enter /nopt/nrel/apps/gaussian/g16C_1/g16/l401.exe)
 ExpMin= 2.60D-02 ExpMax= 9.99D+03 ExpMxC= 1.50D+03 IAcc=3 IRadAn=         5 AccDes= 0.00D+00
 Harris functional with IExCor=  205 and IRadAn=       5 diagonalized for initial guess.
 HarFok:  IExCor=  205 AccDes= 0.00D+00 IRadAn=         5 IDoV= 1 UseB2=F ITyADJ=14
 ICtDFT=  3500011 ScaDFX=  1.000000  1.000000  1.000000  1.000000
 FoFCou: FMM=F IPFlag=           0 FMFlag=      100000 FMFlg1=           0
         NFxFlg=           0 DoJE=T BraDBF=F KetDBF=T FulRan=T
         wScrn=  0.000000 ICntrl=       500 IOpCl=  0 I1Cent=   200000004 NGrid=           0
         NMat0=    1 NMatS0=      1 NMatT0=    0 NMatD0=    1 NMtDS0=    0 NMtDT0=    0
 Petite list used in FoFCou.
 Harris En= -162.154165536475    
 JPrj=0 DoOrth=F DoCkMO=F.
 Initial guess orbital symmetries:
       Occupied  (SG) (SG) (SG) (PI) (PI) (SG)
       Virtual   (SG) (PI) (PI) (SG) (SG) (SG) (PI) (PI)
 The electronic state of the initial guess is 1-SG.
 Leave Link  401 at Mon Mar 28 14:20:33 2022, MaxMem=  9663676416 cpu:               3.2 elap:               0.1
 (Enter /nopt/nrel/apps/gaussian/g16C_1/g16/l502.exe)
 Keep R1 ints in memory in symmetry-blocked form, NReq=7222839.
 FoFCou: FMM=F IPFlag=           0 FMFlag=           0 FMFlg1=           0
         NFxFlg=           0 DoJE=F BraDBF=F KetDBF=F FulRan=T
         wScrn=  0.000000 ICntrl=       600 IOpCl=  0 I1Cent=           0 NGrid=           0
         NMat0=    1 NMatS0=    105 NMatT0=    0 NMatD0=    1 NMtDS0=    0 NMtDT0=    0
 Petite list used in FoFCou.
 Closed shell SCF:
 Using DIIS extrapolation, IDIIS=  1040.
 NGot=  9663676416 LenX=  9663671753 LenY=  9663670871
 Requested convergence on RMS density matrix=1.00D-08 within 128 cycles.
 Requested convergence on MAX density matrix=1.00D-06.
 Requested convergence on             energy=1.00D-06.
 No special actions if energy rises.

 Cycle   1  Pass 1  IDiag  1:
 E= -162.200700350083    
 DIIS: error= 4.01D-02 at cycle   1 NSaved=   1.
 NSaved= 1 IEnMin= 1 EnMin= -162.200700350083     IErMin= 1 ErrMin= 4.01D-02
 ErrMax= 4.01D-02  0.00D+00 EMaxC= 1.00D-01 BMatC= 1.96D-02 BMatP= 1.96D-02
 IDIUse=3 WtCom= 5.99D-01 WtEn= 4.01D-01
 Coeff-Com:  0.100D+01
 Coeff-En:   0.100D+01
 Coeff:      0.100D+01
 Gap=     0.079 Goal=   None    Shift=    0.000
 GapD=    0.079 DampG=0.500 DampE=0.500 DampFc=0.2500 IDamp=-1.
 Damping current iteration by 2.50D-01
 RMSDP=3.42D-02 MaxDP=3.64D-01              OVMax= 1.16D-02

 Cycle   2  Pass 1  IDiag  1:
 E= -162.221083100553     Delta-E=       -0.020382750469 Rises=F Damp=T
 DIIS: error= 2.78D-02 at cycle   2 NSaved=   2.
 NSaved= 2 IEnMin= 2 EnMin= -162.221083100553     IErMin= 2 ErrMin= 2.78D-02
 ErrMax= 2.78D-02  0.00D+00 EMaxC= 1.00D-01 BMatC= 9.88D-03 BMatP= 1.96D-02
 IDIUse=3 WtCom= 7.22D-01 WtEn= 2.78D-01
 Coeff-Com: -0.240D+01 0.340D+01
 Coeff-En:   0.000D+00 0.100D+01
 Coeff:     -0.173D+01 0.273D+01
 Gap=     0.181 Goal=   None    Shift=    0.000
 RMSDP=1.97D-02 MaxDP=2.08D-01 DE=-2.04D-02 OVMax= 2.40D-04

 Cycle   3  Pass 1  IDiag  1:
 E= -162.272544662924     Delta-E=       -0.051461562372 Rises=F Damp=F
 DIIS: error= 1.31D-03 at cycle   3 NSaved=   3.
 NSaved= 3 IEnMin= 3 EnMin= -162.272544662924     IErMin= 3 ErrMin= 1.31D-03
 ErrMax= 1.31D-03  0.00D+00 EMaxC= 1.00D-01 BMatC= 2.03D-05 BMatP= 9.88D-03
 IDIUse=3 WtCom= 9.87D-01 WtEn= 1.31D-02
 Coeff-Com:  0.362D+00-0.484D+00 0.112D+01
 Coeff-En:   0.000D+00 0.000D+00 0.100D+01
 Coeff:      0.357D+00-0.478D+00 0.112D+01
 Gap=     0.198 Goal=   None    Shift=    0.000
 RMSDP=1.07D-03 MaxDP=8.97D-03 DE=-5.15D-02 OVMax= 3.17D-04

 Cycle   4  Pass 1  IDiag  1:
 E= -162.272638277923     Delta-E=       -0.000093614999 Rises=F Damp=F
 DIIS: error= 1.50D-04 at cycle   4 NSaved=   4.
 NSaved= 4 IEnMin= 4 EnMin= -162.272638277923     IErMin= 4 ErrMin= 1.50D-04
 ErrMax= 1.50D-04  0.00D+00 EMaxC= 1.00D-01 BMatC= 3.14D-07 BMatP= 2.03D-05
 IDIUse=3 WtCom= 9.98D-01 WtEn= 1.50D-03
 Coeff-Com: -0.867D-01 0.116D+00-0.137D+00 0.111D+01
 Coeff-En:   0.000D+00 0.000D+00 0.000D+00 0.100D+01
 Coeff:     -0.866D-01 0.116D+00-0.137D+00 0.111D+01
 Gap=     0.198 Goal=   None    Shift=    0.000
 RMSDP=1.39D-04 MaxDP=7.91D-04 DE=-9.36D-05 OVMax= 3.85D-05

 Cycle   5  Pass 1  IDiag  1:
 E= -162.272640816320     Delta-E=       -0.000002538397 Rises=F Damp=F
 DIIS: error= 7.04D-05 at cycle   5 NSaved=   5.
 NSaved= 5 IEnMin= 5 EnMin= -162.272640816320     IErMin= 5 ErrMin= 7.04D-05
 ErrMax= 7.04D-05  0.00D+00 EMaxC= 1.00D-01 BMatC= 5.84D-08 BMatP= 3.14D-07
 IDIUse=1 WtCom= 1.00D+00 WtEn= 0.00D+00
 Coeff-Com: -0.243D-01 0.334D-01-0.157D-01-0.420D+00 0.143D+01
 Coeff:     -0.243D-01 0.334D-01-0.157D-01-0.420D+00 0.143D+01
 Gap=     0.198 Goal=   None    Shift=    0.000
 RMSDP=8.28D-05 MaxDP=3.73D-04 DE=-2.54D-06 OVMax= 5.84D-06

 Cycle   6  Pass 1  IDiag  1:
 E= -162.272641472262     Delta-E=       -0.000000655941 Rises=F Damp=F
 DIIS: error= 2.15D-05 at cycle   6 NSaved=   6.
 NSaved= 6 IEnMin= 6 EnMin= -162.272641472262     IErMin= 6 ErrMin= 2.15D-05
 ErrMax= 2.15D-05  0.00D+00 EMaxC= 1.00D-01 BMatC= 5.13D-09 BMatP= 5.84D-08
 IDIUse=1 WtCom= 1.00D+00 WtEn= 0.00D+00
 Coeff-Com: -0.525D-02 0.682D-02-0.115D-01 0.223D+00-0.777D+00 0.156D+01
 Coeff:     -0.525D-02 0.682D-02-0.115D-01 0.223D+00-0.777D+00 0.156D+01
 Gap=     0.198 Goal=   None    Shift=    0.000
 RMSDP=3.08D-05 MaxDP=1.85D-04 DE=-6.56D-07 OVMax= 1.12D-06

 Cycle   7  Pass 1  IDiag  1:
 E= -162.272641539485     Delta-E=       -0.000000067224 Rises=F Damp=F
 DIIS: error= 4.71D-06 at cycle   7 NSaved=   7.
 NSaved= 7 IEnMin= 7 EnMin= -162.272641539485     IErMin= 7 ErrMin= 4.71D-06
 ErrMax= 4.71D-06  0.00D+00 EMaxC= 1.00D-01 BMatC= 2.64D-10 BMatP= 5.13D-09
 IDIUse=1 WtCom= 1.00D+00 WtEn= 0.00D+00
 Coeff-Com: -0.265D-03 0.379D-03 0.210D-03-0.224D-01 0.109D+00-0.506D+00
 Coeff-Com:  0.142D+01
 Coeff:     -0.265D-03 0.379D-03 0.210D-03-0.224D-01 0.109D+00-0.506D+00
 Coeff:      0.142D+01
 Gap=     0.198 Goal=   None    Shift=    0.000
 RMSDP=8.93D-06 MaxDP=5.71D-05 DE=-6.72D-08 OVMax= 7.85D-07

 Cycle   8  Pass 1  IDiag  1:
 E= -162.272641543040     Delta-E=       -0.000000003555 Rises=F Damp=F
 DIIS: error= 1.92D-07 at cycle   8 NSaved=   8.
 NSaved= 8 IEnMin= 8 EnMin= -162.272641543040     IErMin= 8 ErrMin= 1.92D-07
 ErrMax= 1.92D-07  0.00D+00 EMaxC= 1.00D-01 BMatC= 5.16D-13 BMatP= 2.64D-10
 IDIUse=1 WtCom= 1.00D+00 WtEn= 0.00D+00
 Coeff-Com: -0.620D-05 0.579D-05-0.810D-04 0.324D-02-0.173D-01 0.887D-01
 Coeff-Com: -0.288D+00 0.121D+01
 Coeff:     -0.620D-05 0.579D-05-0.810D-04 0.324D-02-0.173D-01 0.887D-01
 Coeff:     -0.288D+00 0.121D+01
 Gap=     0.198 Goal=   None    Shift=    0.000
 RMSDP=4.17D-07 MaxDP=2.13D-06 DE=-3.55D-09 OVMax= 6.13D-08

 Cycle   9  Pass 1  IDiag  1:
 E= -162.272641543046     Delta-E=       -0.000000000006 Rises=F Damp=F
 DIIS: error= 1.96D-08 at cycle   9 NSaved=   9.
 NSaved= 9 IEnMin= 9 EnMin= -162.272641543046     IErMin= 9 ErrMin= 1.96D-08
 ErrMax= 1.96D-08  0.00D+00 EMaxC= 1.00D-01 BMatC= 2.59D-15 BMatP= 5.16D-13
 IDIUse=1 WtCom= 1.00D+00 WtEn= 0.00D+00
 Coeff-Com: -0.141D-05 0.212D-05 0.799D-05-0.428D-03 0.272D-02-0.151D-01
 Coeff-Com:  0.542D-01-0.349D+00 0.131D+01
 Coeff:     -0.141D-05 0.212D-05 0.799D-05-0.428D-03 0.272D-02-0.151D-01
 Coeff:      0.542D-01-0.349D+00 0.131D+01
 Gap=     0.198 Goal=   None    Shift=    0.000
 RMSDP=4.77D-08 MaxDP=3.35D-07 DE=-6.05D-12 OVMax= 5.53D-10

 Cycle  10  Pass 1  IDiag  1:
 E= -162.272641543046     Delta-E=       -0.000000000000 Rises=F Damp=F
 DIIS: error= 9.90D-10 at cycle  10 NSaved=  10.
 NSaved=10 IEnMin=10 EnMin= -162.272641543046     IErMin=10 ErrMin= 9.90D-10
 ErrMax= 9.90D-10  0.00D+00 EMaxC= 1.00D-01 BMatC= 1.61D-17 BMatP= 2.59D-15
 IDIUse=1 WtCom= 1.00D+00 WtEn= 0.00D+00
 Coeff-Com:  0.233D-06-0.353D-06-0.160D-05 0.824D-04-0.547D-03 0.303D-02
 Coeff-Com: -0.111D-01 0.755D-01-0.311D+00 0.124D+01
 Coeff:      0.233D-06-0.353D-06-0.160D-05 0.824D-04-0.547D-03 0.303D-02
 Coeff:     -0.111D-01 0.755D-01-0.311D+00 0.124D+01
 Gap=     0.198 Goal=   None    Shift=    0.000
 RMSDP=2.54D-09 MaxDP=1.39D-08 DE=-5.68D-14 OVMax= 3.59D-11

 SCF Done:  E(RHF) =  -162.272641543     A.U. after   10 cycles
            NFock= 10  Conv=0.25D-08     -V/T= 2.0008
 KE= 1.621411106380D+02 PE=-3.935771917834D+02 EE= 6.734439293985D+01
 Leave Link  502 at Mon Mar 28 14:20:33 2022, MaxMem=  9663676416 cpu:               3.6 elap:               0.1
 (Enter /nopt/nrel/apps/gaussian/g16C_1/g16/l801.exe)
 Windowed orbitals will be sorted by symmetry type.
 ExpMin= 2.60D-02 ExpMax= 9.99D+03 ExpMxC= 1.50D+03 IAcc=3 IRadAn=         5 AccDes= 0.00D+00
 HarFok:  IExCor=  205 AccDes= 0.00D+00 IRadAn=         5 IDoV=-2 UseB2=F ITyADJ=14
 ICtDFT= 12500011 ScaDFX=  1.000000  1.000000  1.000000  1.000000
 Largest valence mixing into a core orbital is  1.71D-04
 Largest core mixing into a valence orbital is  3.20D-05
 Range of M.O.s used for correlation:     6    14
 NBasis=    14 NAE=     6 NBE=     6 NFC=     5 NFV=     0
 NROrb=      9 NOA=     1 NOB=     1 NVA=     8 NVB=     8
 Leave Link  801 at Mon Mar 28 14:20:33 2022, MaxMem=  9663676416 cpu:               1.7 elap:               0.1
 (Enter /nopt/nrel/apps/gaussian/g16C_1/g16/l804.exe)
 Closed-shell transformation, MDV=  9663676416 ITran=4 ISComp=2.
 Unit  1 TFree=          8118 TCopy=        116807.
 Semi-Direct transformation.
 ModeAB=           2 MOrb=             1 LenV=    9663552949
 LASXX=           88 LTotXX=          88 LenRXX=          88
 LTotAB=         141 MaxLAS=         945 LenRXY=         945
 NonZer=        1107 LenScr=      785920 LnRSAI=           0
 LnScr1=           0 LExtra=      220231 Total=      1007184
 MaxDsk= 34359738368 SrtSym=           F ITran=            4
 DoSDTr:  NPSUse= 36
 JobTyp=0 Pass  1:  I=   1 to   1.
 (rs|ai) integrals will be sorted in core.
 Complete sort for first half transformation.
 First half transformation complete.
 Complete sort for second half transformation.
 Second half transformation complete.
 Spin components of T(2) and E(2):
     alpha-alpha T2 =       0.0000000000D+00 E2=      0.0000000000D+00
     alpha-beta  T2 =       0.4262891917D-01 E2=     -0.3042870453D-01
     beta-beta   T2 =       0.0000000000D+00 E2=      0.0000000000D+00
 ANorm=    0.1021092023D+01
 E2 =    -0.3042870453D-01 EUMP2 =    -0.16230307024758D+03
 Leave Link  804 at Mon Mar 28 14:20:33 2022, MaxMem=  9663676416 cpu:               3.1 elap:               0.1
 (Enter /nopt/nrel/apps/gaussian/g16C_1/g16/l913.exe)
 CIDS:  MDV=  9663676416.
 Frozen-core window:  NFC=   5 NFV=   0.
 IFCWin=0 IBDFC=1 NFBD=     0     0 NFCmp=     0     0 NFFFC=     0     0
 Using DD3R+UMP44R for 1st iteration.
 Using DD4RQ for 2nd and later iterations.
 Keep R2 and R3 ints in memory in symmetry-blocked form, NReq=7225233.
 FoFCou: FMM=F IPFlag=           0 FMFlag=           0 FMFlg1=           0
         NFxFlg=           0 DoJE=F BraDBF=F KetDBF=F FulRan=T
         wScrn=  0.000000 ICntrl=       600 IOpCl=  0 I1Cent=           0 NGrid=           0
         NMat0=    1 NMatS0=    105 NMatT0=    0 NMatD0=    1 NMtDS0=    0 NMtDT0=    0
 Petite list used in FoFCou.
 CIDS: In Core Option IDoMem=           1.
 Coupled Cluster theory with single and double substitutions
 ===========================================================
 Iterations= 200 Convergence= 0.100D-06
 Produce multiple copies of IABC intergrals
 Iteration Nr.   1
 **********************
 DD1Dir will call FoFMem   1 times, MxPair=         2
 NAB=     1 NAA=     0 NBB=     0.
 MP4(R+Q)=  0.12971428D-02
 Maximum subspace dimension=  5
 A-vector RMS=  3.7732213D-02 Max=  3.9012195D-02 conv= 1.00D-05.
 RLE energy=       -0.0546881372
 E3=       -0.14805730D-01        EUMP3=      -0.16231787598D+03
 E4(DQ)=   -0.67169480D-02        UMP4(DQ)=   -0.16232459293D+03
 E4(SDQ)=  -0.73272189D-02        UMP4(SDQ)=  -0.16232520320D+03
 VARIATIONAL ENERGIES WITH THE FIRST-ORDER WAVEFUNCTION:
 DE(Corr)= -0.43926759E-01 E(Corr)=     -162.31656830    
 NORM(A)=   0.10722372D+01
 Iteration Nr.   2
 **********************
 DD1Dir will call FoFMem   1 times, MxPair=         2
 NAB=     1 NAA=     0 NBB=     0.
 A-vector RMS=  1.9238881D-02 Max=  3.5644055D-02 conv= 1.00D-05.
 RLE energy=       -0.0562610637
 DE(Corr)= -0.55436015E-01 E(CORR)=     -162.32807756     Delta=-1.15D-02
 NORM(A)=   0.10832506D+01
 Iteration Nr.   3
 **********************
 DD1Dir will call FoFMem   1 times, MxPair=         2
 NAB=     1 NAA=     0 NBB=     0.
 A-vector RMS=  2.2849462D-02 Max=  2.7767374D-02 conv= 1.00D-05.
 RLE energy=       -0.0575882143
 DE(Corr)= -0.56345550E-01 E(CORR)=     -162.32898709     Delta=-9.10D-04
 NORM(A)=   0.11144084D+01
 Iteration Nr.   4
 **********************
 DD1Dir will call FoFMem   1 times, MxPair=         2
 NAB=     1 NAA=     0 NBB=     0.
 A-vector RMS=  6.2599371D-03 Max=  2.5372249D-02 conv= 1.00D-05.
 RLE energy=       -0.0615302000
 DE(Corr)= -0.58663070E-01 E(CORR)=     -162.33130461     Delta=-2.32D-03
 NORM(A)=   0.11587979D+01
 Iteration Nr.   5
 **********************
 DD1Dir will call FoFMem   1 times, MxPair=         2
 NAB=     1 NAA=     0 NBB=     0.
 A-vector RMS=  4.8218970D-03 Max=  4.3563614D-03 conv= 1.00D-05.
 RLE energy=       -0.0596299600
 DE(Corr)= -0.61023869E-01 E(CORR)=     -162.33366541     Delta=-2.36D-03
 NORM(A)=   0.11413855D+01
 Iteration Nr.   6
 **********************
 DD1Dir will call FoFMem   1 times, MxPair=         2
 NAB=     1 NAA=     0 NBB=     0.
 A-vector RMS=  4.1221536D-03 Max=  4.7944418D-03 conv= 1.00D-05.
 RLE energy=       -0.0606809766
 DE(Corr)= -0.59793584E-01 E(CORR)=     -162.33243513     Delta= 1.23D-03
 NORM(A)=   0.11550716D+01
 Iteration Nr.   7
 **********************
 DD1Dir will call FoFMem   1 times, MxPair=         2
 NAB=     1 NAA=     0 NBB=     0.
 A-vector RMS=  2.5169190D-03 Max=  3.8345958D-03 conv= 1.00D-05.
 RLE energy=       -0.0602279622
 DE(Corr)= -0.60594498E-01 E(CORR)=     -162.33323604     Delta=-8.01D-04
 NORM(A)=   0.11500076D+01
 Iteration Nr.   8
 **********************
 DD1Dir will call FoFMem   1 times, MxPair=         2
 NAB=     1 NAA=     0 NBB=     0.
 A-vector RMS=  6.3465276D-04 Max=  1.0233804D-03 conv= 1.00D-05.
 RLE energy=       -0.0603122986
 DE(Corr)= -0.60246022E-01 E(CORR)=     -162.33288757     Delta= 3.48D-04
 NORM(A)=   0.11509986D+01
 Iteration Nr.   9
 **********************
 DD1Dir will call FoFMem   1 times, MxPair=         2
 NAB=     1 NAA=     0 NBB=     0.
 A-vector RMS=  5.3525723D-05 Max=  6.3482535D-05 conv= 1.00D-05.
 RLE energy=       -0.0603091821
 DE(Corr)= -0.60309735E-01 E(CORR)=     -162.33295128     Delta=-6.37D-05
 NORM(A)=   0.11510315D+01
 Iteration Nr.  10
 **********************
 DD1Dir will call FoFMem   1 times, MxPair=         2
 NAB=     1 NAA=     0 NBB=     0.
 A-vector RMS=  1.8329863D-05 Max=  1.9470706D-05 conv= 1.00D-05.
 RLE energy=       -0.0603134286
 DE(Corr)= -0.60311221E-01 E(CORR)=     -162.33295276     Delta=-1.49D-06
 NORM(A)=   0.11510574D+01
 Iteration Nr.  11
 **********************
 DD1Dir will call FoFMem   1 times, MxPair=         2
 NAB=     1 NAA=     0 NBB=     0.
 A-vector RMS=  6.7207508D-06 Max=  7.7697882D-06 conv= 1.00D-05.
 RLE energy=       -0.0603119992
 DE(Corr)= -0.60312826E-01 E(CORR)=     -162.33295437     Delta=-1.60D-06
 NORM(A)=   0.11510518D+01
 Iteration Nr.  12
 **********************
 DD1Dir will call FoFMem   1 times, MxPair=         2
 NAB=     1 NAA=     0 NBB=     0.
 A-vector RMS=  1.8348478D-06 Max=  2.2784168D-06 conv= 1.00D-05.
 RLE energy=       -0.0603126206
 DE(Corr)= -0.60312323E-01 E(CORR)=     -162.33295387     Delta= 5.03D-07
 NORM(A)=   0.11510551D+01
 Iteration Nr.  13
 **********************
 DD1Dir will call FoFMem   1 times, MxPair=         2
 NAB=     1 NAA=     0 NBB=     0.
 A-vector RMS=  9.8131866D-07 Max=  1.2030181D-06 conv= 1.00D-05.
 RLE energy=       -0.0603122554
 DE(Corr)= -0.60312595E-01 E(CORR)=     -162.33295414     Delta=-2.71D-07
 NORM(A)=   0.11510504D+01
 Iteration Nr.  14
 **********************
 DD1Dir will call FoFMem   1 times, MxPair=         2
 NAB=     1 NAA=     0 NBB=     0.
 A-vector RMS=  8.7837228D-07 Max=  1.0120297D-06 conv= 1.00D-05.
 RLE energy=       -0.0603124177
 DE(Corr)= -0.60312333E-01 E(CORR)=     -162.33295388     Delta= 2.62D-07
 NORM(A)=   0.11510517D+01
 Iteration Nr.  15
 **********************
 DD1Dir will call FoFMem   1 times, MxPair=         2
 NAB=     1 NAA=     0 NBB=     0.
 A-vector RMS=  8.8920656D-08 Max=  3.4788019D-07 conv= 1.00D-05.
 RLE energy=       -0.0603124353
 DE(Corr)= -0.60312434E-01 E(CORR)=     -162.33295398     Delta=-1.01D-07
 NORM(A)=   0.11510519D+01
 Iteration Nr.  16
 **********************
 DD1Dir will call FoFMem   1 times, MxPair=         2
 NAB=     1 NAA=     0 NBB=     0.
 A-vector RMS=  6.3350866D-08 Max=  6.7949841D-08 conv= 1.00D-05.
 RLE energy=       -0.0603124445
 DE(Corr)= -0.60312439E-01 E(CORR)=     -162.33295398     Delta=-4.95D-09
 NORM(A)=   0.11510520D+01
 CI/CC converged in   16 iterations to DelEn=-4.95D-09 Conv= 1.00D-07 ErrA1= 6.34D-08 Conv= 1.00D-05
 Wavefunction amplitudes converged. E(Corr)=     -162.33295398    
 Dominant configurations:
 ***********************
 Spin Case        I    J    A    B          Value
    AA            6         7            0.201402D+00
   ABAB           6    6    7    7      -0.211545D+00
   ABAB           6    6    7   10      -0.132136D+00
   ABAB           6    6    7   13      -0.103982D+00
   ABAB           6    6    7   14       0.168689D+00
   ABAB           6    6   10    7      -0.132136D+00
   ABAB           6    6   10   14       0.108371D+00
   ABAB           6    6   13    7      -0.103982D+00
   ABAB           6    6   14    7       0.168689D+00
   ABAB           6    6   14   10       0.108371D+00
   ABAB           6    6   14   14      -0.142165D+00
 Largest amplitude= 2.12D-01
 Discarding MO integrals.
 Leave Link  913 at Mon Mar 28 14:20:33 2022, MaxMem=  9663676416 cpu:               9.4 elap:               0.3
 (Enter /nopt/nrel/apps/gaussian/g16C_1/g16/l601.exe)
 Copying SCF densities to generalized density rwf, IOpCl= 0 IROHF=0.

 **********************************************************************

            Population analysis using the SCF Density.

 **********************************************************************

 Orbital symmetries:
       Occupied  (SG) (SG) (PI) (PI) (SG) (SG)
       Virtual   (SG) (PI) (PI) (SG) (PI) (PI) (SG) (SG)
 The electronic state is 1-SG.
 Alpha  occ. eigenvalues --  -40.55123  -2.86012  -1.58179  -1.58179  -1.58087
 Alpha  occ. eigenvalues --   -0.21785
 Alpha virt. eigenvalues --   -0.02030   0.03154   0.03154   0.11670   0.19027
 Alpha virt. eigenvalues --    0.19027   0.19591   0.20043
          Condensed to atoms (all electrons):
               1          2
     1  H    0.674667   0.232449
     2  Na   0.232449  10.860436
 Mulliken charges:
               1
     1  H    0.092884
     2  Na  -0.092884
 Sum of Mulliken charges =  -0.00000
 Mulliken charges with hydrogens summed into heavy atoms:
               1
     2  Na  -0.000000
 N-N= 1.819046662538D+00 E-N=-3.935771917581D+02  KE= 1.621411106380D+02
 Symmetry A1   KE= 1.386535044456D+02
 Symmetry A2   KE= 0.000000000000D+00
 Symmetry B1   KE= 1.174380309618D+01
 Symmetry B2   KE= 1.174380309618D+01

 Atomic contributions to Alpha molecular orbitals:
 Alpha occ 1 OE=-40.551 is Na2-s=1.0000
 Alpha occ 2 OE=-2.860 is Na2-s=0.9999
 Alpha occ 3 OE=-1.582 is Na2-p=1.0000
 Alpha occ 4 OE=-1.582 is Na2-p=1.0000
 Alpha occ 5 OE=-1.581 is Na2-p=0.9999
 Alpha occ 6 OE=-0.218 is H1-s=0.4536 Na2-s=0.3221 Na2-p=0.2243
 Alpha vir 7 OE=-0.020 is Na2-s=0.5740 Na2-p=0.3863
 Alpha vir 8 OE=0.032 is Na2-p=1.0000
 Alpha vir 9 OE=0.032 is Na2-p=1.0000
 Alpha vir 10 OE=0.117 is Na2-s=0.7451 Na2-p=0.1820
 Alpha vir 11 OE=0.190 is Na2-p=1.0000
 Alpha vir 12 OE=0.190 is Na2-p=1.0000
 Alpha vir 13 OE=0.196 is Na2-p=0.5117 Na2-s=0.3057 H1-s=0.1827
 Alpha vir 14 OE=0.200 is Na2-p=0.6958 H1-s=0.2512
 
 Leave Link  601 at Mon Mar 28 14:20:34 2022, MaxMem=  9663676416 cpu:               1.6 elap:               0.1
 (Enter /nopt/nrel/apps/gaussian/g16C_1/g16/l9999.exe)

 Test job not archived.
 1\1\GINC-R102U34\SP\RCCSD-FC\Gen\H1Na1\USER\28-Mar-2022\0\\#P CCSD
 (MaxCyc=200,SaveAmplitudes,ReadAmplitudes)/GEN sp pop=AllOrbitals iop(
 3/33=1,3/36=-1)\\test\\0,1\H,0,0.,0.,0.\Na,0,0.,0.,3.2\\Version=ES64L-
 G16RevC.01\State=1-SG\HF=-162.2726415\MP2=-162.3030702\MP3=-162.317876
 \MP4D=-162.3258901\MP4DQ=-162.3245929\MP4SDQ=-162.3252032\CCSD=-162.33
 2954\RMSD=2.541e-09\PG=C*V [C*(H1Na1)]\\@


 KINETICS       FACT
 ---------  =  -------
 MECHANISM     FICTION
 Job cpu time:       0 days  0 hours  0 minutes 38.8 seconds.
 Elapsed time:       0 days  0 hours  0 minutes  1.4 seconds.
 File lengths (MBytes):  RWF=     13 Int=      0 D2E=      0 Chk=      1 Scr=      1
 Normal termination of Gaussian 16 at Mon Mar 28 14:20:34 2022.
