 Entering Gaussian System, Link 0=g16
 Initial command:
 /nopt/nrel/apps/gaussian/g16C_1/g16/l1.exe "/lustre/eaglefs/scratch/user/qc/lih-dissc/lih-3-ccsd-3.5-321g/Gau-5500.inp" -scrdir="/lustre/eaglefs/scratch/user/qc/lih-dissc/lih-3-ccsd-3.5-321g/"
 Default is to use a total of  36 processors:
                               36 via shared-memory
                                1 via Linda
 Entering Link 1 = /nopt/nrel/apps/gaussian/g16C_1/g16/l1.exe PID=      5501.
  
 Copyright (c) 1988-2019, Gaussian, Inc.  All Rights Reserved.
  
 This is part of the Gaussian(R) 16 program.  It is based on
 the Gaussian(R) 09 system (copyright 2009, Gaussian, Inc.),
 the Gaussian(R) 03 system (copyright 2003, Gaussian, Inc.),
 the Gaussian(R) 98 system (copyright 1998, Gaussian, Inc.),
 the Gaussian(R) 94 system (copyright 1995, Gaussian, Inc.),
 the Gaussian 92(TM) system (copyright 1992, Gaussian, Inc.),
 the Gaussian 90(TM) system (copyright 1990, Gaussian, Inc.),
 the Gaussian 88(TM) system (copyright 1988, Gaussian, Inc.),
 the Gaussian 86(TM) system (copyright 1986, Carnegie Mellon
 University), and the Gaussian 82(TM) system (copyright 1983,
 Carnegie Mellon University). Gaussian is a federally registered
 trademark of Gaussian, Inc.
  
 This software contains proprietary and confidential information,
 including trade secrets, belonging to Gaussian, Inc.
  
 This software is provided under written license and may be
 used, copied, transmitted, or stored only in accord with that
 written license.
  
 The following legend is applicable only to US Government
 contracts under FAR:
  
                    RESTRICTED RIGHTS LEGEND
  
 Use, reproduction and disclosure by the US Government is
 subject to restrictions as set forth in subparagraphs (a)
 and (c) of the Commercial Computer Software - Restricted
 Rights clause in FAR 52.227-19.
  
 Gaussian, Inc.
 340 Quinnipiac St., Bldg. 40, Wallingford CT 06492
  
  
 ---------------------------------------------------------------
 Warning -- This program may not be used in any manner that
 competes with the business of Gaussian, Inc. or will provide
 assistance to any competitor of Gaussian, Inc.  The licensee
 of this program is prohibited from giving any competitor of
 Gaussian, Inc. access to this program.  By using this program,
 the user acknowledges that Gaussian, Inc. is engaged in the
 business of creating and licensing software in the field of
 computational chemistry and represents and warrants to the
 licensee that it is not a competitor of Gaussian, Inc. and that
 it will not use this program in any manner prohibited above.
 ---------------------------------------------------------------
  

 Cite this work as:
 Gaussian 16, Revision C.01,
 M. J. Frisch, G. W. Trucks, H. B. Schlegel, G. E. Scuseria, 
 M. A. Robb, J. R. Cheeseman, G. Scalmani, V. Barone, 
 G. A. Petersson, H. Nakatsuji, X. Li, M. Caricato, A. V. Marenich, 
 J. Bloino, B. G. Janesko, R. Gomperts, B. Mennucci, H. P. Hratchian, 
 J. V. Ortiz, A. F. Izmaylov, J. L. Sonnenberg, D. Williams-Young, 
 F. Ding, F. Lipparini, F. Egidi, J. Goings, B. Peng, A. Petrone, 
 T. Henderson, D. Ranasinghe, V. G. Zakrzewski, J. Gao, N. Rega, 
 G. Zheng, W. Liang, M. Hada, M. Ehara, K. Toyota, R. Fukuda, 
 J. Hasegawa, M. Ishida, T. Nakajima, Y. Honda, O. Kitao, H. Nakai, 
 T. Vreven, K. Throssell, J. A. Montgomery, Jr., J. E. Peralta, 
 F. Ogliaro, M. J. Bearpark, J. J. Heyd, E. N. Brothers, K. N. Kudin, 
 V. N. Staroverov, T. A. Keith, R. Kobayashi, J. Normand, 
 K. Raghavachari, A. P. Rendell, J. C. Burant, S. S. Iyengar, 
 J. Tomasi, M. Cossi, J. M. Millam, M. Klene, C. Adamo, R. Cammi, 
 J. W. Ochterski, R. L. Martin, K. Morokuma, O. Farkas, 
 J. B. Foresman, and D. J. Fox, Gaussian, Inc., Wallingford CT, 2019.
 
 ******************************************
 Gaussian 16:  ES64L-G16RevC.01  3-Jul-2019
                28-Mar-2022 
 ******************************************
 %chk=molecule
 Default route: CacheSize=180224 MaxDisk=256GB
 ----------------------------------------------------------------------
 #P CCSD(MaxCyc=200,SaveAmplitudes,ReadAmplitudes)/GEN sp pop=AllOrbita
 ls iop(3/33=1,3/36=-1)
 ----------------------------------------------------------------------
 1/4=180224,38=1,172=1/1;
 2/4=180224,12=2,17=6,18=5,40=1/2;
 3/4=180224,5=7,11=9,25=1,30=1,33=1,36=-1/1,2,3;
 4/4=180224/1;
 5/4=180224,5=2,38=5/2;
 8/4=180224,6=4,9=120000,10=1,24=1/1,4;
 9/4=180224,5=7,6=200,77=1/13;
 6/4=180224,7=2,8=2,9=2,10=2,96=-1/1;
 99/4=180224,5=1,9=1/99;
 Leave Link    1 at Mon Mar 28 14:05:23 2022, MaxMem=           0 cpu:               2.2 elap:               0.1
 (Enter /nopt/nrel/apps/gaussian/g16C_1/g16/l101.exe)
 ----
 test
 ----
 Symbolic Z-matrix:
 Charge =  0 Multiplicity = 3
 H                     0.        0.        0. 
 Li                    0.        0.        3.5 
 
 ITRead=  0  0
 MicOpt= -1 -1
 NAtoms=      2 NQM=        2 NQMF=       0 NMMI=      0 NMMIF=      0
                NMic=       0 NMicF=      0.
                    Isotopes and Nuclear Properties:
 (Nuclear quadrupole moments (NQMom) in fm**2, nuclear magnetic moments (NMagM)
  in nuclear magnetons)

  Atom         1           2
 IAtWgt=           1           7
 AtmWgt=   1.0078250   7.0160045
 NucSpn=           1           3
 AtZEff=  -0.0000000  -0.0000000
 NQMom=    0.0000000  -4.0100000
 NMagM=    2.7928460   3.2564240
 AtZNuc=   1.0000000   3.0000000
 Leave Link  101 at Mon Mar 28 14:05:24 2022, MaxMem=  9663676416 cpu:               2.9 elap:               0.1
 (Enter /nopt/nrel/apps/gaussian/g16C_1/g16/l202.exe)
                          Input orientation:                          
 ---------------------------------------------------------------------
 Center     Atomic      Atomic             Coordinates (Angstroms)
 Number     Number       Type             X           Y           Z
 ---------------------------------------------------------------------
      1          1           0        0.000000    0.000000    0.000000
      2          3           0        0.000000    0.000000    3.500000
 ---------------------------------------------------------------------
 Stoichiometry    HLi(3)
 Framework group  C*V[C*(HLi)]
 Deg. of freedom     1
 Full point group                 C*V     NOp   4
 Largest Abelian subgroup         C2V     NOp   4
 Largest concise Abelian subgroup C1      NOp   1
                         Standard orientation:                         
 ---------------------------------------------------------------------
 Center     Atomic      Atomic             Coordinates (Angstroms)
 Number     Number       Type             X           Y           Z
 ---------------------------------------------------------------------
      1          1           0        0.000000    0.000000   -2.625000
      2          3           0        0.000000    0.000000    0.875000
 ---------------------------------------------------------------------
 Rotational constants (GHZ):           0.0000000          46.8152991          46.8152991
 Leave Link  202 at Mon Mar 28 14:05:24 2022, MaxMem=  9663676416 cpu:               0.9 elap:               0.1
 (Enter /nopt/nrel/apps/gaussian/g16C_1/g16/l301.exe)
 General basis read from cards:  (5D, 7F)
                         Coordinates in L301:                         
 ---------------------------------------------------------------------
 Center     Atomic      Atomic             Coordinates (Angstroms)
 Number     Number       Type             X           Y           Z
 ---------------------------------------------------------------------
      1          1           0        0.000000    0.000000   -2.625000
      2          3           0        0.000000    0.000000    0.875000
 ---------------------------------------------------------------------
 Centers:       1
 STO-3G
 ****
 Centers:       2
 3-21G
 ****
 FixB: optimizing general contractions.
 Ernie: Thresh=  0.10000D-02 Tol=  0.10000D-05 Strict=F.
 IA=     1 ShT= 0 ShC= 0 NL=   1 NS=   0.
 IA=     1 L=0 SC=0 ISt=    0 NBk=    0 NP=    0 IndPr=    0.
 IA=     2 ShT= 0 ShC= 0 NL=   1 NS=   0.
 IA=     2 L=0 SC=0 ISt=    0 NBk=    0 NP=    0 IndPr=    0.
 IA=     2 ShT= 1 ShC= 0 NL=   2 NS=   1.
 IA=     2 L=1 SC=0 ISt=    0 NBk=    0 NP=    0 IndPr=    0.
 LdAtmC:  AtmChg=     1.000000     3.000000
 AtZEff=     -1.0000000     -1.3500000
 NEqShl: 
              1            2            3            4
     1            1            1            1            1
     2            2            2            2            2
     3            3            3            3            3
     4            4            4            4            4
 NEqBas: 
              1            2            3            4
     1            1            1            1            1
     2            2            2            2            2
     3            3            3            3            3
     4            4           -4           -4            4
     5            5           -5            5           -5
     6            6            6            6            6
     7            7            7            7            7
     8            8           -8           -8            8
     9            9           -9            9           -9
    10           10           10           10           10
 There are     6 symmetry adapted cartesian basis functions of A1  symmetry.
   1         1   1   1   1
   2         2   2   2   2
   3         3   3   3   3
   4         6   6   6   6
   5         7   7   7   7
   6        10  10  10  10
 There are     0 symmetry adapted cartesian basis functions of A2  symmetry.
 There are     2 symmetry adapted cartesian basis functions of B1  symmetry.
   7         4   4   4   4
   8         8   8   8   8
 There are     2 symmetry adapted cartesian basis functions of B2  symmetry.
   9         5   5   5   5
  10         9   9   9   9
 Order= 1 2 4 3
 Reordered character table:
              1            2            3            4            5
     1            1            1            1            1            1
     2            2            1            1           -1           -1
     3            4            1           -1           -1            1
     4            3            1           -1            1           -1
 NEqShl: 
              1            2            3            4
     1            1            1            1            1
     2            2            2            2            2
     3            3            3            3            3
     4            4            4            4            4
 NEqBas: 
              1            2            3            4
     1            1            1            1            1
     2            2            2            2            2
     3            3            3            3            3
     4            4           -4           -4            4
     5            5           -5            5           -5
     6            6            6            6            6
     7            7            7            7            7
     8            8           -8           -8            8
     9            9           -9            9           -9
    10           10           10           10           10
 There are     6 symmetry adapted basis functions of A1  symmetry.
   1         1   1   1   1
   2         2   2   2   2
   3         3   3   3   3
   4         6   6   6   6
   5         7   7   7   7
   6        10  10  10  10
 There are     0 symmetry adapted basis functions of A2  symmetry.
 There are     2 symmetry adapted basis functions of B1  symmetry.
   7         4   4   4   4
   8         8   8   8   8
 There are     2 symmetry adapted basis functions of B2  symmetry.
   9         5   5   5   5
  10         9   9   9   9
 Order= 1 2 4 3
 Reordered character table:
              1            2            3            4            5
     1            1            1            1            1            1
     2            2            1            1           -1           -1
     3            4            1           -1           -1            1
     4            3            1           -1            1           -1
    10 basis functions,    18 primitive gaussians,    10 cartesian basis functions
     3 alpha electrons        1 beta electrons
       nuclear repulsion energy         0.4535804665 Hartrees.
 IS=     1 IAt=     1 ISR=     1 T=0 IP=      1 IndIP=      1 IndIPD=      0 C=  2.769344D-01  0.000000D+00                             NZ=T
 IS=     1 IAt=     1 ISR=     1 T=0 IP=      2 IndIP=      2 IndIPD=      1 C=  2.678389D-01  0.000000D+00                             NZ=T
 IS=     1 IAt=     1 ISR=     1 T=0 IP=      3 IndIP=      3 IndIPD=      2 C=  8.347367D-02  0.000000D+00                             NZ=T
 IS=     2 IAt=     2 ISR=     1 T=0 IP=      1 IndIP=      4 IndIPD=      0 C=  7.424571D-01  0.000000D+00                             NZ=T
 IS=     2 IAt=     2 ISR=     1 T=0 IP=      2 IndIP=      5 IndIPD=      1 C=  9.736824D-01  0.000000D+00                             NZ=T
 IS=     2 IAt=     2 ISR=     1 T=0 IP=      3 IndIP=      6 IndIPD=      2 C=  5.265692D-01  0.000000D+00                             NZ=T
 IS=     3 IAt=     2 ISR=     2 T=1 IP=      1 IndIP=      7 IndIPD=      0 C= -1.181663D-01  1.066435D-01                             NZ=T
 IS=     3 IAt=     2 ISR=     2 T=1 IP=      2 IndIP=      8 IndIPD=      1 C=  1.473557D-01  7.547122D-02                             NZ=T
 IS=     4 IAt=     2 ISR=     3 T=1 IP=      1 IndIP=      9 IndIPD=      0 C=  4.951993D-02  1.673876D-02                             NZ=T
 IExCor=    0 DFT=F Ex=HF Corr=None ExCW=0 ScaHFX=  1.000000
 ScaDFX=  1.000000  1.000000  1.000000  1.000000 ScalE2=  1.000000  1.000000
 IRadAn=      5 IRanWt=     -1 IRanGd=            0 ICorTp=0 IEmpDi=  4
 NAtoms=    2 NActive=    2 NUniq=    2 SFac= 1.00D+00 NAtFMM=   60 NAOKFM=F Big=F
 Integral buffers will be    131072 words long.
 Raffenetti 2 integral format.
 Two-electron integral symmetry is turned on.
 Leave Link  301 at Mon Mar 28 14:05:24 2022, MaxMem=  9663676416 cpu:               2.2 elap:               0.1
 (Enter /nopt/nrel/apps/gaussian/g16C_1/g16/l302.exe)
 NPDir=0 NMtPBC=     1 NCelOv=     1 NCel=       1 NClECP=     1 NCelD=      1
         NCelK=      1 NCelE2=     1 NClLst=     1 CellRange=     0.0.
 One-electron integrals computed using PRISM.
 One-electron integral symmetry used in STVInt
 Entering OneElI...
 Calculate overlap and kinetic energy integrals
    NBasis =  10  MinDer = 0  MaxDer = 0
 Requested accuracy = 0.1000D-12
 Symmetry will be used
 PrmmSu-InSpLW:  IPartL=    0 NPrtUS=   36 NPrtUL=    1 DoSpLW=F IThBeg=    0 IThEnd=   35 NThAct=   36.
 PrSmSu:  IncTry=   512 NBBP=             10 NTPThr=   100 NPartT=   36 Incr=           1 LDynOK=F GPUOK=F.
 PrsmSu:  NPrtUS=  36 ThrOK=T IAlg=1 LenDen=           0 ISkipM=0 DoSpLW=F IThBeg=    0 IThEnd=   35.
 Prism:   IPart=     0 DynPar=F LinDyn=F Incr=           1.
 PRISM was handed   268434316 working-precision words and    10 shell-pairs
 PRISM was handed   268434316 working-precision words and    10 shell-pairs
 PRISM was handed   268434316 working-precision words and    10 shell-pairs
 PRISM was handed   268434316 working-precision words and    10 shell-pairs
 PRISM was handed   268434316 working-precision words and    10 shell-pairs
 PRISM was handed   268434316 working-precision words and    10 shell-pairs
 PRISM was handed   268434316 working-precision words and    10 shell-pairs
 PRISM was handed   268434316 working-precision words and    10 shell-pairs
 PRISM was handed   268434316 working-precision words and    10 shell-pairs
 PRISM was handed   268434316 working-precision words and    10 shell-pairs
 IPart= 24 NShTot=           0 NBatch=           0 AvBLen=         0.0
 IPart=  8 NShTot=           0 NBatch=           0 AvBLen=         0.0
 IPart= 32 NShTot=           0 NBatch=           0 AvBLen=         0.0
 IPart= 27 NShTot=           0 NBatch=           0 AvBLen=         0.0
 IPart= 16 NShTot=           0 NBatch=           0 AvBLen=         0.0
 IPart=  5 NShTot=           0 NBatch=           0 AvBLen=         0.0
 IPart= 20 NShTot=           0 NBatch=           0 AvBLen=         0.0
 IPart= 30 NShTot=           0 NBatch=           0 AvBLen=         0.0
 PRISM was handed   268434316 working-precision words and    10 shell-pairs
 PRISM was handed   268434316 working-precision words and    10 shell-pairs
 PRISM was handed   268434316 working-precision words and    10 shell-pairs
 IPart= 34 NShTot=           0 NBatch=           0 AvBLen=         0.0
 PRISM was handed   268434316 working-precision words and    10 shell-pairs
 PRISM was handed   268434316 working-precision words and    10 shell-pairs
 IPart= 22 NShTot=           0 NBatch=           0 AvBLen=         0.0
 IPart= 23 NShTot=           0 NBatch=           0 AvBLen=         0.0
 IPart= 17 NShTot=           0 NBatch=           0 AvBLen=         0.0
 PRISM was handed   268434316 working-precision words and    10 shell-pairs
 PRISM was handed   268434316 working-precision words and    10 shell-pairs
 IPart=  3 NShTot=           0 NBatch=           0 AvBLen=         0.0
 IPart= 28 NShTot=           0 NBatch=           0 AvBLen=         0.0
 PRISM was handed   268434316 working-precision words and    10 shell-pairs
 IPart=  4 NShTot=           0 NBatch=           0 AvBLen=         0.0
 IPart= 35 NShTot=           0 NBatch=           0 AvBLen=         0.0
 PRISM was handed   268434316 working-precision words and    10 shell-pairs
 PRISM was handed   268434316 working-precision words and    10 shell-pairs
 PRISM was handed   268434316 working-precision words and    10 shell-pairs
 IPart= 12 NShTot=           0 NBatch=           0 AvBLen=         0.0
 IPart= 21 NShTot=           0 NBatch=           0 AvBLen=         0.0
 PRISM was handed   268434316 working-precision words and    10 shell-pairs
 PRISM was handed   268434316 working-precision words and    10 shell-pairs
 IPart=  1 NShTot=           3 NBatch=           3 AvBLen=         1.0
 PRISM was handed   268434316 working-precision words and    10 shell-pairs
 PRISM was handed   268434316 working-precision words and    10 shell-pairs
 PRISM was handed   268434316 working-precision words and    10 shell-pairs
 IPart= 25 NShTot=           0 NBatch=           0 AvBLen=         0.0
 PRISM was handed   268434316 working-precision words and    10 shell-pairs
 PRISM was handed   268434316 working-precision words and    10 shell-pairs
 PRISM was handed   268434316 working-precision words and    10 shell-pairs
 PRISM was handed   268434316 working-precision words and    10 shell-pairs
 IPart= 31 NShTot=           0 NBatch=           0 AvBLen=         0.0
 IPart= 33 NShTot=           0 NBatch=           0 AvBLen=         0.0
 IPart= 19 NShTot=           0 NBatch=           0 AvBLen=         0.0
 IPart= 15 NShTot=           0 NBatch=           0 AvBLen=         0.0
 IPart=  7 NShTot=           0 NBatch=           0 AvBLen=         0.0
 IPart=  2 NShTot=           0 NBatch=           0 AvBLen=         0.0
 PRISM was handed   268434316 working-precision words and    10 shell-pairs
 PRISM was handed   268434316 working-precision words and    10 shell-pairs
 IPart= 14 NShTot=           0 NBatch=           0 AvBLen=         0.0
 IPart= 26 NShTot=           0 NBatch=           0 AvBLen=         0.0
 PRISM was handed   268434316 working-precision words and    10 shell-pairs
 IPart= 10 NShTot=           0 NBatch=           0 AvBLen=         0.0
 PRISM was handed   268434316 working-precision words and    10 shell-pairs
 IPart=  9 NShTot=           0 NBatch=           0 AvBLen=         0.0
 IPart= 18 NShTot=           0 NBatch=           0 AvBLen=         0.0
 PRISM was handed   268434316 working-precision words and    10 shell-pairs
 PRISM was handed   268434316 working-precision words and    10 shell-pairs
 IPart=  0 NShTot=           7 NBatch=           7 AvBLen=         1.0
 IPart=  6 NShTot=           0 NBatch=           0 AvBLen=         0.0
 IPart= 29 NShTot=           0 NBatch=           0 AvBLen=         0.0
 IPart= 11 NShTot=           0 NBatch=           0 AvBLen=         0.0
 IPart= 13 NShTot=           0 NBatch=           0 AvBLen=         0.0
 PrSmSu:  NxtVal=             37.
 *** Overlap *** 
                1             2             3             4             5 
      1  0.100000D+01
      2  0.303288D-03  0.100000D+01
      3  0.376423D-01  0.177215D+00  0.100000D+01
      4  0.000000D+00  0.000000D+00  0.000000D+00  0.100000D+01
      5  0.000000D+00  0.000000D+00  0.000000D+00  0.000000D+00  0.100000D+01
      6 -0.872074D-01  0.000000D+00  0.000000D+00  0.000000D+00  0.000000D+00
      7  0.135986D+00  0.140674D+00  0.782781D+00  0.000000D+00  0.000000D+00
      8  0.000000D+00  0.000000D+00  0.000000D+00  0.588593D+00  0.000000D+00
      9  0.000000D+00  0.000000D+00  0.000000D+00  0.000000D+00  0.588593D+00
     10 -0.270654D+00  0.000000D+00  0.000000D+00  0.000000D+00  0.000000D+00
                6             7             8             9            10 
      6  0.100000D+01
      7  0.000000D+00  0.100000D+01
      8  0.000000D+00  0.000000D+00  0.100000D+01
      9  0.000000D+00  0.000000D+00  0.000000D+00  0.100000D+01
     10  0.588593D+00  0.000000D+00  0.000000D+00  0.000000D+00  0.100000D+01
 *** Kinetic Energy *** 
                1             2             3             4             5 
      1  0.760032D+00
      2 -0.448438D-03  0.365490D+01
      3 -0.793111D-02 -0.135538D+00  0.159492D+00
      4  0.000000D+00  0.000000D+00  0.000000D+00  0.307817D+00
      5  0.000000D+00  0.000000D+00  0.000000D+00  0.000000D+00  0.307817D+00
      6  0.845003D-02  0.000000D+00  0.000000D+00  0.000000D+00  0.000000D+00
      7  0.265693D-02  0.117904D-01  0.513380D-01  0.000000D+00  0.000000D+00
      8  0.000000D+00  0.000000D+00  0.000000D+00  0.661980D-01  0.000000D+00
      9  0.000000D+00  0.000000D+00  0.000000D+00  0.000000D+00  0.661980D-01
     10 -0.190630D-01  0.000000D+00  0.000000D+00  0.000000D+00  0.000000D+00
                6             7             8             9            10 
      6  0.307817D+00
      7  0.000000D+00  0.428467D-01
      8  0.000000D+00  0.000000D+00  0.714113D-01
      9  0.000000D+00  0.000000D+00  0.000000D+00  0.714113D-01
     10  0.661980D-01  0.000000D+00  0.000000D+00  0.000000D+00  0.714113D-01
 Entering OneElI...
 Calculate potential energy integrals
    NBasis =  10  MinDer = 0  MaxDer = 0
 Requested accuracy = 0.1000D-12
 Symmetry will be used
 PrmmSu-InSpLW:  IPartL=    0 NPrtUS=   36 NPrtUL=    1 DoSpLW=F IThBeg=    0 IThEnd=   35 NThAct=   36.
 PrSmSu:  IncTry=   512 NBBP=             20 NTPThr=   100 NPartT=   36 Incr=           1 LDynOK=F GPUOK=F.
 PrsmSu:  NPrtUS=  36 ThrOK=T IAlg=1 LenDen=           0 ISkipM=0 DoSpLW=F IThBeg=    0 IThEnd=   35.
 Prism:   IPart=     0 DynPar=F LinDyn=F Incr=           1.
 PRISM was handed   268434366 working-precision words and    10 shell-pairs
 PRISM was handed   268434366 working-precision words and    10 shell-pairs
 PRISM was handed   268434366 working-precision words and    10 shell-pairs
 PRISM was handed   268434366 working-precision words and    10 shell-pairs
 PRISM was handed   268434366 working-precision words and    10 shell-pairs
 PRISM was handed   268434366 working-precision words and    10 shell-pairs
 PRISM was handed   268434366 working-precision words and    10 shell-pairs
 PRISM was handed   268434366 working-precision words and    10 shell-pairs
 PRISM was handed   268434366 working-precision words and    10 shell-pairs
 PRISM was handed   268434366 working-precision words and    10 shell-pairs
 PRISM was handed   268434366 working-precision words and    10 shell-pairs
 PRISM was handed   268434366 working-precision words and    10 shell-pairs
 PRISM was handed   268434366 working-precision words and    10 shell-pairs
 PRISM was handed   268434366 working-precision words and    10 shell-pairs
 PRISM was handed   268434366 working-precision words and    10 shell-pairs
 PRISM was handed   268434366 working-precision words and    10 shell-pairs
 PRISM was handed   268434366 working-precision words and    10 shell-pairs
 PRISM was handed   268434366 working-precision words and    10 shell-pairs
 PRISM was handed   268434366 working-precision words and    10 shell-pairs
 PRISM was handed   268434366 working-precision words and    10 shell-pairs
 PRISM was handed   268434366 working-precision words and    10 shell-pairs
 PRISM was handed   268434366 working-precision words and    10 shell-pairs
 PRISM was handed   268434366 working-precision words and    10 shell-pairs
 PRISM was handed   268434366 working-precision words and    10 shell-pairs
 PRISM was handed   268434366 working-precision words and    10 shell-pairs
 PRISM was handed   268434366 working-precision words and    10 shell-pairs
 PRISM was handed   268434366 working-precision words and    10 shell-pairs
 PRISM was handed   268434366 working-precision words and    10 shell-pairs
 PRISM was handed   268434366 working-precision words and    10 shell-pairs
 PRISM was handed   268434366 working-precision words and    10 shell-pairs
 PRISM was handed   268434366 working-precision words and    10 shell-pairs
 PRISM was handed   268434366 working-precision words and    10 shell-pairs
 PRISM was handed   268434366 working-precision words and    10 shell-pairs
 PRISM was handed   268434366 working-precision words and    10 shell-pairs
 PRISM was handed   268434366 working-precision words and    10 shell-pairs
 PRISM was handed   268434366 working-precision words and    10 shell-pairs
 IPart= 16 NShTot=           0 NBatch=           0 AvBLen=         0.0
 IPart= 32 NShTot=           0 NBatch=           0 AvBLen=         0.0
 IPart= 11 NShTot=           0 NBatch=           0 AvBLen=         0.0
 IPart= 31 NShTot=           0 NBatch=           0 AvBLen=         0.0
 IPart= 35 NShTot=           0 NBatch=           0 AvBLen=         0.0
 IPart=  2 NShTot=           0 NBatch=           0 AvBLen=         0.0
 IPart=  7 NShTot=           0 NBatch=           0 AvBLen=         0.0
 IPart= 27 NShTot=           0 NBatch=           0 AvBLen=         0.0
 IPart= 28 NShTot=           0 NBatch=           0 AvBLen=         0.0
 IPart= 18 NShTot=           0 NBatch=           0 AvBLen=         0.0
 IPart= 12 NShTot=           0 NBatch=           0 AvBLen=         0.0
 IPart=  8 NShTot=           0 NBatch=           0 AvBLen=         0.0
 IPart= 20 NShTot=           0 NBatch=           0 AvBLen=         0.0
 IPart= 29 NShTot=           0 NBatch=           0 AvBLen=         0.0
 IPart=  5 NShTot=           0 NBatch=           0 AvBLen=         0.0
 IPart= 24 NShTot=           0 NBatch=           0 AvBLen=         0.0
 IPart= 26 NShTot=           0 NBatch=           0 AvBLen=         0.0
 IPart= 14 NShTot=           0 NBatch=           0 AvBLen=         0.0
 IPart= 23 NShTot=           0 NBatch=           0 AvBLen=         0.0
 IPart= 34 NShTot=           0 NBatch=           0 AvBLen=         0.0
 IPart= 22 NShTot=           0 NBatch=           0 AvBLen=         0.0
 IPart=  9 NShTot=           0 NBatch=           0 AvBLen=         0.0
 IPart= 15 NShTot=           0 NBatch=           0 AvBLen=         0.0
 IPart=  6 NShTot=           0 NBatch=           0 AvBLen=         0.0
 IPart=  1 NShTot=           6 NBatch=           3 AvBLen=         2.0
 IPart= 17 NShTot=           0 NBatch=           0 AvBLen=         0.0
 IPart= 10 NShTot=           0 NBatch=           0 AvBLen=         0.0
 IPart= 19 NShTot=           0 NBatch=           0 AvBLen=         0.0
 IPart= 21 NShTot=           0 NBatch=           0 AvBLen=         0.0
 IPart= 33 NShTot=           0 NBatch=           0 AvBLen=         0.0
 IPart= 13 NShTot=           0 NBatch=           0 AvBLen=         0.0
 IPart=  0 NShTot=          14 NBatch=           7 AvBLen=         2.0
 IPart=  3 NShTot=           0 NBatch=           0 AvBLen=         0.0
 IPart=  4 NShTot=           0 NBatch=           0 AvBLen=         0.0
 IPart= 30 NShTot=           0 NBatch=           0 AvBLen=         0.0
 IPart= 25 NShTot=           0 NBatch=           0 AvBLen=         0.0
 PrSmSu:  NxtVal=             37.
 ***** Potential Energy ***** 
                1             2             3             4             5 
      1  0.168019D+01
      2  0.106366D-02  0.823276D+01
      3  0.434389D-01  0.656487D+00  0.137439D+01
      4  0.000000D+00  0.000000D+00  0.000000D+00  0.130564D+01
      5  0.000000D+00  0.000000D+00  0.000000D+00  0.000000D+00  0.130564D+01
      6 -0.101898D+00 -0.270808D-02 -0.380507D-01  0.000000D+00  0.000000D+00
      7  0.157245D+00  0.635467D+00  0.975750D+00  0.000000D+00  0.000000D+00
      8  0.000000D+00  0.000000D+00  0.000000D+00  0.579914D+00  0.000000D+00
      9  0.000000D+00  0.000000D+00  0.000000D+00  0.000000D+00  0.579914D+00
     10 -0.314081D+00 -0.417303D-03 -0.246032D-01  0.000000D+00  0.000000D+00
                6             7             8             9            10 
      6  0.132805D+01
      7 -0.394383D-01  0.956462D+00
      8  0.000000D+00  0.000000D+00  0.661712D+00
      9  0.000000D+00  0.000000D+00  0.000000D+00  0.661712D+00
     10  0.601645D+00 -0.560007D-01  0.000000D+00  0.000000D+00  0.714700D+00
 ****** Core Hamiltonian ****** 
                1             2             3             4             5 
      1 -0.920162D+00
      2 -0.151210D-02 -0.457786D+01
      3 -0.513700D-01 -0.792024D+00 -0.121490D+01
      4  0.000000D+00  0.000000D+00  0.000000D+00 -0.997825D+00
      5  0.000000D+00  0.000000D+00  0.000000D+00  0.000000D+00 -0.997825D+00
      6  0.110348D+00  0.270808D-02  0.380507D-01  0.000000D+00  0.000000D+00
      7 -0.154588D+00 -0.623677D+00 -0.924412D+00  0.000000D+00  0.000000D+00
      8  0.000000D+00  0.000000D+00  0.000000D+00 -0.513716D+00  0.000000D+00
      9  0.000000D+00  0.000000D+00  0.000000D+00  0.000000D+00 -0.513716D+00
     10  0.295017D+00  0.417303D-03  0.246032D-01  0.000000D+00  0.000000D+00
                6             7             8             9            10 
      6 -0.102023D+01
      7  0.394383D-01 -0.913615D+00
      8  0.000000D+00  0.000000D+00 -0.590300D+00
      9  0.000000D+00  0.000000D+00  0.000000D+00 -0.590300D+00
     10 -0.535447D+00  0.560007D-01  0.000000D+00  0.000000D+00 -0.643289D+00
 SVDSVc IOpt=   1 NormSV=T IR=1
 SVDSVc V= 1.87D+00 1.68D+00 9.65D-01 9.03D-01 3.82D-01 2.09D-01
 SVDSVc IOpt=   1 NormSV=T IR=3
 SVDSVc V= 1.59D+00 4.11D-01
 SVDSVc IOpt=   1 NormSV=T IR=4
 SVDSVc V= 1.59D+00 4.11D-01
 TstOVc:  Largest diagonal error= 1.44D-15 IB=1 I=    6.
 TstOVc:  Largest same sym error= 5.41D-16 IB=1 I=    6 J=    5.
 TstOVc:  Largest diff sym error= 0.00D+00 IB=0 JB=0 I=    0 J=    0.
 Orthogonalized basis functions: 
                 1             2             3             4             5 
      1   0.135670D+00 -0.243386D+00 -0.569890D+00  0.740480D+00  0.350246D+00
      2   0.178100D+00  0.547190D-01  0.785269D+00  0.613263D+00  0.181124D-01
      3   0.482905D+00  0.124305D+00 -0.354881D-01 -0.220600D+00 -0.125989D+00
      4   0.000000D+00  0.000000D+00  0.000000D+00  0.000000D+00  0.000000D+00
      5   0.000000D+00  0.000000D+00  0.000000D+00  0.000000D+00  0.000000D+00
      6  -0.791287D-01  0.485991D+00 -0.257956D+00  0.331418D+00 -0.105804D+01
      7   0.487052D+00  0.106515D+00 -0.148791D+00 -0.147076D+00  0.784496D-01
      8   0.000000D+00  0.000000D+00  0.000000D+00  0.000000D+00  0.000000D+00
      9   0.000000D+00  0.000000D+00  0.000000D+00  0.000000D+00  0.000000D+00
     10  -0.962454D-01  0.521324D+00 -0.691483D-01  0.550276D-01  0.116196D+01
                 6             7             8             9            10 
      1  -0.229545D+00  0.000000D+00  0.000000D+00  0.000000D+00  0.000000D+00
      2   0.686263D-01  0.000000D+00  0.000000D+00  0.000000D+00  0.000000D+00
      3  -0.152771D+01  0.000000D+00  0.000000D+00  0.000000D+00  0.000000D+00
      4   0.000000D+00  0.561020D+00  0.110243D+01  0.000000D+00  0.000000D+00
      5   0.000000D+00  0.000000D+00  0.000000D+00  0.561020D+00  0.110243D+01
      6   0.742700D-01  0.000000D+00  0.000000D+00  0.000000D+00  0.000000D+00
      7   0.153917D+01  0.000000D+00  0.000000D+00  0.000000D+00  0.000000D+00
      8   0.000000D+00  0.561020D+00 -0.110243D+01  0.000000D+00  0.000000D+00
      9   0.000000D+00  0.000000D+00  0.000000D+00  0.561020D+00 -0.110243D+01
     10  -0.133815D+00  0.000000D+00  0.000000D+00  0.000000D+00  0.000000D+00
 NBasis=    10 RedAO= T EigKep=  2.09D-01  NBF=     6     0     2     2
 NBsUse=    10 1.00D-06 EigRej= -1.00D+00 NBFU=     6     0     2     2
 Leave Link  302 at Mon Mar 28 14:05:24 2022, MaxMem=  9663676416 cpu:               4.2 elap:               0.2
 (Enter /nopt/nrel/apps/gaussian/g16C_1/g16/l303.exe)
 DipDrv will not compute anything.
 Fermi contact integrals: 
                 1             2 
      1   0.628247D+00  0.517081D-04
      2   0.000000D+00  0.224271D+01
      3   0.168144D-02  0.291894D-01
      4   0.000000D+00  0.000000D+00
      5   0.000000D+00  0.000000D+00
      6  -0.569589D-02  0.000000D+00
      7   0.141938D-01  0.495199D-01
      8   0.000000D+00  0.000000D+00
      9   0.000000D+00  0.000000D+00
     10  -0.317329D-01  0.000000D+00
 Leave Link  303 at Mon Mar 28 14:05:24 2022, MaxMem=  9663676416 cpu:               0.9 elap:               0.0
 (Enter /nopt/nrel/apps/gaussian/g16C_1/g16/l401.exe)
 ExpMin= 2.86D-02 ExpMax= 3.68D+01 ExpMxC= 3.68D+01 IAcc=3 IRadAn=         5 AccDes= 0.00D+00
 Harris functional with IExCor=  205 and IRadAn=       5 diagonalized for initial guess.
 HarFok:  IExCor=  205 AccDes= 0.00D+00 IRadAn=         5 IDoV= 1 UseB2=F ITyADJ=14
 ICtDFT=  3500011 ScaDFX=  1.000000  1.000000  1.000000  1.000000
 FoFCou: FMM=F IPFlag=           0 FMFlag=      100000 FMFlg1=           0
         NFxFlg=           0 DoJE=T BraDBF=F KetDBF=T FulRan=T
         wScrn=  0.000000 ICntrl=       500 IOpCl=  0 I1Cent=   200000004 NGrid=           0
         NMat0=    1 NMatS0=      1 NMatT0=    0 NMatD0=    1 NMtDS0=    0 NMtDT0=    0
 Petite list used in FoFCou.
 Harris En= -7.76218280735588    
 JPrj=0 DoOrth=F DoCkMO=F.
 Initial guess orbital symmetries:
 Alpha Orbitals:
       Occupied  (SG) (SG) (SG)
       Virtual   (PI) (PI) (SG) (PI) (PI) (SG) (SG)
 Beta  Orbitals:
       Occupied  (SG)
       Virtual   (SG) (SG) (PI) (PI) (SG) (PI) (PI) (SG) (SG)
 The electronic state of the initial guess is 3-SG.
 Initial guess <Sx>= 0.0000 <Sy>= 0.0000 <Sz>= 1.0000 <S**2>= 2.0000 S= 1.0000
 Leave Link  401 at Mon Mar 28 14:05:24 2022, MaxMem=  9663676416 cpu:               4.9 elap:               0.2
 (Enter /nopt/nrel/apps/gaussian/g16C_1/g16/l502.exe)
 Keep R1 and R2 ints in memory in symmetry-blocked form, NReq=7206144.
 FoFCou: FMM=F IPFlag=           0 FMFlag=           0 FMFlg1=           0
         NFxFlg=           0 DoJE=F BraDBF=F KetDBF=F FulRan=T
         wScrn=  0.000000 ICntrl=       600 IOpCl=  0 I1Cent=           0 NGrid=           0
         NMat0=    1 NMatS0=     55 NMatT0=    0 NMatD0=    1 NMtDS0=    0 NMtDT0=    0
 Petite list used in FoFCou.
 UHF open shell SCF:
 Using DIIS extrapolation, IDIIS=  1040.
 NGot=  9663676416 LenX=  9663672766 LenY=  9663671884
 Requested convergence on RMS density matrix=1.00D-08 within 128 cycles.
 Requested convergence on MAX density matrix=1.00D-06.
 Requested convergence on             energy=1.00D-06.
 No special actions if energy rises.

 Cycle   1  Pass 1  IDiag  1:
 E= -7.83462297991830    
 DIIS: error= 2.39D-02 at cycle   1 NSaved=   1.
 NSaved= 1 IEnMin= 1 EnMin= -7.83462297991830     IErMin= 1 ErrMin= 2.39D-02
 ErrMax= 2.39D-02  0.00D+00 EMaxC= 1.00D-01 BMatC= 1.83D-02 BMatP= 1.83D-02
 IDIUse=3 WtCom= 7.61D-01 WtEn= 2.39D-01
 Coeff-Com:  0.100D+01
 Coeff-En:   0.100D+01
 Coeff:      0.100D+01
 Gap=     0.228 Goal=   None    Shift=    0.000
 Gap=     2.524 Goal=   None    Shift=    0.000
 GapD=    0.228 DampG=1.000 DampE=0.500 DampFc=0.5000 IDamp=-1.
 Damping current iteration by 5.00D-01
 RMSDP=1.52D-02 MaxDP=1.30D-01              OVMax= 1.66D-02

 Cycle   2  Pass 1  IDiag  1:
 E= -7.84112562172401     Delta-E=       -0.006502641806 Rises=F Damp=T
 DIIS: error= 1.59D-02 at cycle   2 NSaved=   2.
 NSaved= 2 IEnMin= 2 EnMin= -7.84112562172401     IErMin= 2 ErrMin= 1.59D-02
 ErrMax= 1.59D-02  0.00D+00 EMaxC= 1.00D-01 BMatC= 7.04D-03 BMatP= 1.83D-02
 IDIUse=3 WtCom= 8.41D-01 WtEn= 1.59D-01
 Coeff-Com: -0.157D+01 0.257D+01
 Coeff-En:   0.000D+00 0.100D+01
 Coeff:     -0.132D+01 0.232D+01
 Gap=     0.216 Goal=   None    Shift=    0.000
 Gap=     2.457 Goal=   None    Shift=    0.000
 RMSDP=1.29D-02 MaxDP=1.06D-01 DE=-6.50D-03 OVMax= 3.01D-03

 Cycle   3  Pass 1  IDiag  1:
 E= -7.85074461912154     Delta-E=       -0.009618997398 Rises=F Damp=F
 DIIS: error= 1.80D-03 at cycle   3 NSaved=   3.
 NSaved= 3 IEnMin= 3 EnMin= -7.85074461912154     IErMin= 3 ErrMin= 1.80D-03
 ErrMax= 1.80D-03  0.00D+00 EMaxC= 1.00D-01 BMatC= 5.28D-05 BMatP= 7.04D-03
 IDIUse=3 WtCom= 9.82D-01 WtEn= 1.80D-02
 Coeff-Com:  0.549D+00-0.977D+00 0.143D+01
 Coeff-En:   0.000D+00 0.000D+00 0.100D+01
 Coeff:      0.539D+00-0.959D+00 0.142D+01
 Gap=     0.217 Goal=   None    Shift=    0.000
 Gap=     2.455 Goal=   None    Shift=    0.000
 RMSDP=1.62D-03 MaxDP=1.05D-02 DE=-9.62D-03 OVMax= 9.49D-05

 Cycle   4  Pass 1  IDiag  1:
 E= -7.85082209859365     Delta-E=       -0.000077479472 Rises=F Damp=F
 DIIS: error= 1.98D-04 at cycle   4 NSaved=   4.
 NSaved= 4 IEnMin= 4 EnMin= -7.85082209859365     IErMin= 4 ErrMin= 1.98D-04
 ErrMax= 1.98D-04  0.00D+00 EMaxC= 1.00D-01 BMatC= 7.59D-07 BMatP= 5.28D-05
 IDIUse=3 WtCom= 9.98D-01 WtEn= 1.98D-03
 Coeff-Com: -0.249D+00 0.447D+00-0.696D+00 0.150D+01
 Coeff-En:   0.000D+00 0.000D+00 0.000D+00 0.100D+01
 Coeff:     -0.249D+00 0.446D+00-0.695D+00 0.150D+01
 Gap=     0.217 Goal=   None    Shift=    0.000
 Gap=     2.455 Goal=   None    Shift=    0.000
 RMSDP=3.05D-04 MaxDP=1.97D-03 DE=-7.75D-05 OVMax= 6.64D-05

 Cycle   5  Pass 1  IDiag  1:
 E= -7.85082513559765     Delta-E=       -0.000003037004 Rises=F Damp=F
 DIIS: error= 1.06D-04 at cycle   5 NSaved=   5.
 NSaved= 5 IEnMin= 5 EnMin= -7.85082513559765     IErMin= 5 ErrMin= 1.06D-04
 ErrMax= 1.06D-04  0.00D+00 EMaxC= 1.00D-01 BMatC= 1.85D-07 BMatP= 7.59D-07
 IDIUse=3 WtCom= 9.99D-01 WtEn= 1.06D-03
 Coeff-Com:  0.175D+00-0.313D+00 0.494D+00-0.148D+01 0.212D+01
 Coeff-En:   0.000D+00 0.000D+00 0.000D+00 0.000D+00 0.100D+01
 Coeff:      0.175D+00-0.313D+00 0.494D+00-0.147D+01 0.212D+01
 Gap=     0.217 Goal=   None    Shift=    0.000
 Gap=     2.454 Goal=   None    Shift=    0.000
 RMSDP=2.16D-04 MaxDP=1.20D-03 DE=-3.04D-06 OVMax= 3.78D-05

 Cycle   6  Pass 1  IDiag  1:
 E= -7.85082612792519     Delta-E=       -0.000000992328 Rises=F Damp=F
 DIIS: error= 2.22D-05 at cycle   6 NSaved=   6.
 NSaved= 6 IEnMin= 6 EnMin= -7.85082612792519     IErMin= 6 ErrMin= 2.22D-05
 ErrMax= 2.22D-05  0.00D+00 EMaxC= 1.00D-01 BMatC= 1.29D-08 BMatP= 1.85D-07
 IDIUse=1 WtCom= 1.00D+00 WtEn= 0.00D+00
 Coeff-Com: -0.954D-01 0.171D+00-0.274D+00 0.930D+00-0.168D+01 0.195D+01
 Coeff:     -0.954D-01 0.171D+00-0.274D+00 0.930D+00-0.168D+01 0.195D+01
 Gap=     0.217 Goal=   None    Shift=    0.000
 Gap=     2.454 Goal=   None    Shift=    0.000
 RMSDP=6.62D-05 MaxDP=4.80D-04 DE=-9.92D-07 OVMax= 1.42D-05

 Cycle   7  Pass 1  IDiag  1:
 E= -7.85082618349033     Delta-E=       -0.000000055565 Rises=F Damp=F
 DIIS: error= 4.57D-06 at cycle   7 NSaved=   7.
 NSaved= 7 IEnMin= 7 EnMin= -7.85082618349033     IErMin= 7 ErrMin= 4.57D-06
 ErrMax= 4.57D-06  0.00D+00 EMaxC= 1.00D-01 BMatC= 4.40D-10 BMatP= 1.29D-08
 IDIUse=1 WtCom= 1.00D+00 WtEn= 0.00D+00
 Coeff-Com:  0.318D-03-0.643D-03 0.169D-02-0.268D-02 0.913D-01-0.238D+00
 Coeff-Com:  0.115D+01
 Coeff:      0.318D-03-0.643D-03 0.169D-02-0.268D-02 0.913D-01-0.238D+00
 Coeff:      0.115D+01
 Gap=     0.217 Goal=   None    Shift=    0.000
 Gap=     2.454 Goal=   None    Shift=    0.000
 RMSDP=1.35D-05 MaxDP=1.02D-04 DE=-5.56D-08 OVMax= 1.36D-06

 Cycle   8  Pass 1  IDiag  1:
 E= -7.85082618535413     Delta-E=       -0.000000001864 Rises=F Damp=F
 DIIS: error= 8.26D-08 at cycle   8 NSaved=   8.
 NSaved= 8 IEnMin= 8 EnMin= -7.85082618535413     IErMin= 8 ErrMin= 8.26D-08
 ErrMax= 8.26D-08  0.00D+00 EMaxC= 1.00D-01 BMatC= 2.05D-13 BMatP= 4.40D-10
 IDIUse=1 WtCom= 1.00D+00 WtEn= 0.00D+00
 Coeff-Com: -0.333D-03 0.614D-03-0.112D-02 0.271D-02-0.246D-01 0.579D-01
 Coeff-Com: -0.268D+00 0.123D+01
 Coeff:     -0.333D-03 0.614D-03-0.112D-02 0.271D-02-0.246D-01 0.579D-01
 Coeff:     -0.268D+00 0.123D+01
 Gap=     0.217 Goal=   None    Shift=    0.000
 Gap=     2.454 Goal=   None    Shift=    0.000
 RMSDP=1.42D-07 MaxDP=6.95D-07 DE=-1.86D-09 OVMax= 2.54D-08

 Cycle   9  Pass 1  IDiag  1:
 E= -7.85082618535436     Delta-E=       -0.000000000000 Rises=F Damp=F
 DIIS: error= 2.61D-08 at cycle   9 NSaved=   9.
 NSaved= 9 IEnMin= 9 EnMin= -7.85082618535436     IErMin= 9 ErrMin= 2.61D-08
 ErrMax= 2.61D-08  0.00D+00 EMaxC= 1.00D-01 BMatC= 1.26D-14 BMatP= 2.05D-13
 IDIUse=1 WtCom= 1.00D+00 WtEn= 0.00D+00
 Coeff-Com: -0.578D-04 0.102D-03-0.145D-03 0.600D-03 0.140D-02-0.489D-02
 Coeff-Com:  0.293D-01-0.263D+00 0.124D+01
 Coeff:     -0.578D-04 0.102D-03-0.145D-03 0.600D-03 0.140D-02-0.489D-02
 Coeff:      0.293D-01-0.263D+00 0.124D+01
 Gap=     0.217 Goal=   None    Shift=    0.000
 Gap=     2.454 Goal=   None    Shift=    0.000
 RMSDP=5.07D-08 MaxDP=2.99D-07 DE=-2.31D-13 OVMax= 8.45D-09

 Cycle  10  Pass 1  IDiag  1:
 E= -7.85082618535441     Delta-E=       -0.000000000000 Rises=F Damp=F
 DIIS: error= 4.71D-09 at cycle  10 NSaved=  10.
 NSaved=10 IEnMin=10 EnMin= -7.85082618535441     IErMin=10 ErrMin= 4.71D-09
 ErrMax= 4.71D-09  0.00D+00 EMaxC= 1.00D-01 BMatC= 4.73D-16 BMatP= 1.26D-14
 IDIUse=1 WtCom= 1.00D+00 WtEn= 0.00D+00
 Coeff-Com: -0.535D-05 0.105D-04-0.249D-04 0.788D-05-0.121D-02 0.307D-02
 Coeff-Com: -0.153D-01 0.123D+00-0.613D+00 0.150D+01
 Coeff:     -0.535D-05 0.105D-04-0.249D-04 0.788D-05-0.121D-02 0.307D-02
 Coeff:     -0.153D-01 0.123D+00-0.613D+00 0.150D+01
 Gap=     0.217 Goal=   None    Shift=    0.000
 Gap=     2.454 Goal=   None    Shift=    0.000
 RMSDP=1.11D-08 MaxDP=6.67D-08 DE=-5.33D-14 OVMax= 1.36D-09

 Cycle  11  Pass 1  IDiag  1:
 E= -7.85082618535441     Delta-E=        0.000000000000 Rises=F Damp=F
 DIIS: error= 4.21D-10 at cycle  11 NSaved=  11.
 NSaved=11 IEnMin=10 EnMin= -7.85082618535441     IErMin=11 ErrMin= 4.21D-10
 ErrMax= 4.21D-10  0.00D+00 EMaxC= 1.00D-01 BMatC= 3.24D-18 BMatP= 4.73D-16
 IDIUse=1 WtCom= 1.00D+00 WtEn= 0.00D+00
 Coeff-Com: -0.964D-07 0.136D-06 0.857D-07 0.403D-05 0.459D-04-0.126D-03
 Coeff-Com:  0.652D-03-0.620D-02 0.319D-01-0.149D+00 0.112D+01
 Coeff:     -0.964D-07 0.136D-06 0.857D-07 0.403D-05 0.459D-04-0.126D-03
 Coeff:      0.652D-03-0.620D-02 0.319D-01-0.149D+00 0.112D+01
 Gap=     0.217 Goal=   None    Shift=    0.000
 Gap=     2.454 Goal=   None    Shift=    0.000
 RMSDP=9.97D-10 MaxDP=6.43D-09 DE= 0.00D+00 OVMax= 1.83D-10

 SCF Done:  E(UHF) =  -7.85082618535     A.U. after   11 cycles
            NFock= 11  Conv=0.10D-08     -V/T= 1.9719
 <Sx>= 0.0000 <Sy>= 0.0000 <Sz>= 1.0000 <S**2>= 2.0000 S= 1.0000
 <L.S>= 0.000000000000E+00
 KE= 8.077514594370D+00 PE=-1.911302243085D+01 EE= 2.731101184624D+00
 Annihilation of the first spin contaminant:
 S**2 before annihilation     2.0000,   after     2.0000
 Leave Link  502 at Mon Mar 28 14:05:24 2022, MaxMem=  9663676416 cpu:               4.4 elap:               0.2
 (Enter /nopt/nrel/apps/gaussian/g16C_1/g16/l801.exe)
 Windowed orbitals will be sorted by symmetry type.
 ExpMin= 2.86D-02 ExpMax= 3.68D+01 ExpMxC= 3.68D+01 IAcc=3 IRadAn=         5 AccDes= 0.00D+00
 HarFok:  IExCor=  205 AccDes= 0.00D+00 IRadAn=         5 IDoV=-2 UseB2=F ITyADJ=14
 ICtDFT= 12500011 ScaDFX=  1.000000  1.000000  1.000000  1.000000
 Largest valence mixing into a core orbital is  5.61D-04
 Largest core mixing into a valence orbital is  3.29D-04
 Range of M.O.s used for correlation:     2    10
 NBasis=    10 NAE=     3 NBE=     1 NFC=     1 NFV=     0
 NROrb=      9 NOA=     2 NOB=     0 NVA=     7 NVB=     9
 Leave Link  801 at Mon Mar 28 14:05:24 2022, MaxMem=  9663676416 cpu:               2.3 elap:               0.1
 (Enter /nopt/nrel/apps/gaussian/g16C_1/g16/l804.exe)
 Open-shell transformation, MDV=  9663676416 ITran=4 ISComp=2.
 Unit  1 TFree=          7989 TCopy=        218228.
 Semi-Direct transformation.
 ModeAB=           2 MOrb=             2 LenV=    9663556303
 LASXX=          158 LTotXX=         158 LenRXX=         158
 LTotAB=         269 MaxLAS=         990 LenRXY=         990
 NonZer=        1206 LenScr=      785920 LnRSAI=           0
 LnScr1=           0 LExtra=      219218 Total=      1006286
 MaxDsk= 34359738368 SrtSym=           F ITran=            4
 DoSDTr:  NPSUse= 36
 JobTyp=1 Pass  1:  I=   1 to   2.
 (rs|ai) integrals will be sorted in core.
 Complete sort for first half transformation.
 First half transformation complete.
 Complete sort for second half transformation.
 Second half transformation complete.
 Spin components of T(2) and E(2):
     alpha-alpha T2 =       0.1573984057D-04 E2=     -0.1480068502D-04
     alpha-beta  T2 =       0.0000000000D+00 E2=      0.0000000000D+00
     beta-beta   T2 =       0.0000000000D+00 E2=      0.0000000000D+00
 ANorm=    0.1000007870D+01
 E2 =    -0.1480068502D-04 EUMP2 =    -0.78508409860394D+01
 Leave Link  804 at Mon Mar 28 14:05:25 2022, MaxMem=  9663676416 cpu:               2.1 elap:               0.1
 (Enter /nopt/nrel/apps/gaussian/g16C_1/g16/l913.exe)
 CIDS:  MDV=  9663676416.
 Frozen-core window:  NFC=   1 NFV=   0.
 IFCWin=0 IBDFC=1 NFBD=     0     0 NFCmp=     0     0 NFFFC=     0     0
 Using original routines for 1st iteration.
 Using DD4UQ or CC4UQ for 2nd and later iterations.
 Keep R2 and R3 ints in memory in symmetry-blocked form, NReq=7208538.
 FoFCou: FMM=F IPFlag=           0 FMFlag=           0 FMFlg1=           0
         NFxFlg=           0 DoJE=F BraDBF=F KetDBF=F FulRan=T
         wScrn=  0.000000 ICntrl=       600 IOpCl=  0 I1Cent=           0 NGrid=           0
         NMat0=    1 NMatS0=     55 NMatT0=    0 NMatD0=    1 NMtDS0=    0 NMtDT0=    0
 Petite list used in FoFCou.
 CIDS: In Core Option IDoMem=           1.
 Coupled Cluster theory with single and double substitutions
 ===========================================================
 Iterations= 200 Convergence= 0.100D-06
 Produce multiple copies of IABC intergrals
 Iteration Nr.   1
 **********************
 DD1Dir will call FoFMem   1 times, MxPair=         2
 NAB=     0 NAA=     1 NBB=     0.
 MP4(R+Q)=  0.23296042D-09
 Maximum subspace dimension=  5
 A-vector RMS=  3.6145237D-04 Max=  7.4308603D-04 conv= 1.00D-05.
 RLE energy=       -0.0000224671
 E3=       -0.50506487D-05        EUMP3=      -0.78508460367D+01
 E4(DQ)=   -0.17302126D-05        UMP4(DQ)=   -0.78508477669D+01
 E4(SDQ)=  -0.17637901D-05        UMP4(SDQ)=  -0.78508478005D+01
 VARIATIONAL ENERGIES WITH THE FIRST-ORDER WAVEFUNCTION:
 DE(Corr)= -0.19851099E-04 E(Corr)=     -7.8508460365    
 NORM(A)=   0.10000182D+01
 Iteration Nr.   2
 **********************
 DD1Dir will call FoFMem   1 times, MxPair=         2
 NAB=     0 NAA=     1 NBB=     0.
 A-vector RMS=  3.4891399D-05 Max=  8.2552463D-05 conv= 1.00D-05.
 RLE energy=       -0.0000225908
 DE(Corr)= -0.22528419E-04 E(CORR)=     -7.8508487138     Delta=-2.68D-06
 NORM(A)=   0.10000185D+01
 Iteration Nr.   3
 **********************
 DD1Dir will call FoFMem   1 times, MxPair=         2
 NAB=     0 NAA=     1 NBB=     0.
 A-vector RMS=  4.8924648D-06 Max=  9.3885382D-06 conv= 1.00D-05.
 RLE energy=       -0.0000225934
 DE(Corr)= -0.22590848E-04 E(CORR)=     -7.8508487762     Delta=-6.24D-08
 NORM(A)=   0.10000185D+01
 CI/CC converged in    3 iterations to DelEn=-6.24D-08 Conv= 1.00D-07 ErrA1= 4.89D-06 Conv= 1.00D-05
 Wavefunction amplitudes converged. E(Corr)=     -7.8508487762    
 Largest amplitude= 3.38D-03
 Discarding MO integrals.
 Leave Link  913 at Mon Mar 28 14:05:25 2022, MaxMem=  9663676416 cpu:               3.5 elap:               0.1
 (Enter /nopt/nrel/apps/gaussian/g16C_1/g16/l601.exe)
 Copying SCF densities to generalized density rwf, IOpCl= 1 IROHF=0.

 **********************************************************************

            Population analysis using the SCF Density.

 **********************************************************************

 Orbital symmetries:
 Alpha Orbitals:
       Occupied  (SG) (SG) (SG)
       Virtual   (PI) (PI) (SG) (SG) (PI) (PI) (SG)
 Beta  Orbitals:
       Occupied  (SG)
       Virtual   (SG) (SG) (PI) (PI) (SG) (PI) (PI) (SG) (SG)
 The electronic state is 3-SG.
 Alpha  occ. eigenvalues --   -2.45624  -0.48840  -0.18945
 Alpha virt. eigenvalues --    0.02749   0.02749   0.05587   0.17753   0.19885
 Alpha virt. eigenvalues --    0.19885   0.20555
  Beta  occ. eigenvalues --   -2.43921
  Beta virt. eigenvalues --    0.01528   0.05280   0.05818   0.05818   0.20776
  Beta virt. eigenvalues --    0.23102   0.23102   0.23546   0.34434
          Condensed to atoms (all electrons):
               1          2
     1  H    0.910862   0.033280
     2  Li   0.033280   3.022577
          Atomic-Atomic Spin Densities.
               1          2
     1  H    0.910858   0.033283
     2  Li   0.033283   1.022576
 Mulliken charges and spin densities:
               1          2
     1  H    0.055858   0.944141
     2  Li  -0.055858   1.055859
 Sum of Mulliken charges =   0.00000   2.00000
 Mulliken charges and spin densities with hydrogens summed into heavy atoms:
               1          2
     2  Li   0.000000   2.000000
 N-N= 4.535804665029D-01 E-N=-1.911302242893D+01  KE= 8.077514594370D+00
 Symmetry A1   KE= 8.077514594370D+00
 Symmetry A2   KE= 0.000000000000D+00
 Symmetry B1   KE= 0.000000000000D+00
 Symmetry B2   KE= 0.000000000000D+00
 Symmetry A1   SP= 2.000000000000D+00
 Symmetry A2   SP= 0.000000000000D+00
 Symmetry B1   SP= 0.000000000000D+00
 Symmetry B2   SP= 0.000000000000D+00

 Atomic contributions to Alpha molecular orbitals:
 Alpha occ 1 OE=-2.456 is Li2-s=1.0000
 Alpha occ 2 OE=-0.488 is H1-s=0.9350
 Alpha occ 3 OE=-0.189 is Li2-s=0.9714
 Alpha vir 4 OE=0.027 is Li2-p=1.0000
 Alpha vir 5 OE=0.027 is Li2-p=1.0000
 Alpha vir 6 OE=0.056 is Li2-p=0.9383
 Alpha vir 7 OE=0.178 is Li2-s=0.9489
 Alpha vir 8 OE=0.199 is Li2-p=1.0000
 Alpha vir 9 OE=0.199 is Li2-p=1.0000
 Alpha vir 10 OE=0.206 is Li2-p=0.9566

 Atomic contributions to Beta  molecular orbitals:
 Beta  occ 1 OE=-2.439 is Li2-s=1.0000
 Beta  vir 2 OE=0.015 is Li2-s=0.8352 Li2-p=0.1262
 Beta  vir 3 OE=0.053 is Li2-p=0.8112 Li2-s=0.1533
 Beta  vir 4 OE=0.058 is Li2-p=1.0000
 Beta  vir 5 OE=0.058 is Li2-p=1.0000
 Beta  vir 6 OE=0.208 is Li2-s=0.6672 Li2-p=0.2632
 Beta  vir 7 OE=0.231 is Li2-p=1.0000
 Beta  vir 8 OE=0.231 is Li2-p=1.0000
 Beta  vir 9 OE=0.235 is Li2-p=0.7174 Li2-s=0.2819
 Beta  vir 10 OE=0.344 is H1-s=0.8557
 
 Leave Link  601 at Mon Mar 28 14:05:25 2022, MaxMem=  9663676416 cpu:               2.4 elap:               0.1
 (Enter /nopt/nrel/apps/gaussian/g16C_1/g16/l9999.exe)

 Test job not archived.
 1\1\GINC-R102U34\SP\UCCSD-FC\Gen\H1Li1(3)\USER\28-Mar-2022\0\\#P C
 CSD(MaxCyc=200,SaveAmplitudes,ReadAmplitudes)/GEN sp pop=AllOrbitals i
 op(3/33=1,3/36=-1)\\test\\0,3\H,0,0.,0.,0.\Li,0,0.,0.,3.5\\Version=ES6
 4L-G16RevC.01\State=3-SG\HF=-7.8508262\MP2=-7.850841\MP3=-7.850846\MP4
 D=-7.8508478\MP4DQ=-7.8508478\MP4SDQ=-7.8508478\CCSD=-7.8508488\S2=2.0
 00002\S2-1=0.\S2A=2.\RMSD=9.973e-10\PG=C*V [C*(H1Li1)]\\@


 YOU CAN LEAD A BOY TO COLLEGE....
 BUT YOU CANNOT MAKE HIM THINK....
           ELBERT HUBBARD
 Job cpu time:       0 days  0 hours  0 minutes 34.5 seconds.
 Elapsed time:       0 days  0 hours  0 minutes  1.3 seconds.
 File lengths (MBytes):  RWF=     13 Int=      0 D2E=      0 Chk=      1 Scr=      1
 Normal termination of Gaussian 16 at Mon Mar 28 14:05:25 2022.
