 Entering Gaussian System, Link 0=g16
 Initial command:
 /nopt/nrel/apps/gaussian/g16C_1/g16/l1.exe "/lustre/eaglefs/scratch/user/qc/lih-dissc/lih-3-ccsd-2.2-sto3g/Gau-20660.inp" -scrdir="/lustre/eaglefs/scratch/user/qc/lih-dissc/lih-3-ccsd-2.2-sto3g/"
 Default is to use a total of  36 processors:
                               36 via shared-memory
                                1 via Linda
 Entering Link 1 = /nopt/nrel/apps/gaussian/g16C_1/g16/l1.exe PID=     20661.
  
 Copyright (c) 1988-2019, Gaussian, Inc.  All Rights Reserved.
  
 This is part of the Gaussian(R) 16 program.  It is based on
 the Gaussian(R) 09 system (copyright 2009, Gaussian, Inc.),
 the Gaussian(R) 03 system (copyright 2003, Gaussian, Inc.),
 the Gaussian(R) 98 system (copyright 1998, Gaussian, Inc.),
 the Gaussian(R) 94 system (copyright 1995, Gaussian, Inc.),
 the Gaussian 92(TM) system (copyright 1992, Gaussian, Inc.),
 the Gaussian 90(TM) system (copyright 1990, Gaussian, Inc.),
 the Gaussian 88(TM) system (copyright 1988, Gaussian, Inc.),
 the Gaussian 86(TM) system (copyright 1986, Carnegie Mellon
 University), and the Gaussian 82(TM) system (copyright 1983,
 Carnegie Mellon University). Gaussian is a federally registered
 trademark of Gaussian, Inc.
  
 This software contains proprietary and confidential information,
 including trade secrets, belonging to Gaussian, Inc.
  
 This software is provided under written license and may be
 used, copied, transmitted, or stored only in accord with that
 written license.
  
 The following legend is applicable only to US Government
 contracts under FAR:
  
                    RESTRICTED RIGHTS LEGEND
  
 Use, reproduction and disclosure by the US Government is
 subject to restrictions as set forth in subparagraphs (a)
 and (c) of the Commercial Computer Software - Restricted
 Rights clause in FAR 52.227-19.
  
 Gaussian, Inc.
 340 Quinnipiac St., Bldg. 40, Wallingford CT 06492
  
  
 ---------------------------------------------------------------
 Warning -- This program may not be used in any manner that
 competes with the business of Gaussian, Inc. or will provide
 assistance to any competitor of Gaussian, Inc.  The licensee
 of this program is prohibited from giving any competitor of
 Gaussian, Inc. access to this program.  By using this program,
 the user acknowledges that Gaussian, Inc. is engaged in the
 business of creating and licensing software in the field of
 computational chemistry and represents and warrants to the
 licensee that it is not a competitor of Gaussian, Inc. and that
 it will not use this program in any manner prohibited above.
 ---------------------------------------------------------------
  

 Cite this work as:
 Gaussian 16, Revision C.01,
 M. J. Frisch, G. W. Trucks, H. B. Schlegel, G. E. Scuseria, 
 M. A. Robb, J. R. Cheeseman, G. Scalmani, V. Barone, 
 G. A. Petersson, H. Nakatsuji, X. Li, M. Caricato, A. V. Marenich, 
 J. Bloino, B. G. Janesko, R. Gomperts, B. Mennucci, H. P. Hratchian, 
 J. V. Ortiz, A. F. Izmaylov, J. L. Sonnenberg, D. Williams-Young, 
 F. Ding, F. Lipparini, F. Egidi, J. Goings, B. Peng, A. Petrone, 
 T. Henderson, D. Ranasinghe, V. G. Zakrzewski, J. Gao, N. Rega, 
 G. Zheng, W. Liang, M. Hada, M. Ehara, K. Toyota, R. Fukuda, 
 J. Hasegawa, M. Ishida, T. Nakajima, Y. Honda, O. Kitao, H. Nakai, 
 T. Vreven, K. Throssell, J. A. Montgomery, Jr., J. E. Peralta, 
 F. Ogliaro, M. J. Bearpark, J. J. Heyd, E. N. Brothers, K. N. Kudin, 
 V. N. Staroverov, T. A. Keith, R. Kobayashi, J. Normand, 
 K. Raghavachari, A. P. Rendell, J. C. Burant, S. S. Iyengar, 
 J. Tomasi, M. Cossi, J. M. Millam, M. Klene, C. Adamo, R. Cammi, 
 J. W. Ochterski, R. L. Martin, K. Morokuma, O. Farkas, 
 J. B. Foresman, and D. J. Fox, Gaussian, Inc., Wallingford CT, 2019.
 
 ******************************************
 Gaussian 16:  ES64L-G16RevC.01  3-Jul-2019
                28-Mar-2022 
 ******************************************
 %chk=molecule
 Default route: CacheSize=180224 MaxDisk=256GB
 ----------------------------------------------------------------------
 #P CCSD(MaxCyc=200,SaveAmplitudes,ReadAmplitudes)/GEN sp pop=AllOrbita
 ls iop(3/33=1,3/36=-1)
 ----------------------------------------------------------------------
 1/4=180224,38=1,172=1/1;
 2/4=180224,12=2,17=6,18=5,40=1/2;
 3/4=180224,5=7,11=9,25=1,30=1,33=1,36=-1/1,2,3;
 4/4=180224/1;
 5/4=180224,5=2,38=5/2;
 8/4=180224,6=4,9=120000,10=1,24=1/1,4;
 9/4=180224,5=7,6=200,77=1/13;
 6/4=180224,7=2,8=2,9=2,10=2,96=-1/1;
 99/4=180224,5=1,9=1/99;
 Leave Link    1 at Mon Mar 28 14:04:16 2022, MaxMem=           0 cpu:               2.2 elap:               0.1
 (Enter /nopt/nrel/apps/gaussian/g16C_1/g16/l101.exe)
 ----
 test
 ----
 Symbolic Z-matrix:
 Charge =  0 Multiplicity = 3
 H                     0.        0.        0. 
 Li                    0.        0.        2.2 
 
 ITRead=  0  0
 MicOpt= -1 -1
 NAtoms=      2 NQM=        2 NQMF=       0 NMMI=      0 NMMIF=      0
                NMic=       0 NMicF=      0.
                    Isotopes and Nuclear Properties:
 (Nuclear quadrupole moments (NQMom) in fm**2, nuclear magnetic moments (NMagM)
  in nuclear magnetons)

  Atom         1           2
 IAtWgt=           1           7
 AtmWgt=   1.0078250   7.0160045
 NucSpn=           1           3
 AtZEff=  -0.0000000  -0.0000000
 NQMom=    0.0000000  -4.0100000
 NMagM=    2.7928460   3.2564240
 AtZNuc=   1.0000000   3.0000000
 Leave Link  101 at Mon Mar 28 14:04:16 2022, MaxMem=  9663676416 cpu:               3.2 elap:               0.1
 (Enter /nopt/nrel/apps/gaussian/g16C_1/g16/l202.exe)
                          Input orientation:                          
 ---------------------------------------------------------------------
 Center     Atomic      Atomic             Coordinates (Angstroms)
 Number     Number       Type             X           Y           Z
 ---------------------------------------------------------------------
      1          1           0        0.000000    0.000000    0.000000
      2          3           0        0.000000    0.000000    2.200000
 ---------------------------------------------------------------------
 Stoichiometry    HLi(3)
 Framework group  C*V[C*(HLi)]
 Deg. of freedom     1
 Full point group                 C*V     NOp   4
 Largest Abelian subgroup         C2V     NOp   4
 Largest concise Abelian subgroup C1      NOp   1
                         Standard orientation:                         
 ---------------------------------------------------------------------
 Center     Atomic      Atomic             Coordinates (Angstroms)
 Number     Number       Type             X           Y           Z
 ---------------------------------------------------------------------
      1          1           0        0.000000    0.000000   -1.650000
      2          3           0        0.000000    0.000000    0.550000
 ---------------------------------------------------------------------
 Rotational constants (GHZ):           0.0000000         118.4891352         118.4891352
 Leave Link  202 at Mon Mar 28 14:04:16 2022, MaxMem=  9663676416 cpu:               0.6 elap:               0.0
 (Enter /nopt/nrel/apps/gaussian/g16C_1/g16/l301.exe)
 General basis read from cards:  (5D, 7F)
                         Coordinates in L301:                         
 ---------------------------------------------------------------------
 Center     Atomic      Atomic             Coordinates (Angstroms)
 Number     Number       Type             X           Y           Z
 ---------------------------------------------------------------------
      1          1           0        0.000000    0.000000   -1.650000
      2          3           0        0.000000    0.000000    0.550000
 ---------------------------------------------------------------------
 Centers:       1
 STO-3G
 ****
 Centers:       2
 STO-3G
 ****
 FixB: optimizing general contractions.
 Ernie: Thresh=  0.10000D-02 Tol=  0.10000D-05 Strict=F.
 IA=     1 ShT= 0 ShC= 0 NL=   1 NS=   0.
 IA=     1 L=0 SC=0 ISt=    0 NBk=    0 NP=    0 IndPr=    0.
 IA=     2 ShT= 0 ShC= 0 NL=   1 NS=   0.
 IA=     2 L=0 SC=0 ISt=    0 NBk=    0 NP=    0 IndPr=    0.
 IA=     2 ShT= 1 ShC= 0 NL=   1 NS=   0.
 IA=     2 L=1 SC=0 ISt=    0 NBk=    0 NP=    0 IndPr=    0.
 LdAtmC:  AtmChg=     1.000000     3.000000
 AtZEff=     -1.0000000     -1.3500000
 NEqShl: 
              1            2            3            4
     1            1            1            1            1
     2            2            2            2            2
     3            3            3            3            3
 NEqBas: 
              1            2            3            4
     1            1            1            1            1
     2            2            2            2            2
     3            3            3            3            3
     4            4           -4           -4            4
     5            5           -5            5           -5
     6            6            6            6            6
 There are     4 symmetry adapted cartesian basis functions of A1  symmetry.
   1         1   1   1   1
   2         2   2   2   2
   3         3   3   3   3
   4         6   6   6   6
 There are     0 symmetry adapted cartesian basis functions of A2  symmetry.
 There are     1 symmetry adapted cartesian basis functions of B1  symmetry.
   5         4   4   4   4
 There are     1 symmetry adapted cartesian basis functions of B2  symmetry.
   6         5   5   5   5
 Order= 1 2 4 3
 Reordered character table:
              1            2            3            4            5
     1            1            1            1            1            1
     2            2            1            1           -1           -1
     3            4            1           -1           -1            1
     4            3            1           -1            1           -1
 NEqShl: 
              1            2            3            4
     1            1            1            1            1
     2            2            2            2            2
     3            3            3            3            3
 NEqBas: 
              1            2            3            4
     1            1            1            1            1
     2            2            2            2            2
     3            3            3            3            3
     4            4           -4           -4            4
     5            5           -5            5           -5
     6            6            6            6            6
 There are     4 symmetry adapted basis functions of A1  symmetry.
   1         1   1   1   1
   2         2   2   2   2
   3         3   3   3   3
   4         6   6   6   6
 There are     0 symmetry adapted basis functions of A2  symmetry.
 There are     1 symmetry adapted basis functions of B1  symmetry.
   5         4   4   4   4
 There are     1 symmetry adapted basis functions of B2  symmetry.
   6         5   5   5   5
 Order= 1 2 4 3
 Reordered character table:
              1            2            3            4            5
     1            1            1            1            1            1
     2            2            1            1           -1           -1
     3            4            1           -1           -1            1
     4            3            1           -1            1           -1
     6 basis functions,    18 primitive gaussians,     6 cartesian basis functions
     3 alpha electrons        1 beta electrons
       nuclear repulsion energy         0.7216052876 Hartrees.
 IS=     1 IAt=     1 ISR=     1 T=0 IP=      1 IndIP=      1 IndIPD=      0 C=  2.769344D-01  0.000000D+00                             NZ=T
 IS=     1 IAt=     1 ISR=     1 T=0 IP=      2 IndIP=      2 IndIPD=      1 C=  2.678389D-01  0.000000D+00                             NZ=T
 IS=     1 IAt=     1 ISR=     1 T=0 IP=      3 IndIP=      3 IndIPD=      2 C=  8.347367D-02  0.000000D+00                             NZ=T
 IS=     2 IAt=     2 ISR=     1 T=0 IP=      1 IndIP=      4 IndIPD=      0 C=  8.848563D-01  0.000000D+00                             NZ=T
 IS=     2 IAt=     2 ISR=     1 T=0 IP=      2 IndIP=      5 IndIPD=      1 C=  8.557945D-01  0.000000D+00                             NZ=T
 IS=     2 IAt=     2 ISR=     1 T=0 IP=      3 IndIP=      6 IndIPD=      2 C=  2.667138D-01  0.000000D+00                             NZ=T
 IS=     3 IAt=     2 ISR=     2 T=1 IP=      1 IndIP=      7 IndIPD=      0 C= -5.075852D-02  1.262991D-01                             NZ=T
 IS=     3 IAt=     2 ISR=     2 T=1 IP=      2 IndIP=      8 IndIPD=      1 C=  6.789362D-02  7.942025D-02                             NZ=T
 IS=     3 IAt=     2 ISR=     2 T=1 IP=      3 IndIP=      9 IndIPD=      2 C=  5.124033D-02  1.258150D-02                             NZ=T
 IExCor=    0 DFT=F Ex=HF Corr=None ExCW=0 ScaHFX=  1.000000
 ScaDFX=  1.000000  1.000000  1.000000  1.000000 ScalE2=  1.000000  1.000000
 IRadAn=      5 IRanWt=     -1 IRanGd=            0 ICorTp=0 IEmpDi=  4
 NAtoms=    2 NActive=    2 NUniq=    2 SFac= 1.00D+00 NAtFMM=   60 NAOKFM=F Big=F
 Integral buffers will be    131072 words long.
 Raffenetti 2 integral format.
 Two-electron integral symmetry is turned on.
 Leave Link  301 at Mon Mar 28 14:04:16 2022, MaxMem=  9663676416 cpu:               2.1 elap:               0.1
 (Enter /nopt/nrel/apps/gaussian/g16C_1/g16/l302.exe)
 NPDir=0 NMtPBC=     1 NCelOv=     1 NCel=       1 NClECP=     1 NCelD=      1
         NCelK=      1 NCelE2=     1 NClLst=     1 CellRange=     0.0.
 One-electron integrals computed using PRISM.
 One-electron integral symmetry used in STVInt
 Entering OneElI...
 Calculate overlap and kinetic energy integrals
    NBasis =   6  MinDer = 0  MaxDer = 0
 Requested accuracy = 0.1000D-12
 Symmetry will be used
 PrmmSu-InSpLW:  IPartL=    0 NPrtUS=   36 NPrtUL=    1 DoSpLW=F IThBeg=    0 IThEnd=   35 NThAct=   36.
 PrSmSu:  IncTry=   512 NBBP=              6 NTPThr=   100 NPartT=   36 Incr=           1 LDynOK=F GPUOK=F.
 PrsmSu:  NPrtUS=  36 ThrOK=T IAlg=1 LenDen=           0 ISkipM=0 DoSpLW=F IThBeg=    0 IThEnd=   35.
 Prism:   IPart=     0 DynPar=F LinDyn=F Incr=           1.
 PRISM was handed   268434361 working-precision words and     6 shell-pairs
 PRISM was handed   268434361 working-precision words and     6 shell-pairs
 PRISM was handed   268434361 working-precision words and     6 shell-pairs
 PRISM was handed   268434361 working-precision words and     6 shell-pairs
 PRISM was handed   268434361 working-precision words and     6 shell-pairs
 PRISM was handed   268434361 working-precision words and     6 shell-pairs
 PRISM was handed   268434361 working-precision words and     6 shell-pairs
 PRISM was handed   268434361 working-precision words and     6 shell-pairs
 PRISM was handed   268434361 working-precision words and     6 shell-pairs
 PRISM was handed   268434361 working-precision words and     6 shell-pairs
 IPart= 13 NShTot=           0 NBatch=           0 AvBLen=         0.0
 IPart= 24 NShTot=           0 NBatch=           0 AvBLen=         0.0
 IPart= 26 NShTot=           0 NBatch=           0 AvBLen=         0.0
 IPart= 32 NShTot=           0 NBatch=           0 AvBLen=         0.0
 IPart=  3 NShTot=           0 NBatch=           0 AvBLen=         0.0
 IPart= 35 NShTot=           0 NBatch=           0 AvBLen=         0.0
 IPart=  9 NShTot=           0 NBatch=           0 AvBLen=         0.0
 IPart=  2 NShTot=           0 NBatch=           0 AvBLen=         0.0
 PRISM was handed   268434361 working-precision words and     6 shell-pairs
 IPart= 16 NShTot=           0 NBatch=           0 AvBLen=         0.0
 PRISM was handed   268434361 working-precision words and     6 shell-pairs
 PRISM was handed   268434361 working-precision words and     6 shell-pairs
 IPart= 30 NShTot=           0 NBatch=           0 AvBLen=         0.0
 PRISM was handed   268434361 working-precision words and     6 shell-pairs
 PRISM was handed   268434361 working-precision words and     6 shell-pairs
 IPart= 20 NShTot=           0 NBatch=           0 AvBLen=         0.0
 IPart= 14 NShTot=           0 NBatch=           0 AvBLen=         0.0
 PRISM was handed   268434361 working-precision words and     6 shell-pairs
 PRISM was handed   268434361 working-precision words and     6 shell-pairs
 IPart= 31 NShTot=           0 NBatch=           0 AvBLen=         0.0
 PRISM was handed   268434361 working-precision words and     6 shell-pairs
 PRISM was handed   268434361 working-precision words and     6 shell-pairs
 PRISM was handed   268434361 working-precision words and     6 shell-pairs
 IPart=  1 NShTot=           2 NBatch=           2 AvBLen=         1.0
 IPart= 27 NShTot=           0 NBatch=           0 AvBLen=         0.0
 IPart=  0 NShTot=           4 NBatch=           4 AvBLen=         1.0
 IPart= 34 NShTot=           0 NBatch=           0 AvBLen=         0.0
 PRISM was handed   268434361 working-precision words and     6 shell-pairs
 PRISM was handed   268434361 working-precision words and     6 shell-pairs
 PRISM was handed   268434361 working-precision words and     6 shell-pairs
 IPart= 17 NShTot=           0 NBatch=           0 AvBLen=         0.0
 IPart=  5 NShTot=           0 NBatch=           0 AvBLen=         0.0
 IPart=  4 NShTot=           0 NBatch=           0 AvBLen=         0.0
 PRISM was handed   268434361 working-precision words and     6 shell-pairs
 PRISM was handed   268434361 working-precision words and     6 shell-pairs
 PRISM was handed   268434361 working-precision words and     6 shell-pairs
 PRISM was handed   268434361 working-precision words and     6 shell-pairs
 IPart= 29 NShTot=           0 NBatch=           0 AvBLen=         0.0
 IPart= 18 NShTot=           0 NBatch=           0 AvBLen=         0.0
 PRISM was handed   268434361 working-precision words and     6 shell-pairs
 IPart= 12 NShTot=           0 NBatch=           0 AvBLen=         0.0
 IPart= 22 NShTot=           0 NBatch=           0 AvBLen=         0.0
 IPart= 19 NShTot=           0 NBatch=           0 AvBLen=         0.0
 IPart= 25 NShTot=           0 NBatch=           0 AvBLen=         0.0
 PRISM was handed   268434361 working-precision words and     6 shell-pairs
 PRISM was handed   268434361 working-precision words and     6 shell-pairs
 PRISM was handed   268434361 working-precision words and     6 shell-pairs
 IPart= 33 NShTot=           0 NBatch=           0 AvBLen=         0.0
 PRISM was handed   268434361 working-precision words and     6 shell-pairs
 IPart= 10 NShTot=           0 NBatch=           0 AvBLen=         0.0
 PRISM was handed   268434361 working-precision words and     6 shell-pairs
 PRISM was handed   268434361 working-precision words and     6 shell-pairs
 PRISM was handed   268434361 working-precision words and     6 shell-pairs
 IPart= 15 NShTot=           0 NBatch=           0 AvBLen=         0.0
 PRISM was handed   268434361 working-precision words and     6 shell-pairs
 IPart=  8 NShTot=           0 NBatch=           0 AvBLen=         0.0
 IPart=  7 NShTot=           0 NBatch=           0 AvBLen=         0.0
 IPart= 23 NShTot=           0 NBatch=           0 AvBLen=         0.0
 IPart= 21 NShTot=           0 NBatch=           0 AvBLen=         0.0
 IPart= 11 NShTot=           0 NBatch=           0 AvBLen=         0.0
 IPart=  6 NShTot=           0 NBatch=           0 AvBLen=         0.0
 IPart= 28 NShTot=           0 NBatch=           0 AvBLen=         0.0
 PrSmSu:  NxtVal=             37.
 *** Overlap *** 
                1             2             3             4             5 
      1  0.100000D+01
      2  0.173465D-01  0.100000D+01
      3  0.255030D+00  0.241137D+00  0.100000D+01
      4  0.000000D+00  0.000000D+00  0.000000D+00  0.100000D+01
      5  0.000000D+00  0.000000D+00  0.000000D+00  0.000000D+00  0.100000D+01
      6 -0.370654D+00  0.000000D+00  0.000000D+00  0.000000D+00  0.000000D+00
                6 
      6  0.100000D+01
 *** Kinetic Energy *** 
                1             2             3             4             5 
      1  0.760032D+00
      2 -0.698781D-02  0.357679D+01
      3  0.117435D-01 -0.202374D-01  0.102163D+00
      4  0.000000D+00  0.000000D+00  0.000000D+00  0.319682D+00
      5  0.000000D+00  0.000000D+00  0.000000D+00  0.000000D+00  0.319682D+00
      6 -0.508413D-01  0.000000D+00  0.000000D+00  0.000000D+00  0.000000D+00
                6 
      6  0.319682D+00
 Entering OneElI...
 Calculate potential energy integrals
    NBasis =   6  MinDer = 0  MaxDer = 0
 Requested accuracy = 0.1000D-12
 Symmetry will be used
 PrmmSu-InSpLW:  IPartL=    0 NPrtUS=   36 NPrtUL=    1 DoSpLW=F IThBeg=    0 IThEnd=   35 NThAct=   36.
 PrSmSu:  IncTry=   512 NBBP=             12 NTPThr=   100 NPartT=   36 Incr=           1 LDynOK=F GPUOK=F.
 PrsmSu:  NPrtUS=  36 ThrOK=T IAlg=1 LenDen=           0 ISkipM=0 DoSpLW=F IThBeg=    0 IThEnd=   35.
 Prism:   IPart=     0 DynPar=F LinDyn=F Incr=           1.
 PRISM was handed   268434370 working-precision words and     6 shell-pairs
 PRISM was handed   268434370 working-precision words and     6 shell-pairs
 PRISM was handed   268434370 working-precision words and     6 shell-pairs
 PRISM was handed   268434370 working-precision words and     6 shell-pairs
 PRISM was handed   268434370 working-precision words and     6 shell-pairs
 PRISM was handed   268434370 working-precision words and     6 shell-pairs
 PRISM was handed   268434370 working-precision words and     6 shell-pairs
 PRISM was handed   268434370 working-precision words and     6 shell-pairs
 PRISM was handed   268434370 working-precision words and     6 shell-pairs
 PRISM was handed   268434370 working-precision words and     6 shell-pairs
 PRISM was handed   268434370 working-precision words and     6 shell-pairs
 PRISM was handed   268434370 working-precision words and     6 shell-pairs
 PRISM was handed   268434370 working-precision words and     6 shell-pairs
 PRISM was handed   268434370 working-precision words and     6 shell-pairs
 PRISM was handed   268434370 working-precision words and     6 shell-pairs
 PRISM was handed   268434370 working-precision words and     6 shell-pairs
 PRISM was handed   268434370 working-precision words and     6 shell-pairs
 PRISM was handed   268434370 working-precision words and     6 shell-pairs
 PRISM was handed   268434370 working-precision words and     6 shell-pairs
 PRISM was handed   268434370 working-precision words and     6 shell-pairs
 PRISM was handed   268434370 working-precision words and     6 shell-pairs
 PRISM was handed   268434370 working-precision words and     6 shell-pairs
 PRISM was handed   268434370 working-precision words and     6 shell-pairs
 PRISM was handed   268434370 working-precision words and     6 shell-pairs
 PRISM was handed   268434370 working-precision words and     6 shell-pairs
 PRISM was handed   268434370 working-precision words and     6 shell-pairs
 PRISM was handed   268434370 working-precision words and     6 shell-pairs
 PRISM was handed   268434370 working-precision words and     6 shell-pairs
 PRISM was handed   268434370 working-precision words and     6 shell-pairs
 PRISM was handed   268434370 working-precision words and     6 shell-pairs
 PRISM was handed   268434370 working-precision words and     6 shell-pairs
 PRISM was handed   268434370 working-precision words and     6 shell-pairs
 PRISM was handed   268434370 working-precision words and     6 shell-pairs
 PRISM was handed   268434370 working-precision words and     6 shell-pairs
 PRISM was handed   268434370 working-precision words and     6 shell-pairs
 PRISM was handed   268434370 working-precision words and     6 shell-pairs
 IPart=  1 NShTot=           4 NBatch=           2 AvBLen=         2.0
 IPart=  0 NShTot=           8 NBatch=           4 AvBLen=         2.0
 IPart= 28 NShTot=           0 NBatch=           0 AvBLen=         0.0
 IPart= 12 NShTot=           0 NBatch=           0 AvBLen=         0.0
 IPart= 17 NShTot=           0 NBatch=           0 AvBLen=         0.0
 IPart= 30 NShTot=           0 NBatch=           0 AvBLen=         0.0
 IPart= 18 NShTot=           0 NBatch=           0 AvBLen=         0.0
 IPart= 31 NShTot=           0 NBatch=           0 AvBLen=         0.0
 IPart=  9 NShTot=           0 NBatch=           0 AvBLen=         0.0
 IPart= 24 NShTot=           0 NBatch=           0 AvBLen=         0.0
 IPart=  2 NShTot=           0 NBatch=           0 AvBLen=         0.0
 IPart=  4 NShTot=           0 NBatch=           0 AvBLen=         0.0
 IPart=  8 NShTot=           0 NBatch=           0 AvBLen=         0.0
 IPart= 14 NShTot=           0 NBatch=           0 AvBLen=         0.0
 IPart= 19 NShTot=           0 NBatch=           0 AvBLen=         0.0
 IPart= 11 NShTot=           0 NBatch=           0 AvBLen=         0.0
 IPart= 27 NShTot=           0 NBatch=           0 AvBLen=         0.0
 IPart=  3 NShTot=           0 NBatch=           0 AvBLen=         0.0
 IPart= 29 NShTot=           0 NBatch=           0 AvBLen=         0.0
 IPart= 10 NShTot=           0 NBatch=           0 AvBLen=         0.0
 IPart=  5 NShTot=           0 NBatch=           0 AvBLen=         0.0
 IPart= 34 NShTot=           0 NBatch=           0 AvBLen=         0.0
 IPart=  7 NShTot=           0 NBatch=           0 AvBLen=         0.0
 IPart=  6 NShTot=           0 NBatch=           0 AvBLen=         0.0
 IPart= 32 NShTot=           0 NBatch=           0 AvBLen=         0.0
 IPart= 16 NShTot=           0 NBatch=           0 AvBLen=         0.0
 IPart= 25 NShTot=           0 NBatch=           0 AvBLen=         0.0
 IPart= 26 NShTot=           0 NBatch=           0 AvBLen=         0.0
 IPart= 23 NShTot=           0 NBatch=           0 AvBLen=         0.0
 IPart= 33 NShTot=           0 NBatch=           0 AvBLen=         0.0
 IPart= 15 NShTot=           0 NBatch=           0 AvBLen=         0.0
 IPart= 20 NShTot=           0 NBatch=           0 AvBLen=         0.0
 IPart= 35 NShTot=           0 NBatch=           0 AvBLen=         0.0
 IPart= 13 NShTot=           0 NBatch=           0 AvBLen=         0.0
 IPart= 22 NShTot=           0 NBatch=           0 AvBLen=         0.0
 IPart= 21 NShTot=           0 NBatch=           0 AvBLen=         0.0
 PrSmSu:  NxtVal=             37.
 ***** Potential Energy ***** 
                1             2             3             4             5 
      1  0.194813D+01
      2  0.702137D-01  0.822342D+01
      3  0.399144D+00  0.102234D+01  0.143836D+01
      4  0.000000D+00  0.000000D+00  0.000000D+00  0.140661D+01
      5  0.000000D+00  0.000000D+00  0.000000D+00  0.000000D+00  0.140661D+01
      6 -0.586288D+00 -0.851888D-02 -0.878574D-01  0.000000D+00  0.000000D+00
                6 
      6  0.147295D+01
 ****** Core Hamiltonian ****** 
                1             2             3             4             5 
      1 -0.118810D+01
      2 -0.772015D-01 -0.464663D+01
      3 -0.387400D+00 -0.104258D+01 -0.133620D+01
      4  0.000000D+00  0.000000D+00  0.000000D+00 -0.108693D+01
      5  0.000000D+00  0.000000D+00  0.000000D+00  0.000000D+00 -0.108693D+01
      6  0.535447D+00  0.851888D-02  0.878574D-01  0.000000D+00  0.000000D+00
                6 
      6 -0.115326D+01
 SVDSVc IOpt=   1 NormSV=T IR=1
 SVDSVc V= 1.48D+00 1.18D+00 8.06D-01 5.31D-01
 SVDSVc IOpt=   1 NormSV=T IR=3
 SVDSVc V= 1.00D+00
 SVDSVc IOpt=   1 NormSV=T IR=4
 SVDSVc V= 1.00D+00
 TstOVc:  Largest diagonal error= 1.78D-15 IB=1 I=    1.
 TstOVc:  Largest same sym error= 3.33D-16 IB=1 I=    2 J=    1.
 TstOVc:  Largest diff sym error= 0.00D+00 IB=0 JB=0 I=    0 J=    0.
 Orthogonalized basis functions: 
                 1             2             3             4             5 
      1   0.542147D+00 -0.228742D+00 -0.265781D+00  0.916611D+00  0.000000D+00
      2   0.219414D+00  0.597858D+00  0.753405D+00  0.302164D+00  0.000000D+00
      3   0.398030D+00  0.469603D+00 -0.587041D+00 -0.653707D+00  0.000000D+00
      4   0.000000D+00  0.000000D+00  0.000000D+00  0.000000D+00  0.100000D+01
      5   0.000000D+00  0.000000D+00  0.000000D+00  0.000000D+00  0.000000D+00
      6  -0.418385D+00  0.463885D+00 -0.507773D+00  0.724315D+00  0.000000D+00
                 6 
      1   0.000000D+00
      2   0.000000D+00
      3   0.000000D+00
      4   0.000000D+00
      5   0.100000D+01
      6   0.000000D+00
 NBasis=     6 RedAO= T EigKep=  5.31D-01  NBF=     4     0     1     1
 NBsUse=     6 1.00D-06 EigRej= -1.00D+00 NBFU=     4     0     1     1
 Leave Link  302 at Mon Mar 28 14:04:16 2022, MaxMem=  9663676416 cpu:               3.2 elap:               0.1
 (Enter /nopt/nrel/apps/gaussian/g16C_1/g16/l303.exe)
 DipDrv will not compute anything.
 Fermi contact integrals: 
                 1             2 
      1   0.628247D+00  0.451440D-02
      2   0.000000D+00  0.200736D+01
      3   0.275881D-01  0.683754D-01
      4   0.000000D+00  0.000000D+00
      5   0.000000D+00  0.000000D+00
      6  -0.484274D-01  0.000000D+00
 Leave Link  303 at Mon Mar 28 14:04:16 2022, MaxMem=  9663676416 cpu:               0.9 elap:               0.0
 (Enter /nopt/nrel/apps/gaussian/g16C_1/g16/l401.exe)
 ExpMin= 4.81D-02 ExpMax= 1.61D+01 ExpMxC= 1.61D+01 IAcc=3 IRadAn=         5 AccDes= 0.00D+00
 Harris functional with IExCor=  205 and IRadAn=       5 diagonalized for initial guess.
 HarFok:  IExCor=  205 AccDes= 0.00D+00 IRadAn=         5 IDoV= 1 UseB2=F ITyADJ=14
 ICtDFT=  3500011 ScaDFX=  1.000000  1.000000  1.000000  1.000000
 FoFCou: FMM=F IPFlag=           0 FMFlag=      100000 FMFlg1=           0
         NFxFlg=           0 DoJE=T BraDBF=F KetDBF=T FulRan=T
         wScrn=  0.000000 ICntrl=       500 IOpCl=  0 I1Cent=   200000004 NGrid=           0
         NMat0=    1 NMatS0=      1 NMatT0=    0 NMatD0=    1 NMtDS0=    0 NMtDT0=    0
 Petite list used in FoFCou.
 Harris En= -7.69601739694016    
 JPrj=0 DoOrth=F DoCkMO=F.
 Initial guess orbital symmetries:
 Alpha Orbitals:
       Occupied  (SG) (SG) (SG)
       Virtual   (PI) (PI) (SG)
 Beta  Orbitals:
       Occupied  (SG)
       Virtual   (SG) (SG) (PI) (PI) (SG)
 The electronic state of the initial guess is 3-SG.
 Initial guess <Sx>= 0.0000 <Sy>= 0.0000 <Sz>= 1.0000 <S**2>= 2.0000 S= 1.0000
 Leave Link  401 at Mon Mar 28 14:04:17 2022, MaxMem=  9663676416 cpu:               3.8 elap:               0.1
 (Enter /nopt/nrel/apps/gaussian/g16C_1/g16/l502.exe)
 Keep R1 and R2 ints in memory in symmetry-blocked form, NReq=7204787.
 FoFCou: FMM=F IPFlag=           0 FMFlag=           0 FMFlg1=           0
         NFxFlg=           0 DoJE=F BraDBF=F KetDBF=F FulRan=T
         wScrn=  0.000000 ICntrl=       600 IOpCl=  0 I1Cent=           0 NGrid=           0
         NMat0=    1 NMatS0=     21 NMatT0=    0 NMatD0=    1 NMtDS0=    0 NMtDT0=    0
 Petite list used in FoFCou.
 UHF open shell SCF:
 Using DIIS extrapolation, IDIIS=  1040.
 NGot=  9663676416 LenX=  9663673904 LenY=  9663673022
 Requested convergence on RMS density matrix=1.00D-08 within 128 cycles.
 Requested convergence on MAX density matrix=1.00D-06.
 Requested convergence on             energy=1.00D-06.
 No special actions if energy rises.

 Cycle   1  Pass 1  IDiag  1:
 E= -7.75766167912044    
 DIIS: error= 4.24D-02 at cycle   1 NSaved=   1.
 NSaved= 1 IEnMin= 1 EnMin= -7.75766167912044     IErMin= 1 ErrMin= 4.24D-02
 ErrMax= 4.24D-02  0.00D+00 EMaxC= 1.00D-01 BMatC= 2.10D-02 BMatP= 2.10D-02
 IDIUse=3 WtCom= 5.76D-01 WtEn= 4.24D-01
 Coeff-Com:  0.100D+01
 Coeff-En:   0.100D+01
 Coeff:      0.100D+01
 Gap=     0.296 Goal=   None    Shift=    0.000
 Gap=     2.341 Goal=   None    Shift=    0.000
 GapD=    0.296 DampG=1.000 DampE=0.500 DampFc=0.5000 IDamp=-1.
 Damping current iteration by 5.00D-01
 RMSDP=2.57D-02 MaxDP=1.57D-01              OVMax= 1.68D-02

 Cycle   2  Pass 1  IDiag  1:
 E= -7.76498133601567     Delta-E=       -0.007319656895 Rises=F Damp=T
 DIIS: error= 2.87D-02 at cycle   2 NSaved=   2.
 NSaved= 2 IEnMin= 2 EnMin= -7.76498133601567     IErMin= 2 ErrMin= 2.87D-02
 ErrMax= 2.87D-02  0.00D+00 EMaxC= 1.00D-01 BMatC= 9.32D-03 BMatP= 2.10D-02
 IDIUse=3 WtCom= 7.13D-01 WtEn= 2.87D-01
 Coeff-Com: -0.195D+01 0.295D+01
 Coeff-En:   0.000D+00 0.100D+01
 Coeff:     -0.139D+01 0.239D+01
 Gap=     0.293 Goal=   None    Shift=    0.000
 Gap=     2.372 Goal=   None    Shift=    0.000
 RMSDP=2.42D-02 MaxDP=1.44D-01 DE=-7.32D-03 OVMax= 3.31D-03

 Cycle   3  Pass 1  IDiag  1:
 E= -7.77684240099787     Delta-E=       -0.011861064982 Rises=F Damp=F
 DIIS: error= 3.48D-03 at cycle   3 NSaved=   3.
 NSaved= 3 IEnMin= 3 EnMin= -7.77684240099787     IErMin= 3 ErrMin= 3.48D-03
 ErrMax= 3.48D-03  0.00D+00 EMaxC= 1.00D-01 BMatC= 1.36D-04 BMatP= 9.32D-03
 IDIUse=3 WtCom= 9.65D-01 WtEn= 3.48D-02
 Coeff-Com:  0.779D+00-0.134D+01 0.156D+01
 Coeff-En:   0.000D+00 0.000D+00 0.100D+01
 Coeff:      0.751D+00-0.129D+01 0.154D+01
 Gap=     0.293 Goal=   None    Shift=    0.000
 Gap=     2.375 Goal=   None    Shift=    0.000
 RMSDP=4.00D-03 MaxDP=2.06D-02 DE=-1.19D-02 OVMax= 9.48D-05

 Cycle   4  Pass 1  IDiag  1:
 E= -7.77699354555035     Delta-E=       -0.000151144552 Rises=F Damp=F
 DIIS: error= 2.65D-04 at cycle   4 NSaved=   4.
 NSaved= 4 IEnMin= 4 EnMin= -7.77699354555035     IErMin= 4 ErrMin= 2.65D-04
 ErrMax= 2.65D-04  0.00D+00 EMaxC= 1.00D-01 BMatC= 9.36D-07 BMatP= 1.36D-04
 IDIUse=3 WtCom= 9.97D-01 WtEn= 2.65D-03
 Coeff-Com: -0.126D+01 0.217D+01-0.260D+01 0.269D+01
 Coeff-En:   0.000D+00 0.000D+00 0.000D+00 0.100D+01
 Coeff:     -0.126D+01 0.216D+01-0.260D+01 0.269D+01
 Gap=     0.293 Goal=   None    Shift=    0.000
 Gap=     2.377 Goal=   None    Shift=    0.000
 RMSDP=1.10D-03 MaxDP=4.01D-03 DE=-1.51D-04 OVMax= 5.78D-05

 Cycle   5  Pass 1  IDiag  1:
 E= -7.77699636265765     Delta-E=       -0.000002817107 Rises=F Damp=F
 DIIS: error= 3.35D-05 at cycle   5 NSaved=   5.
 NSaved= 5 IEnMin= 5 EnMin= -7.77699636265765     IErMin= 5 ErrMin= 3.35D-05
 ErrMax= 3.35D-05  0.00D+00 EMaxC= 1.00D-01 BMatC= 1.21D-08 BMatP= 9.36D-07
 IDIUse=1 WtCom= 1.00D+00 WtEn= 0.00D+00
 Coeff-Com:  0.487D-01-0.835D-01 0.955D-01 0.174D-01 0.922D+00
 Coeff:      0.487D-01-0.835D-01 0.955D-01 0.174D-01 0.922D+00
 Gap=     0.293 Goal=   None    Shift=    0.000
 Gap=     2.376 Goal=   None    Shift=    0.000
 RMSDP=1.18D-04 MaxDP=4.34D-04 DE=-2.82D-06 OVMax= 3.68D-06

 Cycle   6  Pass 1  IDiag  1:
 E= -7.77699639578265     Delta-E=       -0.000000033125 Rises=F Damp=F
 DIIS: error= 2.59D-06 at cycle   6 NSaved=   6.
 NSaved= 6 IEnMin= 6 EnMin= -7.77699639578265     IErMin= 6 ErrMin= 2.59D-06
 ErrMax= 2.59D-06  0.00D+00 EMaxC= 1.00D-01 BMatC= 1.17D-10 BMatP= 1.21D-08
 IDIUse=1 WtCom= 1.00D+00 WtEn= 0.00D+00
 Coeff-Com:  0.109D-02-0.197D-02 0.323D-02-0.291D-01-0.117D+00 0.114D+01
 Coeff:      0.109D-02-0.197D-02 0.323D-02-0.291D-01-0.117D+00 0.114D+01
 Gap=     0.293 Goal=   None    Shift=    0.000
 Gap=     2.376 Goal=   None    Shift=    0.000
 RMSDP=1.04D-05 MaxDP=3.86D-05 DE=-3.31D-08 OVMax= 1.19D-06

 Cycle   7  Pass 1  IDiag  1:
 E= -7.77699639611720     Delta-E=       -0.000000000335 Rises=F Damp=F
 DIIS: error= 6.93D-08 at cycle   7 NSaved=   7.
 NSaved= 7 IEnMin= 7 EnMin= -7.77699639611720     IErMin= 7 ErrMin= 6.93D-08
 ErrMax= 6.93D-08  0.00D+00 EMaxC= 1.00D-01 BMatC= 7.79D-14 BMatP= 1.17D-10
 IDIUse=1 WtCom= 1.00D+00 WtEn= 0.00D+00
 Coeff-Com: -0.478D-04 0.903D-04-0.178D-03 0.213D-02 0.953D-02-0.107D+00
 Coeff-Com:  0.110D+01
 Coeff:     -0.478D-04 0.903D-04-0.178D-03 0.213D-02 0.953D-02-0.107D+00
 Coeff:      0.110D+01
 Gap=     0.293 Goal=   None    Shift=    0.000
 Gap=     2.376 Goal=   None    Shift=    0.000
 RMSDP=2.86D-07 MaxDP=1.08D-06 DE=-3.35D-10 OVMax= 2.25D-08

 Cycle   8  Pass 1  IDiag  1:
 E= -7.77699639611743     Delta-E=       -0.000000000000 Rises=F Damp=F
 DIIS: error= 3.82D-09 at cycle   8 NSaved=   8.
 NSaved= 8 IEnMin= 8 EnMin= -7.77699639611743     IErMin= 8 ErrMin= 3.82D-09
 ErrMax= 3.82D-09  0.00D+00 EMaxC= 1.00D-01 BMatC= 2.25D-16 BMatP= 7.79D-14
 IDIUse=1 WtCom= 1.00D+00 WtEn= 0.00D+00
 Coeff-Com:  0.152D-06-0.124D-06-0.154D-05 0.608D-04 0.236D-03-0.123D-02
 Coeff-Com: -0.103D-01 0.101D+01
 Coeff:      0.152D-06-0.124D-06-0.154D-05 0.608D-04 0.236D-03-0.123D-02
 Coeff:     -0.103D-01 0.101D+01
 Gap=     0.293 Goal=   None    Shift=    0.000
 Gap=     2.376 Goal=   None    Shift=    0.000
 RMSDP=1.50D-08 MaxDP=5.64D-08 DE=-2.22D-13 OVMax= 1.17D-09

 Cycle   9  Pass 1  IDiag  1:
 E= -7.77699639611743     Delta-E=        0.000000000000 Rises=F Damp=F
 DIIS: error= 3.09D-11 at cycle   9 NSaved=   9.
 NSaved= 9 IEnMin= 8 EnMin= -7.77699639611743     IErMin= 9 ErrMin= 3.09D-11
 ErrMax= 3.09D-11  0.00D+00 EMaxC= 1.00D-01 BMatC= 2.15D-20 BMatP= 2.25D-16
 IDIUse=1 WtCom= 1.00D+00 WtEn= 0.00D+00
 Coeff-Com:  0.198D-07-0.366D-07 0.134D-06-0.445D-05-0.124D-04-0.538D-04
 Coeff-Com:  0.359D-02-0.166D+00 0.116D+01
 Coeff:      0.198D-07-0.366D-07 0.134D-06-0.445D-05-0.124D-04-0.538D-04
 Coeff:      0.359D-02-0.166D+00 0.116D+01
 Gap=     0.293 Goal=   None    Shift=    0.000
 Gap=     2.376 Goal=   None    Shift=    0.000
 RMSDP=1.07D-10 MaxDP=4.15D-10 DE= 0.00D+00 OVMax= 1.78D-11

 SCF Done:  E(UHF) =  -7.77699639612     A.U. after    9 cycles
            NFock=  9  Conv=0.11D-09     -V/T= 1.9606
 <Sx>= 0.0000 <Sy>= 0.0000 <Sz>= 1.0000 <S**2>= 2.0000 S= 1.0000
 <L.S>= 0.000000000000E+00
 KE= 8.096187409809D+00 PE=-1.970823544777D+01 EE= 3.113446354222D+00
 Annihilation of the first spin contaminant:
 S**2 before annihilation     2.0000,   after     2.0000
 Leave Link  502 at Mon Mar 28 14:04:17 2022, MaxMem=  9663676416 cpu:               3.8 elap:               0.1
 (Enter /nopt/nrel/apps/gaussian/g16C_1/g16/l801.exe)
 Windowed orbitals will be sorted by symmetry type.
 ExpMin= 4.81D-02 ExpMax= 1.61D+01 ExpMxC= 1.61D+01 IAcc=3 IRadAn=         5 AccDes= 0.00D+00
 HarFok:  IExCor=  205 AccDes= 0.00D+00 IRadAn=         5 IDoV=-2 UseB2=F ITyADJ=14
 ICtDFT= 12500011 ScaDFX=  1.000000  1.000000  1.000000  1.000000
 Largest valence mixing into a core orbital is  5.19D-04
 Largest core mixing into a valence orbital is  4.32D-04
 Range of M.O.s used for correlation:     2     6
 NBasis=     6 NAE=     3 NBE=     1 NFC=     1 NFV=     0
 NROrb=      5 NOA=     2 NOB=     0 NVA=     3 NVB=     5
 Leave Link  801 at Mon Mar 28 14:04:17 2022, MaxMem=  9663676416 cpu:               2.9 elap:               0.1
 (Enter /nopt/nrel/apps/gaussian/g16C_1/g16/l804.exe)
 Open-shell transformation, MDV=  9663676416 ITran=4 ISComp=2.
 Unit  1 TFree=          3850 TCopy=        114503.
 Semi-Direct transformation.
 ModeAB=           2 MOrb=             2 LenV=    9663557362
 LASXX=           19 LTotXX=          19 LenRXX=          19
 LTotAB=          52 MaxLAS=         210 LenRXY=         210
 NonZer=         270 LenScr=      785920 LnRSAI=           0
 LnScr1=           0 LExtra=      217862 Total=      1004011
 MaxDsk= 34359738368 SrtSym=           F ITran=            4
 DoSDTr:  NPSUse= 36
 JobTyp=1 Pass  1:  I=   1 to   2.
 (rs|ai) integrals will be sorted in core.
 Complete sort for first half transformation.
 First half transformation complete.
 Complete sort for second half transformation.
 Second half transformation complete.
 Spin components of T(2) and E(2):
     alpha-alpha T2 =       0.0000000000D+00 E2=      0.0000000000D+00
     alpha-beta  T2 =       0.0000000000D+00 E2=      0.0000000000D+00
     beta-beta   T2 =       0.0000000000D+00 E2=      0.0000000000D+00
 ANorm=    0.1000000000D+01
 E2 =     0.0000000000D+00 EUMP2 =    -0.77769963961174D+01
 Leave Link  804 at Mon Mar 28 14:04:17 2022, MaxMem=  9663676416 cpu:               1.7 elap:               0.1
 (Enter /nopt/nrel/apps/gaussian/g16C_1/g16/l913.exe)
 CIDS:  MDV=  9663676416.
 Frozen-core window:  NFC=   1 NFV=   0.
 IFCWin=0 IBDFC=1 NFBD=     0     0 NFCmp=     0     0 NFFFC=     0     0
 Using original routines for 1st iteration.
 Using DD4UQ or CC4UQ for 2nd and later iterations.
 Keep R2 and R3 ints in memory in symmetry-blocked form, NReq=7207153.
 FoFCou: FMM=F IPFlag=           0 FMFlag=           0 FMFlg1=           0
         NFxFlg=           0 DoJE=F BraDBF=F KetDBF=F FulRan=T
         wScrn=  0.000000 ICntrl=       600 IOpCl=  0 I1Cent=           0 NGrid=           0
         NMat0=    1 NMatS0=     21 NMatT0=    0 NMatD0=    1 NMtDS0=    0 NMtDT0=    0
 Petite list used in FoFCou.
 CIDS: In Core Option IDoMem=           1.
 Coupled Cluster theory with single and double substitutions
 ===========================================================
 Iterations= 200 Convergence= 0.100D-06
 Produce multiple copies of IABC intergrals
 Iteration Nr.   1
 **********************
 DD1Dir will call FoFMem   1 times, MxPair=         2
 NAB=     0 NAA=     1 NBB=     0.
 MP4(R+Q)=  0.00000000D+00
 Maximum subspace dimension=  5
 A-vector RMS=  0.0000000D+00 Max=  0.0000000D+00 conv= 1.00D-05.
 RLE energy=        0.0000000000
 E3=        0.00000000D+00        EUMP3=      -0.77769963961D+01
 E4(DQ)=    0.00000000D+00        UMP4(DQ)=   -0.77769963961D+01
 E4(SDQ)=   0.00000000D+00        UMP4(SDQ)=  -0.77769963961D+01
 VARIATIONAL ENERGIES WITH THE FIRST-ORDER WAVEFUNCTION:
 DE(Corr)=  0.00000000E+00 E(Corr)=     -7.7769963961    
 NORM(A)=   0.10000000D+01
 Iteration Nr.   2
 **********************
 DD1Dir will call FoFMem   1 times, MxPair=         2
 NAB=     0 NAA=     1 NBB=     0.
 A-vector RMS=  0.0000000D+00 Max=  0.0000000D+00 conv= 1.00D-05.
 RLE energy=        0.0000000000
 DE(Corr)=  0.00000000E+00 E(CORR)=     -7.7769963961     Delta= 0.00D+00
 NORM(A)=   0.10000000D+01
 CI/CC converged in    2 iterations to DelEn= 0.00D+00 Conv= 1.00D-07 ErrA1= 0.00D+00 Conv= 1.00D-05
 Wavefunction amplitudes converged. E(Corr)=     -7.7769963961    
 Largest amplitude= 0.00D+00
 Discarding MO integrals.
 Leave Link  913 at Mon Mar 28 14:04:17 2022, MaxMem=  9663676416 cpu:               2.5 elap:               0.1
 (Enter /nopt/nrel/apps/gaussian/g16C_1/g16/l601.exe)
 Copying SCF densities to generalized density rwf, IOpCl= 1 IROHF=0.

 **********************************************************************

            Population analysis using the SCF Density.

 **********************************************************************

 Orbital symmetries:
 Alpha Orbitals:
       Occupied  (SG) (SG) (SG)
       Virtual   (PI) (PI) (SG)
 Beta  Orbitals:
       Occupied  (SG)
       Virtual   (SG) (SG) (PI) (PI) (SG)
 The electronic state is 3-SG.
 Alpha  occ. eigenvalues --   -2.35769  -0.54230  -0.15749
 Alpha virt. eigenvalues --    0.13583   0.13583   0.22805
  Beta  occ. eigenvalues --   -2.32768
  Beta virt. eigenvalues --    0.04844   0.18216   0.19544   0.19544   0.41950
          Condensed to atoms (all electrons):
               1          2
     1  H    0.852678   0.050427
     2  Li   0.050427   3.046469
          Atomic-Atomic Spin Densities.
               1          2
     1  H    0.852610   0.050759
     2  Li   0.050759   1.045872
 Mulliken charges and spin densities:
               1          2
     1  H    0.096896   0.903369
     2  Li  -0.096896   1.096631
 Sum of Mulliken charges =  -0.00000   2.00000
 Mulliken charges and spin densities with hydrogens summed into heavy atoms:
               1          2
     2  Li  -0.000000   2.000000
 N-N= 7.216052876182D-01 E-N=-1.970823544773D+01  KE= 8.096187409809D+00
 Symmetry A1   KE= 8.096187409809D+00
 Symmetry A2   KE= 0.000000000000D+00
 Symmetry B1   KE= 0.000000000000D+00
 Symmetry B2   KE= 0.000000000000D+00
 Symmetry A1   SP= 2.000000000000D+00
 Symmetry A2   SP= 0.000000000000D+00
 Symmetry B1   SP= 0.000000000000D+00
 Symmetry B2   SP= 0.000000000000D+00

 Atomic contributions to Alpha molecular orbitals:
 Alpha occ 1 OE=-2.358 is Li2-s=1.0001
 Alpha occ 2 OE=-0.542 is H1-s=0.8865
 Alpha occ 3 OE=-0.157 is Li2-s=0.8505 Li2-p=0.1327
 Alpha vir 4 OE=0.136 is Li2-p=1.0000
 Alpha vir 5 OE=0.136 is Li2-p=1.0000
 Alpha vir 6 OE=0.228 is Li2-p=0.8065

 Atomic contributions to Beta  molecular orbitals:
 Beta  occ 1 OE=-2.328 is Li2-s=1.0001
 Beta  vir 2 OE=0.048 is Li2-s=0.5311 H1-s=0.2631 Li2-p=0.2058
 Beta  vir 3 OE=0.182 is Li2-p=0.4571 Li2-s=0.4320 H1-s=0.1109
 Beta  vir 4 OE=0.195 is Li2-p=1.0000
 Beta  vir 5 OE=0.195 is Li2-p=1.0000
 Beta  vir 6 OE=0.419 is H1-s=0.6261 Li2-p=0.3371
 
 Leave Link  601 at Mon Mar 28 14:04:17 2022, MaxMem=  9663676416 cpu:               2.2 elap:               0.1
 (Enter /nopt/nrel/apps/gaussian/g16C_1/g16/l9999.exe)

 Test job not archived.
 1\1\GINC-R102U34\SP\UCCSD-FC\Gen\H1Li1(3)\USER\28-Mar-2022\0\\#P C
 CSD(MaxCyc=200,SaveAmplitudes,ReadAmplitudes)/GEN sp pop=AllOrbitals i
 op(3/33=1,3/36=-1)\\test\\0,3\H,0,0.,0.,0.\Li,0,0.,0.,2.2\\Version=ES6
 4L-G16RevC.01\State=3-SG\HF=-7.7769964\MP2=-7.7769964\MP3=-7.7769964\M
 P4D=-7.7769964\MP4DQ=-7.7769964\MP4SDQ=-7.7769964\CCSD=-7.7769964\S2=2
 .000005\S2-1=0.\S2A=2.\RMSD=1.069e-10\PG=C*V [C*(H1Li1)]\\@


 The cat could very well be man's best friend
 but would never stoop to admitting it.
                               -- Doug Larson
 Job cpu time:       0 days  0 hours  0 minutes 30.3 seconds.
 Elapsed time:       0 days  0 hours  0 minutes  1.2 seconds.
 File lengths (MBytes):  RWF=     13 Int=      0 D2E=      0 Chk=      1 Scr=      1
 Normal termination of Gaussian 16 at Mon Mar 28 14:04:17 2022.
