 Entering Gaussian System, Link 0=g16
 Initial command:
 /nopt/nrel/apps/gaussian/g16C_1/g16/l1.exe "/lustre/eaglefs/scratch/user/qc/nah-dissc/nah-3-ccsd-0.8-321g/Gau-33246.inp" -scrdir="/lustre/eaglefs/scratch/user/qc/nah-dissc/nah-3-ccsd-0.8-321g/"
 Default is to use a total of  36 processors:
                               36 via shared-memory
                                1 via Linda
 Entering Link 1 = /nopt/nrel/apps/gaussian/g16C_1/g16/l1.exe PID=     33247.
  
 Copyright (c) 1988-2019, Gaussian, Inc.  All Rights Reserved.
  
 This is part of the Gaussian(R) 16 program.  It is based on
 the Gaussian(R) 09 system (copyright 2009, Gaussian, Inc.),
 the Gaussian(R) 03 system (copyright 2003, Gaussian, Inc.),
 the Gaussian(R) 98 system (copyright 1998, Gaussian, Inc.),
 the Gaussian(R) 94 system (copyright 1995, Gaussian, Inc.),
 the Gaussian 92(TM) system (copyright 1992, Gaussian, Inc.),
 the Gaussian 90(TM) system (copyright 1990, Gaussian, Inc.),
 the Gaussian 88(TM) system (copyright 1988, Gaussian, Inc.),
 the Gaussian 86(TM) system (copyright 1986, Carnegie Mellon
 University), and the Gaussian 82(TM) system (copyright 1983,
 Carnegie Mellon University). Gaussian is a federally registered
 trademark of Gaussian, Inc.
  
 This software contains proprietary and confidential information,
 including trade secrets, belonging to Gaussian, Inc.
  
 This software is provided under written license and may be
 used, copied, transmitted, or stored only in accord with that
 written license.
  
 The following legend is applicable only to US Government
 contracts under FAR:
  
                    RESTRICTED RIGHTS LEGEND
  
 Use, reproduction and disclosure by the US Government is
 subject to restrictions as set forth in subparagraphs (a)
 and (c) of the Commercial Computer Software - Restricted
 Rights clause in FAR 52.227-19.
  
 Gaussian, Inc.
 340 Quinnipiac St., Bldg. 40, Wallingford CT 06492
  
  
 ---------------------------------------------------------------
 Warning -- This program may not be used in any manner that
 competes with the business of Gaussian, Inc. or will provide
 assistance to any competitor of Gaussian, Inc.  The licensee
 of this program is prohibited from giving any competitor of
 Gaussian, Inc. access to this program.  By using this program,
 the user acknowledges that Gaussian, Inc. is engaged in the
 business of creating and licensing software in the field of
 computational chemistry and represents and warrants to the
 licensee that it is not a competitor of Gaussian, Inc. and that
 it will not use this program in any manner prohibited above.
 ---------------------------------------------------------------
  

 Cite this work as:
 Gaussian 16, Revision C.01,
 M. J. Frisch, G. W. Trucks, H. B. Schlegel, G. E. Scuseria, 
 M. A. Robb, J. R. Cheeseman, G. Scalmani, V. Barone, 
 G. A. Petersson, H. Nakatsuji, X. Li, M. Caricato, A. V. Marenich, 
 J. Bloino, B. G. Janesko, R. Gomperts, B. Mennucci, H. P. Hratchian, 
 J. V. Ortiz, A. F. Izmaylov, J. L. Sonnenberg, D. Williams-Young, 
 F. Ding, F. Lipparini, F. Egidi, J. Goings, B. Peng, A. Petrone, 
 T. Henderson, D. Ranasinghe, V. G. Zakrzewski, J. Gao, N. Rega, 
 G. Zheng, W. Liang, M. Hada, M. Ehara, K. Toyota, R. Fukuda, 
 J. Hasegawa, M. Ishida, T. Nakajima, Y. Honda, O. Kitao, H. Nakai, 
 T. Vreven, K. Throssell, J. A. Montgomery, Jr., J. E. Peralta, 
 F. Ogliaro, M. J. Bearpark, J. J. Heyd, E. N. Brothers, K. N. Kudin, 
 V. N. Staroverov, T. A. Keith, R. Kobayashi, J. Normand, 
 K. Raghavachari, A. P. Rendell, J. C. Burant, S. S. Iyengar, 
 J. Tomasi, M. Cossi, J. M. Millam, M. Klene, C. Adamo, R. Cammi, 
 J. W. Ochterski, R. L. Martin, K. Morokuma, O. Farkas, 
 J. B. Foresman, and D. J. Fox, Gaussian, Inc., Wallingford CT, 2019.
 
 ******************************************
 Gaussian 16:  ES64L-G16RevC.01  3-Jul-2019
                28-Mar-2022 
 ******************************************
 %chk=molecule
 Default route: CacheSize=180224 MaxDisk=256GB
 ----------------------------------------------------------------------
 #P CCSD(MaxCyc=200,SaveAmplitudes,ReadAmplitudes)/GEN sp pop=AllOrbita
 ls iop(3/33=1,3/36=-1)
 ----------------------------------------------------------------------
 1/4=180224,38=1,172=1/1;
 2/4=180224,12=2,17=6,18=5,40=1/2;
 3/4=180224,5=7,11=9,25=1,30=1,33=1,36=-1/1,2,3;
 4/4=180224/1;
 5/4=180224,5=2,38=5/2;
 8/4=180224,6=4,9=120000,10=1,24=1/1,4;
 9/4=180224,5=7,6=200,77=1/13;
 6/4=180224,7=2,8=2,9=2,10=2,96=-1/1;
 99/4=180224,5=1,9=1/99;
 Leave Link    1 at Mon Mar 28 14:24:23 2022, MaxMem=           0 cpu:               2.7 elap:               0.1
 (Enter /nopt/nrel/apps/gaussian/g16C_1/g16/l101.exe)
 ----
 test
 ----
 Symbolic Z-matrix:
 Charge =  0 Multiplicity = 3
 H                     0.        0.        0. 
 Na                    0.        0.        0.8 
 
 ITRead=  0  0
 MicOpt= -1 -1
 NAtoms=      2 NQM=        2 NQMF=       0 NMMI=      0 NMMIF=      0
                NMic=       0 NMicF=      0.
                    Isotopes and Nuclear Properties:
 (Nuclear quadrupole moments (NQMom) in fm**2, nuclear magnetic moments (NMagM)
  in nuclear magnetons)

  Atom         1           2
 IAtWgt=           1          23
 AtmWgt=   1.0078250  22.9897697
 NucSpn=           1           3
 AtZEff=  -0.0000000  -0.0000000
 NQMom=    0.0000000  10.4000000
 NMagM=    2.7928460   2.2175200
 AtZNuc=   1.0000000  11.0000000
 Leave Link  101 at Mon Mar 28 14:24:23 2022, MaxMem=  9663676416 cpu:               3.0 elap:               0.1
 (Enter /nopt/nrel/apps/gaussian/g16C_1/g16/l202.exe)
                          Input orientation:                          
 ---------------------------------------------------------------------
 Center     Atomic      Atomic             Coordinates (Angstroms)
 Number     Number       Type             X           Y           Z
 ---------------------------------------------------------------------
      1          1           0        0.000000    0.000000    0.000000
      2         11           0        0.000000    0.000000    0.800000
 ---------------------------------------------------------------------
 Stoichiometry    HNa(3)
 Framework group  C*V[C*(HNa)]
 Deg. of freedom     1
 Full point group                 C*V     NOp   4
 Largest Abelian subgroup         C2V     NOp   4
 Largest concise Abelian subgroup C1      NOp   1
                         Standard orientation:                         
 ---------------------------------------------------------------------
 Center     Atomic      Atomic             Coordinates (Angstroms)
 Number     Number       Type             X           Y           Z
 ---------------------------------------------------------------------
      1          1           0        0.000000    0.000000   -0.733333
      2         11           0        0.000000    0.000000    0.066667
 ---------------------------------------------------------------------
 Rotational constants (GHZ):           0.0000000         817.8716917         817.8716917
 Leave Link  202 at Mon Mar 28 14:24:23 2022, MaxMem=  9663676416 cpu:               1.2 elap:               0.1
 (Enter /nopt/nrel/apps/gaussian/g16C_1/g16/l301.exe)
 General basis read from cards:  (5D, 7F)
                         Coordinates in L301:                         
 ---------------------------------------------------------------------
 Center     Atomic      Atomic             Coordinates (Angstroms)
 Number     Number       Type             X           Y           Z
 ---------------------------------------------------------------------
      1          1           0        0.000000    0.000000   -0.733333
      2         11           0        0.000000    0.000000    0.066667
 ---------------------------------------------------------------------
 Centers:       1
 STO-3G
 ****
 Centers:       2
 3-21G
 ****
 FixB: optimizing general contractions.
 Ernie: Thresh=  0.10000D-02 Tol=  0.10000D-05 Strict=F.
 IA=     1 ShT= 0 ShC= 0 NL=   1 NS=   0.
 IA=     1 L=0 SC=0 ISt=    0 NBk=    0 NP=    0 IndPr=    0.
 IA=     2 ShT= 0 ShC= 0 NL=   1 NS=   0.
 IA=     2 L=0 SC=0 ISt=    0 NBk=    0 NP=    0 IndPr=    0.
 IA=     2 ShT= 1 ShC= 0 NL=   3 NS=   1.
 IA=     2 L=1 SC=0 ISt=    1 NBk=    2 NP=    5 IndPr=    0.
 DoElim1:  L=1 select primitive    1 from    2 using    1 C=-1.12D-01
 DoElim2:  L=1 select primitive    5 from    1 using    2 C= 1.09D+00
 DoElim1:  L=1 select primitive    1 from    2 using    1 C= 1.28D-01
 DoElim2:  L=1 select primitive    5 from    1 using    2 C= 9.97D-01
 Delete L=1 primitive    3 from    2 C=  0.00D+00.
 Delete L=1 primitive    2 from    2 C=  0.00D+00.
 Delete L=1 primitive    1 from    2 C=  0.00D+00.
 Delete L=1 primitive    5 from    1 C=  0.00D+00.
 Delete L=1 primitive    4 from    1 C=  0.00D+00.
 IA=     2 L=1 SC=0 ISt=    0 NBk=    0 NP=    0 IndPr=    5.
 LdAtmC:  AtmChg=     1.000000    11.000000
 AtZEff=     -1.0000000    -10.0400000
 NEqShl: 
              1            2            3            4
     1            1            1            1            1
     2            2            2            2            2
     3            3            3            3            3
     4            4            4            4            4
     5            5            5            5            5
 NEqBas: 
              1            2            3            4
     1            1            1            1            1
     2            2            2            2            2
     3            3            3            3            3
     4            4           -4           -4            4
     5            5           -5            5           -5
     6            6            6            6            6
     7            7            7            7            7
     8            8           -8           -8            8
     9            9           -9            9           -9
    10           10           10           10           10
    11           11           11           11           11
    12           12          -12          -12           12
    13           13          -13           13          -13
    14           14           14           14           14
 There are     8 symmetry adapted cartesian basis functions of A1  symmetry.
   1         1   1   1   1
   2         2   2   2   2
   3         3   3   3   3
   4         6   6   6   6
   5         7   7   7   7
   6        10  10  10  10
   7        11  11  11  11
   8        14  14  14  14
 There are     0 symmetry adapted cartesian basis functions of A2  symmetry.
 There are     3 symmetry adapted cartesian basis functions of B1  symmetry.
   9         4   4   4   4
  10         8   8   8   8
  11        12  12  12  12
 There are     3 symmetry adapted cartesian basis functions of B2  symmetry.
  12         5   5   5   5
  13         9   9   9   9
  14        13  13  13  13
 Order= 1 2 4 3
 Reordered character table:
              1            2            3            4            5
     1            1            1            1            1            1
     2            2            1            1           -1           -1
     3            4            1           -1           -1            1
     4            3            1           -1            1           -1
 NEqShl: 
              1            2            3            4
     1            1            1            1            1
     2            2            2            2            2
     3            3            3            3            3
     4            4            4            4            4
     5            5            5            5            5
 NEqBas: 
              1            2            3            4
     1            1            1            1            1
     2            2            2            2            2
     3            3            3            3            3
     4            4           -4           -4            4
     5            5           -5            5           -5
     6            6            6            6            6
     7            7            7            7            7
     8            8           -8           -8            8
     9            9           -9            9           -9
    10           10           10           10           10
    11           11           11           11           11
    12           12          -12          -12           12
    13           13          -13           13          -13
    14           14           14           14           14
 There are     8 symmetry adapted basis functions of A1  symmetry.
   1         1   1   1   1
   2         2   2   2   2
   3         3   3   3   3
   4         6   6   6   6
   5         7   7   7   7
   6        10  10  10  10
   7        11  11  11  11
   8        14  14  14  14
 There are     0 symmetry adapted basis functions of A2  symmetry.
 There are     3 symmetry adapted basis functions of B1  symmetry.
   9         4   4   4   4
  10         8   8   8   8
  11        12  12  12  12
 There are     3 symmetry adapted basis functions of B2  symmetry.
  12         5   5   5   5
  13         9   9   9   9
  14        13  13  13  13
 Order= 1 2 4 3
 Reordered character table:
              1            2            3            4            5
     1            1            1            1            1            1
     2            2            1            1           -1           -1
     3            4            1           -1           -1            1
     4            3            1           -1            1           -1
    14 basis functions,    30 primitive gaussians,    14 cartesian basis functions
     7 alpha electrons        5 beta electrons
       nuclear repulsion energy         7.2761866501 Hartrees.
 IS=     1 IAt=     1 ISR=     1 T=0 IP=      1 IndIP=      1 IndIPD=      0 C=  2.769344D-01  0.000000D+00                             NZ=T
 IS=     1 IAt=     1 ISR=     1 T=0 IP=      2 IndIP=      2 IndIPD=      1 C=  2.678389D-01  0.000000D+00                             NZ=T
 IS=     1 IAt=     1 ISR=     1 T=0 IP=      3 IndIP=      3 IndIPD=      2 C=  8.347367D-02  0.000000D+00                             NZ=T
 IS=     2 IAt=     2 ISR=     1 T=0 IP=      1 IndIP=      4 IndIPD=      0 C=  5.445177D+00  0.000000D+00                             NZ=T
 IS=     2 IAt=     2 ISR=     1 T=0 IP=      2 IndIP=      5 IndIPD=      1 C=  7.646982D+00  0.000000D+00                             NZ=T
 IS=     2 IAt=     2 ISR=     1 T=0 IP=      3 IndIP=      6 IndIPD=      2 C=  4.092173D+00  0.000000D+00                             NZ=T
 IS=     3 IAt=     2 ISR=     2 T=1 IP=      1 IndIP=      7 IndIPD=      0 C= -6.837842D-01  6.561431D+00                             NZ=T
 IS=     3 IAt=     2 ISR=     2 T=1 IP=      2 IndIP=      8 IndIPD=      1 C=  4.933805D-01  3.558943D+00                             NZ=T
 IS=     3 IAt=     2 ISR=     2 T=1 IP=      3 IndIP=      9 IndIPD=      2 C=  5.590773D-01  7.618119D-01                             NZ=T
 IS=     4 IAt=     2 ISR=     3 T=1 IP=      1 IndIP=     10 IndIPD=      0 C= -9.334168D-02  5.458439D-03                             NZ=T
 IS=     4 IAt=     2 ISR=     3 T=1 IP=      2 IndIP=     11 IndIPD=      1 C=  9.521265D-02  4.304303D-02                             NZ=T
 IS=     5 IAt=     2 ISR=     4 T=1 IP=      1 IndIP=     12 IndIPD=      0 C=  4.404717D-02  1.377061D-02                             NZ=T
 IExCor=    0 DFT=F Ex=HF Corr=None ExCW=0 ScaHFX=  1.000000
 ScaDFX=  1.000000  1.000000  1.000000  1.000000 ScalE2=  1.000000  1.000000
 IRadAn=      5 IRanWt=     -1 IRanGd=            0 ICorTp=0 IEmpDi=  4
 NAtoms=    2 NActive=    2 NUniq=    2 SFac= 1.00D+00 NAtFMM=   60 NAOKFM=F Big=F
 Integral buffers will be    131072 words long.
 Raffenetti 2 integral format.
 Two-electron integral symmetry is turned on.
 Leave Link  301 at Mon Mar 28 14:24:23 2022, MaxMem=  9663676416 cpu:               1.9 elap:               0.1
 (Enter /nopt/nrel/apps/gaussian/g16C_1/g16/l302.exe)
 NPDir=0 NMtPBC=     1 NCelOv=     1 NCel=       1 NClECP=     1 NCelD=      1
         NCelK=      1 NCelE2=     1 NClLst=     1 CellRange=     0.0.
 One-electron integrals computed using PRISM.
 One-electron integral symmetry used in STVInt
 Entering OneElI...
 Calculate overlap and kinetic energy integrals
    NBasis =  14  MinDer = 0  MaxDer = 0
 Requested accuracy = 0.1000D-12
 Symmetry will be used
 PrmmSu-InSpLW:  IPartL=    0 NPrtUS=   36 NPrtUL=    1 DoSpLW=F IThBeg=    0 IThEnd=   35 NThAct=   36.
 PrSmSu:  IncTry=   512 NBBP=             15 NTPThr=   100 NPartT=   36 Incr=           1 LDynOK=F GPUOK=F.
 PrsmSu:  NPrtUS=  36 ThrOK=T IAlg=1 LenDen=           0 ISkipM=0 DoSpLW=F IThBeg=    0 IThEnd=   35.
 Prism:   IPart=     0 DynPar=F LinDyn=F Incr=           1.
 PRISM was handed   268433825 working-precision words and    15 shell-pairs
 PRISM was handed   268433825 working-precision words and    15 shell-pairs
 PRISM was handed   268433825 working-precision words and    15 shell-pairs
 PRISM was handed   268433825 working-precision words and    15 shell-pairs
 PRISM was handed   268433825 working-precision words and    15 shell-pairs
 PRISM was handed   268433825 working-precision words and    15 shell-pairs
 PRISM was handed   268433825 working-precision words and    15 shell-pairs
 PRISM was handed   268433825 working-precision words and    15 shell-pairs
 IPart= 16 NShTot=           0 NBatch=           0 AvBLen=         0.0
 IPart= 32 NShTot=           0 NBatch=           0 AvBLen=         0.0
 IPart= 24 NShTot=           0 NBatch=           0 AvBLen=         0.0
 IPart= 18 NShTot=           0 NBatch=           0 AvBLen=         0.0
 IPart= 27 NShTot=           0 NBatch=           0 AvBLen=         0.0
 PRISM was handed   268433825 working-precision words and    15 shell-pairs
 IPart=  5 NShTot=           0 NBatch=           0 AvBLen=         0.0
 IPart= 20 NShTot=           0 NBatch=           0 AvBLen=         0.0
 PRISM was handed   268433825 working-precision words and    15 shell-pairs
 PRISM was handed   268433825 working-precision words and    15 shell-pairs
 PRISM was handed   268433825 working-precision words and    15 shell-pairs
 PRISM was handed   268433825 working-precision words and    15 shell-pairs
 PRISM was handed   268433825 working-precision words and    15 shell-pairs
 PRISM was handed   268433825 working-precision words and    15 shell-pairs
 PRISM was handed   268433825 working-precision words and    15 shell-pairs
 IPart= 17 NShTot=           0 NBatch=           0 AvBLen=         0.0
 IPart= 29 NShTot=           0 NBatch=           0 AvBLen=         0.0
 IPart= 30 NShTot=           0 NBatch=           0 AvBLen=         0.0
 IPart= 23 NShTot=           0 NBatch=           0 AvBLen=         0.0
 IPart= 35 NShTot=           0 NBatch=           0 AvBLen=         0.0
 PRISM was handed   268433825 working-precision words and    15 shell-pairs
 IPart=  4 NShTot=           0 NBatch=           0 AvBLen=         0.0
 IPart= 21 NShTot=           0 NBatch=           0 AvBLen=         0.0
 PRISM was handed   268433825 working-precision words and    15 shell-pairs
 IPart= 13 NShTot=           0 NBatch=           0 AvBLen=         0.0
 PRISM was handed   268433825 working-precision words and    15 shell-pairs
 PRISM was handed   268433825 working-precision words and    15 shell-pairs
 PRISM was handed   268433825 working-precision words and    15 shell-pairs
 PRISM was handed   268433825 working-precision words and    15 shell-pairs
 PRISM was handed   268433825 working-precision words and    15 shell-pairs
 IPart= 25 NShTot=           0 NBatch=           0 AvBLen=         0.0
 IPart= 34 NShTot=           0 NBatch=           0 AvBLen=         0.0
 IPart= 28 NShTot=           0 NBatch=           0 AvBLen=         0.0
 IPart= 31 NShTot=           0 NBatch=           0 AvBLen=         0.0
 IPart= 19 NShTot=           0 NBatch=           0 AvBLen=         0.0
 IPart= 33 NShTot=           0 NBatch=           0 AvBLen=         0.0
 IPart=  7 NShTot=           0 NBatch=           0 AvBLen=         0.0
 PRISM was handed   268433825 working-precision words and    15 shell-pairs
 PRISM was handed   268433825 working-precision words and    15 shell-pairs
 PRISM was handed   268433825 working-precision words and    15 shell-pairs
 PRISM was handed   268433825 working-precision words and    15 shell-pairs
 PRISM was handed   268433825 working-precision words and    15 shell-pairs
 PRISM was handed   268433825 working-precision words and    15 shell-pairs
 PRISM was handed   268433825 working-precision words and    15 shell-pairs
 PRISM was handed   268433825 working-precision words and    15 shell-pairs
 PRISM was handed   268433825 working-precision words and    15 shell-pairs
 PRISM was handed   268433825 working-precision words and    15 shell-pairs
 IPart= 14 NShTot=           0 NBatch=           0 AvBLen=         0.0
 IPart=  6 NShTot=           0 NBatch=           0 AvBLen=         0.0
 IPart= 12 NShTot=           0 NBatch=           0 AvBLen=         0.0
 IPart=  1 NShTot=           4 NBatch=           4 AvBLen=         1.0
 PRISM was handed   268433825 working-precision words and    15 shell-pairs
 PRISM was handed   268433825 working-precision words and    15 shell-pairs
 IPart= 11 NShTot=           0 NBatch=           0 AvBLen=         0.0
 IPart= 10 NShTot=           0 NBatch=           0 AvBLen=         0.0
 IPart=  8 NShTot=           0 NBatch=           0 AvBLen=         0.0
 IPart= 26 NShTot=           0 NBatch=           0 AvBLen=         0.0
 IPart=  0 NShTot=          10 NBatch=          10 AvBLen=         1.0
 IPart= 22 NShTot=           0 NBatch=           0 AvBLen=         0.0
 PRISM was handed   268433825 working-precision words and    15 shell-pairs
 IPart=  2 NShTot=           1 NBatch=           1 AvBLen=         1.0
 IPart= 15 NShTot=           0 NBatch=           0 AvBLen=         0.0
 IPart=  3 NShTot=           0 NBatch=           0 AvBLen=         0.0
 IPart=  9 NShTot=           0 NBatch=           0 AvBLen=         0.0
 PrSmSu:  NxtVal=             37.
 *** Overlap *** 
                1             2             3             4             5 
      1  0.100000D+01
      2  0.441470D-01  0.100000D+01
      3  0.413956D+00  0.226762D+00  0.100000D+01
      4  0.000000D+00  0.000000D+00  0.000000D+00  0.100000D+01
      5  0.000000D+00  0.000000D+00  0.000000D+00  0.000000D+00  0.100000D+01
      6 -0.294294D+00  0.000000D+00  0.000000D+00  0.000000D+00  0.000000D+00
      7  0.475307D+00  0.175172D-02  0.143132D+00  0.000000D+00  0.000000D+00
      8  0.000000D+00  0.000000D+00  0.000000D+00  0.120813D+00  0.000000D+00
      9  0.000000D+00  0.000000D+00  0.000000D+00  0.000000D+00  0.120813D+00
     10 -0.337597D+00  0.000000D+00  0.000000D+00  0.000000D+00  0.000000D+00
     11  0.358732D+00  0.160858D-01  0.166618D+00  0.000000D+00  0.000000D+00
     12  0.000000D+00  0.000000D+00  0.000000D+00  0.399192D-01  0.000000D+00
     13  0.000000D+00  0.000000D+00  0.000000D+00  0.000000D+00  0.399192D-01
     14 -0.153681D+00  0.000000D+00  0.000000D+00  0.000000D+00  0.000000D+00
                6             7             8             9            10 
      6  0.100000D+01
      7  0.000000D+00  0.100000D+01
      8  0.000000D+00  0.000000D+00  0.100000D+01
      9  0.000000D+00  0.000000D+00  0.000000D+00  0.100000D+01
     10  0.120813D+00  0.000000D+00  0.000000D+00  0.000000D+00  0.100000D+01
     11  0.000000D+00  0.876080D+00  0.000000D+00  0.000000D+00  0.000000D+00
     12  0.000000D+00  0.000000D+00  0.775774D+00  0.000000D+00  0.000000D+00
     13  0.000000D+00  0.000000D+00  0.000000D+00  0.775774D+00  0.000000D+00
     14  0.399192D-01  0.000000D+00  0.000000D+00  0.000000D+00  0.775774D+00
               11            12            13            14 
     11  0.100000D+01
     12  0.000000D+00  0.100000D+01
     13  0.000000D+00  0.000000D+00  0.100000D+01
     14  0.000000D+00  0.000000D+00  0.000000D+00  0.100000D+01
 *** Kinetic Energy *** 
                1             2             3             4             5 
      1  0.760032D+00
      2  0.799168D-02  0.570648D+02
      3  0.151354D+00 -0.145971D+01  0.183414D+01
      4  0.000000D+00  0.000000D+00  0.000000D+00  0.585712D+01
      5  0.000000D+00  0.000000D+00  0.000000D+00  0.000000D+00  0.585712D+01
      6 -0.303436D+00  0.000000D+00  0.000000D+00  0.000000D+00  0.000000D+00
      7  0.314931D-01 -0.420609D-01 -0.141303D+00  0.000000D+00  0.000000D+00
      8  0.000000D+00  0.000000D+00  0.000000D+00  0.441422D-01  0.000000D+00
      9  0.000000D+00  0.000000D+00  0.000000D+00  0.000000D+00  0.441422D-01
     10 -0.836167D-01  0.000000D+00  0.000000D+00  0.000000D+00  0.000000D+00
     11  0.230295D-01  0.117775D-02  0.119127D-01  0.000000D+00  0.000000D+00
     12  0.000000D+00  0.000000D+00  0.000000D+00  0.476129D-02  0.000000D+00
     13  0.000000D+00  0.000000D+00  0.000000D+00  0.000000D+00  0.476129D-02
     14 -0.167119D-01  0.000000D+00  0.000000D+00  0.000000D+00  0.000000D+00
                6             7             8             9            10 
      6  0.585712D+01
      7  0.000000D+00  0.106538D+00
      8  0.000000D+00  0.000000D+00  0.153112D+00
      9  0.000000D+00  0.000000D+00  0.000000D+00  0.153112D+00
     10  0.441422D-01  0.000000D+00  0.000000D+00  0.000000D+00  0.153112D+00
     11  0.000000D+00  0.447876D-01  0.000000D+00  0.000000D+00  0.000000D+00
     12  0.000000D+00  0.000000D+00  0.676855D-01  0.000000D+00  0.000000D+00
     13  0.000000D+00  0.000000D+00  0.000000D+00  0.676855D-01  0.000000D+00
     14  0.476129D-02  0.000000D+00  0.000000D+00  0.000000D+00  0.676855D-01
               11            12            13            14 
     11  0.366524D-01
     12  0.000000D+00  0.610873D-01
     13  0.000000D+00  0.000000D+00  0.610873D-01
     14  0.000000D+00  0.000000D+00  0.000000D+00  0.610873D-01
 Entering OneElI...
 Calculate potential energy integrals
    NBasis =  14  MinDer = 0  MaxDer = 0
 Requested accuracy = 0.1000D-12
 Symmetry will be used
 PrmmSu-InSpLW:  IPartL=    0 NPrtUS=   36 NPrtUL=    1 DoSpLW=F IThBeg=    0 IThEnd=   35 NThAct=   36.
 PrSmSu:  IncTry=   512 NBBP=             30 NTPThr=   100 NPartT=   36 Incr=           1 LDynOK=F GPUOK=F.
 PrsmSu:  NPrtUS=  36 ThrOK=T IAlg=1 LenDen=           0 ISkipM=0 DoSpLW=F IThBeg=    0 IThEnd=   35.
 Prism:   IPart=     0 DynPar=F LinDyn=F Incr=           1.
 PRISM was handed   268433915 working-precision words and    15 shell-pairs
 PRISM was handed   268433915 working-precision words and    15 shell-pairs
 PRISM was handed   268433915 working-precision words and    15 shell-pairs
 PRISM was handed   268433915 working-precision words and    15 shell-pairs
 PRISM was handed   268433915 working-precision words and    15 shell-pairs
 PRISM was handed   268433915 working-precision words and    15 shell-pairs
 PRISM was handed   268433915 working-precision words and    15 shell-pairs
 PRISM was handed   268433915 working-precision words and    15 shell-pairs
 PRISM was handed   268433915 working-precision words and    15 shell-pairs
 PRISM was handed   268433915 working-precision words and    15 shell-pairs
 PRISM was handed   268433915 working-precision words and    15 shell-pairs
 PRISM was handed   268433915 working-precision words and    15 shell-pairs
 PRISM was handed   268433915 working-precision words and    15 shell-pairs
 PRISM was handed   268433915 working-precision words and    15 shell-pairs
 PRISM was handed   268433915 working-precision words and    15 shell-pairs
 PRISM was handed   268433915 working-precision words and    15 shell-pairs
 PRISM was handed   268433915 working-precision words and    15 shell-pairs
 PRISM was handed   268433915 working-precision words and    15 shell-pairs
 PRISM was handed   268433915 working-precision words and    15 shell-pairs
 PRISM was handed   268433915 working-precision words and    15 shell-pairs
 PRISM was handed   268433915 working-precision words and    15 shell-pairs
 PRISM was handed   268433915 working-precision words and    15 shell-pairs
 PRISM was handed   268433915 working-precision words and    15 shell-pairs
 PRISM was handed   268433915 working-precision words and    15 shell-pairs
 PRISM was handed   268433915 working-precision words and    15 shell-pairs
 PRISM was handed   268433915 working-precision words and    15 shell-pairs
 PRISM was handed   268433915 working-precision words and    15 shell-pairs
 PRISM was handed   268433915 working-precision words and    15 shell-pairs
 PRISM was handed   268433915 working-precision words and    15 shell-pairs
 PRISM was handed   268433915 working-precision words and    15 shell-pairs
 PRISM was handed   268433915 working-precision words and    15 shell-pairs
 PRISM was handed   268433915 working-precision words and    15 shell-pairs
 PRISM was handed   268433915 working-precision words and    15 shell-pairs
 PRISM was handed   268433915 working-precision words and    15 shell-pairs
 PRISM was handed   268433915 working-precision words and    15 shell-pairs
 PRISM was handed   268433915 working-precision words and    15 shell-pairs
 IPart=  2 NShTot=           2 NBatch=           1 AvBLen=         2.0
 IPart=  1 NShTot=           8 NBatch=           4 AvBLen=         2.0
 IPart=  0 NShTot=          20 NBatch=          10 AvBLen=         2.0
 IPart= 33 NShTot=           0 NBatch=           0 AvBLen=         0.0
 IPart=  6 NShTot=           0 NBatch=           0 AvBLen=         0.0
 IPart=  9 NShTot=           0 NBatch=           0 AvBLen=         0.0
 IPart=  7 NShTot=           0 NBatch=           0 AvBLen=         0.0
 IPart= 15 NShTot=           0 NBatch=           0 AvBLen=         0.0
 IPart= 30 NShTot=           0 NBatch=           0 AvBLen=         0.0
 IPart= 21 NShTot=           0 NBatch=           0 AvBLen=         0.0
 IPart=  4 NShTot=           0 NBatch=           0 AvBLen=         0.0
 IPart= 27 NShTot=           0 NBatch=           0 AvBLen=         0.0
 IPart= 35 NShTot=           0 NBatch=           0 AvBLen=         0.0
 IPart= 28 NShTot=           0 NBatch=           0 AvBLen=         0.0
 IPart= 19 NShTot=           0 NBatch=           0 AvBLen=         0.0
 IPart= 18 NShTot=           0 NBatch=           0 AvBLen=         0.0
 IPart= 20 NShTot=           0 NBatch=           0 AvBLen=         0.0
 IPart= 16 NShTot=           0 NBatch=           0 AvBLen=         0.0
 IPart= 11 NShTot=           0 NBatch=           0 AvBLen=         0.0
 IPart= 32 NShTot=           0 NBatch=           0 AvBLen=         0.0
 IPart= 23 NShTot=           0 NBatch=           0 AvBLen=         0.0
 IPart= 34 NShTot=           0 NBatch=           0 AvBLen=         0.0
 IPart= 24 NShTot=           0 NBatch=           0 AvBLen=         0.0
 IPart=  8 NShTot=           0 NBatch=           0 AvBLen=         0.0
 IPart= 12 NShTot=           0 NBatch=           0 AvBLen=         0.0
 IPart= 13 NShTot=           0 NBatch=           0 AvBLen=         0.0
 IPart=  5 NShTot=           0 NBatch=           0 AvBLen=         0.0
 IPart=  3 NShTot=           0 NBatch=           0 AvBLen=         0.0
 IPart= 10 NShTot=           0 NBatch=           0 AvBLen=         0.0
 IPart= 14 NShTot=           0 NBatch=           0 AvBLen=         0.0
 IPart= 26 NShTot=           0 NBatch=           0 AvBLen=         0.0
 IPart= 25 NShTot=           0 NBatch=           0 AvBLen=         0.0
 IPart= 31 NShTot=           0 NBatch=           0 AvBLen=         0.0
 IPart= 22 NShTot=           0 NBatch=           0 AvBLen=         0.0
 IPart= 29 NShTot=           0 NBatch=           0 AvBLen=         0.0
 IPart= 17 NShTot=           0 NBatch=           0 AvBLen=         0.0
 PrSmSu:  NxtVal=             37.
 ***** Potential Energy ***** 
                1             2             3             4             5 
      1  0.801333D+01
      2  0.282425D+01  0.117816D+03
      3  0.584777D+01  0.128927D+02  0.187758D+02
      4  0.000000D+00  0.000000D+00  0.000000D+00  0.192552D+02
      5  0.000000D+00  0.000000D+00  0.000000D+00  0.000000D+00  0.192552D+02
      6 -0.347041D+01 -0.165019D-01 -0.188490D+00  0.000000D+00  0.000000D+00
      7  0.272972D+01  0.835876D-01  0.142075D+01  0.000000D+00  0.000000D+00
      8  0.000000D+00  0.000000D+00  0.000000D+00  0.120573D+01  0.000000D+00
      9  0.000000D+00  0.000000D+00  0.000000D+00  0.000000D+00  0.120573D+01
     10 -0.183752D+01 -0.188290D-03 -0.272373D-01  0.000000D+00  0.000000D+00
     11  0.225458D+01  0.102769D+01  0.220951D+01  0.000000D+00  0.000000D+00
     12  0.000000D+00  0.000000D+00  0.000000D+00  0.384263D+00  0.000000D+00
     13  0.000000D+00  0.000000D+00  0.000000D+00  0.000000D+00  0.384263D+00
     14 -0.749493D+00 -0.540778D-04 -0.886079D-02  0.000000D+00  0.000000D+00
                6             7             8             9            10 
      6  0.193740D+02
      7 -0.451328D-01  0.387732D+01
      8  0.000000D+00  0.000000D+00  0.315766D+01
      9  0.000000D+00  0.000000D+00  0.000000D+00  0.315766D+01
     10  0.123132D+01 -0.801796D-01  0.000000D+00  0.000000D+00  0.319451D+01
     11 -0.443644D-01  0.310973D+01  0.000000D+00  0.000000D+00 -0.633623D-01
     12  0.000000D+00  0.000000D+00  0.204384D+01  0.000000D+00  0.000000D+00
     13  0.000000D+00  0.000000D+00  0.000000D+00  0.204384D+01  0.000000D+00
     14  0.392740D+00 -0.393525D-01  0.000000D+00  0.000000D+00  0.206138D+01
               11            12            13            14 
     11  0.298436D+01
     12  0.000000D+00  0.199193D+01
     13  0.000000D+00  0.000000D+00  0.199193D+01
     14 -0.367672D-01  0.000000D+00  0.000000D+00  0.200223D+01
 ****** Core Hamiltonian ****** 
                1             2             3             4             5 
      1 -0.725330D+01
      2 -0.281626D+01 -0.607510D+02
      3 -0.569641D+01 -0.143524D+02 -0.169417D+02
      4  0.000000D+00  0.000000D+00  0.000000D+00 -0.133981D+02
      5  0.000000D+00  0.000000D+00  0.000000D+00  0.000000D+00 -0.133981D+02
      6  0.316697D+01  0.165019D-01  0.188490D+00  0.000000D+00  0.000000D+00
      7 -0.269823D+01 -0.125648D+00 -0.156205D+01  0.000000D+00  0.000000D+00
      8  0.000000D+00  0.000000D+00  0.000000D+00 -0.116159D+01  0.000000D+00
      9  0.000000D+00  0.000000D+00  0.000000D+00  0.000000D+00 -0.116159D+01
     10  0.175391D+01  0.188290D-03  0.272373D-01  0.000000D+00  0.000000D+00
     11 -0.223155D+01 -0.102651D+01 -0.219759D+01  0.000000D+00  0.000000D+00
     12  0.000000D+00  0.000000D+00  0.000000D+00 -0.379502D+00  0.000000D+00
     13  0.000000D+00  0.000000D+00  0.000000D+00  0.000000D+00 -0.379502D+00
     14  0.732781D+00  0.540778D-04  0.886079D-02  0.000000D+00  0.000000D+00
                6             7             8             9            10 
      6 -0.135169D+02
      7  0.451328D-01 -0.377079D+01
      8  0.000000D+00  0.000000D+00 -0.300455D+01
      9  0.000000D+00  0.000000D+00  0.000000D+00 -0.300455D+01
     10 -0.118718D+01  0.801796D-01  0.000000D+00  0.000000D+00 -0.304140D+01
     11  0.443644D-01 -0.306494D+01  0.000000D+00  0.000000D+00  0.633623D-01
     12  0.000000D+00  0.000000D+00 -0.197616D+01  0.000000D+00  0.000000D+00
     13  0.000000D+00  0.000000D+00  0.000000D+00 -0.197616D+01  0.000000D+00
     14 -0.387979D+00  0.393525D-01  0.000000D+00  0.000000D+00 -0.199370D+01
               11            12            13            14 
     11 -0.294771D+01
     12  0.000000D+00 -0.193085D+01
     13  0.000000D+00  0.000000D+00 -0.193085D+01
     14  0.367672D-01  0.000000D+00  0.000000D+00 -0.194114D+01
 SVDSVc IOpt=   1 NormSV=T IR=1
 SVDSVc V= 2.38D+00 1.82D+00 1.23D+00 1.06D+00 8.04D-01 4.19D-01 1.90D-01 9.84D-02
 SVDSVc IOpt=   1 NormSV=T IR=3
 SVDSVc V= 1.79D+00 9.88D-01 2.20D-01
 SVDSVc IOpt=   1 NormSV=T IR=4
 SVDSVc V= 1.79D+00 9.88D-01 2.20D-01
 TstOVc:  Largest diagonal error= 1.78D-15 IB=3 I=   11.
 TstOVc:  Largest same sym error= 2.90D-15 IB=1 I=    8 J=    7.
 TstOVc:  Largest diff sym error= 0.00D+00 IB=0 JB=0 I=    0 J=    0.
 Orthogonalized basis functions: 
                 1             2             3             4             5 
      1   0.332607D+00 -0.530837D-01  0.179632D+00 -0.245356D+00 -0.261327D+00
      2   0.448900D-01  0.197996D-01  0.557797D+00  0.350197D+00  0.760721D+00
      3   0.182205D+00  0.642086D-01  0.541943D+00  0.133385D+00 -0.622928D+00
      4   0.000000D+00  0.000000D+00  0.000000D+00  0.000000D+00  0.000000D+00
      5   0.000000D+00  0.000000D+00  0.000000D+00  0.000000D+00  0.000000D+00
      6  -0.892097D-01  0.109685D+00 -0.167343D+00  0.807665D+00 -0.369484D+00
      7   0.341098D+00  0.224547D+00 -0.252080D+00  0.767643D-01  0.165626D+00
      8   0.000000D+00  0.000000D+00  0.000000D+00  0.000000D+00  0.000000D+00
      9   0.000000D+00  0.000000D+00  0.000000D+00  0.000000D+00  0.000000D+00
     10  -0.163531D+00  0.467404D+00  0.815759D-01 -0.109175D+00 -0.198189D-01
     11   0.326078D+00  0.229243D+00 -0.252277D+00  0.115981D+00  0.204951D+00
     12   0.000000D+00  0.000000D+00  0.000000D+00  0.000000D+00  0.000000D+00
     13   0.000000D+00  0.000000D+00  0.000000D+00  0.000000D+00  0.000000D+00
     14  -0.131774D+00  0.455748D+00  0.128046D+00 -0.241158D+00 -0.511714D-01
                 6             7             8             9            10 
      1   0.103013D+01  0.562995D+00 -0.832795D+00  0.000000D+00  0.000000D+00
      2   0.201576D+00  0.488245D-01 -0.269330D-01  0.000000D+00  0.000000D+00
      3  -0.684876D+00 -0.241000D+00  0.387623D+00  0.000000D+00  0.000000D+00
      4   0.000000D+00  0.000000D+00  0.000000D+00  0.106366D+00  0.993078D+00
      5   0.000000D+00  0.000000D+00  0.000000D+00  0.000000D+00  0.000000D+00
      6   0.531474D+00  0.417075D-01 -0.203073D+00  0.000000D+00  0.000000D+00
      7   0.225084D-02  0.417131D+00  0.223618D+01  0.000000D+00  0.000000D+00
      8   0.000000D+00  0.000000D+00  0.000000D+00  0.525558D+00 -0.486986D-01
      9   0.000000D+00  0.000000D+00  0.000000D+00  0.000000D+00  0.000000D+00
     10  -0.220231D+00  0.154657D+01 -0.655667D+00  0.000000D+00  0.000000D+00
     11  -0.448885D+00 -0.651859D+00 -0.191272D+01  0.000000D+00  0.000000D+00
     12   0.000000D+00  0.000000D+00  0.000000D+00  0.520070D+00 -0.153894D+00
     13   0.000000D+00  0.000000D+00  0.000000D+00  0.000000D+00  0.000000D+00
     14   0.530353D+00 -0.137638D+01  0.431210D+00  0.000000D+00  0.000000D+00
                11            12            13            14 
      1   0.000000D+00  0.000000D+00  0.000000D+00  0.000000D+00
      2   0.000000D+00  0.000000D+00  0.000000D+00  0.000000D+00
      3   0.000000D+00  0.000000D+00  0.000000D+00  0.000000D+00
      4  -0.157598D+00  0.000000D+00  0.000000D+00  0.000000D+00
      5   0.000000D+00  0.106366D+00  0.993078D+00 -0.157598D+00
      6   0.000000D+00  0.000000D+00  0.000000D+00  0.000000D+00
      7   0.000000D+00  0.000000D+00  0.000000D+00  0.000000D+00
      8   0.151160D+01  0.000000D+00  0.000000D+00  0.000000D+00
      9   0.000000D+00  0.525558D+00 -0.486986D-01  0.151160D+01
     10   0.000000D+00  0.000000D+00  0.000000D+00  0.000000D+00
     11   0.000000D+00  0.000000D+00  0.000000D+00  0.000000D+00
     12  -0.149532D+01  0.000000D+00  0.000000D+00  0.000000D+00
     13   0.000000D+00  0.520070D+00 -0.153894D+00 -0.149532D+01
     14   0.000000D+00  0.000000D+00  0.000000D+00  0.000000D+00
 NBasis=    14 RedAO= T EigKep=  9.84D-02  NBF=     8     0     3     3
 NBsUse=    14 1.00D-06 EigRej= -1.00D+00 NBFU=     8     0     3     3
 Leave Link  302 at Mon Mar 28 14:24:23 2022, MaxMem=  9663676416 cpu:               3.8 elap:               0.1
 (Enter /nopt/nrel/apps/gaussian/g16C_1/g16/l303.exe)
 DipDrv will not compute anything.
 Fermi contact integrals: 
                 1             2 
      1   0.628247D+00  0.121215D+00
      2   0.000000D+00  0.171843D+02
      3   0.705156D-01  0.368674D+00
      4   0.000000D+00  0.000000D+00
      5   0.000000D+00  0.000000D+00
      6  -0.146010D+00  0.000000D+00
      7   0.531858D-01  0.187097D-02
      8   0.000000D+00  0.000000D+00
      9   0.000000D+00  0.000000D+00
     10  -0.592317D-01  0.000000D+00
     11   0.416548D-01  0.440472D-01
     12   0.000000D+00  0.000000D+00
     13   0.000000D+00  0.000000D+00
     14  -0.196874D-01  0.000000D+00
 Leave Link  303 at Mon Mar 28 14:24:23 2022, MaxMem=  9663676416 cpu:               0.8 elap:               0.0
 (Enter /nopt/nrel/apps/gaussian/g16C_1/g16/l401.exe)
 ExpMin= 2.44D-02 ExpMax= 5.48D+02 ExpMxC= 5.48D+02 IAcc=3 IRadAn=         5 AccDes= 0.00D+00
 Harris functional with IExCor=  205 and IRadAn=       5 diagonalized for initial guess.
 HarFok:  IExCor=  205 AccDes= 0.00D+00 IRadAn=         5 IDoV= 1 UseB2=F ITyADJ=14
 ICtDFT=  3500011 ScaDFX=  1.000000  1.000000  1.000000  1.000000
 FoFCou: FMM=F IPFlag=           0 FMFlag=      100000 FMFlg1=           0
         NFxFlg=           0 DoJE=T BraDBF=F KetDBF=T FulRan=T
         wScrn=  0.000000 ICntrl=       500 IOpCl=  0 I1Cent=   200000004 NGrid=           0
         NMat0=    1 NMatS0=      1 NMatT0=    0 NMatD0=    1 NMtDS0=    0 NMtDT0=    0
 Petite list used in FoFCou.
 Harris En= -160.660655975272    
 JPrj=0 DoOrth=F DoCkMO=F.
 Initial guess orbital symmetries:
 Alpha Orbitals:
       Occupied  (SG) (SG) (SG) (PI) (PI) (SG) (SG)
       Virtual   (PI) (PI) (SG) (SG) (PI) (PI) (SG)
 Beta  Orbitals:
       Occupied  (SG) (SG) (SG) (PI) (PI)
       Virtual   (SG) (SG) (PI) (PI) (SG) (SG) (PI) (PI) (SG)
 The electronic state of the initial guess is 3-SG.
 Initial guess <Sx>= 0.0000 <Sy>= 0.0000 <Sz>= 1.0000 <S**2>= 2.0000 S= 1.0000
 Leave Link  401 at Mon Mar 28 14:24:23 2022, MaxMem=  9663676416 cpu:               4.0 elap:               0.2
 (Enter /nopt/nrel/apps/gaussian/g16C_1/g16/l502.exe)
 Keep R1 and R2 ints in memory in symmetry-blocked form, NReq=7213305.
 FoFCou: FMM=F IPFlag=           0 FMFlag=           0 FMFlg1=           0
         NFxFlg=           0 DoJE=F BraDBF=F KetDBF=F FulRan=T
         wScrn=  0.000000 ICntrl=       600 IOpCl=  0 I1Cent=           0 NGrid=           0
         NMat0=    1 NMatS0=    105 NMatT0=    0 NMatD0=    1 NMtDS0=    0 NMtDT0=    0
 Petite list used in FoFCou.
 UHF open shell SCF:
 Using DIIS extrapolation, IDIIS=  1040.
 NGot=  9663676416 LenX=  9663669932 LenY=  9663669050
 Requested convergence on RMS density matrix=1.00D-08 within 128 cycles.
 Requested convergence on MAX density matrix=1.00D-06.
 Requested convergence on             energy=1.00D-06.
 No special actions if energy rises.

 Cycle   1  Pass 1  IDiag  1:
 E= -160.805975241099    
 DIIS: error= 4.15D-02 at cycle   1 NSaved=   1.
 NSaved= 1 IEnMin= 1 EnMin= -160.805975241099     IErMin= 1 ErrMin= 4.15D-02
 ErrMax= 4.15D-02  0.00D+00 EMaxC= 1.00D-01 BMatC= 1.19D-01 BMatP= 1.19D-01
 IDIUse=3 WtCom= 5.85D-01 WtEn= 4.15D-01
 Coeff-Com:  0.100D+01
 Coeff-En:   0.100D+01
 Coeff:      0.100D+01
 Gap=     0.177 Goal=   None    Shift=    0.000
 Gap=     1.785 Goal=   None    Shift=    0.000
 GapD=    0.177 DampG=1.000 DampE=0.500 DampFc=0.5000 IDamp=-1.
 Damping current iteration by 5.00D-01
 RMSDP=2.30D-02 MaxDP=1.63D-01              OVMax= 3.52D-02

 Cycle   2  Pass 1  IDiag  1:
 E= -160.822747660146     Delta-E=       -0.016772419046 Rises=F Damp=T
 DIIS: error= 2.32D-02 at cycle   2 NSaved=   2.
 NSaved= 2 IEnMin= 2 EnMin= -160.822747660146     IErMin= 2 ErrMin= 2.32D-02
 ErrMax= 2.32D-02  0.00D+00 EMaxC= 1.00D-01 BMatC= 3.39D-02 BMatP= 1.19D-01
 IDIUse=3 WtCom= 7.68D-01 WtEn= 2.32D-01
 Coeff-Com: -0.109D+01 0.209D+01
 Coeff-En:   0.000D+00 0.100D+01
 Coeff:     -0.834D+00 0.183D+01
 Gap=     0.174 Goal=   None    Shift=    0.000
 Gap=     1.712 Goal=   None    Shift=    0.000
 RMSDP=1.68D-02 MaxDP=1.47D-01 DE=-1.68D-02 OVMax= 3.98D-03

 Cycle   3  Pass 1  IDiag  1:
 E= -160.844065708398     Delta-E=       -0.021318048253 Rises=F Damp=F
 DIIS: error= 4.44D-03 at cycle   3 NSaved=   3.
 NSaved= 3 IEnMin= 3 EnMin= -160.844065708398     IErMin= 3 ErrMin= 4.44D-03
 ErrMax= 4.44D-03  0.00D+00 EMaxC= 1.00D-01 BMatC= 5.51D-04 BMatP= 3.39D-02
 IDIUse=3 WtCom= 9.56D-01 WtEn= 4.44D-02
 Coeff-Com:  0.864D+00-0.171D+01 0.185D+01
 Coeff-En:   0.000D+00 0.000D+00 0.100D+01
 Coeff:      0.826D+00-0.163D+01 0.181D+01
 Gap=     0.174 Goal=   None    Shift=    0.000
 Gap=     1.680 Goal=   None    Shift=    0.000
 RMSDP=5.39D-03 MaxDP=5.96D-02 DE=-2.13D-02 OVMax= 2.61D-03

 Cycle   4  Pass 1  IDiag  1:
 E= -160.844778406046     Delta-E=       -0.000712697648 Rises=F Damp=F
 DIIS: error= 6.01D-04 at cycle   4 NSaved=   4.
 NSaved= 4 IEnMin= 4 EnMin= -160.844778406046     IErMin= 4 ErrMin= 6.01D-04
 ErrMax= 6.01D-04  0.00D+00 EMaxC= 1.00D-01 BMatC= 9.07D-06 BMatP= 5.51D-04
 IDIUse=3 WtCom= 9.94D-01 WtEn= 6.01D-03
 Coeff-Com: -0.226D+00 0.451D+00-0.581D+00 0.136D+01
 Coeff-En:   0.000D+00 0.000D+00 0.000D+00 0.100D+01
 Coeff:     -0.225D+00 0.449D+00-0.578D+00 0.135D+01
 Gap=     0.174 Goal=   None    Shift=    0.000
 Gap=     1.679 Goal=   None    Shift=    0.000
 RMSDP=1.32D-03 MaxDP=1.61D-02 DE=-7.13D-04 OVMax= 1.65D-04

 Cycle   5  Pass 1  IDiag  1:
 E= -160.844807516569     Delta-E=       -0.000029110523 Rises=F Damp=F
 DIIS: error= 2.13D-04 at cycle   5 NSaved=   5.
 NSaved= 5 IEnMin= 5 EnMin= -160.844807516569     IErMin= 5 ErrMin= 2.13D-04
 ErrMax= 2.13D-04  0.00D+00 EMaxC= 1.00D-01 BMatC= 1.11D-06 BMatP= 9.07D-06
 IDIUse=3 WtCom= 9.98D-01 WtEn= 2.13D-03
 Coeff-Com:  0.959D-01-0.193D+00 0.271D+00-0.946D+00 0.177D+01
 Coeff-En:   0.000D+00 0.000D+00 0.000D+00 0.000D+00 0.100D+01
 Coeff:      0.957D-01-0.193D+00 0.270D+00-0.944D+00 0.177D+01
 Gap=     0.174 Goal=   None    Shift=    0.000
 Gap=     1.678 Goal=   None    Shift=    0.000
 RMSDP=8.39D-04 MaxDP=1.13D-02 DE=-2.91D-05 OVMax= 2.17D-05

 Cycle   6  Pass 1  IDiag  1:
 E= -160.844813488190     Delta-E=       -0.000005971621 Rises=F Damp=F
 DIIS: error= 4.32D-05 at cycle   6 NSaved=   6.
 NSaved= 6 IEnMin= 6 EnMin= -160.844813488190     IErMin= 6 ErrMin= 4.32D-05
 ErrMax= 4.32D-05  0.00D+00 EMaxC= 1.00D-01 BMatC= 5.54D-08 BMatP= 1.11D-06
 IDIUse=1 WtCom= 1.00D+00 WtEn= 0.00D+00
 Coeff-Com: -0.134D-01 0.272D-01-0.422D-01 0.159D+00-0.523D+00 0.139D+01
 Coeff:     -0.134D-01 0.272D-01-0.422D-01 0.159D+00-0.523D+00 0.139D+01
 Gap=     0.174 Goal=   None    Shift=    0.000
 Gap=     1.679 Goal=   None    Shift=    0.000
 RMSDP=2.27D-04 MaxDP=3.06D-03 DE=-5.97D-06 OVMax= 1.55D-05

 Cycle   7  Pass 1  IDiag  1:
 E= -160.844813772667     Delta-E=       -0.000000284477 Rises=F Damp=F
 DIIS: error= 4.10D-06 at cycle   7 NSaved=   7.
 NSaved= 7 IEnMin= 7 EnMin= -160.844813772667     IErMin= 7 ErrMin= 4.10D-06
 ErrMax= 4.10D-06  0.00D+00 EMaxC= 1.00D-01 BMatC= 5.50D-10 BMatP= 5.54D-08
 IDIUse=1 WtCom= 1.00D+00 WtEn= 0.00D+00
 Coeff-Com:  0.214D-03-0.484D-03 0.132D-02-0.325D-02 0.412D-01-0.221D+00
 Coeff-Com:  0.118D+01
 Coeff:      0.214D-03-0.484D-03 0.132D-02-0.325D-02 0.412D-01-0.221D+00
 Coeff:      0.118D+01
 Gap=     0.174 Goal=   None    Shift=    0.000
 Gap=     1.679 Goal=   None    Shift=    0.000
 RMSDP=1.19D-05 MaxDP=1.48D-04 DE=-2.84D-07 OVMax= 1.87D-06

 Cycle   8  Pass 1  IDiag  1:
 E= -160.844813773839     Delta-E=       -0.000000001173 Rises=F Damp=F
 DIIS: error= 1.46D-06 at cycle   8 NSaved=   8.
 NSaved= 8 IEnMin= 8 EnMin= -160.844813773839     IErMin= 8 ErrMin= 1.46D-06
 ErrMax= 1.46D-06  0.00D+00 EMaxC= 1.00D-01 BMatC= 4.57D-11 BMatP= 5.50D-10
 IDIUse=1 WtCom= 1.00D+00 WtEn= 0.00D+00
 Coeff-Com: -0.292D-04 0.746D-04-0.324D-03-0.441D-03-0.132D-01 0.944D-01
 Coeff-Com: -0.661D+00 0.158D+01
 Coeff:     -0.292D-04 0.746D-04-0.324D-03-0.441D-03-0.132D-01 0.944D-01
 Coeff:     -0.661D+00 0.158D+01
 Gap=     0.174 Goal=   None    Shift=    0.000
 Gap=     1.679 Goal=   None    Shift=    0.000
 RMSDP=3.54D-06 MaxDP=2.75D-05 DE=-1.17D-09 OVMax= 5.49D-07

 Cycle   9  Pass 1  IDiag  1:
 E= -160.844813773993     Delta-E=       -0.000000000153 Rises=F Damp=F
 DIIS: error= 3.83D-07 at cycle   9 NSaved=   9.
 NSaved= 9 IEnMin= 9 EnMin= -160.844813773993     IErMin= 9 ErrMin= 3.83D-07
 ErrMax= 3.83D-07  0.00D+00 EMaxC= 1.00D-01 BMatC= 2.67D-12 BMatP= 4.57D-11
 IDIUse=1 WtCom= 1.00D+00 WtEn= 0.00D+00
 Coeff-Com: -0.356D-05 0.487D-05 0.146D-04 0.393D-03 0.142D-02-0.159D-01
 Coeff-Com:  0.145D+00-0.600D+00 0.147D+01
 Coeff:     -0.356D-05 0.487D-05 0.146D-04 0.393D-03 0.142D-02-0.159D-01
 Coeff:      0.145D+00-0.600D+00 0.147D+01
 Gap=     0.174 Goal=   None    Shift=    0.000
 Gap=     1.679 Goal=   None    Shift=    0.000
 RMSDP=1.10D-06 MaxDP=9.79D-06 DE=-1.53D-10 OVMax= 5.56D-08

 Cycle  10  Pass 1  IDiag  1:
 E= -160.844813774003     Delta-E=       -0.000000000010 Rises=F Damp=F
 DIIS: error= 2.68D-08 at cycle  10 NSaved=  10.
 NSaved=10 IEnMin=10 EnMin= -160.844813774003     IErMin=10 ErrMin= 2.68D-08
 ErrMax= 2.68D-08  0.00D+00 EMaxC= 1.00D-01 BMatC= 2.39D-14 BMatP= 2.67D-12
 IDIUse=1 WtCom= 1.00D+00 WtEn= 0.00D+00
 Coeff-Com: -0.930D-05 0.191D-04-0.290D-04-0.290D-04-0.394D-03 0.369D-02
 Coeff-Com: -0.341D-01 0.157D+00-0.453D+00 0.133D+01
 Coeff:     -0.930D-05 0.191D-04-0.290D-04-0.290D-04-0.394D-03 0.369D-02
 Coeff:     -0.341D-01 0.157D+00-0.453D+00 0.133D+01
 Gap=     0.174 Goal=   None    Shift=    0.000
 Gap=     1.679 Goal=   None    Shift=    0.000
 RMSDP=7.68D-08 MaxDP=6.54D-07 DE=-1.02D-11 OVMax= 1.97D-08

 Cycle  11  Pass 1  IDiag  1:
 E= -160.844813774003     Delta-E=        0.000000000000 Rises=F Damp=F
 DIIS: error= 2.19D-09 at cycle  11 NSaved=  11.
 NSaved=11 IEnMin=10 EnMin= -160.844813774003     IErMin=11 ErrMin= 2.19D-09
 ErrMax= 2.19D-09  0.00D+00 EMaxC= 1.00D-01 BMatC= 2.27D-16 BMatP= 2.39D-14
 IDIUse=1 WtCom= 1.00D+00 WtEn= 0.00D+00
 Coeff-Com: -0.108D-06 0.177D-06-0.127D-06 0.175D-04 0.819D-05-0.360D-03
 Coeff-Com:  0.426D-02-0.226D-01 0.696D-01-0.262D+00 0.121D+01
 Coeff:     -0.108D-06 0.177D-06-0.127D-06 0.175D-04 0.819D-05-0.360D-03
 Coeff:      0.426D-02-0.226D-01 0.696D-01-0.262D+00 0.121D+01
 Gap=     0.174 Goal=   None    Shift=    0.000
 Gap=     1.679 Goal=   None    Shift=    0.000
 RMSDP=6.89D-09 MaxDP=5.25D-08 DE= 2.84D-14 OVMax= 1.03D-09

 SCF Done:  E(UHF) =  -160.844813774     A.U. after   11 cycles
            NFock= 11  Conv=0.69D-08     -V/T= 1.9999
 <Sx>= 0.0000 <Sy>= 0.0000 <Sz>= 1.0000 <S**2>= 2.0000 S= 1.0000
 <L.S>= 0.000000000000E+00
 KE= 1.608551826995D+02 PE=-3.989371778248D+02 EE= 6.996099470121D+01
 Annihilation of the first spin contaminant:
 S**2 before annihilation     2.0000,   after     2.0000
 Leave Link  502 at Mon Mar 28 14:24:24 2022, MaxMem=  9663676416 cpu:               6.2 elap:               0.2
 (Enter /nopt/nrel/apps/gaussian/g16C_1/g16/l801.exe)
 Windowed orbitals will be sorted by symmetry type.
 ExpMin= 2.44D-02 ExpMax= 5.48D+02 ExpMxC= 5.48D+02 IAcc=3 IRadAn=         5 AccDes= 0.00D+00
 HarFok:  IExCor=  205 AccDes= 0.00D+00 IRadAn=         5 IDoV=-2 UseB2=F ITyADJ=14
 ICtDFT= 12500011 ScaDFX=  1.000000  1.000000  1.000000  1.000000
 Largest valence mixing into a core orbital is  1.45D-02
 Largest core mixing into a valence orbital is  6.11D-03
 Range of M.O.s used for correlation:     6    14
 NBasis=    14 NAE=     7 NBE=     5 NFC=     5 NFV=     0
 NROrb=      9 NOA=     2 NOB=     0 NVA=     7 NVB=     9
 Leave Link  801 at Mon Mar 28 14:24:24 2022, MaxMem=  9663676416 cpu:               2.0 elap:               0.1
 (Enter /nopt/nrel/apps/gaussian/g16C_1/g16/l804.exe)
 Open-shell transformation, MDV=  9663676416 ITran=4 ISComp=2.
 Unit  1 TFree=         14304 TCopy=        117515.
 Semi-Direct transformation.
 ModeAB=           2 MOrb=             2 LenV=    9663555281
 LASXX=          158 LTotXX=         158 LenRXX=         158
 LTotAB=         269 MaxLAS=        1890 LenRXY=        1890
 NonZer=        2214 LenScr=      785920 LnRSAI=           0
 LnScr1=           0 LExtra=      220902 Total=      1008870
 MaxDsk= 34359738368 SrtSym=           F ITran=            4
 DoSDTr:  NPSUse= 36
 JobTyp=1 Pass  1:  I=   1 to   2.
 (rs|ai) integrals will be sorted in core.
 Complete sort for first half transformation.
 First half transformation complete.
 Complete sort for second half transformation.
 Second half transformation complete.
 Spin components of T(2) and E(2):
     alpha-alpha T2 =       0.1483447867D-03 E2=     -0.1339920532D-03
     alpha-beta  T2 =       0.0000000000D+00 E2=      0.0000000000D+00
     beta-beta   T2 =       0.0000000000D+00 E2=      0.0000000000D+00
 ANorm=    0.1000074170D+01
 E2 =    -0.1339920532D-03 EUMP2 =    -0.16084494776606D+03
 Leave Link  804 at Mon Mar 28 14:24:24 2022, MaxMem=  9663676416 cpu:               1.5 elap:               0.1
 (Enter /nopt/nrel/apps/gaussian/g16C_1/g16/l913.exe)
 CIDS:  MDV=  9663676416.
 Frozen-core window:  NFC=   5 NFV=   0.
 IFCWin=0 IBDFC=1 NFBD=     0     0 NFCmp=     0     0 NFFFC=     0     0
 Using original routines for 1st iteration.
 Using DD4UQ or CC4UQ for 2nd and later iterations.
 Keep R2 and R3 ints in memory in symmetry-blocked form, NReq=7215711.
 FoFCou: FMM=F IPFlag=           0 FMFlag=           0 FMFlg1=           0
         NFxFlg=           0 DoJE=F BraDBF=F KetDBF=F FulRan=T
         wScrn=  0.000000 ICntrl=       600 IOpCl=  0 I1Cent=           0 NGrid=           0
         NMat0=    1 NMatS0=    105 NMatT0=    0 NMatD0=    1 NMtDS0=    0 NMtDT0=    0
 Petite list used in FoFCou.
 CIDS: In Core Option IDoMem=           1.
 Coupled Cluster theory with single and double substitutions
 ===========================================================
 Iterations= 200 Convergence= 0.100D-06
 Produce multiple copies of IABC intergrals
 Iteration Nr.   1
 **********************
 DD1Dir will call FoFMem   1 times, MxPair=         2
 NAB=     0 NAA=     1 NBB=     0.
 MP4(R+Q)=  0.19877023D-07
 Maximum subspace dimension=  5
 A-vector RMS=  1.2551763D-03 Max=  3.0635997D-03 conv= 1.00D-05.
 RLE energy=       -0.0002326196
 E3=       -0.56831245D-04        EUMP3=      -0.16084500460D+03
 E4(DQ)=   -0.24116587D-04        UMP4(DQ)=   -0.16084502871D+03
 E4(SDQ)=  -0.24196219D-04        UMP4(SDQ)=  -0.16084502879D+03
 VARIATIONAL ENERGIES WITH THE FIRST-ORDER WAVEFUNCTION:
 DE(Corr)= -0.19080287E-03 E(Corr)=     -160.84500458    
 NORM(A)=   0.10002237D+01
 Iteration Nr.   2
 **********************
 DD1Dir will call FoFMem   1 times, MxPair=         2
 NAB=     0 NAA=     1 NBB=     0.
 A-vector RMS=  1.2981681D-04 Max=  2.6532832D-04 conv= 1.00D-05.
 RLE energy=       -0.0002331195
 DE(Corr)= -0.23278823E-03 E(CORR)=     -160.84504656     Delta=-4.20D-05
 NORM(A)=   0.10002253D+01
 Iteration Nr.   3
 **********************
 DD1Dir will call FoFMem   1 times, MxPair=         2
 NAB=     0 NAA=     1 NBB=     0.
 A-vector RMS=  1.9453943D-05 Max=  5.6305366D-05 conv= 1.00D-05.
 RLE energy=       -0.0002331864
 DE(Corr)= -0.23313711E-03 E(CORR)=     -160.84504691     Delta=-3.49D-07
 NORM(A)=   0.10002255D+01
 Iteration Nr.   4
 **********************
 DD1Dir will call FoFMem   1 times, MxPair=         2
 NAB=     0 NAA=     1 NBB=     0.
 A-vector RMS=  4.2704851D-06 Max=  1.0365992D-05 conv= 1.00D-05.
 RLE energy=       -0.0002331432
 DE(Corr)= -0.23317200E-03 E(CORR)=     -160.84504695     Delta=-3.49D-08
 NORM(A)=   0.10002255D+01
 Iteration Nr.   5
 **********************
 DD1Dir will call FoFMem   1 times, MxPair=         2
 NAB=     0 NAA=     1 NBB=     0.
 A-vector RMS=  1.0134626D-06 Max=  2.6217650D-06 conv= 1.00D-05.
 RLE energy=       -0.0002331795
 DE(Corr)= -0.23315396E-03 E(CORR)=     -160.84504693     Delta= 1.80D-08
 NORM(A)=   0.10002256D+01
 CI/CC converged in    5 iterations to DelEn= 1.80D-08 Conv= 1.00D-07 ErrA1= 1.01D-06 Conv= 1.00D-05
 Wavefunction amplitudes converged. E(Corr)=     -160.84504693    
 Largest amplitude= 1.25D-02
 Discarding MO integrals.
 Leave Link  913 at Mon Mar 28 14:24:24 2022, MaxMem=  9663676416 cpu:               3.5 elap:               0.1
 (Enter /nopt/nrel/apps/gaussian/g16C_1/g16/l601.exe)
 Copying SCF densities to generalized density rwf, IOpCl= 1 IROHF=0.

 **********************************************************************

            Population analysis using the SCF Density.

 **********************************************************************

 Orbital symmetries:
 Alpha Orbitals:
       Occupied  (SG) (SG) (SG) (PI) (PI) (SG) (SG)
       Virtual   (PI) (PI) (SG) (PI) (PI) (SG) (SG)
 Beta  Orbitals:
       Occupied  (SG) (SG) (SG) (PI) (PI)
       Virtual   (SG) (PI) (PI) (SG) (SG) (PI) (PI) (SG) (SG)
 The electronic state is 3-SG.
 Alpha  occ. eigenvalues --  -40.49259  -3.06821  -1.83697  -1.72148  -1.72148
 Alpha  occ. eigenvalues --   -0.46100  -0.15615
 Alpha virt. eigenvalues --    0.01744   0.01744   0.03897   0.12462   0.12462
 Alpha virt. eigenvalues --    0.12574   0.37426
  Beta  occ. eigenvalues --  -40.47628  -3.02786  -1.78008  -1.70895  -1.70895
  Beta virt. eigenvalues --   -0.03028   0.04315   0.04315   0.05952   0.08786
  Beta virt. eigenvalues --    0.15611   0.15611   0.18290   0.54354
          Condensed to atoms (all electrons):
               1          2
     1  H    0.672946   0.080357
     2  Na   0.080357  11.166341
          Atomic-Atomic Spin Densities.
               1          2
     1  H    0.614440  -0.024575
     2  Na  -0.024575   1.434709
 Mulliken charges and spin densities:
               1          2
     1  H    0.246697   0.589865
     2  Na  -0.246697   1.410135
 Sum of Mulliken charges =  -0.00000   2.00000
 Mulliken charges and spin densities with hydrogens summed into heavy atoms:
               1          2
     2  Na  -0.000000   2.000000
 N-N= 7.276186650150D+00 E-N=-3.989371777920D+02  KE= 1.608551826995D+02
 Symmetry A1   KE= 1.376930412351D+02
 Symmetry A2   KE= 0.000000000000D+00
 Symmetry B1   KE= 1.158107073217D+01
 Symmetry B2   KE= 1.158107073217D+01
 Symmetry A1   SP= 2.000000000000D+00
 Symmetry A2   SP= 0.000000000000D+00
 Symmetry B1   SP= 2.733366695085D-15
 Symmetry B2   SP= 1.758780750369D-15

 Atomic contributions to Alpha molecular orbitals:
 Alpha occ 1 OE=-40.493 is Na2-s=1.0007
 Alpha occ 2 OE=-3.068 is Na2-s=0.9595
 Alpha occ 3 OE=-1.837 is Na2-p=0.9144
 Alpha occ 4 OE=-1.721 is Na2-p=1.0000
 Alpha occ 5 OE=-1.721 is Na2-p=1.0000
 Alpha occ 6 OE=-0.461 is H1-s=0.5654 Na2-s=0.2893 Na2-p=0.1453
 Alpha occ 7 OE=-0.156 is Na2-s=0.5131 Na2-p=0.4691
 Alpha vir 8 OE=0.017 is Na2-p=1.0000
 Alpha vir 9 OE=0.017 is Na2-p=1.0000
 Alpha vir 10 OE=0.039 is Na2-p=0.5829 Na2-s=0.3920
 Alpha vir 11 OE=0.125 is Na2-p=1.0000
 Alpha vir 12 OE=0.125 is Na2-p=1.0000
 Alpha vir 13 OE=0.126 is Na2-p=0.5430 Na2-s=0.4567
 Alpha vir 14 OE=0.374 is Na2-s=0.3645 Na2-p=0.3324 H1-s=0.3031

 Atomic contributions to Beta  molecular orbitals:
 Beta  occ 1 OE=-40.476 is Na2-s=1.0007
 Beta  occ 2 OE=-3.028 is Na2-s=0.9651
 Beta  occ 3 OE=-1.780 is Na2-p=0.9291
 Beta  occ 4 OE=-1.709 is Na2-p=1.0000
 Beta  occ 5 OE=-1.709 is Na2-p=1.0000
 Beta  vir 6 OE=-0.030 is Na2-s=0.7373 Na2-p=0.1540 H1-s=0.1087
 Beta  vir 7 OE=0.043 is Na2-p=1.0000
 Beta  vir 8 OE=0.043 is Na2-p=1.0000
 Beta  vir 9 OE=0.060 is Na2-p=0.8837 Na2-s=0.1122
 Beta  vir 10 OE=0.088 is Na2-s=0.7198 Na2-p=0.1644 H1-s=0.1158
 Beta  vir 11 OE=0.156 is Na2-p=1.0000
 Beta  vir 12 OE=0.156 is Na2-p=1.0000
 Beta  vir 13 OE=0.183 is Na2-p=0.7194 Na2-s=0.2800
 Beta  vir 14 OE=0.544 is H1-s=0.6892 Na2-s=0.1690 Na2-p=0.1418
 
 Leave Link  601 at Mon Mar 28 14:24:24 2022, MaxMem=  9663676416 cpu:               1.0 elap:               0.0
 (Enter /nopt/nrel/apps/gaussian/g16C_1/g16/l9999.exe)

 Test job not archived.
 1\1\GINC-R102U34\SP\UCCSD-FC\Gen\H1Na1(3)\USER\28-Mar-2022\0\\#P C
 CSD(MaxCyc=200,SaveAmplitudes,ReadAmplitudes)/GEN sp pop=AllOrbitals i
 op(3/33=1,3/36=-1)\\test\\0,3\H,0,0.,0.,0.\Na,0,0.,0.,0.8\\Version=ES6
 4L-G16RevC.01\State=3-SG\HF=-160.8448138\MP2=-160.8449478\MP3=-160.845
 0046\MP4D=-160.8450287\MP4DQ=-160.8450287\MP4SDQ=-160.8450288\CCSD=-16
 0.8450469\S2=2.000041\S2-1=0.\S2A=2.\RMSD=6.892e-09\PG=C*V [C*(H1Na1)]
 \\@


 We find comfort among those who agree with us -- growth among those who don't.
 -- Frank A. Clark
 Job cpu time:       0 days  0 hours  0 minutes 33.0 seconds.
 Elapsed time:       0 days  0 hours  0 minutes  1.3 seconds.
 File lengths (MBytes):  RWF=     13 Int=      0 D2E=      0 Chk=      1 Scr=      1
 Normal termination of Gaussian 16 at Mon Mar 28 14:24:24 2022.
