 Entering Gaussian System, Link 0=g16
 Initial command:
 /nopt/nrel/apps/gaussian/g16C_1/g16/l1.exe "/lustre/eaglefs/scratch/user/qc/tih-dissc-sto3g/tih-6-ccsd-1.4-sto3g/Gau-243979.inp" -scrdir="/lustre/eaglefs/scratch/user/qc/tih-dissc-sto3g/tih-6-ccsd-1.4-sto3g/"
 Default is to use a total of  36 processors:
                               36 via shared-memory
                                1 via Linda
 Entering Link 1 = /nopt/nrel/apps/gaussian/g16C_1/g16/l1.exe PID=    243980.
  
 Copyright (c) 1988-2019, Gaussian, Inc.  All Rights Reserved.
  
 This is part of the Gaussian(R) 16 program.  It is based on
 the Gaussian(R) 09 system (copyright 2009, Gaussian, Inc.),
 the Gaussian(R) 03 system (copyright 2003, Gaussian, Inc.),
 the Gaussian(R) 98 system (copyright 1998, Gaussian, Inc.),
 the Gaussian(R) 94 system (copyright 1995, Gaussian, Inc.),
 the Gaussian 92(TM) system (copyright 1992, Gaussian, Inc.),
 the Gaussian 90(TM) system (copyright 1990, Gaussian, Inc.),
 the Gaussian 88(TM) system (copyright 1988, Gaussian, Inc.),
 the Gaussian 86(TM) system (copyright 1986, Carnegie Mellon
 University), and the Gaussian 82(TM) system (copyright 1983,
 Carnegie Mellon University). Gaussian is a federally registered
 trademark of Gaussian, Inc.
  
 This software contains proprietary and confidential information,
 including trade secrets, belonging to Gaussian, Inc.
  
 This software is provided under written license and may be
 used, copied, transmitted, or stored only in accord with that
 written license.
  
 The following legend is applicable only to US Government
 contracts under FAR:
  
                    RESTRICTED RIGHTS LEGEND
  
 Use, reproduction and disclosure by the US Government is
 subject to restrictions as set forth in subparagraphs (a)
 and (c) of the Commercial Computer Software - Restricted
 Rights clause in FAR 52.227-19.
  
 Gaussian, Inc.
 340 Quinnipiac St., Bldg. 40, Wallingford CT 06492
  
  
 ---------------------------------------------------------------
 Warning -- This program may not be used in any manner that
 competes with the business of Gaussian, Inc. or will provide
 assistance to any competitor of Gaussian, Inc.  The licensee
 of this program is prohibited from giving any competitor of
 Gaussian, Inc. access to this program.  By using this program,
 the user acknowledges that Gaussian, Inc. is engaged in the
 business of creating and licensing software in the field of
 computational chemistry and represents and warrants to the
 licensee that it is not a competitor of Gaussian, Inc. and that
 it will not use this program in any manner prohibited above.
 ---------------------------------------------------------------
  

 Cite this work as:
 Gaussian 16, Revision C.01,
 M. J. Frisch, G. W. Trucks, H. B. Schlegel, G. E. Scuseria, 
 M. A. Robb, J. R. Cheeseman, G. Scalmani, V. Barone, 
 G. A. Petersson, H. Nakatsuji, X. Li, M. Caricato, A. V. Marenich, 
 J. Bloino, B. G. Janesko, R. Gomperts, B. Mennucci, H. P. Hratchian, 
 J. V. Ortiz, A. F. Izmaylov, J. L. Sonnenberg, D. Williams-Young, 
 F. Ding, F. Lipparini, F. Egidi, J. Goings, B. Peng, A. Petrone, 
 T. Henderson, D. Ranasinghe, V. G. Zakrzewski, J. Gao, N. Rega, 
 G. Zheng, W. Liang, M. Hada, M. Ehara, K. Toyota, R. Fukuda, 
 J. Hasegawa, M. Ishida, T. Nakajima, Y. Honda, O. Kitao, H. Nakai, 
 T. Vreven, K. Throssell, J. A. Montgomery, Jr., J. E. Peralta, 
 F. Ogliaro, M. J. Bearpark, J. J. Heyd, E. N. Brothers, K. N. Kudin, 
 V. N. Staroverov, T. A. Keith, R. Kobayashi, J. Normand, 
 K. Raghavachari, A. P. Rendell, J. C. Burant, S. S. Iyengar, 
 J. Tomasi, M. Cossi, J. M. Millam, M. Klene, C. Adamo, R. Cammi, 
 J. W. Ochterski, R. L. Martin, K. Morokuma, O. Farkas, 
 J. B. Foresman, and D. J. Fox, Gaussian, Inc., Wallingford CT, 2019.
 
 ******************************************
 Gaussian 16:  ES64L-G16RevC.01  3-Jul-2019
                28-Mar-2022 
 ******************************************
 %chk=molecule
 Default route: CacheSize=180224 MaxDisk=256GB
 ----------------------------------------------------------------------
 #P CCSD(MaxCyc=300,SaveAmplitudes,ReadAmplitudes)/GEN sp pop=AllOrbita
 ls iop(3/33=1,3/36=-1)
 ----------------------------------------------------------------------
 1/4=180224,38=1,172=1/1;
 2/4=180224,12=2,17=6,18=5,40=1/2;
 3/4=180224,5=7,11=9,25=1,30=1,33=1,36=-1/1,2,3;
 4/4=180224/1;
 5/4=180224,5=2,38=5/2;
 8/4=180224,6=4,9=120000,10=1,24=1/1,4;
 9/4=180224,5=7,6=300,77=1/13;
 6/4=180224,7=2,8=2,9=2,10=2,96=-1/1;
 99/4=180224,5=1,9=1/99;
 Leave Link    1 at Mon Mar 28 12:45:40 2022, MaxMem=           0 cpu:               2.2 elap:               0.1
 (Enter /nopt/nrel/apps/gaussian/g16C_1/g16/l101.exe)
 ----
 test
 ----
 Symbolic Z-matrix:
 Charge =  0 Multiplicity = 6
 H                     0.        0.        0. 
 Ti                    0.        0.        1.4 
 
 ITRead=  0  0
 MicOpt= -1 -1
 NAtoms=      2 NQM=        2 NQMF=       0 NMMI=      0 NMMIF=      0
                NMic=       0 NMicF=      0.
                    Isotopes and Nuclear Properties:
 (Nuclear quadrupole moments (NQMom) in fm**2, nuclear magnetic moments (NMagM)
  in nuclear magnetons)

  Atom         1           2
 IAtWgt=           1          48
 AtmWgt=   1.0078250  47.9479467
 NucSpn=           1           0
 AtZEff=  -0.0000000  -0.0000000
 NQMom=    0.0000000   0.0000000
 NMagM=    2.7928460   0.0000000
 AtZNuc=   1.0000000  22.0000000
 Leave Link  101 at Mon Mar 28 12:45:40 2022, MaxMem=  9663676416 cpu:               3.2 elap:               0.1
 (Enter /nopt/nrel/apps/gaussian/g16C_1/g16/l202.exe)
                          Input orientation:                          
 ---------------------------------------------------------------------
 Center     Atomic      Atomic             Coordinates (Angstroms)
 Number     Number       Type             X           Y           Z
 ---------------------------------------------------------------------
      1          1           0        0.000000    0.000000    0.000000
      2         22           0        0.000000    0.000000    1.400000
 ---------------------------------------------------------------------
 Stoichiometry    HTi(6)
 Framework group  C*V[C*(HTi)]
 Deg. of freedom     1
 Full point group                 C*V     NOp   4
 Largest Abelian subgroup         C2V     NOp   4
 Largest concise Abelian subgroup C1      NOp   1
                         Standard orientation:                         
 ---------------------------------------------------------------------
 Center     Atomic      Atomic             Coordinates (Angstroms)
 Number     Number       Type             X           Y           Z
 ---------------------------------------------------------------------
      1          1           0        0.000000    0.000000   -1.339130
      2         22           0        0.000000    0.000000    0.060870
 ---------------------------------------------------------------------
 Rotational constants (GHZ):           0.0000000         261.2220735         261.2220735
 Leave Link  202 at Mon Mar 28 12:45:41 2022, MaxMem=  9663676416 cpu:               1.3 elap:               0.1
 (Enter /nopt/nrel/apps/gaussian/g16C_1/g16/l301.exe)
 General basis read from cards:  (5D, 7F)
                         Coordinates in L301:                         
 ---------------------------------------------------------------------
 Center     Atomic      Atomic             Coordinates (Angstroms)
 Number     Number       Type             X           Y           Z
 ---------------------------------------------------------------------
      1          1           0        0.000000    0.000000   -1.339130
      2         22           0        0.000000    0.000000    0.060870
 ---------------------------------------------------------------------
 Centers:       1
 STO-3G
 ****
 Centers:       2
 STO-3G
 ****
 FixB: optimizing general contractions.
 Ernie: Thresh=  0.10000D-02 Tol=  0.10000D-05 Strict=F.
 IA=     1 ShT= 0 ShC= 0 NL=   1 NS=   0.
 IA=     1 L=0 SC=0 ISt=    0 NBk=    0 NP=    0 IndPr=    0.
 IA=     2 ShT= 0 ShC= 0 NL=   1 NS=   0.
 IA=     2 L=0 SC=0 ISt=    0 NBk=    0 NP=    0 IndPr=    0.
 IA=     2 ShT= 1 ShC= 0 NL=   3 NS=   0.
 IA=     2 L=1 SC=0 ISt=    1 NBk=    3 NP=    9 IndPr=    0.
 DoElim1:  L=1 select primitive    1 from    2 using    1 C=-1.00D-01
 DoElim1:  L=1 select primitive    1 from    3 using    1 C=-1.00D-01
 DoElim1:  L=1 select primitive    4 from    3 using    2 C=-2.28D-01
 DoElim2:  L=1 select primitive    9 from    2 using    3 C= 1.13D+00
 DoElim2:  L=1 select primitive    9 from    1 using    3 C= 1.13D+00
 DoElim2:  L=1 select primitive    7 from    1 using    2 C= 9.17D-01
 DoElim1:  L=1 select primitive    1 from    2 using    1 C= 1.56D-01
 DoElim1:  L=1 select primitive    1 from    3 using    1 C= 1.56D-01
 DoElim1:  L=1 select primitive    4 from    3 using    2 C= 4.95D-03
 DoElim2:  L=1 select primitive    8 from    2 using    3 C= 5.72D-01
 DoElim2:  L=1 select primitive    8 from    1 using    3 C= 5.72D-01
 DoElim2:  L=1 select primitive    5 from    1 using    2 C= 5.78D-01
 Delete L=1 primitive    7 from    3 C=  0.00D+00.
 Delete L=1 primitive    5 from    3 C=  0.00D+00.
 Delete L=1 primitive    4 from    3 C=  0.00D+00.
 Delete L=1 primitive    3 from    3 C=  0.00D+00.
 Delete L=1 primitive    2 from    3 C=  0.00D+00.
 Delete L=1 primitive    1 from    3 C=  0.00D+00.
 Delete L=1 primitive    9 from    2 C=  0.00D+00.
 Delete L=1 primitive    8 from    2 C=  0.00D+00.
 Delete L=1 primitive    6 from    2 C=  0.00D+00.
 Delete L=1 primitive    3 from    2 C=  0.00D+00.
 Delete L=1 primitive    2 from    2 C=  0.00D+00.
 Delete L=1 primitive    1 from    2 C=  0.00D+00.
 Delete L=1 primitive    9 from    1 C=  0.00D+00.
 Delete L=1 primitive    8 from    1 C=  0.00D+00.
 Delete L=1 primitive    7 from    1 C=  0.00D+00.
 Delete L=1 primitive    6 from    1 C=  0.00D+00.
 Delete L=1 primitive    5 from    1 C=  0.00D+00.
 Delete L=1 primitive    4 from    1 C=  0.00D+00.
 IA=     2 L=1 SC=0 ISt=    0 NBk=    0 NP=    0 IndPr=    9.
 IA=     2 ShT= 2 ShC= 2 NL=   1 NS=   0.
 IA=     2 L=2 SC=2 ISt=    0 NBk=    0 NP=    0 IndPr=    0.
 LdAtmC:  AtmChg=     1.000000    22.000000
 AtZEff=     -1.0000000    -23.9800000
 NEqShl: 
              1            2            3            4
     1            1            1            1            1
     2            2            2            2            2
     3            3            3            3            3
     4            4            4            4            4
     5            5            5            5            5
     6            6            6            6            6
 NEqBas: 
              1            2            3            4
     1            1            1            1            1
     2            2            2            2            2
     3            3            3            3            3
     4            4           -4           -4            4
     5            5           -5            5           -5
     6            6            6            6            6
     7            7            7            7            7
     8            8           -8           -8            8
     9            9           -9            9           -9
    10           10           10           10           10
    11           11           11           11           11
    12           12          -12          -12           12
    13           13          -13           13          -13
    14           14           14           14           14
    15           15           15           15           15
    16           16           16           16           16
    17           17           17           17           17
    18           18           18          -18          -18
    19           19          -19          -19           19
    20           20          -20           20          -20
 There are    11 symmetry adapted cartesian basis functions of A1  symmetry.
   1         1   1   1   1
   2         2   2   2   2
   3         3   3   3   3
   4         6   6   6   6
   5         7   7   7   7
   6        10  10  10  10
   7        11  11  11  11
   8        14  14  14  14
   9        15  15  15  15
  10        16  16  16  16
  11        17  17  17  17
 There are     1 symmetry adapted cartesian basis functions of A2  symmetry.
  12        18  18  18  18
 There are     4 symmetry adapted cartesian basis functions of B1  symmetry.
  13         4   4   4   4
  14         8   8   8   8
  15        12  12  12  12
  16        19  19  19  19
 There are     4 symmetry adapted cartesian basis functions of B2  symmetry.
  17         5   5   5   5
  18         9   9   9   9
  19        13  13  13  13
  20        20  20  20  20
 Order= 1 2 4 3
 Reordered character table:
              1            2            3            4            5
     1            1            1            1            1            1
     2            2            1            1           -1           -1
     3            4            1           -1           -1            1
     4            3            1           -1            1           -1
 NEqShl: 
              1            2            3            4
     1            1            1            1            1
     2            2            2            2            2
     3            3            3            3            3
     4            4            4            4            4
     5            5            5            5            5
     6            6            6            6            6
 NEqBas: 
              1            2            3            4
     1            1            1            1            1
     2            2            2            2            2
     3            3            3            3            3
     4            4           -4           -4            4
     5            5           -5            5           -5
     6            6            6            6            6
     7            7            7            7            7
     8            8           -8           -8            8
     9            9           -9            9           -9
    10           10           10           10           10
    11           11           11           11           11
    12           12          -12          -12           12
    13           13          -13           13          -13
    14           14           14           14           14
    15           15           15           15           15
    16           16          -16          -16           16
    17           17          -17           17          -17
    18           18           18           18           18
    19           19           19          -19          -19
 There are    10 symmetry adapted basis functions of A1  symmetry.
   1         1   1   1   1
   2         2   2   2   2
   3         3   3   3   3
   4         6   6   6   6
   5         7   7   7   7
   6        10  10  10  10
   7        11  11  11  11
   8        14  14  14  14
   9        15  15  15  15
  10        18  18  18  18
 There are     1 symmetry adapted basis functions of A2  symmetry.
  11        19  19  19  19
 There are     4 symmetry adapted basis functions of B1  symmetry.
  12         4   4   4   4
  13         8   8   8   8
  14        12  12  12  12
  15        16  16  16  16
 There are     4 symmetry adapted basis functions of B2  symmetry.
  16         5   5   5   5
  17         9   9   9   9
  18        13  13  13  13
  19        17  17  17  17
 Order= 1 2 4 3
 Reordered character table:
              1            2            3            4            5
     1            1            1            1            1            1
     2            2            1            1           -1           -1
     3            4            1           -1           -1            1
     4            3            1           -1            1           -1
    19 basis functions,    60 primitive gaussians,    20 cartesian basis functions
    14 alpha electrons        9 beta electrons
       nuclear repulsion energy         8.3156418859 Hartrees.
 IS=     1 IAt=     1 ISR=     1 T=0 IP=      1 IndIP=      1 IndIPD=      0 C=  2.769344D-01  0.000000D+00                             NZ=T
 IS=     1 IAt=     1 ISR=     1 T=0 IP=      2 IndIP=      2 IndIPD=      1 C=  2.678389D-01  0.000000D+00                             NZ=T
 IS=     1 IAt=     1 ISR=     1 T=0 IP=      3 IndIP=      3 IndIPD=      2 C=  8.347367D-02  0.000000D+00                             NZ=T
 IS=     2 IAt=     2 ISR=     1 T=0 IP=      1 IndIP=      4 IndIPD=      0 C=  2.004993D+01  0.000000D+00                             NZ=T
 IS=     2 IAt=     2 ISR=     1 T=0 IP=      2 IndIP=      5 IndIPD=      1 C=  1.939142D+01  0.000000D+00                             NZ=T
 IS=     2 IAt=     2 ISR=     1 T=0 IP=      3 IndIP=      6 IndIPD=      2 C=  6.043458D+00  0.000000D+00                             NZ=T
 IS=     3 IAt=     2 ISR=     2 T=1 IP=      1 IndIP=      7 IndIPD=      0 C= -1.820341D+00  4.925761D+01                             NZ=T
 IS=     3 IAt=     2 ISR=     2 T=1 IP=      2 IndIP=      8 IndIPD=      1 C=  2.434854D+00  3.097451D+01                             NZ=T
 IS=     3 IAt=     2 ISR=     2 T=1 IP=      3 IndIP=      9 IndIPD=      2 C=  1.837620D+00  4.906883D+00                             NZ=T
 IS=     4 IAt=     2 ISR=     3 T=1 IP=      1 IndIP=     10 IndIPD=      0 C= -5.746721D-01  5.803915D-02                             NZ=T
 IS=     4 IAt=     2 ISR=     3 T=1 IP=      2 IndIP=     11 IndIPD=      1 C=  2.252897D-01  1.535208D+00                             NZ=T
 IS=     4 IAt=     2 ISR=     3 T=1 IP=      3 IndIP=     12 IndIPD=      2 C=  4.647390D-01  3.915940D-01                             NZ=T
 IS=     5 IAt=     2 ISR=     4 T=1 IP=      1 IndIP=     13 IndIPD=      0 C= -1.706594D-01 -1.133666D-01                             NZ=T
 IS=     5 IAt=     2 ISR=     4 T=1 IP=      2 IndIP=     14 IndIPD=      1 C=  5.129963D-03  1.533382D-01                             NZ=T
 IS=     5 IAt=     2 ISR=     4 T=1 IP=      3 IndIP=     15 IndIPD=      2 C=  1.603140D-01  5.311239D-02                             NZ=T
 IS=     6 IAt=     2 ISR=     5 T=2 IP=      1 IndIP=     16 IndIPD=      1 C=  0.000000D+00  0.000000D+00  8.652016D-01  0.000000D+00 NZ=T
 IS=     6 IAt=     2 ISR=     5 T=2 IP=      2 IndIP=     17 IndIPD=      2 C=  0.000000D+00  0.000000D+00  3.231180D-01  0.000000D+00 NZ=T
 IS=     6 IAt=     2 ISR=     5 T=2 IP=      3 IndIP=     18 IndIPD=      3 C=  0.000000D+00  0.000000D+00  2.668013D-02  0.000000D+00 NZ=T
 IExCor=    0 DFT=F Ex=HF Corr=None ExCW=0 ScaHFX=  1.000000
 ScaDFX=  1.000000  1.000000  1.000000  1.000000 ScalE2=  1.000000  1.000000
 IRadAn=      5 IRanWt=     -1 IRanGd=            0 ICorTp=0 IEmpDi=  4
 NAtoms=    2 NActive=    2 NUniq=    2 SFac= 1.00D+00 NAtFMM=   60 NAOKFM=F Big=F
 Integral buffers will be    131072 words long.
 Raffenetti 2 integral format.
 Two-electron integral symmetry is turned on.
 Leave Link  301 at Mon Mar 28 12:45:41 2022, MaxMem=  9663676416 cpu:               2.0 elap:               0.1
 (Enter /nopt/nrel/apps/gaussian/g16C_1/g16/l302.exe)
 NPDir=0 NMtPBC=     1 NCelOv=     1 NCel=       1 NClECP=     1 NCelD=      1
         NCelK=      1 NCelE2=     1 NClLst=     1 CellRange=     0.0.
 One-electron integrals computed using PRISM.
 One-electron integral symmetry used in STVInt
 Entering OneElI...
 Calculate overlap and kinetic energy integrals
    NBasis =  19  MinDer = 0  MaxDer = 0
 Requested accuracy = 0.1000D-12
 Symmetry will be used
 PrmmSu-InSpLW:  IPartL=    0 NPrtUS=   36 NPrtUL=    1 DoSpLW=F IThBeg=    0 IThEnd=   35 NThAct=   36.
 PrSmSu:  IncTry=   512 NBBP=             21 NTPThr=   100 NPartT=   36 Incr=           1 LDynOK=F GPUOK=F.
 PrsmSu:  NPrtUS=  36 ThrOK=T IAlg=1 LenDen=           0 ISkipM=0 DoSpLW=F IThBeg=    0 IThEnd=   35.
 Prism:   IPart=     0 DynPar=F LinDyn=F Incr=           1.
 PRISM was handed   268432635 working-precision words and    21 shell-pairs
 PRISM was handed   268432635 working-precision words and    21 shell-pairs
 PRISM was handed   268432635 working-precision words and    21 shell-pairs
 PRISM was handed   268432635 working-precision words and    21 shell-pairs
 PRISM was handed   268432635 working-precision words and    21 shell-pairs
 PRISM was handed   268432635 working-precision words and    21 shell-pairs
 PRISM was handed   268432635 working-precision words and    21 shell-pairs
 PRISM was handed   268432635 working-precision words and    21 shell-pairs
 IPart= 16 NShTot=           0 NBatch=           0 AvBLen=         0.0
 IPart= 10 NShTot=           0 NBatch=           0 AvBLen=         0.0
 PRISM was handed   268432635 working-precision words and    21 shell-pairs
 IPart=  7 NShTot=           0 NBatch=           0 AvBLen=         0.0
 IPart= 18 NShTot=           0 NBatch=           0 AvBLen=         0.0
 IPart= 17 NShTot=           0 NBatch=           0 AvBLen=         0.0
 IPart= 25 NShTot=           0 NBatch=           0 AvBLen=         0.0
 IPart= 23 NShTot=           0 NBatch=           0 AvBLen=         0.0
 PRISM was handed   268432635 working-precision words and    21 shell-pairs
 PRISM was handed   268432635 working-precision words and    21 shell-pairs
 PRISM was handed   268432635 working-precision words and    21 shell-pairs
 PRISM was handed   268432635 working-precision words and    21 shell-pairs
 PRISM was handed   268432635 working-precision words and    21 shell-pairs
 PRISM was handed   268432635 working-precision words and    21 shell-pairs
 IPart=  8 NShTot=           0 NBatch=           0 AvBLen=         0.0
 PRISM was handed   268432635 working-precision words and    21 shell-pairs
 IPart= 27 NShTot=           0 NBatch=           0 AvBLen=         0.0
 IPart= 32 NShTot=           0 NBatch=           0 AvBLen=         0.0
 IPart= 19 NShTot=           0 NBatch=           0 AvBLen=         0.0
 IPart= 21 NShTot=           0 NBatch=           0 AvBLen=         0.0
 IPart= 31 NShTot=           0 NBatch=           0 AvBLen=         0.0
 PRISM was handed   268432635 working-precision words and    21 shell-pairs
 PRISM was handed   268432635 working-precision words and    21 shell-pairs
 PRISM was handed   268432635 working-precision words and    21 shell-pairs
 PRISM was handed   268432635 working-precision words and    21 shell-pairs
 PRISM was handed   268432635 working-precision words and    21 shell-pairs
 PRISM was handed   268432635 working-precision words and    21 shell-pairs
 IPart= 20 NShTot=           0 NBatch=           0 AvBLen=         0.0
 PRISM was handed   268432635 working-precision words and    21 shell-pairs
 PRISM was handed   268432635 working-precision words and    21 shell-pairs
 IPart=  4 NShTot=           2 NBatch=           2 AvBLen=         1.0
 PRISM was handed   268432635 working-precision words and    21 shell-pairs
 PRISM was handed   268432635 working-precision words and    21 shell-pairs
 PRISM was handed   268432635 working-precision words and    21 shell-pairs
 IPart= 33 NShTot=           0 NBatch=           0 AvBLen=         0.0
 IPart=  5 NShTot=           2 NBatch=           2 AvBLen=         1.0
 IPart=  6 NShTot=           0 NBatch=           0 AvBLen=         0.0
 IPart= 35 NShTot=           0 NBatch=           0 AvBLen=         0.0
 IPart= 14 NShTot=           0 NBatch=           0 AvBLen=         0.0
 IPart=  2 NShTot=           4 NBatch=           4 AvBLen=         1.0
 IPart= 15 NShTot=           0 NBatch=           0 AvBLen=         0.0
 IPart= 22 NShTot=           0 NBatch=           0 AvBLen=         0.0
 IPart= 30 NShTot=           0 NBatch=           0 AvBLen=         0.0
 IPart=  3 NShTot=           2 NBatch=           2 AvBLen=         1.0
 PRISM was handed   268432635 working-precision words and    21 shell-pairs
 PRISM was handed   268432635 working-precision words and    21 shell-pairs
 PRISM was handed   268432635 working-precision words and    21 shell-pairs
 PRISM was handed   268432635 working-precision words and    21 shell-pairs
 PRISM was handed   268432635 working-precision words and    21 shell-pairs
 PRISM was handed   268432635 working-precision words and    21 shell-pairs
 PRISM was handed   268432635 working-precision words and    21 shell-pairs
 IPart= 11 NShTot=           0 NBatch=           0 AvBLen=         0.0
 PRISM was handed   268432635 working-precision words and    21 shell-pairs
 PRISM was handed   268432635 working-precision words and    21 shell-pairs
 IPart=  0 NShTot=           6 NBatch=           6 AvBLen=         1.0
 IPart= 13 NShTot=           0 NBatch=           0 AvBLen=         0.0
 IPart= 34 NShTot=           0 NBatch=           0 AvBLen=         0.0
 IPart= 26 NShTot=           0 NBatch=           0 AvBLen=         0.0
 IPart=  9 NShTot=           0 NBatch=           0 AvBLen=         0.0
 IPart= 28 NShTot=           0 NBatch=           0 AvBLen=         0.0
 IPart= 29 NShTot=           0 NBatch=           0 AvBLen=         0.0
 IPart=  1 NShTot=           5 NBatch=           5 AvBLen=         1.0
 IPart= 12 NShTot=           0 NBatch=           0 AvBLen=         0.0
 IPart= 24 NShTot=           0 NBatch=           0 AvBLen=         0.0
 PrSmSu:  NxtVal=             37.
 *** Overlap *** 
                1             2             3             4             5 
      1  0.100000D+01
      2  0.400261D-02  0.100000D+01
      3  0.274803D-01  0.371775D+00  0.100000D+01
      4  0.000000D+00  0.000000D+00  0.000000D+00  0.100000D+01
      5  0.000000D+00  0.000000D+00  0.000000D+00  0.000000D+00  0.100000D+01
      6 -0.867955D-02  0.000000D+00  0.000000D+00  0.000000D+00  0.000000D+00
      7  0.185306D+00  0.223608D-01  0.300384D+00  0.000000D+00  0.000000D+00
      8  0.000000D+00  0.000000D+00  0.000000D+00  0.313309D+00  0.000000D+00
      9  0.000000D+00  0.000000D+00  0.000000D+00  0.000000D+00  0.313309D+00
     10 -0.164322D+00  0.000000D+00  0.000000D+00  0.000000D+00  0.000000D+00
     11  0.462262D+00 -0.412730D-03  0.136941D-01  0.000000D+00  0.000000D+00
     12  0.000000D+00  0.000000D+00  0.000000D+00  0.250808D-01  0.000000D+00
     13  0.000000D+00  0.000000D+00  0.000000D+00  0.000000D+00  0.250808D-01
     14 -0.566257D+00  0.000000D+00  0.000000D+00  0.000000D+00  0.000000D+00
     15  0.335761D+00  0.000000D+00  0.000000D+00  0.000000D+00  0.000000D+00
     16  0.000000D+00  0.000000D+00  0.000000D+00  0.000000D+00  0.000000D+00
     17  0.000000D+00  0.000000D+00  0.000000D+00  0.000000D+00  0.000000D+00
     18  0.000000D+00  0.000000D+00  0.000000D+00  0.000000D+00  0.000000D+00
     19  0.000000D+00  0.000000D+00  0.000000D+00  0.000000D+00  0.000000D+00
                6             7             8             9            10 
      6  0.100000D+01
      7  0.000000D+00  0.100000D+01
      8  0.000000D+00  0.000000D+00  0.100000D+01
      9  0.000000D+00  0.000000D+00  0.000000D+00  0.100000D+01
     10  0.313309D+00  0.000000D+00  0.000000D+00  0.000000D+00  0.100000D+01
     11  0.000000D+00  0.395149D+00  0.000000D+00  0.000000D+00  0.000000D+00
     12  0.000000D+00  0.000000D+00  0.407435D+00  0.000000D+00  0.000000D+00
     13  0.000000D+00  0.000000D+00  0.000000D+00  0.407435D+00  0.000000D+00
     14  0.250808D-01  0.000000D+00  0.000000D+00  0.000000D+00  0.407435D+00
     15  0.000000D+00  0.000000D+00  0.000000D+00  0.000000D+00  0.000000D+00
     16  0.000000D+00  0.000000D+00  0.000000D+00  0.000000D+00  0.000000D+00
     17  0.000000D+00  0.000000D+00  0.000000D+00  0.000000D+00  0.000000D+00
     18  0.000000D+00  0.000000D+00  0.000000D+00  0.000000D+00  0.000000D+00
     19  0.000000D+00  0.000000D+00  0.000000D+00  0.000000D+00  0.000000D+00
               11            12            13            14            15 
     11  0.100000D+01
     12  0.000000D+00  0.100000D+01
     13  0.000000D+00  0.000000D+00  0.100000D+01
     14  0.000000D+00  0.000000D+00  0.000000D+00  0.100000D+01
     15  0.000000D+00  0.000000D+00  0.000000D+00  0.000000D+00  0.100000D+01
     16  0.000000D+00  0.000000D+00  0.000000D+00  0.000000D+00  0.000000D+00
     17  0.000000D+00  0.000000D+00  0.000000D+00  0.000000D+00  0.000000D+00
     18  0.000000D+00  0.000000D+00  0.000000D+00  0.000000D+00  0.000000D+00
     19  0.000000D+00  0.000000D+00  0.000000D+00  0.000000D+00  0.000000D+00
               16            17            18            19 
     16  0.100000D+01
     17  0.000000D+00  0.100000D+01
     18  0.000000D+00  0.000000D+00  0.100000D+01
     19  0.000000D+00  0.000000D+00  0.000000D+00  0.100000D+01
 *** Kinetic Energy *** 
                1             2             3             4             5 
      1  0.760032D+00
      2 -0.129805D-02  0.229340D+03
      3 -0.864895D-02  0.137973D+01  0.120824D+02
      4  0.000000D+00  0.000000D+00  0.000000D+00  0.378073D+02
      5  0.000000D+00  0.000000D+00  0.000000D+00  0.000000D+00  0.378073D+02
      6  0.311686D-02  0.000000D+00  0.000000D+00  0.000000D+00  0.000000D+00
      7 -0.132681D-01 -0.798994D+00 -0.840664D+00  0.000000D+00  0.000000D+00
      8  0.000000D+00  0.000000D+00  0.000000D+00  0.187471D+01  0.000000D+00
      9  0.000000D+00  0.000000D+00  0.000000D+00  0.000000D+00  0.187471D+01
     10 -0.256150D-01  0.000000D+00  0.000000D+00  0.000000D+00  0.000000D+00
     11  0.810817D-01 -0.407071D-01 -0.207745D+00  0.000000D+00  0.000000D+00
     12  0.000000D+00  0.000000D+00  0.000000D+00 -0.209473D-01  0.000000D+00
     13  0.000000D+00  0.000000D+00  0.000000D+00  0.000000D+00 -0.209473D-01
     14 -0.207918D+00  0.000000D+00  0.000000D+00  0.000000D+00  0.000000D+00
     15  0.238550D+00  0.000000D+00  0.000000D+00  0.000000D+00  0.000000D+00
     16  0.000000D+00  0.000000D+00  0.000000D+00  0.000000D+00  0.000000D+00
     17  0.000000D+00  0.000000D+00  0.000000D+00  0.000000D+00  0.000000D+00
     18  0.000000D+00  0.000000D+00  0.000000D+00  0.000000D+00  0.000000D+00
     19  0.000000D+00  0.000000D+00  0.000000D+00  0.000000D+00  0.000000D+00
                6             7             8             9            10 
      6  0.378073D+02
      7  0.000000D+00  0.116813D+01
      8  0.000000D+00  0.000000D+00  0.275070D+01
      9  0.000000D+00  0.000000D+00  0.000000D+00  0.275070D+01
     10  0.187471D+01  0.000000D+00  0.000000D+00  0.000000D+00  0.275070D+01
     11  0.000000D+00 -0.927537D-01  0.000000D+00  0.000000D+00  0.000000D+00
     12  0.000000D+00  0.000000D+00  0.199329D+00  0.000000D+00  0.000000D+00
     13  0.000000D+00  0.000000D+00  0.000000D+00  0.199329D+00  0.000000D+00
     14 -0.209473D-01  0.000000D+00  0.000000D+00  0.000000D+00  0.199329D+00
     15  0.000000D+00  0.000000D+00  0.000000D+00  0.000000D+00  0.000000D+00
     16  0.000000D+00  0.000000D+00  0.000000D+00  0.000000D+00  0.000000D+00
     17  0.000000D+00  0.000000D+00  0.000000D+00  0.000000D+00  0.000000D+00
     18  0.000000D+00  0.000000D+00  0.000000D+00  0.000000D+00  0.000000D+00
     19  0.000000D+00  0.000000D+00  0.000000D+00  0.000000D+00  0.000000D+00
               11            12            13            14            15 
     11  0.207443D+00
     12  0.000000D+00  0.409500D+00
     13  0.000000D+00  0.000000D+00  0.409500D+00
     14  0.000000D+00  0.000000D+00  0.000000D+00  0.409500D+00
     15  0.000000D+00  0.000000D+00  0.000000D+00  0.000000D+00  0.180044D+01
     16  0.000000D+00  0.000000D+00  0.000000D+00  0.000000D+00  0.000000D+00
     17  0.000000D+00  0.000000D+00  0.000000D+00  0.000000D+00  0.000000D+00
     18  0.000000D+00  0.000000D+00  0.000000D+00  0.000000D+00  0.000000D+00
     19  0.000000D+00  0.000000D+00  0.000000D+00  0.000000D+00  0.000000D+00
               16            17            18            19 
     16  0.180044D+01
     17  0.000000D+00  0.180044D+01
     18  0.000000D+00  0.000000D+00  0.180044D+01
     19  0.000000D+00  0.000000D+00  0.000000D+00  0.180044D+01
 Entering OneElI...
 Calculate potential energy integrals
    NBasis =  19  MinDer = 0  MaxDer = 0
 Requested accuracy = 0.1000D-12
 Symmetry will be used
 PrmmSu-InSpLW:  IPartL=    0 NPrtUS=   36 NPrtUL=    1 DoSpLW=F IThBeg=    0 IThEnd=   35 NThAct=   36.
 PrSmSu:  IncTry=   512 NBBP=             42 NTPThr=   100 NPartT=   36 Incr=           1 LDynOK=F GPUOK=F.
 PrsmSu:  NPrtUS=  36 ThrOK=T IAlg=1 LenDen=           0 ISkipM=0 DoSpLW=F IThBeg=    0 IThEnd=   35.
 Prism:   IPart=     0 DynPar=F LinDyn=F Incr=           1.
 PRISM was handed   268432827 working-precision words and    21 shell-pairs
 PRISM was handed   268432827 working-precision words and    21 shell-pairs
 PRISM was handed   268432827 working-precision words and    21 shell-pairs
 PRISM was handed   268432827 working-precision words and    21 shell-pairs
 PRISM was handed   268432827 working-precision words and    21 shell-pairs
 PRISM was handed   268432827 working-precision words and    21 shell-pairs
 PRISM was handed   268432827 working-precision words and    21 shell-pairs
 PRISM was handed   268432827 working-precision words and    21 shell-pairs
 PRISM was handed   268432827 working-precision words and    21 shell-pairs
 PRISM was handed   268432827 working-precision words and    21 shell-pairs
 PRISM was handed   268432827 working-precision words and    21 shell-pairs
 PRISM was handed   268432827 working-precision words and    21 shell-pairs
 PRISM was handed   268432827 working-precision words and    21 shell-pairs
 PRISM was handed   268432827 working-precision words and    21 shell-pairs
 PRISM was handed   268432827 working-precision words and    21 shell-pairs
 PRISM was handed   268432827 working-precision words and    21 shell-pairs
 PRISM was handed   268432827 working-precision words and    21 shell-pairs
 PRISM was handed   268432827 working-precision words and    21 shell-pairs
 PRISM was handed   268432827 working-precision words and    21 shell-pairs
 PRISM was handed   268432827 working-precision words and    21 shell-pairs
 PRISM was handed   268432827 working-precision words and    21 shell-pairs
 PRISM was handed   268432827 working-precision words and    21 shell-pairs
 PRISM was handed   268432827 working-precision words and    21 shell-pairs
 PRISM was handed   268432827 working-precision words and    21 shell-pairs
 PRISM was handed   268432827 working-precision words and    21 shell-pairs
 PRISM was handed   268432827 working-precision words and    21 shell-pairs
 PRISM was handed   268432827 working-precision words and    21 shell-pairs
 PRISM was handed   268432827 working-precision words and    21 shell-pairs
 PRISM was handed   268432827 working-precision words and    21 shell-pairs
 PRISM was handed   268432827 working-precision words and    21 shell-pairs
 PRISM was handed   268432827 working-precision words and    21 shell-pairs
 PRISM was handed   268432827 working-precision words and    21 shell-pairs
 PRISM was handed   268432827 working-precision words and    21 shell-pairs
 PRISM was handed   268432827 working-precision words and    21 shell-pairs
 PRISM was handed   268432827 working-precision words and    21 shell-pairs
 PRISM was handed   268432827 working-precision words and    21 shell-pairs
 IPart= 24 NShTot=           0 NBatch=           0 AvBLen=         0.0
 IPart= 25 NShTot=           0 NBatch=           0 AvBLen=         0.0
 IPart= 26 NShTot=           0 NBatch=           0 AvBLen=         0.0
 IPart= 12 NShTot=           0 NBatch=           0 AvBLen=         0.0
 IPart= 28 NShTot=           0 NBatch=           0 AvBLen=         0.0
 IPart=  7 NShTot=           0 NBatch=           0 AvBLen=         0.0
 IPart= 13 NShTot=           0 NBatch=           0 AvBLen=         0.0
 IPart= 15 NShTot=           0 NBatch=           0 AvBLen=         0.0
 IPart= 27 NShTot=           0 NBatch=           0 AvBLen=         0.0
 IPart= 35 NShTot=           0 NBatch=           0 AvBLen=         0.0
 IPart= 30 NShTot=           0 NBatch=           0 AvBLen=         0.0
 IPart= 16 NShTot=           0 NBatch=           0 AvBLen=         0.0
 IPart=  8 NShTot=           0 NBatch=           0 AvBLen=         0.0
 IPart= 32 NShTot=           0 NBatch=           0 AvBLen=         0.0
 IPart= 23 NShTot=           0 NBatch=           0 AvBLen=         0.0
 IPart= 10 NShTot=           0 NBatch=           0 AvBLen=         0.0
 IPart= 14 NShTot=           0 NBatch=           0 AvBLen=         0.0
 IPart= 17 NShTot=           0 NBatch=           0 AvBLen=         0.0
 IPart= 21 NShTot=           0 NBatch=           0 AvBLen=         0.0
 IPart= 22 NShTot=           0 NBatch=           0 AvBLen=         0.0
 IPart= 33 NShTot=           0 NBatch=           0 AvBLen=         0.0
 IPart= 29 NShTot=           0 NBatch=           0 AvBLen=         0.0
 IPart=  9 NShTot=           0 NBatch=           0 AvBLen=         0.0
 IPart= 34 NShTot=           0 NBatch=           0 AvBLen=         0.0
 IPart= 20 NShTot=           0 NBatch=           0 AvBLen=         0.0
 IPart=  4 NShTot=           4 NBatch=           2 AvBLen=         2.0
 IPart=  6 NShTot=           0 NBatch=           0 AvBLen=         0.0
 IPart= 11 NShTot=           0 NBatch=           0 AvBLen=         0.0
 IPart= 31 NShTot=           0 NBatch=           0 AvBLen=         0.0
 IPart=  1 NShTot=          10 NBatch=           5 AvBLen=         2.0
 IPart=  5 NShTot=           4 NBatch=           2 AvBLen=         2.0
 IPart=  2 NShTot=           8 NBatch=           4 AvBLen=         2.0
 IPart=  0 NShTot=          12 NBatch=           6 AvBLen=         2.0
 IPart=  3 NShTot=           4 NBatch=           2 AvBLen=         2.0
 IPart= 19 NShTot=           0 NBatch=           0 AvBLen=         0.0
 IPart= 18 NShTot=           0 NBatch=           0 AvBLen=         0.0
 PrSmSu:  NxtVal=             37.
 ***** Potential Energy ***** 
                1             2             3             4             5 
      1  0.949085D+01
      2  0.968922D+00  0.469142D+03
      3  0.179528D+01  0.902864D+02  0.966300D+02
      4  0.000000D+00  0.000000D+00  0.000000D+00  0.958584D+02
      5  0.000000D+00  0.000000D+00  0.000000D+00  0.000000D+00  0.958584D+02
      6 -0.424310D+00 -0.389238D-02 -0.236911D-01  0.000000D+00  0.000000D+00
      7  0.356876D+01  0.472854D+01  0.170752D+02  0.000000D+00  0.000000D+00
      8  0.000000D+00  0.000000D+00  0.000000D+00  0.175037D+02  0.000000D+00
      9  0.000000D+00  0.000000D+00  0.000000D+00  0.000000D+00  0.175037D+02
     10 -0.268782D+01 -0.270343D-03 -0.118528D-01  0.000000D+00  0.000000D+00
     11  0.460541D+01 -0.133824D+00  0.486584D+00  0.000000D+00  0.000000D+00
     12  0.000000D+00  0.000000D+00  0.000000D+00  0.120773D+01  0.000000D+00
     13  0.000000D+00  0.000000D+00  0.000000D+00  0.000000D+00  0.120773D+01
     14 -0.545856D+01 -0.137886D-04 -0.104890D-02  0.000000D+00  0.000000D+00
     15  0.366011D+01  0.166290D-05  0.608415D-03  0.000000D+00  0.000000D+00
     16  0.000000D+00  0.000000D+00  0.000000D+00 -0.276477D-02  0.000000D+00
     17  0.000000D+00  0.000000D+00  0.000000D+00  0.000000D+00 -0.276477D-02
     18  0.000000D+00  0.000000D+00  0.000000D+00  0.000000D+00  0.000000D+00
     19  0.000000D+00  0.000000D+00  0.000000D+00  0.000000D+00  0.000000D+00
                6             7             8             9            10 
      6  0.958617D+02
      7 -0.123788D-01  0.256119D+02
      8  0.000000D+00  0.000000D+00  0.256430D+02
      9  0.000000D+00  0.000000D+00  0.000000D+00  0.256430D+02
     10  0.175064D+02 -0.838512D-01  0.000000D+00  0.000000D+00  0.256813D+02
     11 -0.835547D-03  0.659082D+01  0.000000D+00  0.000000D+00 -0.509399D-01
     12  0.000000D+00  0.000000D+00  0.690087D+01  0.000000D+00  0.000000D+00
     13  0.000000D+00  0.000000D+00  0.000000D+00  0.690087D+01  0.000000D+00
     14  0.120803D+01 -0.490868D-01  0.000000D+00  0.000000D+00  0.693464D+01
     15 -0.342521D-02  0.334434D-01  0.000000D+00  0.000000D+00 -0.868136D-01
     16  0.000000D+00  0.000000D+00 -0.523403D-01  0.000000D+00  0.000000D+00
     17  0.000000D+00  0.000000D+00  0.000000D+00 -0.523403D-01  0.000000D+00
     18  0.000000D+00  0.000000D+00  0.000000D+00  0.000000D+00  0.000000D+00
     19  0.000000D+00  0.000000D+00  0.000000D+00  0.000000D+00  0.000000D+00
               11            12            13            14            15 
     11  0.969853D+01
     12  0.000000D+00  0.965518D+01
     13  0.000000D+00  0.000000D+00  0.965518D+01
     14 -0.155280D+00  0.000000D+00  0.000000D+00  0.978679D+01
     15  0.804692D-01  0.000000D+00  0.000000D+00 -0.168412D+00  0.143484D+02
     16  0.000000D+00 -0.757646D-01  0.000000D+00  0.000000D+00  0.000000D+00
     17  0.000000D+00  0.000000D+00 -0.757646D-01  0.000000D+00  0.000000D+00
     18  0.000000D+00  0.000000D+00  0.000000D+00  0.000000D+00  0.000000D+00
     19  0.000000D+00  0.000000D+00  0.000000D+00  0.000000D+00  0.000000D+00
               16            17            18            19 
     16  0.142737D+02
     17  0.000000D+00  0.142737D+02
     18  0.000000D+00  0.000000D+00  0.142245D+02
     19  0.000000D+00  0.000000D+00  0.000000D+00  0.142245D+02
 ****** Core Hamiltonian ****** 
                1             2             3             4             5 
      1 -0.873082D+01
      2 -0.970220D+00 -0.239802D+03
      3 -0.180392D+01 -0.889067D+02 -0.845476D+02
      4  0.000000D+00  0.000000D+00  0.000000D+00 -0.580511D+02
      5  0.000000D+00  0.000000D+00  0.000000D+00  0.000000D+00 -0.580511D+02
      6  0.427426D+00  0.389238D-02  0.236911D-01  0.000000D+00  0.000000D+00
      7 -0.358203D+01 -0.552754D+01 -0.179158D+02  0.000000D+00  0.000000D+00
      8  0.000000D+00  0.000000D+00  0.000000D+00 -0.156290D+02  0.000000D+00
      9  0.000000D+00  0.000000D+00  0.000000D+00  0.000000D+00 -0.156290D+02
     10  0.266220D+01  0.270343D-03  0.118528D-01  0.000000D+00  0.000000D+00
     11 -0.452433D+01  0.931169D-01 -0.694330D+00  0.000000D+00  0.000000D+00
     12  0.000000D+00  0.000000D+00  0.000000D+00 -0.122868D+01  0.000000D+00
     13  0.000000D+00  0.000000D+00  0.000000D+00  0.000000D+00 -0.122868D+01
     14  0.525065D+01  0.137886D-04  0.104890D-02  0.000000D+00  0.000000D+00
     15 -0.342156D+01 -0.166290D-05 -0.608415D-03  0.000000D+00  0.000000D+00
     16  0.000000D+00  0.000000D+00  0.000000D+00  0.276477D-02  0.000000D+00
     17  0.000000D+00  0.000000D+00  0.000000D+00  0.000000D+00  0.276477D-02
     18  0.000000D+00  0.000000D+00  0.000000D+00  0.000000D+00  0.000000D+00
     19  0.000000D+00  0.000000D+00  0.000000D+00  0.000000D+00  0.000000D+00
                6             7             8             9            10 
      6 -0.580543D+02
      7  0.123788D-01 -0.244438D+02
      8  0.000000D+00  0.000000D+00 -0.228923D+02
      9  0.000000D+00  0.000000D+00  0.000000D+00 -0.228923D+02
     10 -0.156317D+02  0.838512D-01  0.000000D+00  0.000000D+00 -0.229306D+02
     11  0.835547D-03 -0.668358D+01  0.000000D+00  0.000000D+00  0.509399D-01
     12  0.000000D+00  0.000000D+00 -0.670154D+01  0.000000D+00  0.000000D+00
     13  0.000000D+00  0.000000D+00  0.000000D+00 -0.670154D+01  0.000000D+00
     14 -0.122898D+01  0.490868D-01  0.000000D+00  0.000000D+00 -0.673531D+01
     15  0.342521D-02 -0.334434D-01  0.000000D+00  0.000000D+00  0.868136D-01
     16  0.000000D+00  0.000000D+00  0.523403D-01  0.000000D+00  0.000000D+00
     17  0.000000D+00  0.000000D+00  0.000000D+00  0.523403D-01  0.000000D+00
     18  0.000000D+00  0.000000D+00  0.000000D+00  0.000000D+00  0.000000D+00
     19  0.000000D+00  0.000000D+00  0.000000D+00  0.000000D+00  0.000000D+00
               11            12            13            14            15 
     11 -0.949109D+01
     12  0.000000D+00 -0.924568D+01
     13  0.000000D+00  0.000000D+00 -0.924568D+01
     14  0.155280D+00  0.000000D+00  0.000000D+00 -0.937729D+01
     15 -0.804692D-01  0.000000D+00  0.000000D+00  0.168412D+00 -0.125480D+02
     16  0.000000D+00  0.757646D-01  0.000000D+00  0.000000D+00  0.000000D+00
     17  0.000000D+00  0.000000D+00  0.757646D-01  0.000000D+00  0.000000D+00
     18  0.000000D+00  0.000000D+00  0.000000D+00  0.000000D+00  0.000000D+00
     19  0.000000D+00  0.000000D+00  0.000000D+00  0.000000D+00  0.000000D+00
               16            17            18            19 
     16 -0.124732D+02
     17  0.000000D+00 -0.124732D+02
     18  0.000000D+00  0.000000D+00 -0.124240D+02
     19  0.000000D+00  0.000000D+00  0.000000D+00 -0.124240D+02
 SVDSVc IOpt=   1 NormSV=T IR=1
 SVDSVc V= 2.03D+00 1.56D+00 1.34D+00 1.13D+00 1.00D+00 9.88D-01 7.51D-01 5.61D-01 4.60D-01 1.80D-01
 SVDSVc IOpt=   1 NormSV=T IR=2
 SVDSVc V= 1.00D+00
 SVDSVc IOpt=   1 NormSV=T IR=3
 SVDSVc V= 1.53D+00 1.00D+00 9.76D-01 4.98D-01
 SVDSVc IOpt=   1 NormSV=T IR=4
 SVDSVc V= 1.53D+00 1.00D+00 9.76D-01 4.98D-01
 TstOVc:  Largest diagonal error= 1.11D-15 IB=1 I=    1.
 TstOVc:  Largest same sym error= 6.78D-16 IB=1 I=    8 J=    2.
 TstOVc:  Largest diff sym error= 0.00D+00 IB=0 JB=0 I=    0 J=    0.
 Orthogonalized basis functions: 
                 1             2             3             4             5 
      1   0.426936D+00 -0.365416D-01 -0.186668D+00  0.198395D+00  0.000000D+00
      2   0.391758D-01  0.271083D+00  0.439590D+00  0.322005D+00  0.000000D+00
      3   0.910602D-01  0.386959D+00  0.409873D+00  0.131749D+00  0.000000D+00
      4   0.000000D+00  0.000000D+00  0.000000D+00  0.000000D+00  0.000000D+00
      5   0.000000D+00  0.000000D+00  0.000000D+00  0.000000D+00  0.000000D+00
      6  -0.795610D-01  0.189176D+00 -0.315238D+00  0.414965D+00  0.000000D+00
      7   0.210686D+00  0.379388D+00 -0.459693D-01 -0.344346D+00  0.000000D+00
      8   0.000000D+00  0.000000D+00  0.000000D+00  0.000000D+00  0.000000D+00
      9   0.000000D+00  0.000000D+00  0.000000D+00  0.000000D+00  0.000000D+00
     10  -0.222383D+00  0.315779D+00 -0.340591D+00  0.193272D+00  0.000000D+00
     11   0.274930D+00  0.246331D+00 -0.288802D+00 -0.325642D+00  0.000000D+00
     12   0.000000D+00  0.000000D+00  0.000000D+00  0.000000D+00  0.000000D+00
     13   0.000000D+00  0.000000D+00  0.000000D+00  0.000000D+00  0.000000D+00
     14  -0.326161D+00  0.274645D+00 -0.119498D+00 -0.176904D+00  0.000000D+00
     15   0.139834D+00 -0.218675D-01 -0.182796D+00  0.508175D+00  0.000000D+00
     16   0.000000D+00  0.000000D+00  0.000000D+00  0.000000D+00  0.000000D+00
     17   0.000000D+00  0.000000D+00  0.000000D+00  0.000000D+00  0.000000D+00
     18   0.000000D+00  0.000000D+00  0.000000D+00  0.000000D+00  0.100000D+01
     19   0.000000D+00  0.000000D+00  0.000000D+00  0.000000D+00  0.000000D+00
                 6             7             8             9            10 
      1  -0.254507D-01  0.171917D+00  0.341702D+00 -0.891643D-01  0.157194D+01
      2  -0.222990D-01  0.663620D+00 -0.287515D+00  0.526697D+00  0.354583D-01
      3  -0.733830D-03 -0.415294D+00  0.346023D+00 -0.814712D+00 -0.104664D+00
      4   0.000000D+00  0.000000D+00  0.000000D+00  0.000000D+00  0.000000D+00
      5   0.000000D+00  0.000000D+00  0.000000D+00  0.000000D+00  0.000000D+00
      6  -0.585286D+00 -0.220880D+00 -0.615280D+00 -0.171469D+00  0.113283D+00
      7   0.293724D-01 -0.516198D+00 -0.171433D+00  0.843353D+00  0.141361D+00
      8   0.000000D+00  0.000000D+00  0.000000D+00  0.000000D+00  0.000000D+00
      9   0.000000D+00  0.000000D+00  0.000000D+00  0.000000D+00  0.000000D+00
     10  -0.127543D-01  0.169711D+00  0.900715D+00  0.318944D+00 -0.353554D+00
     11   0.128322D-01  0.523245D+00 -0.216482D+00 -0.520183D+00 -0.952852D+00
     12   0.000000D+00  0.000000D+00  0.000000D+00  0.000000D+00  0.000000D+00
     13   0.000000D+00  0.000000D+00  0.000000D+00  0.000000D+00  0.000000D+00
     14   0.440197D+00  0.135329D+00 -0.359910D+00 -0.326461D+00  0.125817D+01
     15   0.688404D+00 -0.231504D+00 -0.261247D+00  0.554881D-01 -0.643885D+00
     16   0.000000D+00  0.000000D+00  0.000000D+00  0.000000D+00  0.000000D+00
     17   0.000000D+00  0.000000D+00  0.000000D+00  0.000000D+00  0.000000D+00
     18   0.000000D+00  0.000000D+00  0.000000D+00  0.000000D+00  0.000000D+00
     19   0.000000D+00  0.000000D+00  0.000000D+00  0.000000D+00  0.000000D+00
                11            12            13            14            15 
      1   0.000000D+00  0.000000D+00  0.000000D+00  0.000000D+00  0.000000D+00
      2   0.000000D+00  0.000000D+00  0.000000D+00  0.000000D+00  0.000000D+00
      3   0.000000D+00  0.000000D+00  0.000000D+00  0.000000D+00  0.000000D+00
      4   0.000000D+00  0.358362D+00  0.000000D+00  0.802807D+00 -0.593005D+00
      5   0.000000D+00  0.000000D+00  0.000000D+00  0.000000D+00  0.000000D+00
      6   0.000000D+00  0.000000D+00  0.000000D+00  0.000000D+00  0.000000D+00
      7   0.000000D+00  0.000000D+00  0.000000D+00  0.000000D+00  0.000000D+00
      8   0.000000D+00  0.565532D+00  0.000000D+00 -0.127423D-01  0.101370D+01
      9   0.000000D+00  0.000000D+00  0.000000D+00  0.000000D+00  0.000000D+00
     10   0.000000D+00  0.000000D+00  0.000000D+00  0.000000D+00  0.000000D+00
     11   0.000000D+00  0.000000D+00  0.000000D+00  0.000000D+00  0.000000D+00
     12   0.000000D+00  0.454909D+00  0.000000D+00 -0.616584D+00 -0.793056D+00
     13   0.000000D+00  0.000000D+00  0.000000D+00  0.000000D+00  0.000000D+00
     14   0.000000D+00  0.000000D+00  0.000000D+00  0.000000D+00  0.000000D+00
     15   0.000000D+00  0.000000D+00  0.000000D+00  0.000000D+00  0.000000D+00
     16   0.000000D+00  0.000000D+00  0.100000D+01  0.000000D+00  0.000000D+00
     17   0.000000D+00  0.000000D+00  0.000000D+00  0.000000D+00  0.000000D+00
     18   0.000000D+00  0.000000D+00  0.000000D+00  0.000000D+00  0.000000D+00
     19   0.100000D+01  0.000000D+00  0.000000D+00  0.000000D+00  0.000000D+00
                16            17            18            19 
      1   0.000000D+00  0.000000D+00  0.000000D+00  0.000000D+00
      2   0.000000D+00  0.000000D+00  0.000000D+00  0.000000D+00
      3   0.000000D+00  0.000000D+00  0.000000D+00  0.000000D+00
      4   0.000000D+00  0.000000D+00  0.000000D+00  0.000000D+00
      5   0.358362D+00  0.000000D+00  0.802807D+00 -0.593005D+00
      6   0.000000D+00  0.000000D+00  0.000000D+00  0.000000D+00
      7   0.000000D+00  0.000000D+00  0.000000D+00  0.000000D+00
      8   0.000000D+00  0.000000D+00  0.000000D+00  0.000000D+00
      9   0.565532D+00  0.000000D+00 -0.127423D-01  0.101370D+01
     10   0.000000D+00  0.000000D+00  0.000000D+00  0.000000D+00
     11   0.000000D+00  0.000000D+00  0.000000D+00  0.000000D+00
     12   0.000000D+00  0.000000D+00  0.000000D+00  0.000000D+00
     13   0.454909D+00  0.000000D+00 -0.616584D+00 -0.793056D+00
     14   0.000000D+00  0.000000D+00  0.000000D+00  0.000000D+00
     15   0.000000D+00  0.000000D+00  0.000000D+00  0.000000D+00
     16   0.000000D+00  0.000000D+00  0.000000D+00  0.000000D+00
     17   0.000000D+00  0.100000D+01  0.000000D+00  0.000000D+00
     18   0.000000D+00  0.000000D+00  0.000000D+00  0.000000D+00
     19   0.000000D+00  0.000000D+00  0.000000D+00  0.000000D+00
 NBasis=    19 RedAO= T EigKep=  1.80D-01  NBF=    10     1     4     4
 NBsUse=    19 1.00D-06 EigRej= -1.00D+00 NBFU=    10     1     4     4
 Leave Link  302 at Mon Mar 28 12:45:41 2022, MaxMem=  9663676416 cpu:               4.8 elap:               0.2
 (Enter /nopt/nrel/apps/gaussian/g16C_1/g16/l303.exe)
 DipDrv will not compute anything.
 Fermi contact integrals: 
                 1             2 
      1   0.628247D+00  0.290007D-01
      2   0.000000D+00  0.454848D+02
      3   0.000000D+00  0.245213D+01
      4   0.000000D+00  0.000000D+00
      5   0.000000D+00  0.000000D+00
      6   0.000000D+00  0.000000D+00
      7   0.545922D-02  0.115357D+00
      8   0.000000D+00  0.000000D+00
      9   0.000000D+00  0.000000D+00
     10  -0.122052D-01  0.000000D+00
     11   0.707854D-01 -0.521539D-02
     12   0.000000D+00  0.000000D+00
     13   0.000000D+00  0.000000D+00
     14  -0.124735D+00  0.000000D+00
     15   0.115520D+00  0.000000D+00
     16   0.000000D+00  0.000000D+00
     17   0.000000D+00  0.000000D+00
     18   0.000000D+00  0.000000D+00
     19   0.000000D+00  0.000000D+00
 Leave Link  303 at Mon Mar 28 12:45:41 2022, MaxMem=  9663676416 cpu:               1.1 elap:               0.1
 (Enter /nopt/nrel/apps/gaussian/g16C_1/g16/l401.exe)
 ExpMin= 1.16D-01 ExpMax= 1.03D+03 ExpMxC= 1.03D+03 IAcc=3 IRadAn=         5 AccDes= 0.00D+00
 Harris functional with IExCor=  205 and IRadAn=       5 diagonalized for initial guess.
 HarFok:  IExCor=  205 AccDes= 0.00D+00 IRadAn=         5 IDoV= 1 UseB2=F ITyADJ=14
 ICtDFT=  3500011 ScaDFX=  1.000000  1.000000  1.000000  1.000000
 FoFCou: FMM=F IPFlag=           0 FMFlag=      100000 FMFlg1=           0
         NFxFlg=           0 DoJE=T BraDBF=F KetDBF=T FulRan=T
         wScrn=  0.000000 ICntrl=       500 IOpCl=  0 I1Cent=   200000004 NGrid=           0
         NMat0=    1 NMatS0=      1 NMatT0=    0 NMatD0=    1 NMtDS0=    0 NMtDT0=    0
 Petite list used in FoFCou.
 Harris En= -838.983349220830    
 JPrj=0 DoOrth=F DoCkMO=F.
 Initial guess orbital symmetries:
 Alpha Orbitals:
       Occupied  (SG) (SG) (SG) (PI) (PI) (SG) (SG) (PI) (PI) (SG)
                 (SG) (PI) (PI) (DLTA)
       Virtual   (DLTA) (SG) (PI) (PI) (SG)
 Beta  Orbitals:
       Occupied  (SG) (SG) (SG) (PI) (PI) (SG) (SG) (PI) (PI)
       Virtual   (SG) (SG) (PI) (PI) (DLTA) (DLTA) (SG) (PI) (PI)
                 (SG)
 Initial guess <Sx>= 0.0000 <Sy>= 0.0000 <Sz>= 2.5000 <S**2>= 8.7500 S= 2.5000
 Leave Link  401 at Mon Mar 28 12:45:41 2022, MaxMem=  9663676416 cpu:               4.4 elap:               0.1
 (Enter /nopt/nrel/apps/gaussian/g16C_1/g16/l502.exe)
 Keep R1 and R2 ints in memory in symmetry-blocked form, NReq=7413390.
 FoFCou: FMM=F IPFlag=           0 FMFlag=           0 FMFlg1=           0
         NFxFlg=           0 DoJE=F BraDBF=F KetDBF=F FulRan=T
         wScrn=  0.000000 ICntrl=       600 IOpCl=  0 I1Cent=           0 NGrid=           0
         NMat0=    1 NMatS0=    190 NMatT0=    0 NMatD0=    1 NMtDS0=    0 NMtDT0=    0
 Petite list used in FoFCou.
 UHF open shell SCF:
 Using DIIS extrapolation, IDIIS=  1040.
 NGot=  9663676416 LenX=  9663662661 LenY=  9663661779
 Requested convergence on RMS density matrix=1.00D-08 within 128 cycles.
 Requested convergence on MAX density matrix=1.00D-06.
 Requested convergence on             energy=1.00D-06.
 No special actions if energy rises.

 Cycle   1  Pass 1  IDiag  1:
 E= -839.813880856155    
 DIIS: error= 5.80D-02 at cycle   1 NSaved=   1.
 NSaved= 1 IEnMin= 1 EnMin= -839.813880856155     IErMin= 1 ErrMin= 5.80D-02
 ErrMax= 5.80D-02  0.00D+00 EMaxC= 1.00D-01 BMatC= 2.11D-01 BMatP= 2.11D-01
 IDIUse=3 WtCom= 4.20D-01 WtEn= 5.80D-01
 Coeff-Com:  0.100D+01
 Coeff-En:   0.100D+01
 Coeff:      0.100D+01
 Gap=     0.361 Goal=   None    Shift=    0.000
 Gap=     1.759 Goal=   None    Shift=    0.000
 GapD=    0.361 DampG=1.000 DampE=0.250 DampFc=0.2500 IDamp=-1.
 Damping current iteration by 2.50D-01
 RMSDP=8.43D-03 MaxDP=7.86D-02              OVMax= 0.00D+00

 Cycle   2  Pass 1  IDiag  1:
 E= -839.820095706155     Delta-E=       -0.006214850000 Rises=F Damp=T
 DIIS: error= 4.43D-02 at cycle   2 NSaved=   2.
 NSaved= 2 IEnMin= 2 EnMin= -839.820095706155     IErMin= 2 ErrMin= 4.43D-02
 ErrMax= 4.43D-02  0.00D+00 EMaxC= 1.00D-01 BMatC= 1.23D-01 BMatP= 2.11D-01
 IDIUse=3 WtCom= 5.57D-01 WtEn= 4.43D-01
 Coeff-Com: -0.318D+01 0.418D+01
 Coeff-En:   0.000D+00 0.100D+01
 Coeff:     -0.177D+01 0.277D+01
 Gap=     0.357 Goal=   None    Shift=    0.000
 Gap=     1.748 Goal=   None    Shift=    0.000
 RMSDP=8.27D-03 MaxDP=8.35D-02 DE=-6.21D-03 OVMax= 0.00D+00

 Cycle   3  Pass 1  IDiag  1:
 E= -839.843929553133     Delta-E=       -0.023833846978 Rises=F Damp=F
 DIIS: error= 3.89D-03 at cycle   3 NSaved=   3.
 NSaved= 3 IEnMin= 3 EnMin= -839.843929553133     IErMin= 3 ErrMin= 3.89D-03
 ErrMax= 3.89D-03  0.00D+00 EMaxC= 1.00D-01 BMatC= 1.29D-03 BMatP= 1.23D-01
 IDIUse=3 WtCom= 9.61D-01 WtEn= 3.89D-02
 Coeff-Com:  0.318D+01-0.424D+01 0.207D+01
 Coeff-En:   0.000D+00 0.000D+00 0.100D+01
 Coeff:      0.306D+01-0.408D+01 0.202D+01
 Gap=     0.359 Goal=   None    Shift=    0.000
 Gap=     1.760 Goal=   None    Shift=    0.000
 RMSDP=4.51D-03 MaxDP=2.93D-02 DE=-2.38D-02 OVMax= 0.00D+00

 Cycle   4  Pass 1  IDiag  1:
 E= -839.845859903563     Delta-E=       -0.001930350429 Rises=F Damp=F
 DIIS: error= 2.73D-03 at cycle   4 NSaved=   4.
 NSaved= 4 IEnMin= 4 EnMin= -839.845859903563     IErMin= 4 ErrMin= 2.73D-03
 ErrMax= 2.73D-03  0.00D+00 EMaxC= 1.00D-01 BMatC= 2.38D-04 BMatP= 1.29D-03
 IDIUse=3 WtCom= 9.73D-01 WtEn= 2.73D-02
 Coeff-Com: -0.563D+01 0.752D+01-0.375D+01 0.287D+01
 Coeff-En:   0.000D+00 0.000D+00 0.000D+00 0.100D+01
 Coeff:     -0.548D+01 0.731D+01-0.365D+01 0.282D+01
 Gap=     0.365 Goal=   None    Shift=    0.000
 Gap=     1.770 Goal=   None    Shift=    0.000
 RMSDP=5.32D-03 MaxDP=4.40D-02 DE=-1.93D-03 OVMax= 0.00D+00

 Cycle   5  Pass 1  IDiag  1:
 E= -839.847177853732     Delta-E=       -0.001317950170 Rises=F Damp=F
 DIIS: error= 2.01D-03 at cycle   5 NSaved=   5.
 NSaved= 5 IEnMin= 5 EnMin= -839.847177853732     IErMin= 5 ErrMin= 2.01D-03
 ErrMax= 2.01D-03  0.00D+00 EMaxC= 1.00D-01 BMatC= 1.13D-04 BMatP= 2.38D-04
 IDIUse=3 WtCom= 9.80D-01 WtEn= 2.01D-02
 Coeff-Com:  0.338D+01-0.452D+01 0.231D+01-0.226D+01 0.209D+01
 Coeff-En:   0.000D+00 0.000D+00 0.000D+00 0.000D+00 0.100D+01
 Coeff:      0.331D+01-0.443D+01 0.226D+01-0.221D+01 0.206D+01
 Gap=     0.369 Goal=   None    Shift=    0.000
 Gap=     1.777 Goal=   None    Shift=    0.000
 RMSDP=4.00D-03 MaxDP=3.86D-02 DE=-1.32D-03 OVMax= 0.00D+00

 Cycle   6  Pass 1  IDiag  1:
 E= -839.847882225667     Delta-E=       -0.000704371934 Rises=F Damp=F
 DIIS: error= 1.48D-03 at cycle   6 NSaved=   6.
 NSaved= 6 IEnMin= 6 EnMin= -839.847882225667     IErMin= 6 ErrMin= 1.48D-03
 ErrMax= 1.48D-03  0.00D+00 EMaxC= 1.00D-01 BMatC= 6.82D-05 BMatP= 1.13D-04
 IDIUse=3 WtCom= 9.85D-01 WtEn= 1.48D-02
 Coeff-Com: -0.438D+01 0.584D+01-0.298D+01 0.330D+01-0.448D+01 0.369D+01
 Coeff-En:   0.000D+00 0.000D+00 0.000D+00 0.000D+00 0.000D+00 0.100D+01
 Coeff:     -0.431D+01 0.576D+01-0.294D+01 0.325D+01-0.441D+01 0.365D+01
 Gap=     0.374 Goal=   None    Shift=    0.000
 Gap=     1.787 Goal=   None    Shift=    0.000
 RMSDP=5.54D-03 MaxDP=5.74D-02 DE=-7.04D-04 OVMax= 0.00D+00

 Cycle   7  Pass 1  IDiag  1:
 E= -839.848579334909     Delta-E=       -0.000697109242 Rises=F Damp=F
 DIIS: error= 8.30D-04 at cycle   7 NSaved=   7.
 NSaved= 7 IEnMin= 7 EnMin= -839.848579334909     IErMin= 7 ErrMin= 8.30D-04
 ErrMax= 8.30D-04  0.00D+00 EMaxC= 1.00D-01 BMatC= 2.60D-05 BMatP= 6.82D-05
 IDIUse=3 WtCom= 9.92D-01 WtEn= 8.30D-03
 Coeff-Com:  0.763D+00-0.102D+01 0.511D+00-0.562D+00 0.128D+01-0.276D+01
 Coeff-Com:  0.278D+01
 Coeff-En:   0.000D+00 0.000D+00 0.000D+00 0.000D+00 0.000D+00 0.000D+00
 Coeff-En:   0.100D+01
 Coeff:      0.757D+00-0.101D+01 0.507D+00-0.558D+00 0.127D+01-0.273D+01
 Coeff:      0.277D+01
 Gap=     0.376 Goal=   None    Shift=    0.000
 Gap=     1.800 Goal=   None    Shift=    0.000
 RMSDP=7.07D-03 MaxDP=7.70D-02 DE=-6.97D-04 OVMax= 0.00D+00

 Cycle   8  Pass 1  IDiag  1:
 E= -839.848937305973     Delta-E=       -0.000357971063 Rises=F Damp=F
 DIIS: error= 1.87D-04 at cycle   8 NSaved=   8.
 NSaved= 8 IEnMin= 8 EnMin= -839.848937305973     IErMin= 8 ErrMin= 1.87D-04
 ErrMax= 1.87D-04  0.00D+00 EMaxC= 1.00D-01 BMatC= 3.97D-06 BMatP= 2.60D-05
 IDIUse=3 WtCom= 9.98D-01 WtEn= 1.87D-03
 Coeff-Com: -0.192D+00 0.255D+00-0.111D+00-0.772D-01 0.700D+00-0.132D+01
 Coeff-Com:  0.106D+01 0.685D+00
 Coeff-En:   0.000D+00 0.000D+00 0.000D+00 0.000D+00 0.000D+00 0.000D+00
 Coeff-En:   0.000D+00 0.100D+01
 Coeff:     -0.192D+00 0.254D+00-0.111D+00-0.771D-01 0.698D+00-0.132D+01
 Coeff:      0.106D+01 0.686D+00
 Gap=     0.377 Goal=   None    Shift=    0.000
 Gap=     1.800 Goal=   None    Shift=    0.000
 RMSDP=3.64D-04 MaxDP=3.83D-03 DE=-3.58D-04 OVMax= 0.00D+00

 Cycle   9  Pass 1  IDiag  1:
 E= -839.848940614797     Delta-E=       -0.000003308825 Rises=F Damp=F
 DIIS: error= 8.44D-05 at cycle   9 NSaved=   9.
 NSaved= 9 IEnMin= 9 EnMin= -839.848940614797     IErMin= 9 ErrMin= 8.44D-05
 ErrMax= 8.44D-05  0.00D+00 EMaxC= 1.00D-01 BMatC= 6.56D-07 BMatP= 3.97D-06
 IDIUse=1 WtCom= 1.00D+00 WtEn= 0.00D+00
 Coeff-Com:  0.122D+00-0.162D+00 0.789D-01-0.229D-01-0.844D-01 0.156D+00
 Coeff-Com: -0.140D+00-0.728D+00 0.178D+01
 Coeff:      0.122D+00-0.162D+00 0.789D-01-0.229D-01-0.844D-01 0.156D+00
 Coeff:     -0.140D+00-0.728D+00 0.178D+01
 Gap=     0.374 Goal=   None    Shift=    0.000
 Gap=     1.801 Goal=   None    Shift=    0.000
 RMSDP=3.25D-04 MaxDP=3.28D-03 DE=-3.31D-06 OVMax= 0.00D+00

 Cycle  10  Pass 1  IDiag  1:
 E= -839.848941592574     Delta-E=       -0.000000977777 Rises=F Damp=F
 DIIS: error= 8.40D-06 at cycle  10 NSaved=  10.
 NSaved=10 IEnMin=10 EnMin= -839.848941592574     IErMin=10 ErrMin= 8.40D-06
 ErrMax= 8.40D-06  0.00D+00 EMaxC= 1.00D-01 BMatC= 9.20D-09 BMatP= 6.56D-07
 IDIUse=1 WtCom= 1.00D+00 WtEn= 0.00D+00
 Coeff-Com: -0.118D-01 0.157D-01-0.720D-02-0.626D-02 0.281D-01-0.303D-01
 Coeff-Com:  0.111D-01 0.174D+00-0.293D+00 0.112D+01
 Coeff:     -0.118D-01 0.157D-01-0.720D-02-0.626D-02 0.281D-01-0.303D-01
 Coeff:      0.111D-01 0.174D+00-0.293D+00 0.112D+01
 Gap=     0.375 Goal=   None    Shift=    0.000
 Gap=     1.801 Goal=   None    Shift=    0.000
 RMSDP=2.22D-05 MaxDP=2.45D-04 DE=-9.78D-07 OVMax= 0.00D+00

 Cycle  11  Pass 1  IDiag  1:
 E= -839.848941599777     Delta-E=       -0.000000007203 Rises=F Damp=F
 DIIS: error= 2.89D-06 at cycle  11 NSaved=  11.
 NSaved=11 IEnMin=11 EnMin= -839.848941599777     IErMin=11 ErrMin= 2.89D-06
 ErrMax= 2.89D-06  0.00D+00 EMaxC= 1.00D-01 BMatC= 9.07D-10 BMatP= 9.20D-09
 IDIUse=1 WtCom= 1.00D+00 WtEn= 0.00D+00
 Coeff-Com: -0.193D-02 0.258D-02-0.143D-02 0.226D-02-0.275D-02-0.294D-02
 Coeff-Com:  0.901D-02-0.138D-01-0.161D-01-0.573D-01 0.108D+01
 Coeff:     -0.193D-02 0.258D-02-0.143D-02 0.226D-02-0.275D-02-0.294D-02
 Coeff:      0.901D-02-0.138D-01-0.161D-01-0.573D-01 0.108D+01
 Gap=     0.375 Goal=   None    Shift=    0.000
 Gap=     1.801 Goal=   None    Shift=    0.000
 RMSDP=2.37D-06 MaxDP=1.92D-05 DE=-7.20D-09 OVMax= 0.00D+00

 Cycle  12  Pass 1  IDiag  1:
 E= -839.848941600109     Delta-E=       -0.000000000331 Rises=F Damp=F
 DIIS: error= 4.49D-07 at cycle  12 NSaved=  12.
 NSaved=12 IEnMin=12 EnMin= -839.848941600109     IErMin=12 ErrMin= 4.49D-07
 ErrMax= 4.49D-07  0.00D+00 EMaxC= 1.00D-01 BMatC= 2.08D-11 BMatP= 9.07D-10
 IDIUse=1 WtCom= 1.00D+00 WtEn= 0.00D+00
 Coeff-Com: -0.175D-03 0.234D-03-0.886D-04-0.173D-03 0.571D-03-0.242D-03
 Coeff-Com: -0.625D-03 0.273D-02-0.491D-03 0.175D-01-0.290D+00 0.127D+01
 Coeff:     -0.175D-03 0.234D-03-0.886D-04-0.173D-03 0.571D-03-0.242D-03
 Coeff:     -0.625D-03 0.273D-02-0.491D-03 0.175D-01-0.290D+00 0.127D+01
 Gap=     0.375 Goal=   None    Shift=    0.000
 Gap=     1.801 Goal=   None    Shift=    0.000
 RMSDP=1.17D-06 MaxDP=1.23D-05 DE=-3.31D-10 OVMax= 0.00D+00

 Cycle  13  Pass 1  IDiag  1:
 E= -839.848941600124     Delta-E=       -0.000000000015 Rises=F Damp=F
 DIIS: error= 2.28D-08 at cycle  13 NSaved=  13.
 NSaved=13 IEnMin=13 EnMin= -839.848941600124     IErMin=13 ErrMin= 2.28D-08
 ErrMax= 2.28D-08  0.00D+00 EMaxC= 1.00D-01 BMatC= 3.67D-14 BMatP= 2.08D-11
 IDIUse=1 WtCom= 1.00D+00 WtEn= 0.00D+00
 Coeff-Com: -0.676D-05 0.886D-05-0.995D-05 0.425D-04-0.907D-04 0.543D-05
 Coeff-Com:  0.164D-03-0.266D-03-0.435D-03-0.168D-02 0.548D-01-0.269D+00
 Coeff-Com:  0.122D+01
 Coeff:     -0.676D-05 0.886D-05-0.995D-05 0.425D-04-0.907D-04 0.543D-05
 Coeff:      0.164D-03-0.266D-03-0.435D-03-0.168D-02 0.548D-01-0.269D+00
 Coeff:      0.122D+01
 Gap=     0.375 Goal=   None    Shift=    0.000
 Gap=     1.801 Goal=   None    Shift=    0.000
 RMSDP=2.29D-08 MaxDP=2.56D-07 DE=-1.50D-11 OVMax= 0.00D+00

 Cycle  14  Pass 1  IDiag  1:
 E= -839.848941600124     Delta-E=        0.000000000000 Rises=F Damp=F
 DIIS: error= 2.49D-09 at cycle  14 NSaved=  14.
 NSaved=14 IEnMin=13 EnMin= -839.848941600124     IErMin=14 ErrMin= 2.49D-09
 ErrMax= 2.49D-09  0.00D+00 EMaxC= 1.00D-01 BMatC= 4.88D-16 BMatP= 3.67D-14
 IDIUse=1 WtCom= 1.00D+00 WtEn= 0.00D+00
 Coeff-Com: -0.301D-06 0.440D-06 0.117D-05-0.887D-05 0.216D-04-0.426D-05
 Coeff-Com: -0.371D-04 0.571D-04 0.103D-03 0.370D-03-0.135D-01 0.669D-01
 Coeff-Com: -0.369D+00 0.132D+01
 Coeff:     -0.301D-06 0.440D-06 0.117D-05-0.887D-05 0.216D-04-0.426D-05
 Coeff:     -0.371D-04 0.571D-04 0.103D-03 0.370D-03-0.135D-01 0.669D-01
 Coeff:     -0.369D+00 0.132D+01
 Gap=     0.375 Goal=   None    Shift=    0.000
 Gap=     1.801 Goal=   None    Shift=    0.000
 RMSDP=1.21D-08 MaxDP=1.26D-07 DE= 2.27D-13 OVMax= 0.00D+00

 Cycle  15  Pass 1  IDiag  1:
 E= -839.848941600124     Delta-E=        0.000000000000 Rises=F Damp=F
 DIIS: error= 2.25D-10 at cycle  15 NSaved=  15.
 NSaved=15 IEnMin=13 EnMin= -839.848941600124     IErMin=15 ErrMin= 2.25D-10
 ErrMax= 2.25D-10  0.00D+00 EMaxC= 1.00D-01 BMatC= 4.41D-18 BMatP= 4.88D-16
 IDIUse=1 WtCom= 1.00D+00 WtEn= 0.00D+00
 Coeff-Com: -0.181D-06 0.240D-06-0.181D-06 0.313D-06-0.755D-06 0.406D-06
 Coeff-Com:  0.142D-05 0.577D-06-0.723D-05-0.224D-05 0.560D-03-0.273D-02
 Coeff-Com:  0.267D-01-0.205D+00 0.118D+01
 Coeff:     -0.181D-06 0.240D-06-0.181D-06 0.313D-06-0.755D-06 0.406D-06
 Coeff:      0.142D-05 0.577D-06-0.723D-05-0.224D-05 0.560D-03-0.273D-02
 Coeff:      0.267D-01-0.205D+00 0.118D+01
 Gap=     0.375 Goal=   None    Shift=    0.000
 Gap=     1.801 Goal=   None    Shift=    0.000
 RMSDP=1.34D-09 MaxDP=1.46D-08 DE= 0.00D+00 OVMax= 0.00D+00

 SCF Done:  E(UHF) =  -839.848941600     A.U. after   15 cycles
            NFock= 15  Conv=0.13D-08     -V/T= 2.0034
 <Sx>= 0.0000 <Sy>= 0.0000 <Sz>= 2.5000 <S**2>= 8.7523 S= 2.5004
 <L.S>= 0.000000000000E+00
 KE= 8.369876959671D+02 PE=-2.004305844159D+03 EE= 3.191535647062D+02
 Annihilation of the first spin contaminant:
 S**2 before annihilation     8.7523,   after     8.7500
 Leave Link  502 at Mon Mar 28 12:45:41 2022, MaxMem=  9663676416 cpu:               5.9 elap:               0.2
 (Enter /nopt/nrel/apps/gaussian/g16C_1/g16/l801.exe)
 Windowed orbitals will be sorted by symmetry type.
 ExpMin= 1.16D-01 ExpMax= 1.03D+03 ExpMxC= 1.03D+03 IAcc=3 IRadAn=         5 AccDes= 0.00D+00
 HarFok:  IExCor=  205 AccDes= 0.00D+00 IRadAn=         5 IDoV=-2 UseB2=F ITyADJ=14
 ICtDFT= 12500011 ScaDFX=  1.000000  1.000000  1.000000  1.000000
 Largest valence mixing into a core orbital is  3.70D-03
 Largest core mixing into a valence orbital is  3.60D-03
 Range of M.O.s used for correlation:    10    19
 NBasis=    19 NAE=    14 NBE=     9 NFC=     9 NFV=     0
 NROrb=     10 NOA=     5 NOB=     0 NVA=     5 NVB=    10
 Leave Link  801 at Mon Mar 28 12:45:41 2022, MaxMem=  9663676416 cpu:               1.5 elap:               0.1
 (Enter /nopt/nrel/apps/gaussian/g16C_1/g16/l804.exe)
 Open-shell transformation, MDV=  9663676416 ITran=4 ISComp=2.
 Unit  1 TFree=         25012 TCopy=        222819.
 Semi-Direct transformation.
 ModeAB=           2 MOrb=             5 LenV=    9663501346
 LASXX=          328 LTotXX=         328 LenRXX=         328
 LTotAB=         596 MaxLAS=       10500 LenRXY=       10500
 NonZer=       12150 LenScr=      785920 LnRSAI=           0
 LnScr1=           0 LExtra=      223847 Total=      1020595
 MaxDsk= 34359738368 SrtSym=           F ITran=            4
 DoSDTr:  NPSUse= 36
 JobTyp=1 Pass  1:  I=   1 to   5.
 (rs|ai) integrals will be sorted in core.
 Complete sort for first half transformation.
 First half transformation complete.
 Complete sort for second half transformation.
 Second half transformation complete.
 Spin components of T(2) and E(2):
     alpha-alpha T2 =       0.1847156559D-02 E2=     -0.1681155051D-02
     alpha-beta  T2 =       0.0000000000D+00 E2=      0.0000000000D+00
     beta-beta   T2 =       0.0000000000D+00 E2=      0.0000000000D+00
 ANorm=    0.1000923152D+01
 E2 =    -0.1681155051D-02 EUMP2 =    -0.83985062275517D+03
 Leave Link  804 at Mon Mar 28 12:45:41 2022, MaxMem=  9663676416 cpu:               2.5 elap:               0.1
 (Enter /nopt/nrel/apps/gaussian/g16C_1/g16/l913.exe)
 CIDS:  MDV=  9663676416.
 Frozen-core window:  NFC=   9 NFV=   0.
 IFCWin=0 IBDFC=1 NFBD=     0     0 NFCmp=     0     0 NFFFC=     0     0
 Using original routines for 1st iteration.
 Using DD4UQ or CC4UQ for 2nd and later iterations.
 Keep R2 and R3 ints in memory in symmetry-blocked form, NReq=7415832.
 FoFCou: FMM=F IPFlag=           0 FMFlag=           0 FMFlg1=           0
         NFxFlg=           0 DoJE=F BraDBF=F KetDBF=F FulRan=T
         wScrn=  0.000000 ICntrl=       600 IOpCl=  0 I1Cent=           0 NGrid=           0
         NMat0=    1 NMatS0=    190 NMatT0=    0 NMatD0=    1 NMtDS0=    0 NMtDT0=    0
 Petite list used in FoFCou.
 CIDS: In Core Option IDoMem=           1.
 Coupled Cluster theory with single and double substitutions
 ===========================================================
 Iterations= 300 Convergence= 0.100D-06
 Produce multiple copies of IABC intergrals
 Iteration Nr.   1
 **********************
 DD1Dir will call FoFMem   1 times, MxPair=        10
 NAB=     0 NAA=    10 NBB=     0.
 MP4(R+Q)=  0.30133042D-05
 Maximum subspace dimension=  5
 A-vector RMS=  3.6422706D-03 Max=  1.7517662D-02 conv= 1.00D-05.
 RLE energy=       -0.0060878354
 E3=       -0.12199274D-02        EUMP3=      -0.83985184268D+03
 E4(DQ)=   -0.94225001D-03        UMP4(DQ)=   -0.83985278493D+03
 E4(SDQ)=  -0.94392518D-03        UMP4(SDQ)=  -0.83985278661D+03
 VARIATIONAL ENERGIES WITH THE FIRST-ORDER WAVEFUNCTION:
 DE(Corr)= -0.28980593E-02 E(Corr)=     -839.85183966    
 NORM(A)=   0.10134334D+01
 Iteration Nr.   2
 **********************
 DD1Dir will call FoFMem   1 times, MxPair=        10
 NAB=     0 NAA=    10 NBB=     0.
 A-vector RMS=  2.3094906D-03 Max=  1.1946068D-02 conv= 1.00D-05.
 RLE energy=       -0.0086164222
 DE(Corr)= -0.62791918E-02 E(CORR)=     -839.85522079     Delta=-3.38D-03
 NORM(A)=   0.10342940D+01
 Iteration Nr.   3
 **********************
 DD1Dir will call FoFMem   1 times, MxPair=        10
 NAB=     0 NAA=    10 NBB=     0.
 A-vector RMS=  2.1373451D-03 Max=  6.8225683D-03 conv= 1.00D-05.
 RLE energy=       -0.0117412781
 DE(Corr)= -0.86537883E-02 E(CORR)=     -839.85759539     Delta=-2.37D-03
 NORM(A)=   0.10841761D+01
 Iteration Nr.   4
 **********************
 DD1Dir will call FoFMem   1 times, MxPair=        10
 NAB=     0 NAA=    10 NBB=     0.
 A-vector RMS=  2.3834224D-03 Max=  5.8495054D-03 conv= 1.00D-05.
 RLE energy=       -0.0099793331
 DE(Corr)= -0.11585200E-01 E(CORR)=     -839.86052680     Delta=-2.93D-03
 NORM(A)=   0.10669292D+01
 Iteration Nr.   5
 **********************
 DD1Dir will call FoFMem   1 times, MxPair=        10
 NAB=     0 NAA=    10 NBB=     0.
 A-vector RMS=  1.8015627D-03 Max=  4.1085625D-03 conv= 1.00D-05.
 RLE energy=        0.0135894135
 DE(Corr)= -0.10169699E-01 E(CORR)=     -839.85911130     Delta= 1.42D-03
 NORM(A)=   0.12537133D+01
 Iteration Nr.   6
 **********************
 DD1Dir will call FoFMem   1 times, MxPair=        10
 NAB=     0 NAA=    10 NBB=     0.
 A-vector RMS=  9.1685086D-03 Max=  3.4714537D-02 conv= 1.00D-05.
 RLE energy=       -0.0016849343
 DE(Corr)=  0.11505908E-01 E(CORR)=     -839.83743569     Delta= 2.17D-02
 NORM(A)=   0.10464168D+01
 Iteration Nr.   7
 **********************
 DD1Dir will call FoFMem   1 times, MxPair=        10
 NAB=     0 NAA=    10 NBB=     0.
 A-vector RMS=  3.8996634D-03 Max=  1.4992598D-02 conv= 1.00D-05.
 RLE energy=       -0.0085673879
 DE(Corr)= -0.22035362E-02 E(CORR)=     -839.85114514     Delta=-1.37D-02
 NORM(A)=   0.10437571D+01
 Iteration Nr.   8
 **********************
 DD1Dir will call FoFMem   1 times, MxPair=        10
 NAB=     0 NAA=    10 NBB=     0.
 A-vector RMS=  1.2473921D-03 Max=  5.9801661D-03 conv= 1.00D-05.
 RLE energy=       -0.0112938313
 DE(Corr)= -0.88171655E-02 E(CORR)=     -839.85775877     Delta=-6.61D-03
 NORM(A)=   0.11086841D+01
 Iteration Nr.   9
 **********************
 DD1Dir will call FoFMem   1 times, MxPair=        10
 NAB=     0 NAA=    10 NBB=     0.
 A-vector RMS=  6.7184013D-04 Max=  4.1181461D-03 conv= 1.00D-05.
 RLE energy=       -0.0125309191
 DE(Corr)= -0.11372174E-01 E(CORR)=     -839.86031377     Delta=-2.56D-03
 NORM(A)=   0.11342358D+01
 Iteration Nr.  10
 **********************
 DD1Dir will call FoFMem   1 times, MxPair=        10
 NAB=     0 NAA=    10 NBB=     0.
 A-vector RMS=  5.6100160D-04 Max=  1.2246294D-03 conv= 1.00D-05.
 RLE energy=       -0.0115983927
 DE(Corr)= -0.12516303E-01 E(CORR)=     -839.86145790     Delta=-1.14D-03
 NORM(A)=   0.11115811D+01
 Iteration Nr.  11
 **********************
 DD1Dir will call FoFMem   1 times, MxPair=        10
 NAB=     0 NAA=    10 NBB=     0.
 A-vector RMS=  4.4820114D-04 Max=  1.5673001D-03 conv= 1.00D-05.
 RLE energy=       -0.0136342535
 DE(Corr)= -0.11652509E-01 E(CORR)=     -839.86059411     Delta= 8.64D-04
 NORM(A)=   0.11893286D+01
 Iteration Nr.  12
 **********************
 DD1Dir will call FoFMem   1 times, MxPair=        10
 NAB=     0 NAA=    10 NBB=     0.
 A-vector RMS=  8.6316463D-04 Max=  2.7937587D-03 conv= 1.00D-05.
 RLE energy=       -0.0118046927
 DE(Corr)= -0.13555802E-01 E(CORR)=     -839.86249740     Delta=-1.90D-03
 NORM(A)=   0.11154135D+01
 Iteration Nr.  13
 **********************
 DD1Dir will call FoFMem   1 times, MxPair=        10
 NAB=     0 NAA=    10 NBB=     0.
 A-vector RMS=  3.4545705D-04 Max=  1.0604938D-03 conv= 1.00D-05.
 RLE energy=       -0.0123979237
 DE(Corr)= -0.11842011E-01 E(CORR)=     -839.86078361     Delta= 1.71D-03
 NORM(A)=   0.11371176D+01
 Iteration Nr.  14
 **********************
 DD1Dir will call FoFMem   1 times, MxPair=        10
 NAB=     0 NAA=    10 NBB=     0.
 A-vector RMS=  1.1036501D-04 Max=  2.4208582D-04 conv= 1.00D-05.
 RLE energy=       -0.0124535465
 DE(Corr)= -0.12400320E-01 E(CORR)=     -839.86134192     Delta=-5.58D-04
 NORM(A)=   0.11393767D+01
 Iteration Nr.  15
 **********************
 DD1Dir will call FoFMem   1 times, MxPair=        10
 NAB=     0 NAA=    10 NBB=     0.
 A-vector RMS=  1.0689590D-04 Max=  2.9882339D-04 conv= 1.00D-05.
 RLE energy=       -0.0123773094
 DE(Corr)= -0.12452186E-01 E(CORR)=     -839.86139379     Delta=-5.19D-05
 NORM(A)=   0.11362022D+01
 Iteration Nr.  16
 **********************
 DD1Dir will call FoFMem   1 times, MxPair=        10
 NAB=     0 NAA=    10 NBB=     0.
 A-vector RMS=  7.3476264D-05 Max=  1.8119285D-04 conv= 1.00D-05.
 RLE energy=       -0.0124279969
 DE(Corr)= -0.12381949E-01 E(CORR)=     -839.86132355     Delta= 7.02D-05
 NORM(A)=   0.11381759D+01
 Iteration Nr.  17
 **********************
 DD1Dir will call FoFMem   1 times, MxPair=        10
 NAB=     0 NAA=    10 NBB=     0.
 A-vector RMS=  6.2708820D-05 Max=  1.8295153D-04 conv= 1.00D-05.
 RLE energy=       -0.0124296924
 DE(Corr)= -0.12430081E-01 E(CORR)=     -839.86137168     Delta=-4.81D-05
 NORM(A)=   0.11380671D+01
 Iteration Nr.  18
 **********************
 DD1Dir will call FoFMem   1 times, MxPair=        10
 NAB=     0 NAA=    10 NBB=     0.
 A-vector RMS=  2.4659925D-05 Max=  7.4911698D-05 conv= 1.00D-05.
 RLE energy=       -0.0124290822
 DE(Corr)= -0.12429690E-01 E(CORR)=     -839.86137129     Delta= 3.91D-07
 NORM(A)=   0.11380802D+01
 Iteration Nr.  19
 **********************
 DD1Dir will call FoFMem   1 times, MxPair=        10
 NAB=     0 NAA=    10 NBB=     0.
 A-vector RMS=  1.8693260D-05 Max=  5.2019075D-05 conv= 1.00D-05.
 RLE energy=       -0.0124319222
 DE(Corr)= -0.12429247E-01 E(CORR)=     -839.86137085     Delta= 4.43D-07
 NORM(A)=   0.11381692D+01
 Iteration Nr.  20
 **********************
 DD1Dir will call FoFMem   1 times, MxPair=        10
 NAB=     0 NAA=    10 NBB=     0.
 A-vector RMS=  9.8721276D-06 Max=  2.1814054D-05 conv= 1.00D-05.
 RLE energy=       -0.0124287638
 DE(Corr)= -0.12432044E-01 E(CORR)=     -839.86137364     Delta=-2.80D-06
 NORM(A)=   0.11380401D+01
 Iteration Nr.  21
 **********************
 DD1Dir will call FoFMem   1 times, MxPair=        10
 NAB=     0 NAA=    10 NBB=     0.
 A-vector RMS=  6.8560050D-06 Max=  1.5336803D-05 conv= 1.00D-05.
 RLE energy=       -0.0124324251
 DE(Corr)= -0.12429107E-01 E(CORR)=     -839.86137071     Delta= 2.94D-06
 NORM(A)=   0.11381094D+01
 Iteration Nr.  22
 **********************
 DD1Dir will call FoFMem   1 times, MxPair=        10
 NAB=     0 NAA=    10 NBB=     0.
 A-vector RMS=  3.1747018D-06 Max=  8.3181156D-06 conv= 1.00D-05.
 RLE energy=       -0.0124289604
 DE(Corr)= -0.12431986E-01 E(CORR)=     -839.86137359     Delta=-2.88D-06
 NORM(A)=   0.11380313D+01
 Iteration Nr.  23
 **********************
 DD1Dir will call FoFMem   1 times, MxPair=        10
 NAB=     0 NAA=    10 NBB=     0.
 A-vector RMS=  2.0390544D-06 Max=  4.6264130D-06 conv= 1.00D-05.
 RLE energy=       -0.0124378018
 DE(Corr)= -0.12428925E-01 E(CORR)=     -839.86137052     Delta= 3.06D-06
 NORM(A)=   0.11383005D+01
 Iteration Nr.  24
 **********************
 DD1Dir will call FoFMem   1 times, MxPair=        10
 NAB=     0 NAA=    10 NBB=     0.
 A-vector RMS=  4.8444028D-06 Max=  1.4375835D-05 conv= 1.00D-05.
 RLE energy=       -0.0124299304
 DE(Corr)= -0.12436722E-01 E(CORR)=     -839.86137832     Delta=-7.80D-06
 NORM(A)=   0.11380917D+01
 Iteration Nr.  25
 **********************
 DD1Dir will call FoFMem   1 times, MxPair=        10
 NAB=     0 NAA=    10 NBB=     0.
 A-vector RMS=  6.9050580D-07 Max=  1.9938653D-06 conv= 1.00D-05.
 RLE energy=       -0.0124296900
 DE(Corr)= -0.12429858E-01 E(CORR)=     -839.86137146     Delta= 6.86D-06
 NORM(A)=   0.11380861D+01
 Iteration Nr.  26
 **********************
 DD1Dir will call FoFMem   1 times, MxPair=        10
 NAB=     0 NAA=    10 NBB=     0.
 A-vector RMS=  4.2525512D-07 Max=  1.1106055D-06 conv= 1.00D-05.
 RLE energy=       -0.0124297287
 DE(Corr)= -0.12429678E-01 E(CORR)=     -839.86137128     Delta= 1.81D-07
 NORM(A)=   0.11380885D+01
 Iteration Nr.  27
 **********************
 DD1Dir will call FoFMem   1 times, MxPair=        10
 NAB=     0 NAA=    10 NBB=     0.
 A-vector RMS=  2.9040750D-07 Max=  7.5321632D-07 conv= 1.00D-05.
 RLE energy=       -0.0124298635
 DE(Corr)= -0.12429726E-01 E(CORR)=     -839.86137133     Delta=-4.87D-08
 NORM(A)=   0.11380941D+01
 CI/CC converged in   27 iterations to DelEn=-4.87D-08 Conv= 1.00D-07 ErrA1= 2.90D-07 Conv= 1.00D-05
 Wavefunction amplitudes converged. E(Corr)=     -839.86137133    
 Dominant configurations:
 ***********************
 Spin Case        I    J    A    B          Value
   AAAA          13   14   15   16      -0.222922D+00
   AAAA          12   14   17   15       0.300246D+00
   AAAA          12   14   18   15       0.155711D+00
   AAAA          12   13   17   16       0.300246D+00
   AAAA          12   13   18   16      -0.155711D+00
 Largest amplitude= 3.00D-01
 Discarding MO integrals.
 Leave Link  913 at Mon Mar 28 12:45:42 2022, MaxMem=  9663676416 cpu:               7.3 elap:               0.2
 (Enter /nopt/nrel/apps/gaussian/g16C_1/g16/l601.exe)
 Copying SCF densities to generalized density rwf, IOpCl= 1 IROHF=0.

 **********************************************************************

            Population analysis using the SCF Density.

 **********************************************************************

 Orbital symmetries:
 Alpha Orbitals:
       Occupied  (SG) (SG) (SG) (PI) (PI) (SG) (SG) (PI) (PI) (SG)
                 (SG) (DLTA) (PI) (PI)
       Virtual   (PI) (PI) (SG) (DLTA) (SG)
 Beta  Orbitals:
       Occupied  (SG) (SG) (SG) (PI) (PI) (SG) (SG) (PI) (PI)
       Virtual   (SG) (SG) (SG) (PI) (PI) (PI) (PI) (DLTA) (DLTA)
                 (SG)
 Unable to determine electronic state:  partially filled degenerate orbitals.
 Alpha  occ. eigenvalues -- -181.44072 -21.20565 -17.79026 -17.78787 -17.78787
 Alpha  occ. eigenvalues --   -2.86996  -1.84680  -1.81302  -1.81302  -0.56423
 Alpha  occ. eigenvalues --   -0.16028  -0.07776  -0.06966  -0.06966
 Alpha virt. eigenvalues --    0.30500   0.30500   0.30674   0.40717   0.85822
  Beta  occ. eigenvalues -- -181.43310 -21.19084 -17.77915 -17.77741 -17.77741
  Beta  occ. eigenvalues --   -2.74263  -1.69316  -1.66028  -1.66028
  Beta virt. eigenvalues --    0.14044   0.28493   0.43425   0.43442   0.43442
  Beta virt. eigenvalues --    0.50249   0.50249   0.50649   0.53327   1.08273
          Condensed to atoms (all electrons):
               1          2
     1  H    0.713480   0.058857
     2  Ti   0.058857  22.168807
          Atomic-Atomic Spin Densities.
               1          2
     1  H    0.712058   0.045184
     2  Ti   0.045184   4.197575
 Mulliken charges and spin densities:
               1          2
     1  H    0.227663   0.757242
     2  Ti  -0.227663   4.242758
 Sum of Mulliken charges =  -0.00000   5.00000
 Mulliken charges and spin densities with hydrogens summed into heavy atoms:
               1          2
     2  Ti  -0.000000   5.000000
 N-N= 8.315641885886D+00 E-N=-2.004305844213D+03  KE= 8.369876959671D+02
 Symmetry A1   KE= 6.586190607324D+02
 Symmetry A2   KE= 1.800435099804D+00
 Symmetry B1   KE= 8.828410006744D+01
 Symmetry B2   KE= 8.828410006744D+01
 Symmetry A1   SP= 2.000000000000D+00
 Symmetry A2   SP= 1.000000000000D+00
 Symmetry B1   SP= 1.000000000000D+00
 Symmetry B2   SP= 1.000000000000D+00

 Atomic contributions to Alpha molecular orbitals:
 Alpha occ 1 OE=-181.441 is Ti2-s=1.0000
 Alpha occ 2 OE=-21.206 is Ti2-s=0.9998
 Alpha occ 3 OE=-17.790 is Ti2-p=0.9999
 Alpha occ 4 OE=-17.788 is Ti2-p=1.0000
 Alpha occ 5 OE=-17.788 is Ti2-p=1.0000
 Alpha occ 6 OE=-2.870 is Ti2-s=0.9965
 Alpha occ 7 OE=-1.847 is Ti2-p=0.9853
 Alpha occ 8 OE=-1.813 is Ti2-p=0.9999
 Alpha occ 9 OE=-1.813 is Ti2-p=0.9999
 Alpha occ 10 OE=-0.564 is H1-s=0.7254 Ti2-s=0.1101
 Alpha occ 11 OE=-0.160 is Ti2-s=0.8060
 Alpha occ 12 OE=-0.078 is Ti2-d=1.0000
 Alpha occ 13 OE=-0.070 is Ti2-d=0.6704 Ti2-p=0.3296
 Alpha occ 14 OE=-0.070 is Ti2-d=0.6704 Ti2-p=0.3296
 Alpha vir 15 OE=0.305 is Ti2-p=0.6705 Ti2-d=0.3295
 Alpha vir 16 OE=0.305 is Ti2-p=0.6705 Ti2-d=0.3295
 Alpha vir 17 OE=0.307 is Ti2-p=0.5453 Ti2-d=0.4664
 Alpha vir 18 OE=0.407 is Ti2-d=1.0000
 Alpha vir 19 OE=0.858 is Ti2-d=0.3585 Ti2-p=0.3079 H1-s=0.2463

 Atomic contributions to Beta  molecular orbitals:
 Beta  occ 1 OE=-181.433 is Ti2-s=1.0000
 Beta  occ 2 OE=-21.191 is Ti2-s=0.9998
 Beta  occ 3 OE=-17.779 is Ti2-p=0.9999
 Beta  occ 4 OE=-17.777 is Ti2-p=1.0000
 Beta  occ 5 OE=-17.777 is Ti2-p=1.0000
 Beta  occ 6 OE=-2.743 is Ti2-s=0.9967
 Beta  occ 7 OE=-1.693 is Ti2-p=0.9948
 Beta  occ 8 OE=-1.660 is Ti2-p=1.0000
 Beta  occ 9 OE=-1.660 is Ti2-p=1.0000
 Beta  vir 10 OE=0.140 is Ti2-s=0.4832 H1-s=0.4140
 Beta  vir 11 OE=0.285 is Ti2-p=0.3940 Ti2-s=0.3745 H1-s=0.1717
 Beta  vir 12 OE=0.434 is Ti2-d=0.6159 Ti2-p=0.3294
 Beta  vir 13 OE=0.434 is Ti2-p=0.8178 Ti2-d=0.1822
 Beta  vir 14 OE=0.434 is Ti2-p=0.8178 Ti2-d=0.1822
 Beta  vir 15 OE=0.502 is Ti2-d=0.8178 Ti2-p=0.1822
 Beta  vir 16 OE=0.502 is Ti2-d=0.8178 Ti2-p=0.1822
 Beta  vir 17 OE=0.506 is Ti2-d=1.0000
 Beta  vir 18 OE=0.533 is Ti2-d=1.0000
 Beta  vir 19 OE=1.083 is H1-s=0.4159 Ti2-p=0.2690 Ti2-d=0.2339
 
 Leave Link  601 at Mon Mar 28 12:45:42 2022, MaxMem=  9663676416 cpu:               2.3 elap:               0.1
 (Enter /nopt/nrel/apps/gaussian/g16C_1/g16/l9999.exe)

 Test job not archived.
 1\1\GINC-R3I7N35\SP\UCCSD-FC\Gen\H1Ti1(6)\USER\28-Mar-2022\0\\#P C
 CSD(MaxCyc=300,SaveAmplitudes,ReadAmplitudes)/GEN sp pop=AllOrbitals i
 op(3/33=1,3/36=-1)\\test\\0,6\H,0,0.,0.,0.\Ti,0,0.,0.,1.4\\Version=ES6
 4L-G16RevC.01\HF=-839.8489416\MP2=-839.8506228\MP3=-839.8518427\MP4D=-
 839.8527879\MP4DQ=-839.8527849\MP4SDQ=-839.8527866\CCSD=-839.8613713\S
 2=8.752259\S2-1=0.\S2A=8.750001\RMSD=1.342e-09\PG=C*V [C*(H1Ti1)]\\@


 WE HAVE SEEN THAT MAN ON THE AVERAGE DOES NOT LIVE ABOVE
 TWO-AND-TWENTY YEARS.  DURING THESE TWO AND TWENTY
 YEARS HE IS LIABLE TO TWO AND TWENTY THOUSAND EVILS,
 MANY OF WHICH ARE INCURABLE.  YET EVEN IN THIS DREADFUL STATE
 MEN STILL STRUT AND POSE ON THE STAGE OF LIFE.
 THEY MAKE LOVE AT THE RISK OF DESTRUCTION,
 INTRIGUE, CARRY ON WAR, AND FORM PROJECTS, JUST AS IF THEY
 WERE TO LIVE IN LUXURY AND HAPPINESS FOR A THOUSAND
 AGES.

                                              -- VOLTAIRE
 Job cpu time:       0 days  0 hours  0 minutes 39.8 seconds.
 Elapsed time:       0 days  0 hours  0 minutes  1.5 seconds.
 File lengths (MBytes):  RWF=     13 Int=      0 D2E=      0 Chk=      1 Scr=      1
 Normal termination of Gaussian 16 at Mon Mar 28 12:45:42 2022.
